----- GAMESS execution script 'rungms' -----
This job is running on host io002
under operating system Linux at Sat 09 Dec 2023 01:29:48 AM EST
Available scratch disk space (Kbyte units) at beginning of the job is
Filesystem             1K-blocks       Used Available Use% Mounted on
helmholtz.nlogn:/home 6391504896 5236357120 833008640  87% /home
GAMESS temporary binary files will be written to /home/bjb2chen/gmsscr/
GAMESS supplementary output files will be written to /home/bjb2chen/gamess/vibronics/ash3/relwfn
Copying input file AsH3cat_cct_gmcpt_C1_3st_diab_mode12_+0.05_mode3_+0.05.inp to your run's scratch directory...
cp AsH3cat_cct_gmcpt_C1_3st_diab_mode12_+0.05_mode3_+0.05.inp /home/bjb2chen/gmsscr//AsH3cat_cct_gmcpt_C1_3st_diab_mode12_+0.05_mode3_+0.05.F05
unset echo
 
Assuming a single but multicore node.
 
/home/bjb2chen/gamess/ddikick.x /home/bjb2chen/gamess/gamess.00.x AsH3cat_cct_gmcpt_C1_3st_diab_mode12_+0.05_mode3_+0.05 -ddi 1 2 io002:cpus=2 -scr /home/bjb2chen/gmsscr/

 Distributed Data Interface kickoff program.
 Initiating 2 compute processes on 1 nodes to run the following command:
 /home/bjb2chen/gamess/gamess.00.x AsH3cat_cct_gmcpt_C1_3st_diab_mode12_+0.05_mode3_+0.05 

          ******************************************************
          *         GAMESS VERSION = 02 AUG 2018 (R2)         *
          *             FROM IOWA STATE UNIVERSITY             *
          * M.W.SCHMIDT, K.K.BALDRIDGE, J.A.BOATZ, S.T.ELBERT, *
          *   M.S.GORDON, J.H.JENSEN, S.KOSEKI, N.MATSUNAGA,   *
          *          K.A.NGUYEN, S.J.SU, T.L.WINDUS,           *
          *       TOGETHER WITH M.DUPUIS, J.A.MONTGOMERY       *
          *         J.COMPUT.CHEM.  14, 1347-1363(1993)        *
          **************** 64 BIT LINUX VERSION ****************

  SINCE 1993, STUDENTS AND POSTDOCS WORKING AT IOWA STATE UNIVERSITY
  AND ALSO IN THEIR VARIOUS JOBS AFTER LEAVING ISU HAVE MADE IMPORTANT
  CONTRIBUTIONS TO THE CODE:
     IVANA ADAMOVIC, CHRISTINE AIKENS, YURI ALEXEEV, POOJA ARORA,
     ANDREY ASADCHEV, ROB BELL, PRADIPTA BANDYOPADHYAY, JONATHAN BENTZ,
     BRETT BODE, KURT BRORSEN, CALEB CARLIN, GALINA CHABAN, WEI CHEN,
     CHEOL HO CHOI, PAUL DAY, ALBERT DEFUSCO, NUWAN DESILVA, TIM DUDLEY,
     DMITRI FEDOROV, ALEX FINDLATER, GRAHAM FLETCHER, MARK FREITAG,
     KURT GLAESEMANN, ANASTASIA GUININA,
     DAN KEMP, GRANT MERRILL, NORIYUKI MINEZAWA, JONATHAN MULLIN,
     TAKESHI NAGATA, SEAN NEDD, HEATHER NETZLOFF, BOSILJKA NJEGIC, RYAN OLSON,
     MIKE PAK, BUU PHAM,
     SPENCER PRUITT, LUKE ROSKOP, JIM SHOEMAKER, LYUDMILA SLIPCHENKO,
     TONY SMITH, SAROM SOK LEANG, JIE SONG, TETSUYA TAKETSUGU, SIMON WEBB,
     PENG XU, SOOHAENG YOO, FEDERICO ZAHARIEV

  ADDITIONAL CODE HAS BEEN PROVIDED BY COLLABORATORS IN OTHER GROUPS:
     IOWA STATE UNIVERSITY:
          JOE IVANIC, AARON WEST, LAIMUTIS BYTAUTAS, KLAUS RUEDENBERG
     UNIVERSITY OF TOKYO: KIMIHIKO HIRAO, TAKAHITO NAKAJIMA,
          TAKAO TSUNEDA, MUNEAKI KAMIYA, SUSUMU YANAGISAWA,
          KIYOSHI YAGI, MAHITO CHIBA, SEIKEN TOKURA, NAOAKI KAWAKAMI
     UNIVERSITY OF AARHUS: FRANK JENSEN
     UNIVERSITY OF IOWA: VISVALDAS KAIRYS, HUI LI
     NATIONAL INST. OF STANDARDS AND TECHNOLOGY: WALT STEVENS, DAVID GARMER
     UNIVERSITY OF PISA: BENEDETTA MENNUCCI, JACOPO TOMASI
     UNIVERSITY OF MEMPHIS: HENRY KURTZ, PRAKASHAN KORAMBATH
     UNIVERSITY OF ALBERTA: TOBY ZENG, MARIUSZ KLOBUKOWSKI
     UNIVERSITY OF NEW ENGLAND: MARK SPACKMAN
     MIE UNIVERSITY: HIROAKI UMEDA
     NAT. INST. OF ADVANCED INDUSTRIAL SCIENCE AND TECHNOLOGY: KAZUO KITAURA
     MICHIGAN STATE UNIVERSITY:
          KAROL KOWALSKI, MARTA WLOCH, JEFFREY GOUR, JESSE LUTZ,
          WEI LI, JUN SHEN, J. EMILIANO DEUSTUA, PIOTR PIECUCH
     UNIVERSITY OF MINNESOTA:
          YINAN SHU
     UNIVERSITY OF SILESIA: MONIKA MUSIAL, STANISLAW KUCHARSKI
     FACULTES UNIVERSITAIRES NOTRE-DAME DE LA PAIX:
          OLIVIER QUINET, BENOIT CHAMPAGNE
     UNIVERSITY OF CALIFORNIA - SANTA BARBARA: BERNARD KIRTMAN
     INSTITUTE FOR MOLECULAR SCIENCE:
          KAZUYA ISHIMURA, MICHIO KATOUDA, AND SHIGERU NAGASE
     UNIVERSITY OF NOTRE DAME: ANNA POMOGAEVA, DAN CHIPMAN
     KYUSHU UNIVERSITY:
          HARUYUKI NAKANO,
          FENG LONG GU, JACEK KORCHOWIEC, MARCIN MAKOWSKI, AND YURIKO AOKI,
          HIROTOSHI MORI AND EISAKU MIYOSHI
     PENNSYLVANIA STATE UNIVERSITY:
          TZVETELIN IORDANOV, CHET SWALINA, JONATHAN SKONE,
          SHARON HAMMES-SCHIFFER
     WASEDA UNIVERSITY:
          MASATO KOBAYASHI, TOMOKO AKAMA, TSUGUKI TOUMA,
          TAKESHI YOSHIKAWA, YASUHIRO IKABATA, JUNJI SEINO,
          YUYA NAKAJIMA, HIROMI NAKAI
     NANJING UNIVERSITY: SHUHUA LI
     UNIVERSITY OF NEBRASKA:
          PEIFENG SU, DEJUN SI, NANDUN THELLAMUREGE, YALI WANG, HUI LI
     UNIVERSITY OF ZURICH: ROBERTO PEVERATI, KIM BALDRIDGE
     N. COPERNICUS UNIVERSITY AND JACKSON STATE UNIVERSITY:
          MARIA BARYSZ
     UNIVERSITY OF COPENHAGEN: Jimmy Kromann, CASPER STEINMANN
     TOKYO INSTITUTE OF TECHNOLOGY: HIROYA NAKATA
     NAGOYA UNIVERSITY: YOSHIO NISHIMOTO, STEPHAN IRLE
     MOSCOW STATE UNIVERSITY: VLADIMIR MIRONOV


 PARALLEL VERSION RUNNING ON        2 PROCESSORS IN        1 NODES.

 EXECUTION OF GAMESS BEGUN Sat Dec  9 01:29:49 2023

            ECHO OF THE FIRST FEW INPUT CARDS -
 INPUT CARD> !Step 3: single point gmcpt calculation averaging 4 states                     
 INPUT CARD> !        for AsH3+ at AsH3 structure. The ROHF orbitals at                     
 INPUT CARD> !        the MP2 optimized structure is taken as the initial                   
 INPUT CARD> !        guess of orbitals in the $VEC group.                                  
 INPUT CARD> $system kdiag=3 mwords=250 memddi=8000 parall=.t. $end                         
 INPUT CARD> $contrl runtyp=energy ispher=1 relwfn=dk $end                                  
 INPUT CARD> $contrl icut=9 itol=20 inttyp=rysquad qmttol=1.0d-05 nosym=1 $end              
 INPUT CARD> $scf    npunch=2 conv=1.0d-06 dirscf=.t. diis=.t. soscf=.f. ethrsh=10.0 $end   
 INPUT CARD> $contrl scftyp=mcscf  mult=2 maxit=200 icharg=1 mplevl=2 $end                  
 INPUT CARD> $relwfn norder=3 $end                                                          
 INPUT CARD> $guess  guess=moread norb=85 purify=.t. $end                                   
 INPUT CARD> $basis  gbasis=cct $end                                                        
 INPUT CARD> $mcscf  cistep=gmcci fullnr=.t. finci=mos                                      
 INPUT CARD>         acurcy=1.d-6 maxit=200 $end                                            
 INPUT CARD> $trans  dirtrf=.t. $end                                                        
 INPUT CARD> $mrmp   mrpt=gmcpt rdvecs=.f. $end                                             
 INPUT CARD> $gmcpt  nmofzc=5 nmodoc=9 nmoact=7 nelact=7 stsym(1)=A                         
 INPUT CARD>         reftyp=ormas nspace=1 mstart(1)=15 mine(1)=7 maxe(1)=7                 
 INPUT CARD>         kstate(1)=1,1,1,1                                                      
 INPUT CARD>         wstate(1)=1,1,1,1                                                      
 INPUT CARD>         iwgt=0 thrwgt=-1.0 krot=.f. kszdoe=.f. knospn=.f.                      
 INPUT CARD>         thrde=-1.0 edshft=0.02 $end                                            
 INPUT CARD> $statpt hssend=.t. $end                                                        
 INPUT CARD> -data                                                                          
 INPUT CARD> AsH3+ 3 states calculation at AsH3 structure.                                  
 INPUT CARD> C1                                                                             
 INPUT CARD>  AS         33.0   0.0000000000  -0.0000000000   0.0000000000                  
 INPUT CARD> H           1.0  -0.7325148768   1.2687529838   0.0000000000                   
 INPUT CARD> H           1.0  -0.7325148768  -1.2687529838   0.0000000000                   
 INPUT CARD> H           1.0   1.4650297535   0.0000000000   0.0000000000                   
 INPUT CARD> $end                                                                           
 INPUT CARD> --- Semi-canonical MOs --- generated at Sat Dec  9 01:18:05 2023               
 INPUT CARD> $VEC                                                                           
 INPUT CARD> 1  1 1.00000651E+00-6.68369440E-06 1.85152951E-04 1.79685598E-04-8.07714337E-05
 INPUT CARD> 1  2-2.31149954E-05-0.00000000E+00-0.00000000E+00-0.00000000E+00 1.52132035E-11
 INPUT CARD> 1  3 2.42575930E-11-0.00000000E+00 4.01053631E-11 5.28975585E-11-0.00000000E+00
 INPUT CARD> 1  4-0.00000000E+00-0.00000000E+00-0.00000000E+00-0.00000000E+00-0.00000000E+00
 INPUT CARD> 1  5-0.00000000E+00-1.11237345E-06-1.11237452E-06 2.22474797E-06-0.00000000E+00
 INPUT CARD> 1  6-0.00000000E+00-0.00000000E+00 8.58528525E-06 8.58528010E-06-1.71705654E-05
 INPUT CARD> 1  7-1.20100248E-11-0.00000000E+00-0.00000000E+00 1.00552420E-05 1.00552075E-05
 INPUT CARD> 1  8-2.01104495E-05-2.83298525E-11-0.00000000E+00-0.00000000E+00 1.99730861E-05
 INPUT CARD> 1  9-0.00000000E+00-0.00000000E+00-0.00000000E+00-0.00000000E+00-2.67966997E-05
 INPUT CARD> 1 10-0.00000000E+00-0.00000000E+00-0.00000000E+00-0.00000000E+00 3.47117215E-06
 INPUT CARD> 1 11-4.60716982E-05 1.04466843E-06-4.03421058E-07 6.98737131E-07-0.00000000E+00
 INPUT CARD> 1 12-1.34256909E-05 2.32539851E-05-0.00000000E+00 1.05460937E-06-3.02016560E-06
 INPUT CARD> 1 13 1.96555623E-06 4.07477672E-06-0.00000000E+00-0.00000000E+00 3.47116073E-06
 INPUT CARD> 1 14-4.60716058E-05 1.04468814E-06-4.03422118E-07-6.98738938E-07-0.00000000E+00
 INPUT CARD> 1 15-1.34256677E-05-2.32539402E-05-0.00000000E+00 1.05460761E-06-3.02016073E-06
 INPUT CARD> 1 16 1.96555312E-06-4.07477055E-06-0.00000000E+00-0.00000000E+00 3.47117151E-06
 INPUT CARD> 1 17-4.60717176E-05 1.04469110E-06 8.06835201E-07-0.00000000E+00-0.00000000E+00
  250000000 WORDS OF MEMORY AVAILABLE

     BASIS OPTIONS
     -------------
     GBASIS=CCT          IGAUSS=       0      POLAR=NONE    
     NDFUNC=       0     NFFUNC=       0     DIFFSP=       F
     NPFUNC=       0      DIFFS=       F     BASNAM=        


     RUN TITLE
     ---------
  AsH3+ 4 state with relwfn calculation                                          

 THE POINT GROUP OF THE MOLECULE IS C1      
 THE ORDER OF THE PRINCIPAL AXIS IS     0

 ATOM      ATOMIC                      COORDINATES (BOHR)
           CHARGE         X                   Y                   Z
 AS         33.0     0.6209230405       -0.0000006036       -0.0202197806
 H           1.0    -0.7611437476        2.3937174416       -0.0201501041
 H           1.0    -0.7611439055       -2.3937185826       -0.0201498298
 H           1.0     3.3983542780       -0.0000007133       -0.0203588592

          INTERNUCLEAR DISTANCES (ANGS.)
          ------------------------------

                1 AS         2 H          3 H          4 H     

   1 AS      0.0000000    1.4626745 *  1.4626745 *  1.4697534 *
   2 H       1.4626745 *  0.0000000    2.5334022 *  2.5395718 *
   3 H       1.4626745 *  2.5334022 *  0.0000000    2.5395718 *
   4 H       1.4697534 *  2.5395718 *  2.5395718 *  0.0000000  

  * ... LESS THAN  3.000


     ATOMIC BASIS SET
     ----------------
 THE CONTRACTED PRIMITIVE FUNCTIONS HAVE BEEN UNNORMALIZED
 THE CONTRACTED BASIS FUNCTIONS ARE NOW NORMALIZED TO UNITY

  SHELL TYPE  PRIMITIVE        EXPONENT          CONTRACTION COEFFICIENT(S)

 AS        

      1   S       1       8482339.6000000    0.000181400075
      1   S       2       1270150.9000000    0.000509300210
      1   S       3        289056.9600000    0.001349900557
      1   S       4         81879.8490000    0.003309201365
      1   S       5         26716.5640000    0.008034603315
      1   S       6          9647.5842000    0.019535208061
      1   S       7          3764.1195000    0.047315519523
      1   S       8          1561.5656000    0.108843244910
      1   S       9           680.8146700    0.218240590049
      1   S      10           309.2411900    0.333269937512
      1   S      11           145.2573600    0.304307225562
      1   S      12            69.7390480    0.111702146090
      1   S      13            31.7703250    0.007463503080
      1   S      14            15.3917570    0.000304100125
      1   S      15             7.3415260   -0.000142200059
      1   S      16             3.3237160    0.000019500008
      1   S      17             1.4858670   -0.000033200014
      1   S      18             0.2115000   -0.000008500004

      2   S      19       8482339.6000000   -0.000057995848
      2   S      20       1270150.9000000   -0.000163088325
      2   S      21        289056.9600000   -0.000433268984
      2   S      22         81879.8490000   -0.001065223744
      2   S      23         26716.5640000   -0.002605413487
      2   S      24          9647.5842000   -0.006395842144
      2   S      25          3764.1195000   -0.015881863072
      2   S      26          1561.5656000   -0.038079174044
      2   S      27           680.8146700   -0.084299965257
      2   S      28           309.2411900   -0.154355250242
      2   S      29           145.2573600   -0.198099018777
      2   S      30            69.7390480   -0.033758583340
      2   S      31            31.7703250    0.437607173216
      2   S      32            15.3917570    0.558621610211
      2   S      33             7.3415260    0.155689654716
      2   S      34             3.3237160    0.005010041348
      2   S      35             1.4858670    0.001680179722
      2   S      36             0.2115000    0.000228683629

      3   S      37       8482339.6000000    0.000023133401
      3   S      38       1270150.9000000    0.000065018105
      3   S      39        289056.9600000    0.000172634279
      3   S      40         81879.8490000    0.000424553958
      3   S      41         26716.5640000    0.001039576315
      3   S      42          9647.5842000    0.002554661217
      3   S      43          3764.1195000    0.006365761645
      3   S      44          1561.5656000    0.015338667773
      3   S      45           680.8146700    0.034419952954
      3   S      46           309.2411900    0.064576634114
      3   S      47           145.2573600    0.087234016980
      3   S      48            69.7390480    0.014828815768
      3   S      49            31.7703250   -0.267166221401
      3   S      50            15.3917570   -0.511407446230
      3   S      51             7.3415260   -0.020336603390
      3   S      52             3.3237160    0.736562901872
      3   S      53             1.4858670    0.503531695147
      3   S      54             0.2115000   -0.008965466753

      4   S      55       8482339.6000000   -0.000010225631
      4   S      56       1270150.9000000   -0.000028566842
      4   S      57        289056.9600000   -0.000076124142
      4   S      58         81879.8490000   -0.000187145279
      4   S      59         26716.5640000   -0.000458043346
      4   S      60          9647.5842000   -0.001126929466
      4   S      61          3764.1195000   -0.002805393763
      4   S      62          1561.5656000   -0.006779431073
      4   S      63           680.8146700   -0.015195936984
      4   S      64           309.2411900   -0.028739704152
      4   S      65           145.2573600   -0.038797991937
      4   S      66            69.7390480   -0.007149826154
      4   S      67            31.7703250    0.126719590806
      4   S      68            15.3917570    0.251979351046
      4   S      69             7.3415260    0.006924375336
      4   S      70             3.3237160   -0.491086580342
      4   S      71             1.4858670   -0.599181401530
      4   S      72             0.2115000    1.027494131359

      5   S      73             0.4210860    1.000000000000

      6   S      74             0.0889740    1.000000000000

      7   P      75          7423.8614000    0.000938377609
      7   P      76          1759.5166000    0.005133377508
      7   P      77           570.2291600    0.024099824935
      7   P      78           216.5799700    0.086762429694
      7   P      79            90.7342520    0.228273052999
      7   P      80            40.3087910    0.392022345650
      7   P      81            18.5555020    0.348929673917
      7   P      82             8.3965430    0.101835170032
      7   P      83             3.7673670    0.003273321893
      7   P      84             1.6297010    0.001772857696
      7   P      85             0.2225030    0.000216994822

      8   P      86          7423.8614000   -0.000377368830
      8   P      87          1759.5166000   -0.002078856782
      8   P      88           570.2291600   -0.009841594745
      8   P      89           216.5799700   -0.036476256021
      8   P      90            90.7342520   -0.099965258993
      8   P      91            40.3087910   -0.184025625096
      8   P      92            18.5555020   -0.144893040697
      8   P      93             8.3965430    0.209289264962
      8   P      94             3.7673670    0.550748557488
      8   P      95             1.6297010    0.387867158814
      8   P      96             0.2225030   -0.005154847972

      9   P      97          7423.8614000    0.000139223028
      9   P      98          1759.5166000    0.000768701503
      9   P      99           570.2291600    0.003638497780
      9   P     100           216.5799700    0.013549681419
      9   P     101            90.7342520    0.037246834642
      9   P     102            40.3087910    0.069389334914
      9   P     103            18.5555020    0.052882141611
      9   P     104             8.3965430   -0.096382453072
      9   P     105             3.7673670   -0.257993529431
      9   P     106             1.6297010   -0.205528886912
      9   P     107             0.2225030    0.990245287546

     10   P     108             0.5682630    1.000000000000

     11   P     109             0.0804050    1.000000000000

     12   D     110           321.0196100    0.001881680809
     12   D     111            96.2493050    0.014904607123
     12   D     112            36.6449630    0.065004552468
     12   D     113            15.4939650    0.183605431315
     12   D     114             6.8911380    0.330320202868
     12   D     115             3.0548310    0.388735616644
     12   D     116             1.3142410    0.287105421146

     13   D     117             0.5134300    1.000000000000

     14   D     118             0.1877000    1.000000000000

     15   F     119             0.4158000    1.000000000000

 H         

     16   S     120            33.8700000    0.025531286985
     16   S     121             5.0950000    0.190383336530
     16   S     122             1.1590000    0.852134062742

     17   S     123             0.3258000    1.000000000000

     18   S     124             0.1027000    1.000000000000

     19   P     125             1.4070000    1.000000000000

     20   P     126             0.3880000    1.000000000000

     21   D     127             1.0570000    1.000000000000

 H         

     22   S     128            33.8700000    0.025531286985
     22   S     129             5.0950000    0.190383336530
     22   S     130             1.1590000    0.852134062742

     23   S     131             0.3258000    1.000000000000

     24   S     132             0.1027000    1.000000000000

     25   P     133             1.4070000    1.000000000000

     26   P     134             0.3880000    1.000000000000

     27   D     135             1.0570000    1.000000000000

 H         

     28   S     136            33.8700000    0.025531286985
     28   S     137             5.0950000    0.190383336530
     28   S     138             1.1590000    0.852134062742

     29   S     139             0.3258000    1.000000000000

     30   S     140             0.1027000    1.000000000000

     31   P     141             1.4070000    1.000000000000

     32   P     142             0.3880000    1.000000000000

     33   D     143             1.0570000    1.000000000000

 TOTAL NUMBER OF BASIS SET SHELLS             =   33
 NUMBER OF CARTESIAN GAUSSIAN BASIS FUNCTIONS =   94
 NOTE: THIS RUN WILL RESTRICT THE MO VARIATION SPACE TO SPHERICAL HARMONICS.
 THE NUMBER OF ORBITALS KEPT IN THE VARIATIONAL SPACE WILL BE PRINTED LATER.
 NUMBER OF ELECTRONS                          =   35
 CHARGE OF MOLECULE                           =    1
 SPIN MULTIPLICITY                            =    2
 NUMBER OF OCCUPIED ORBITALS (ALPHA)          =   18
 NUMBER OF OCCUPIED ORBITALS (BETA )          =   17
 TOTAL NUMBER OF ATOMS                        =    4
 THE NUCLEAR REPULSION ENERGY IS       36.3850777682

     ---------------------------------
     RELATIVISTIC WAVEFUNCTION OPTIONS
     ---------------------------------
     METHOD=DK       NORDER= 3       NESOC=  0      MODEQR=      1
     NRATOM=  0      QMTTOL= 1.000E-10      QRTOL= 1.000E-02
     CLIGHT=137.03598950     TAU= 3.500E+00

 INTERNAL BASIS SET UNCONTRACTION FOR RESC/DK/IOTC/LUT-IOTC:
    67 SHELLS AND    174 AOS ARE CONSTRUCTED, COMPARED TO
    33 SHELLS AND     94 AOS IN THE CONTRACTED BASIS SET

    76 REDUNDANT PRIMITIVE(S) ELIMINATED.


     $CONTRL OPTIONS
     ---------------
 SCFTYP=MCSCF        RUNTYP=ENERGY       EXETYP=RUN     
 MPLEVL=       2     CITYP =NONE         CCTYP =NONE         VBTYP =NONE    
 DFTTYP=NONE         TDDFT =NONE    
 MULT  =       2     ICHARG=       1     NZVAR =       0     COORD =UNIQUE  
 PP    =NONE         RELWFN=DK           LOCAL =NONE         NUMGRD=       F
 ISPHER=       1     NOSYM =       1     MAXIT =     200     UNITS =ANGS    
 PLTORB=       F     MOLPLT=       F     AIMPAC=       F     FRIEND=        
 NPRINT=       7     IREST =       0     GEOM  =INPUT   
 NORMF =       0     NORMP =       0     ITOL  =      20     ICUT  =       9
 INTTYP=RYSQUAD      GRDTYP=BEST         QMTTOL= 1.0E-05

     $SYSTEM OPTIONS
     ---------------
  REPLICATED MEMORY=   250000000 WORDS (ON EVERY NODE).
 DISTRIBUTED MEMDDI=        8000 MILLION WORDS IN AGGREGATE,
 MEMDDI DISTRIBUTED OVER   2 PROCESSORS IS  4000000000 WORDS/PROCESSOR.
 TOTAL MEMORY REQUESTED ON EACH PROCESSOR=  4250000000 WORDS.
 TIMLIM=      525600.00 MINUTES, OR     365.0 DAYS.
 PARALL= T  BALTYP=  DLB     KDIAG=    3  COREFL= F
 MXSEQ2=     300 MXSEQ3=     150  mem10=         0

          ----------------
          PROPERTIES INPUT
          ----------------

     MOMENTS            FIELD           POTENTIAL          DENSITY
 IEMOM =       1   IEFLD =       0   IEPOT =       0   IEDEN =       0
 WHERE =COMASS     WHERE =NUCLEI     WHERE =NUCLEI     WHERE =NUCLEI  
 OUTPUT=BOTH       OUTPUT=BOTH       OUTPUT=BOTH       OUTPUT=BOTH    
 IEMINT=       0   IEFINT=       0                     IEDINT=       0
                                                       MORB  =       0

     -------------------------------
     INTEGRAL TRANSFORMATION OPTIONS
     -------------------------------
     NWORD  =            0
     CUTOFF = 1.0E-09     MPTRAN =       0
     DIRTRF =       T     AOINTS =DUP     

          ----------------------
          MCSCF INPUT PARAMETERS
          ----------------------
 CONVERGER SELECTION: FOCAS = F  SOSCF = F  FULLNR = T  QUD = F  JACOBI = F
 SECULAR EQUATION METHOD CISTEP = GMCCI   
 --- GENERAL INPUT OPTIONS:
 MAXIT =     200  MICIT =       1  ACURCY= 1.000E-06
 DAMP  =   0.000  CANONC=       T  ENGTOL= 1.000E-10
 EKT   =       F  NPUNCH=       2  NWORD =         0
 REGENERATE CI AFTER CONVERGENCE = NONE    
 DIABATIZATION AFTER CONVERGENCE =        F
 --- INPUT FOR FULLNR CONVERGER:
 METHOD=DM2       FORS  =       F  DROPC =       T
 LINSER=       F  FCORE =       F  NORB  =      94

          ----------------------
          INTEGRAL INPUT OPTIONS
          ----------------------
 NOPK  =       1 NORDER=       0 SCHWRZ=       T

 ------------------------------------------
 MULTIREFERENCE PERTURBATION THEORY CONTROL
 ------------------------------------------
 MRPT=GMCPT    READ CONVERGED MCSCF VECTORS= F


     ------------------------------------------
     THE POINT GROUP IS C1 , NAXIS= 1, ORDER= 1
     ------------------------------------------

 -- VARIATIONAL SPACE WILL BE RESTRICTED TO PURE SPHERICAL HARMONICS ONLY --
 AFTER EXCLUDING CONTAMINANT COMBINATIONS FROM THE CARTESIAN GAUSSIAN BASIS
 SET, THE NUMBER OF SPHERICAL HARMONICS KEPT IN THE VARIATION SPACE IS   85

     DIMENSIONS OF THE SYMMETRY SUBSPACES ARE
 A   =   85

 ..... DONE SETTING UP THE RUN .....
 CPU     0: STEP CPU TIME=     0.07 TOTAL CPU TIME=          0.1 (      0.0 MIN)
 TOTAL WALL CLOCK TIME=          0.1 SECONDS, CPU UTILIZATION IS    50.00%

          ********************
          1 ELECTRON INTEGRALS
          ********************
 TIME TO DO ORDINARY INTEGRALS=      0.00

 ------------------------------------------------------------------
 3RD ORDER DOUGLAS-KROLL-HESS RELATIVISTIC ONE-ELECTRON HAMILTONIAN
            CODED BY TAKAHITO NAKAJIMA AND DMITRI FEDOROV
 ------------------------------------------------------------------

 TIME TO DO  RELATIVISTIC INTS=      0.27
 TIME TO DO   DIPOLE INTEGRALS=      0.01
 ...... END OF ONE-ELECTRON INTEGRALS ......
 CPU     0: STEP CPU TIME=     0.28 TOTAL CPU TIME=          0.3 (      0.0 MIN)
 TOTAL WALL CLOCK TIME=          0.7 SECONDS, CPU UTILIZATION IS    52.24%

          -------------
          GUESS OPTIONS
          -------------
          GUESS =MOREAD            NORB  =      85          NORDER=       0
          MIX   =       F          PRTMO =       F          PUNMO =       F
          TOLZ  = 1.0E-08          TOLE  = 1.0E-05
          SYMDEN=       F          PURIFY=       T

 INITIAL GUESS ORBITALS GENERATED BY MOREAD   ROUTINE.

 STATISTICS FOR GENERATION OF SYMMETRY ORBITAL -Q- MATRIX
 NUMBER OF CARTESIAN ATOMIC ORBITALS=         94
 NUMBER OF SPHERICAL CONTAMINANTS DROPPED=     9
 NUMBER OF LINEARLY DEPENDENT MOS DROPPED=     0
 TOTAL NUMBER OF MOS IN VARIATION SPACE=      85
 ORBITAL PURIFICATION WILL OCCUR

 SYMMETRIES FOR INITIAL GUESS ORBITALS FOLLOW.   BOTH SET(S).
    18 ORBITALS ARE OCCUPIED (   14 CORE ORBITALS).
     1=A        2=A        3=A        4=A        5=A        6=A        7=A   
     8=A        9=A       10=A       11=A       12=A       13=A       14=A   
    15=A       16=A       17=A       18=A       19=A       20=A       21=A   
    22=A       23=A       24=A       25=A       26=A       27=A       28=A   
    29=A       30=A       31=A       32=A       33=A       34=A       35=A   
    36=A       37=A       38=A       39=A       40=A       41=A       42=A   
    43=A       44=A       45=A       46=A       47=A       48=A       49=A   
    50=A       51=A       52=A       53=A       54=A       55=A       56=A   
    57=A       58=A       59=A       60=A       61=A       62=A       63=A   
    64=A       65=A       66=A       67=A       68=A       69=A       70=A   
    71=A       72=A       73=A       74=A       75=A       76=A       77=A   
    78=A       79=A       80=A       81=A       82=A       83=A       84=A   
    85=A   
 ...... END OF INITIAL ORBITAL SELECTION ......
 CPU     0: STEP CPU TIME=     0.04 TOTAL CPU TIME=          0.4 (      0.0 MIN)
 TOTAL WALL CLOCK TIME=          0.7 SECONDS, CPU UTILIZATION IS    53.42%

                    ----------------------
                    AO INTEGRAL TECHNOLOGY
                    ----------------------
     S,P,L SHELL ROTATED AXIS INTEGRALS, REPROGRAMMED BY
        KAZUYA ISHIMURA (IMS) AND JOSE SIERRA (SYNSTAR).
     S,P,D,L SHELL ROTATED AXIS INTEGRALS PROGRAMMED BY
        KAZUYA ISHIMURA (INSTITUTE FOR MOLECULAR SCIENCE).
     S,P,D,F,G SHELL TO TOTAL QUARTET ANGULAR MOMENTUM SUM 5,
        ERIC PROGRAM BY GRAHAM FLETCHER (ELORET AND NASA ADVANCED
        SUPERCOMPUTING DIVISION, AMES RESEARCH CENTER).
     S,P,D,F,G,L SHELL GENERAL RYS QUADRATURE PROGRAMMED BY
        MICHEL DUPUIS (PACIFIC NORTHWEST NATIONAL LABORATORY).

          --------------------
          2 ELECTRON INTEGRALS
          --------------------

 DIRECT SCF METHOD SKIPS INTEGRAL STORAGE ON DISK.
 DIRECT TRANSFORMATION SKIPS AO INTEGRAL STORAGE ON DISK.
  ...... END OF TWO-ELECTRON INTEGRALS .....
 STEP CPU TIME =     0.01 TOTAL CPU TIME =          0.4 (      0.0 MIN)
 TOTAL WALL CLOCK TIME=          0.7 SECONDS, CPU UTILIZATION IS    54.05%
 DDI: Creating Array [0] - 8836 x 231 = 2041116 words.
 DDI: Creating Array [1] - 64 x 4851 = 310464 words.
 DDI: Creating Array [2] - 231 x 231 = 53361 words.
 DDI: Creating Array [3] - 4465 x 231 = 1031415 words.

          -----------------
          MCSCF CALCULATION
          -----------------

 ----- NUCLEAR ENERGY ----- =        36.3850777682

     -------------------------------------------------
     GMC-PT/GMC-QDPT or general MCSCF input parameters
     -------------------------------------------------
 # of frozen core orbs. =         5 ->         0
 # of doubly occ. orbs. =         9
 # of active      orbs. =         7
 # of virtual     orbs. =        64
 # of active electrons  =         7
 # of states in CI      =         4
 Highest state in CI    =         4
 kstate =  1 1 1 1
 avecoe =  0.250 0.250 0.250 0.250
 State symmetry           = A           
 Assigned symmetry number = 1

 <<<Act. MO sym.: 1111111

 <<<Division of 1-ext.:  0 0
 <<<Division of 2-ext.:  0 1

 *** Reference space

 Reference type: ORMAS (= Occupation restricted multiple active space)
 # of orbitals          =  7
 # of minimum electrons =  7
 # of maximum electrons =  7
 State symmetry    =    1 (input)
 2*Sz              =    1 (input)
 Spin multiplicity =    2 (input)
 Dimension of reference space =      1225  (from      3432 walks)

 Dimension of reference space =      1225  (from      1225 walks)

 <<<Ionized spaces for Ref-CI:
      0:         1225 /   -1-0:         1960 /  0-1-0:         2891

 EVALUATING EXCHANGE INTEGRALS FOR DIRECT INTEGRAL TRANSFORMATION
 SCHWARZ INEQUALITY OVERHEAD:      4465 INTEGRALS, T=        0.10

     --------------------------------------------
     PARTIAL TWO ELECTRON INTEGRAL TRANSFORMATION
     --------------------------------------------

 NUMBER OF CORE MOLECULAR ORBITALS     =   14
 NUMBER OF OCCUPIED MOLECULAR ORBITALS =   21
 TOTAL NUMBER OF MOLECULAR ORBITALS    =   85
 TOTAL NUMBER OF ATOMIC ORBITALS       =   94
 THRESHOLD FOR KEEPING TRANSFORMED 2E- INTEGRALS = 1.000E-09

 -------------------------------     ------------------------------
 DISTRIBUTED DATA TRANSFORMATION     PROGRAM WRITTEN BY G. FLETCHER
 -------------------------------     ------------------------------

 THE DISTRIBUTED MEMORY REQUIRED FOR THIS STEP IS MEMDDI=         4 MWORDS
 CREATING DISTRIBUTED STORAGE FOR [VIR OCC|VIR OCC] INTEGRALS
 CREATING DISTRIBUTED STORAGE FOR [VIR OCC|OCC OCC] INTEGRALS
 CREATING DISTRIBUTED STORAGE FOR [OCC OCC|OCC OCC] INTEGRALS
 CREATING DISTRIBUTED STORAGE FOR [VIR VIR|OCC OCC] INTEGRALS
 FOR    2 PROCESSORS, THE REPLICATED MEMORY NEEDED IS      615709 WORDS.
 SCHWARZ INEQUALITY OVERHEAD:      4465 INTEGRALS, T=        0.11

      DIRECT 4-INDEX TRANSFORMATION 
      SCHWARZ INEQUALITY TEST SKIPPED       1075 INTEGRAL BLOCKS
 ----- FROZEN CORE ENERGY =     -2283.3513075605
 ... END OF INTEGRAL TRANSFORMATION ...
 CPU     0: STEP CPU TIME=    14.14 TOTAL CPU TIME=         14.5 (      0.2 MIN)
 TOTAL WALL CLOCK TIME=         14.9 SECONDS, CPU UTILIZATION IS    97.26%

     --------------------------------     -----------------------------
     MCHF NEWTON-RAPHSON OPTIMIZATION     CODE WRITTEN BY MICHEL DUPUIS
     --------------------------------     -----------------------------
     PARALLEL VERSION WRITTEN BY G. FLETCHER (ELORET)
     NASA ADVANCED SUPERCOMPUTING DIVISION, AMES RESEARCH CENTER

 NUMBER OF INDEPENDENT ORBITAL ROTATION PARAMETERS =  1311
 ..... DONE SOLVING NEWTON-RAPHSON EQUATIONS .....
 CPU     0: STEP CPU TIME=     0.73 TOTAL CPU TIME=         15.3 (      0.3 MIN)
 TOTAL WALL CLOCK TIME=         16.2 SECONDS, CPU UTILIZATION IS    94.20%
 ..... DONE WITH NTN-RPH ORBITAL ROTATIONS ..... 
 CPU     0: STEP CPU TIME=     0.00 TOTAL CPU TIME=         15.3 (      0.3 MIN)
 TOTAL WALL CLOCK TIME=         16.2 SECONDS, CPU UTILIZATION IS    94.20%
 MAXIMUM MEMORY USED BY NTN-RPH CODE WAS    197978 WORDS.

 ITER     TOTAL ENERGY      DEL(E)  LAGRANGIAN ASYMMETRY   SQCDF  MICIT   DAMP
   1    -2260.366584234 -0.366584234  0.000998   60   15 7.314E-06  1   0.0000
   2    -2260.366587035 -0.000002801  0.000078   60   19 2.091E-06  1   0.0000
   3    -2260.366587253 -0.000000217  0.000048   60   19 8.610E-07  1   0.0000
   4    -2260.366587337 -0.000000085  0.000030   60   19 3.691E-07  1   0.0000
   5    -2260.366587372 -0.000000035  0.000019   60   19 1.585E-07  1   0.0000
   6    -2260.366587387 -0.000000015  0.000012   60   19 6.772E-08  1   0.0000
   7    -2260.366587393 -0.000000006  0.000008   60   19 2.875E-08  1   0.0000
   8    -2260.366587396 -0.000000003  0.000005   60   19 1.216E-08  1   0.0000
   9    -2260.366587397 -0.000000001  0.000003   60   19 5.093E-09  1   0.0000
  10    -2260.366587397 -0.000000000  0.000002   60   19 2.166E-09  1   0.0000
  11    -2260.366587397 -0.000000000  0.000001   60   19 9.149E-10  1   0.0000
  12    -2260.366587397 -0.000000000  0.000001   60   19 3.852E-10  1   0.0000

          --------------------
          LAGRANGIAN CONVERGED
          --------------------

 FINAL MCSCF ENERGY IS    -2260.3665873974 AFTER  12 ITERATIONS

 -MCCI- BASED ON OPTIMIZED ORBITALS
 ----------------------------------

 PLEASE NOTE: IF THE ACTIVE ORBITALS ARE CANONICALIZED BELOW,
 THE FOLLOWING CI EXPANSION COEFFICIENTS AND THE DENSITY DO NOT
 CORRESPOND TO THE PRINTED ORBITALS.  THE PRINTED EXPANSIONS MATCH
 THE ORBITALS USED DURING THE LAST ITERATION.  IF YOU WISH TO SEE
 CI EXPANSIONS BASED ON THE CANONICAL (OR NATURAL) ORBITALS, YOU
 MUST RUN A CI CALCULATION WITH THAT ORBITAL CHOICE READ IN $VEC.

 Averaged energy =   -2260.366587397

 State #    1  Energy =   -2260.541516129  S =  0.500

      Det      Coef    Occupancy (Ignoring core)
      ---      ----    --------- --------- -----
        1   -0.976462  11110001110000
      107    0.071038  11101000111000
      143   -0.063365  11011001100100
      179   -0.063881  10111001010100
      393   -0.059289  10110101010010
      717   -0.059032  11010011100001

 State #    2  Energy =   -2260.335531904  S =  0.500

      Det      Coef    Occupancy (Ignoring core)
      ---      ----    --------- --------- -----
        2    0.953618  11101001110000
      106   -0.158036  11110000111000
      110   -0.056917  01111000111000
      156    0.082012  11100011100100
      181   -0.084259  11100101010100
      212    0.063705  11101000110100
      387   -0.080864  11101001010010
      391   -0.050489  11100101010010
      396    0.061433  10101101010010
      702    0.077883  11101001100001
      720    0.061572  11001011100001

 State #    3  Energy =   -2260.295098184  S =  0.500

      Det      Coef    Occupancy (Ignoring core)
      ---      ----    --------- --------- -----
        6   -0.117793  11100101110000
       38   -0.105007  11011001101000
       71   -0.949712  11110001011000
       74    0.105710  10111001011000
       78    0.093004  10110101011000
      109   -0.055351  10111000111000
      177    0.116010  11101001010100
      248    0.072965  11011001001100
      822    0.052447  11010011001001

 State #    4  Energy =   -2260.294203372  S =  0.500

      Det      Coef    Occupancy (Ignoring core)
      ---      ----    --------- --------- -----
       16   -0.116470  11100011110000
       36    0.949936  11110001101000
       39    0.105617  10111001101000
       52    0.092941  11010011101000
       73    0.105311  11011001011000
      108    0.054991  11011000111000
      112   -0.050102  11010100111000
      142   -0.115473  11101001100100
      249    0.073378  10111001001100
      463    0.052655  10110101001010

 DENSITY MATRIX OVER ACTIVE MO-S

             1           2           3           4           5

    1    1.9736176
    2   -0.0005743   1.7189400
    3   -0.0000173  -0.0000122   1.7193449
    4   -0.0000000  -0.0000121  -0.0000004   1.2367328
    5    0.0029635   0.0008788   0.0000264  -0.0000002   0.2922947
    6    0.0006528   0.0004880   0.0000015   0.0000246   0.0025231
    7   -0.0000110   0.0000153  -0.0007845  -0.0000004  -0.0000426

             6           7

    6    0.0297593
    7   -0.0000076   0.0293108

 FORMING THE "STANDARD FOCK OPERATOR" IN DIRECT AO INTEGRAL MODE...
 ONLY THE   14 CORE AND   64 VIRTUAL ORBITALS WILL BE CANONICALIZED

          ----------------------
          MCSCF NATURAL ORBITALS
          ----------------------

                      1          2          3          4          5
                 -439.2723   -58.0908   -50.8008   -50.8006   -50.8006
                     A          A          A          A          A   
    1  AS 1  S    1.000007   0.000041  -0.000000   0.000000   0.000000
    2  AS 1  S   -0.000007   0.999990  -0.000000   0.000000   0.000000
    3  AS 1  S    0.000185  -0.000316   0.000000   0.000003  -0.000000
    4  AS 1  S    0.000180  -0.000285   0.000000   0.000004   0.000000
    5  AS 1  S   -0.000081  -0.000190  -0.000000  -0.000000   0.000000
    6  AS 1  S   -0.000023  -0.000071   0.000000   0.000001  -0.000000
    7  AS 1  X   -0.000000   0.000000   0.000050   1.000023  -0.000000
    8  AS 1  Y   -0.000000  -0.000000   0.000000   0.000000   1.000023
    9  AS 1  Z   -0.000000   0.000000   1.000024  -0.000050  -0.000000
   10  AS 1  X   -0.000000   0.000001  -0.000000  -0.000005  -0.000000
   11  AS 1  Y   -0.000000  -0.000000  -0.000000   0.000000  -0.000006
   12  AS 1  Z    0.000000  -0.000000  -0.000004   0.000000   0.000000
   13  AS 1  X   -0.000001   0.000002  -0.000000  -0.000083  -0.000000
   14  AS 1  Y   -0.000000  -0.000000  -0.000000   0.000000  -0.000087
   15  AS 1  Z    0.000000  -0.000000  -0.000005   0.000000  -0.000000
   16  AS 1  X   -0.000000   0.000000  -0.000000  -0.000469   0.000000
   17  AS 1  Y   -0.000000  -0.000000  -0.000000  -0.000000  -0.000470
   18  AS 1  Z   -0.000000  -0.000000  -0.000418   0.000000   0.000000
   19  AS 1  X   -0.000000   0.000000  -0.000000  -0.000084  -0.000000
   20  AS 1  Y   -0.000000   0.000000  -0.000000   0.000000  -0.000084
   21  AS 1  Z   -0.000000  -0.000000  -0.000065   0.000000   0.000000
   22  AS 1 XX   -0.000001   0.000002  -0.000000   0.000001   0.000000
   23  AS 1 YY   -0.000001   0.000002  -0.000000  -0.000001  -0.000000
   24  AS 1 ZZ    0.000002  -0.000004   0.000000   0.000000   0.000000
   25  AS 1 XY   -0.000000  -0.000000  -0.000000   0.000000  -0.000002
   26  AS 1 XZ    0.000000  -0.000000  -0.000000  -0.000000   0.000000
   27  AS 1 YZ   -0.000000  -0.000000  -0.000000   0.000000   0.000000
   28  AS 1 XX    0.000008  -0.000021   0.000000  -0.000052   0.000000
   29  AS 1 YY    0.000009  -0.000022  -0.000000   0.000052   0.000000
   30  AS 1 ZZ   -0.000017   0.000043  -0.000000  -0.000001  -0.000000
   31  AS 1 XY    0.000000  -0.000000   0.000000   0.000000   0.000061
   32  AS 1 XZ   -0.000000   0.000000   0.000000   0.000000  -0.000000
   33  AS 1 YZ   -0.000000  -0.000000  -0.000000  -0.000000  -0.000000
   34  AS 1 XX    0.000010  -0.000024   0.000000  -0.000014  -0.000000
   35  AS 1 YY    0.000010  -0.000025  -0.000000   0.000015   0.000000
   36  AS 1 ZZ   -0.000020   0.000049  -0.000000  -0.000001   0.000000
   37  AS 1 XY   -0.000000  -0.000000  -0.000000  -0.000000   0.000018
   38  AS 1 XZ   -0.000000   0.000000   0.000000   0.000000   0.000000
   39  AS 1 YZ   -0.000000   0.000000  -0.000000   0.000000  -0.000000
   40  AS 1 XXX   0.000020  -0.000050   0.000000  -0.000012   0.000000
   41  AS 1 YYY  -0.000000  -0.000000  -0.000000   0.000000  -0.000013
   42  AS 1 ZZZ  -0.000000   0.000000  -0.000000  -0.000000   0.000000
   43  AS 1 XXY  -0.000000   0.000000  -0.000000   0.000000  -0.000005
   44  AS 1 XXZ  -0.000000   0.000000   0.000000   0.000000  -0.000000
   45  AS 1 YYX  -0.000027   0.000068  -0.000000  -0.000006   0.000000
   46  AS 1 YYZ   0.000000  -0.000000   0.000000   0.000000   0.000000
   47  AS 1 ZZX   0.000000  -0.000000  -0.000000   0.000022   0.000000
   48  AS 1 ZZY  -0.000000  -0.000000  -0.000000  -0.000000   0.000022
   49  AS 1 XYZ   0.000000  -0.000000   0.000000   0.000000   0.000000
   50  H  2  S    0.000003  -0.000002  -0.000000   0.000007  -0.000012
   51  H  2  S   -0.000047   0.000115   0.000000  -0.000033   0.000058
   52  H  2  S    0.000001   0.000023   0.000000  -0.000022   0.000038
   53  H  2  X   -0.000000   0.000003   0.000000  -0.000004   0.000007
   54  H  2  Y    0.000001  -0.000004  -0.000000   0.000007  -0.000012
   55  H  2  Z   -0.000000  -0.000000   0.000001   0.000000  -0.000000
   56  H  2  X   -0.000014   0.000034  -0.000000  -0.000018   0.000029
   57  H  2  Y    0.000023  -0.000059  -0.000000   0.000029  -0.000051
   58  H  2  Z    0.000000  -0.000000  -0.000004   0.000000  -0.000000
   59  H  2 XX    0.000001  -0.000003   0.000000   0.000005  -0.000002
   60  H  2 YY   -0.000003   0.000011  -0.000000  -0.000015   0.000020
   61  H  2 ZZ    0.000002  -0.000008  -0.000000   0.000010  -0.000018
   62  H  2 XY    0.000004  -0.000014  -0.000000   0.000013  -0.000026
   63  H  2 XZ    0.000000  -0.000000   0.000003   0.000000  -0.000000
   64  H  2 YZ   -0.000000   0.000000  -0.000005  -0.000000   0.000000
   65  H  3  S    0.000003  -0.000002  -0.000000   0.000007   0.000012
   66  H  3  S   -0.000047   0.000115   0.000000  -0.000033  -0.000058
   67  H  3  S    0.000001   0.000023   0.000000  -0.000022  -0.000038
   68  H  3  X   -0.000000   0.000003   0.000000  -0.000004  -0.000007
   69  H  3  Y   -0.000001   0.000004  -0.000000  -0.000007  -0.000012
   70  H  3  Z    0.000000  -0.000000   0.000001   0.000000   0.000000
   71  H  3  X   -0.000014   0.000034  -0.000000  -0.000018  -0.000029
   72  H  3  Y   -0.000023   0.000059  -0.000000  -0.000029  -0.000051
   73  H  3  Z    0.000000  -0.000000  -0.000004   0.000000   0.000000
   74  H  3 XX    0.000001  -0.000003   0.000000   0.000005   0.000002
   75  H  3 YY   -0.000003   0.000011  -0.000000  -0.000015  -0.000020
   76  H  3 ZZ    0.000002  -0.000008  -0.000000   0.000010   0.000018
   77  H  3 XY   -0.000004   0.000014   0.000000  -0.000013  -0.000026
   78  H  3 XZ    0.000000  -0.000000   0.000003   0.000000   0.000000
   79  H  3 YZ    0.000000  -0.000000   0.000005   0.000000   0.000000
   80  H  4  S    0.000003  -0.000002  -0.000000  -0.000014   0.000000
   81  H  4  S   -0.000045   0.000111  -0.000000   0.000062   0.000000
   82  H  4  S    0.000001   0.000023  -0.000000   0.000043   0.000000
   83  H  4  X    0.000001  -0.000005   0.000000  -0.000015   0.000000
   84  H  4  Y   -0.000000   0.000000  -0.000000   0.000000  -0.000001
   85  H  4  Z   -0.000000   0.000000   0.000001   0.000000  -0.000000
   86  H  4  X    0.000026  -0.000067  -0.000000  -0.000065  -0.000000
   87  H  4  Y    0.000000  -0.000000  -0.000000   0.000000  -0.000002
   88  H  4  Z   -0.000000   0.000000  -0.000004   0.000000   0.000000
   89  H  4 XX   -0.000005   0.000018  -0.000000   0.000039   0.000000
   90  H  4 YY    0.000003  -0.000010  -0.000000  -0.000019   0.000000
   91  H  4 ZZ    0.000002  -0.000008   0.000000  -0.000020   0.000000
   92  H  4 XY   -0.000000  -0.000000   0.000000   0.000000  -0.000004
   93  H  4 XZ    0.000000  -0.000000  -0.000006  -0.000000   0.000000
   94  H  4 YZ   -0.000000   0.000000  -0.000000   0.000000   0.000000

                      6          7          8          9         10
                   -8.5921    -6.2545    -6.2545    -6.2511    -2.3907
                     A          A          A          A          A   
    1  AS 1  S   -0.000068  -0.000000   0.000002  -0.000000  -0.000000
    2  AS 1  S   -0.000319  -0.000000   0.000013  -0.000000  -0.000000
    3  AS 1  S    0.980078  -0.000000   0.000080  -0.000000  -0.000000
    4  AS 1  S   -0.000986   0.000000   0.000046  -0.000000  -0.000000
    5  AS 1  S    0.029990   0.000000  -0.000021   0.000000   0.000000
    6  AS 1  S    0.003078   0.000000  -0.000011   0.000000   0.000000
    7  AS 1  X    0.000001   0.000000  -0.000098   0.000000  -0.000000
    8  AS 1  Y    0.000000  -0.000097  -0.000000  -0.000000  -0.000158
    9  AS 1  Z   -0.000000  -0.000000   0.000000   0.000038  -0.000000
   10  AS 1  X   -0.000028  -0.000017   0.975576   0.000049  -0.000000
   11  AS 1  Y   -0.000000   0.975579   0.000017   0.000000  -0.000366
   12  AS 1  Z    0.000000  -0.000000  -0.000049   0.976861  -0.000000
   13  AS 1  X    0.000007   0.000000  -0.001005   0.000000  -0.000000
   14  AS 1  Y    0.000000  -0.001001  -0.000000   0.000000  -0.003347
   15  AS 1  Z   -0.000000   0.000000   0.000000   0.000471   0.000000
   16  AS 1  X   -0.000007  -0.000001   0.045899   0.000002   0.000000
   17  AS 1  Y   -0.000000   0.045884   0.000001   0.000000   0.001780
   18  AS 1  Z    0.000000  -0.000000  -0.000002   0.044775   0.000000
   19  AS 1  X   -0.000003  -0.000000   0.001939   0.000000   0.000000
   20  AS 1  Y    0.000000   0.001937   0.000000   0.000000   0.002400
   21  AS 1  Z    0.000000  -0.000000  -0.000000   0.001551  -0.000000
   22  AS 1 XX    0.000303  -0.000000   0.000590  -0.000000  -0.000002
   23  AS 1 YY    0.000311   0.000000  -0.000605  -0.000000   0.000002
   24  AS 1 ZZ   -0.000614  -0.000000   0.000015   0.000000   0.000000
   25  AS 1 XY   -0.000000  -0.000724  -0.000000  -0.000000   0.965603
   26  AS 1 XZ   -0.000000   0.000000  -0.000000  -0.000012  -0.000000
   27  AS 1 YZ    0.000000   0.000000   0.000000  -0.000000  -0.000049
   28  AS 1 XX    0.000053   0.000000  -0.000362  -0.000000  -0.000000
   29  AS 1 YY    0.000051  -0.000000   0.000367  -0.000000   0.000000
   30  AS 1 ZZ   -0.000105  -0.000000  -0.000005   0.000000   0.000000
   31  AS 1 XY   -0.000000   0.000415   0.000000  -0.000000   0.086255
   32  AS 1 XZ   -0.000000  -0.000000   0.000000  -0.000007  -0.000000
   33  AS 1 YZ    0.000000  -0.000000  -0.000000   0.000000  -0.000004
   34  AS 1 XX   -0.000001   0.000000  -0.000209   0.000000  -0.000000
   35  AS 1 YY   -0.000001  -0.000000   0.000211   0.000000   0.000000
   36  AS 1 ZZ    0.000002   0.000000  -0.000002  -0.000000   0.000000
   37  AS 1 XY   -0.000000   0.000244   0.000000  -0.000000   0.000635
   38  AS 1 XZ    0.000000   0.000000   0.000000   0.000003   0.000000
   39  AS 1 YZ    0.000000  -0.000000  -0.000000  -0.000000  -0.000000
   40  AS 1 XXX   0.000071  -0.000000   0.000049   0.000000  -0.000000
   41  AS 1 YYY   0.000000   0.000050   0.000000   0.000000  -0.000309
   42  AS 1 ZZZ   0.000000   0.000000   0.000000  -0.000215  -0.000000
   43  AS 1 XXY   0.000000   0.000018   0.000000   0.000000  -0.000171
   44  AS 1 XXZ  -0.000000  -0.000000  -0.000000   0.000143   0.000000
   45  AS 1 YYX  -0.000095  -0.000000   0.000018   0.000000  -0.000000
   46  AS 1 YYZ   0.000000  -0.000000  -0.000000   0.000146   0.000000
   47  AS 1 ZZX  -0.000000   0.000000  -0.000083  -0.000000   0.000000
   48  AS 1 ZZY  -0.000000  -0.000085  -0.000000  -0.000000   0.000585
   49  AS 1 XYZ  -0.000000  -0.000000  -0.000000   0.000000   0.000000
   50  H  2  S    0.000026   0.000368  -0.000212  -0.000000  -0.004983
   51  H  2  S    0.000227   0.001727  -0.001007   0.000000  -0.003389
   52  H  2  S   -0.000498  -0.000552   0.000320  -0.000000  -0.001434
   53  H  2  X    0.000005   0.000034   0.000004   0.000000  -0.000537
   54  H  2  Y   -0.000008  -0.000035   0.000035   0.000000   0.001410
   55  H  2  Z   -0.000000  -0.000000  -0.000000   0.000012   0.000000
   56  H  2  X   -0.000009   0.000277  -0.000057   0.000000   0.000236
   57  H  2  Y    0.000015  -0.000375   0.000282  -0.000000   0.000682
   58  H  2  Z    0.000000  -0.000000   0.000000   0.000117  -0.000000
   59  H  2 XX   -0.000005  -0.000053   0.000004  -0.000000   0.000296
   60  H  2 YY    0.000033   0.000146  -0.000058   0.000000  -0.000781
   61  H  2 ZZ   -0.000028  -0.000093   0.000054   0.000000   0.000486
   62  H  2 XY   -0.000038  -0.000168   0.000115   0.000000   0.000696
   63  H  2 XZ   -0.000000  -0.000000   0.000000  -0.000014   0.000000
   64  H  2 YZ    0.000000   0.000000  -0.000000   0.000025  -0.000000
   65  H  3  S    0.000026  -0.000368  -0.000212  -0.000000   0.004983
   66  H  3  S    0.000227  -0.001727  -0.001007   0.000000   0.003389
   67  H  3  S   -0.000498   0.000552   0.000320  -0.000000   0.001434
   68  H  3  X    0.000005  -0.000034   0.000004   0.000000   0.000537
   69  H  3  Y    0.000008  -0.000035  -0.000035  -0.000000   0.001410
   70  H  3  Z   -0.000000   0.000000  -0.000000   0.000012  -0.000000
   71  H  3  X   -0.000009  -0.000277  -0.000057   0.000000  -0.000236
   72  H  3  Y   -0.000015  -0.000375  -0.000282   0.000000   0.000682
   73  H  3  Z    0.000000   0.000000   0.000000   0.000117   0.000000
   74  H  3 XX   -0.000005   0.000053   0.000004  -0.000000  -0.000296
   75  H  3 YY    0.000033  -0.000146  -0.000058   0.000000   0.000781
   76  H  3 ZZ   -0.000028   0.000093   0.000054   0.000000  -0.000486
   77  H  3 XY    0.000038  -0.000168  -0.000115  -0.000000   0.000696
   78  H  3 XZ   -0.000000   0.000000   0.000000  -0.000014  -0.000000
   79  H  3 YZ   -0.000000   0.000000   0.000000  -0.000025  -0.000000
   80  H  4  S    0.000026  -0.000000   0.000415  -0.000000  -0.000000
   81  H  4  S    0.000221  -0.000000   0.001967   0.000000  -0.000000
   82  H  4  S   -0.000492   0.000000  -0.000631   0.000000  -0.000000
   83  H  4  X   -0.000005   0.000000  -0.000039   0.000000   0.000000
   84  H  4  Y    0.000000   0.000024   0.000000   0.000000   0.000464
   85  H  4  Z    0.000000  -0.000000   0.000000   0.000012  -0.000000
   86  H  4  X    0.000018   0.000000  -0.000533   0.000000   0.000000
   87  H  4  Y    0.000000   0.000105   0.000000   0.000000   0.001098
   88  H  4  Z   -0.000000  -0.000000   0.000000   0.000116  -0.000000
   89  H  4 XX    0.000047  -0.000000   0.000238   0.000000  -0.000000
   90  H  4 YY   -0.000022   0.000000  -0.000140  -0.000000   0.000000
   91  H  4 ZZ   -0.000025   0.000000  -0.000098  -0.000000   0.000000
   92  H  4 XY    0.000000   0.000030   0.000000  -0.000000  -0.000373
   93  H  4 XZ   -0.000000  -0.000000  -0.000000   0.000029   0.000000
   94  H  4 YZ   -0.000000  -0.000000  -0.000000  -0.000000   0.000000

                     11         12         13         14         15
                   -2.3906    -2.3863    -2.3854    -2.3854     1.9736
                     A          A          A          A          A   
    1  AS 1  S    0.000002  -0.000051  -0.000000  -0.000000   0.000423
    2  AS 1  S    0.000011  -0.000339  -0.000000   0.000000   0.002498
    3  AS 1  S    0.000027  -0.000412  -0.000000   0.000000   0.003944
    4  AS 1  S   -0.000030  -0.000680   0.000000   0.000000   0.554343
    5  AS 1  S   -0.000070   0.000757   0.000000   0.000000   0.267582
    6  AS 1  S   -0.000042   0.003848   0.000000   0.000000   0.127626
    7  AS 1  X   -0.000163   0.000001  -0.000000   0.000000   0.000035
    8  AS 1  Y    0.000000  -0.000000   0.000000  -0.000000   0.000000
    9  AS 1  Z    0.000000  -0.000000   0.000003   0.000000  -0.000000
   10  AS 1  X   -0.000459  -0.000010  -0.000000   0.000000   0.000448
   11  AS 1  Y    0.000000  -0.000000   0.000000  -0.000000  -0.000000
   12  AS 1  Z    0.000000  -0.000000   0.000040   0.000000  -0.000000
   13  AS 1  X   -0.003373   0.000023  -0.000000   0.000000  -0.000536
   14  AS 1  Y    0.000000   0.000000   0.000000  -0.000000   0.000000
   15  AS 1  Z    0.000000  -0.000000  -0.000000  -0.000000   0.000000
   16  AS 1  X    0.001830   0.000003  -0.000000   0.000000  -0.000544
   17  AS 1  Y   -0.000000   0.000000   0.000000   0.000000   0.000000
   18  AS 1  Z   -0.000000   0.000000  -0.000042  -0.000000   0.000000
   19  AS 1  X    0.002405   0.000010  -0.000000   0.000000   0.000024
   20  AS 1  Y   -0.000000  -0.000000  -0.000000  -0.000000   0.000000
   21  AS 1  Z   -0.000000  -0.000000  -0.000010  -0.000000  -0.000000
   22  AS 1 XX   -0.834486  -0.486619   0.000084  -0.000000  -0.013018
   23  AS 1 YY    0.838005  -0.480483   0.000000   0.000000  -0.013447
   24  AS 1 ZZ   -0.003519   0.967101  -0.000084   0.000000   0.026465
   25  AS 1 XY   -0.000002  -0.000000   0.000000   0.000049   0.000000
   26  AS 1 XZ    0.000048   0.000084   0.967350   0.000133   0.000002
   27  AS 1 YZ   -0.000000  -0.000000  -0.000133   0.967342  -0.000000
   28  AS 1 XX   -0.074546  -0.042190   0.000007  -0.000000   0.008217
   29  AS 1 YY    0.074862  -0.041667   0.000000   0.000000   0.008520
   30  AS 1 ZZ   -0.000316   0.083857  -0.000007   0.000000  -0.016737
   31  AS 1 XY   -0.000000  -0.000000   0.000000   0.000004  -0.000000
   32  AS 1 XZ    0.000004   0.000007   0.084086   0.000012  -0.000001
   33  AS 1 YZ   -0.000000  -0.000000  -0.000012   0.084099  -0.000000
   34  AS 1 XX   -0.000524  -0.000808   0.000000   0.000000   0.004254
   35  AS 1 YY    0.000542  -0.000844   0.000000  -0.000000   0.004263
   36  AS 1 ZZ   -0.000018   0.001652  -0.000000  -0.000000  -0.008517
   37  AS 1 XY   -0.000000  -0.000000   0.000000   0.000000  -0.000000
   38  AS 1 XZ    0.000000   0.000000   0.001515   0.000000  -0.000001
   39  AS 1 YZ   -0.000000  -0.000000  -0.000000   0.001515  -0.000000
   40  AS 1 XXX  -0.000300  -0.000747   0.000000   0.000000   0.013336
   41  AS 1 YYY   0.000000   0.000000  -0.000000  -0.000000   0.000000
   42  AS 1 ZZZ  -0.000000   0.000000   0.000009   0.000000  -0.000000
   43  AS 1 XXY   0.000000   0.000000   0.000000  -0.000000  -0.000000
   44  AS 1 XXZ   0.000000   0.000000   0.000210   0.000000  -0.000001
   45  AS 1 YYX  -0.000173   0.001021  -0.000000  -0.000000  -0.017955
   46  AS 1 YYZ   0.000000  -0.000000  -0.000222  -0.000000   0.000001
   47  AS 1 ZZX   0.000575  -0.000018  -0.000000  -0.000000   0.000064
   48  AS 1 ZZY  -0.000000  -0.000000  -0.000000   0.000000  -0.000000
   49  AS 1 XYZ   0.000000  -0.000000   0.000000  -0.000273   0.000000
   50  H  2  S    0.002878  -0.002801  -0.000000   0.000000   0.073122
   51  H  2  S    0.001936  -0.001338  -0.000000   0.000000   0.104067
   52  H  2  S    0.000835  -0.000345  -0.000000   0.000000   0.008754
   53  H  2  X    0.000790  -0.000473  -0.000000   0.000000   0.003467
   54  H  2  Y   -0.000538   0.000822   0.000000  -0.000000  -0.006008
   55  H  2  Z   -0.000000   0.000000  -0.000242   0.000418  -0.000000
   56  H  2  X    0.000964  -0.000112  -0.000000   0.000000   0.006065
   57  H  2  Y    0.000250   0.000204   0.000000  -0.000000  -0.010544
   58  H  2  Z   -0.000000   0.000000  -0.000610   0.001049  -0.000000
   59  H  2 XX    0.000164  -0.000004  -0.000000   0.000000   0.000020
   60  H  2 YY    0.000119  -0.000451  -0.000000   0.000000   0.001496
   61  H  2 ZZ   -0.000283   0.000455   0.000000  -0.000000  -0.001515
   62  H  2 XY   -0.000625   0.000445   0.000000  -0.000000  -0.001461
   63  H  2 XZ   -0.000000   0.000000  -0.000043   0.000267  -0.000000
   64  H  2 YZ    0.000000  -0.000000   0.000267  -0.000350   0.000000
   65  H  3  S    0.002878  -0.002801  -0.000000  -0.000000   0.073122
   66  H  3  S    0.001936  -0.001338  -0.000000  -0.000000   0.104067
   67  H  3  S    0.000835  -0.000345   0.000000  -0.000000   0.008754
   68  H  3  X    0.000790  -0.000473  -0.000000  -0.000000   0.003467
   69  H  3  Y    0.000538  -0.000822  -0.000000  -0.000000   0.006008
   70  H  3  Z   -0.000000   0.000000  -0.000242  -0.000418  -0.000000
   71  H  3  X    0.000964  -0.000112  -0.000000  -0.000000   0.006065
   72  H  3  Y   -0.000250  -0.000204  -0.000000  -0.000000   0.010544
   73  H  3  Z   -0.000000   0.000000  -0.000609  -0.001049  -0.000000
   74  H  3 XX    0.000164  -0.000004  -0.000000  -0.000000   0.000020
   75  H  3 YY    0.000119  -0.000451  -0.000000  -0.000000   0.001496
   76  H  3 ZZ   -0.000283   0.000455   0.000000   0.000000  -0.001515
   77  H  3 XY    0.000625  -0.000445  -0.000000  -0.000000   0.001461
   78  H  3 XZ   -0.000000   0.000000  -0.000043  -0.000267  -0.000000
   79  H  3 YZ   -0.000000   0.000000  -0.000267  -0.000350  -0.000000
   80  H  4  S   -0.005615  -0.002753   0.000000   0.000000   0.072013
   81  H  4  S   -0.003924  -0.001400   0.000000   0.000000   0.102993
   82  H  4  S   -0.001665  -0.000360   0.000000  -0.000000   0.008773
   83  H  4  X    0.001656   0.000922   0.000000   0.000000  -0.006811
   84  H  4  Y   -0.000000  -0.000000   0.000000   0.000000   0.000000
   85  H  4  Z   -0.000000  -0.000000   0.000464   0.000000   0.000000
   86  H  4  X    0.000557   0.000260   0.000000   0.000000  -0.012044
   87  H  4  Y   -0.000000  -0.000000   0.000000   0.000000   0.000000
   88  H  4  Z   -0.000000  -0.000000   0.001207   0.000000   0.000001
   89  H  4 XX   -0.001162  -0.000664  -0.000000  -0.000000   0.002176
   90  H  4 YY    0.000617   0.000216  -0.000000   0.000000  -0.000690
   91  H  4 ZZ    0.000544   0.000448   0.000000   0.000000  -0.001486
   92  H  4 XY    0.000000   0.000000  -0.000000   0.000000  -0.000000
   93  H  4 XZ    0.000000   0.000000  -0.000486  -0.000000  -0.000000
   94  H  4 YZ    0.000000   0.000000  -0.000000   0.000110   0.000000

                     16         17         18         19         20
                    1.7193     1.7189     1.2367     0.2923     0.0297
                     A          A          A          A          A   
    1  AS 1  S    0.000000   0.000015  -0.000000   0.001429  -0.000151
    2  AS 1  S    0.000000   0.000103  -0.000000   0.010682  -0.001049
    3  AS 1  S   -0.000000   0.000417  -0.000000   0.067531  -0.004684
    4  AS 1  S   -0.000000   0.001719  -0.000000   0.493007  -0.011920
    5  AS 1  S   -0.000000   0.000647  -0.000000   0.282124  -0.005564
    6  AS 1  S   -0.000000   0.001602  -0.000000   0.620026   0.000140
    7  AS 1  X    0.000000  -0.003958  -0.000000   0.000014   0.013524
    8  AS 1  Y   -0.004015  -0.000000  -0.000000  -0.000000   0.000000
    9  AS 1  Z    0.000000   0.000000  -0.000279   0.000000  -0.000001
   10  AS 1  X    0.000000  -0.052851  -0.000000   0.000315   0.184867
   11  AS 1  Y   -0.053531  -0.000000  -0.000000  -0.000000   0.000001
   12  AS 1  Z    0.000000   0.000003  -0.001552   0.000000  -0.000009
   13  AS 1  X   -0.000000   0.362322   0.000031   0.007013   0.969176
   14  AS 1  Y    0.361785   0.000000   0.000000  -0.000000   0.000003
   15  AS 1  Z   -0.000000  -0.000018   0.609953  -0.000000  -0.000049
   16  AS 1  X   -0.000000   0.170468   0.000012   0.002710   0.274792
   17  AS 1  Y    0.170809   0.000000   0.000000  -0.000000   0.000001
   18  AS 1  Z   -0.000000  -0.000009   0.231760  -0.000000  -0.000014
   19  AS 1  X   -0.000000   0.065831   0.000015   0.004637   0.205539
   20  AS 1  Y    0.065183   0.000000   0.000000  -0.000000   0.000001
   21  AS 1  Z   -0.000000  -0.000003   0.294113  -0.000000  -0.000010
   22  AS 1 XX    0.000000  -0.053971   0.000000   0.057750   0.103190
   23  AS 1 YY   -0.000000   0.054195  -0.000000   0.056344  -0.105167
   24  AS 1 ZZ   -0.000000  -0.000223   0.000000  -0.114095   0.001977
   25  AS 1 XY    0.062990   0.000000   0.000000  -0.000000  -0.000000
   26  AS 1 XZ   -0.000000   0.000003   0.000079  -0.000010  -0.000006
   27  AS 1 YZ   -0.000003  -0.000000  -0.000000  -0.000000   0.000000
   28  AS 1 XX   -0.000000   0.027397  -0.000000  -0.045974  -0.058241
   29  AS 1 YY    0.000000  -0.027510  -0.000000  -0.045080   0.059501
   30  AS 1 ZZ   -0.000000   0.000113   0.000000   0.091054  -0.001260
   31  AS 1 XY   -0.031961  -0.000000  -0.000000   0.000000   0.000000
   32  AS 1 XZ    0.000000  -0.000002  -0.000011   0.000008   0.000003
   33  AS 1 YZ    0.000002   0.000000   0.000000   0.000000  -0.000000
   34  AS 1 XX   -0.000000   0.020655   0.000000  -0.087813   0.040369
   35  AS 1 YY    0.000000  -0.020709  -0.000000  -0.085312  -0.039716
   36  AS 1 ZZ   -0.000000   0.000054   0.000000   0.173125  -0.000653
   37  AS 1 XY   -0.023924  -0.000000  -0.000000   0.000000  -0.000000
   38  AS 1 XZ   -0.000000  -0.000001   0.000083   0.000015  -0.000002
   39  AS 1 YZ    0.000001   0.000000   0.000000   0.000000  -0.000000
   40  AS 1 XXX  -0.000000   0.007615   0.000001  -0.043362  -0.005332
   41  AS 1 YYY   0.007713   0.000000   0.000000  -0.000000   0.000000
   42  AS 1 ZZZ   0.000000   0.000002  -0.014735  -0.000000  -0.000001
   43  AS 1 XXY   0.003491   0.000000   0.000000   0.000000  -0.000000
   44  AS 1 XXZ  -0.000000  -0.000002   0.009886   0.000003   0.000001
   45  AS 1 YYX  -0.000000   0.003563   0.000000   0.057952  -0.003827
   46  AS 1 YYZ  -0.000000  -0.000000   0.009883  -0.000003   0.000000
   47  AS 1 ZZX   0.000000  -0.013779  -0.000002   0.000223   0.010982
   48  AS 1 ZZY  -0.013839  -0.000000  -0.000000  -0.000000   0.000000
   49  AS 1 XYZ  -0.000001  -0.000000   0.000000  -0.000000  -0.000000
   50  H  2  S    0.140810  -0.081127   0.000000  -0.139956   0.135867
   51  H  2  S    0.246712  -0.142137   0.000000  -0.325940   0.386192
   52  H  2  S    0.070454  -0.040848   0.000000  -0.296290   0.034831
   53  H  2  X    0.005790  -0.001355   0.000000   0.000651   0.007921
   54  H  2  Y   -0.008057   0.005767  -0.000000  -0.000981  -0.001500
   55  H  2  Z   -0.000000   0.000000   0.004536  -0.000000  -0.000000
   56  H  2  X    0.014137  -0.002380   0.000001  -0.000063   0.060717
   57  H  2  Y   -0.018788   0.014067  -0.000000   0.000669  -0.040991
   58  H  2  Z   -0.000001   0.000000   0.023442   0.000000  -0.000003
   59  H  2 XX    0.000231   0.001450   0.000000  -0.000422   0.003677
   60  H  2 YY    0.001652  -0.002536   0.000000  -0.000091   0.000204
   61  H  2 ZZ   -0.001883   0.001085  -0.000000   0.000513  -0.003880
   62  H  2 XY   -0.003264   0.000816  -0.000000  -0.000409  -0.006950
   63  H  2 XZ   -0.000000  -0.000000   0.001337   0.000000  -0.000000
   64  H  2 YZ    0.000000  -0.000000  -0.002315   0.000000   0.000000
   65  H  3  S   -0.140810  -0.081127   0.000000  -0.139956   0.135869
   66  H  3  S   -0.246712  -0.142137   0.000000  -0.325940   0.386196
   67  H  3  S   -0.070454  -0.040848   0.000000  -0.296290   0.034831
   68  H  3  X   -0.005790  -0.001355   0.000000   0.000651   0.007921
   69  H  3  Y   -0.008057  -0.005767   0.000000   0.000981   0.001500
   70  H  3  Z    0.000000   0.000000   0.004536  -0.000000  -0.000000
   71  H  3  X   -0.014137  -0.002380   0.000001  -0.000063   0.060717
   72  H  3  Y   -0.018788  -0.014067   0.000000  -0.000669   0.040992
   73  H  3  Z    0.000001   0.000000   0.023442  -0.000000  -0.000003
   74  H  3 XX   -0.000231   0.001450   0.000000  -0.000422   0.003677
   75  H  3 YY   -0.001652  -0.002536   0.000000  -0.000091   0.000204
   76  H  3 ZZ    0.001883   0.001085  -0.000000   0.000513  -0.003880
   77  H  3 XY   -0.003264  -0.000816   0.000000   0.000409   0.006950
   78  H  3 XZ    0.000000  -0.000000   0.001337   0.000000  -0.000000
   79  H  3 YZ    0.000000   0.000000   0.002315  -0.000000  -0.000000
   80  H  4  S   -0.000000   0.161985   0.000000  -0.142400  -0.261715
   81  H  4  S   -0.000000   0.285089   0.000000  -0.333003  -0.751732
   82  H  4  S   -0.000000   0.081699   0.000000  -0.303730  -0.074214
   83  H  4  X    0.000000  -0.011307   0.000000  -0.001256   0.009694
   84  H  4  Y    0.001925   0.000000   0.000000   0.000000   0.000000
   85  H  4  Z   -0.000000   0.000001   0.004463   0.000000  -0.000000
   86  H  4  X    0.000000  -0.027055   0.000001   0.000884   0.128414
   87  H  4  Y    0.005661   0.000000   0.000000   0.000000   0.000000
   88  H  4  Z   -0.000000   0.000001   0.023349  -0.000000  -0.000006
   89  H  4 XX   -0.000000   0.004330  -0.000000   0.000197  -0.012142
   90  H  4 YY    0.000000  -0.002147  -0.000000  -0.000669   0.004756
   91  H  4 ZZ    0.000000  -0.002183   0.000000   0.000472   0.007386
   92  H  4 XY   -0.001797  -0.000000  -0.000000  -0.000000  -0.000000
   93  H  4 XZ    0.000000  -0.000000  -0.002661   0.000000   0.000001
   94  H  4 YZ    0.000000  -0.000000  -0.000000   0.000000  -0.000000

                     21
                    0.0293
                     A   
    1  AS 1  S   -0.000000
    2  AS 1  S   -0.000000
    3  AS 1  S   -0.000000
    4  AS 1  S   -0.000000
    5  AS 1  S    0.000000
    6  AS 1  S    0.000000
    7  AS 1  X   -0.000000
    8  AS 1  Y    0.013782
    9  AS 1  Z   -0.000000
   10  AS 1  X   -0.000001
   11  AS 1  Y    0.188121
   12  AS 1  Z   -0.000000
   13  AS 1  X   -0.000003
   14  AS 1  Y    0.975774
   15  AS 1  Z   -0.000000
   16  AS 1  X   -0.000001
   17  AS 1  Y    0.275576
   18  AS 1  Z   -0.000000
   19  AS 1  X   -0.000001
   20  AS 1  Y    0.204578
   21  AS 1  Z   -0.000000
   22  AS 1 XX   -0.000000
   23  AS 1 YY    0.000000
   24  AS 1 ZZ   -0.000000
   25  AS 1 XY   -0.121221
   26  AS 1 XZ    0.000000
   27  AS 1 YZ    0.000006
   28  AS 1 XX    0.000000
   29  AS 1 YY   -0.000000
   30  AS 1 ZZ    0.000000
   31  AS 1 XY    0.067814
   32  AS 1 XZ   -0.000000
   33  AS 1 YZ   -0.000004
   34  AS 1 XX   -0.000000
   35  AS 1 YY    0.000000
   36  AS 1 ZZ    0.000000
   37  AS 1 XY   -0.047778
   38  AS 1 XZ   -0.000000
   39  AS 1 YZ    0.000002
   40  AS 1 XXX   0.000000
   41  AS 1 YYY  -0.006063
   42  AS 1 ZZZ   0.000000
   43  AS 1 XXY  -0.002511
   44  AS 1 XXZ   0.000000
   45  AS 1 YYX   0.000000
   46  AS 1 YYZ  -0.000000
   47  AS 1 ZZX  -0.000000
   48  AS 1 ZZY   0.010646
   49  AS 1 XYZ   0.000001
   50  H  2  S   -0.230915
   51  H  2  S   -0.661294
   52  H  2  S   -0.061177
   53  H  2  X   -0.001371
   54  H  2  Y    0.009544
   55  H  2  Z    0.000000
   56  H  2  X   -0.040565
   57  H  2  Y    0.108149
   58  H  2  Z    0.000002
   59  H  2 XX    0.002766
   60  H  2 YY   -0.009366
   61  H  2 ZZ    0.006600
   62  H  2 XY    0.006033
   63  H  2 XZ    0.000000
   64  H  2 YZ   -0.000000
   65  H  3  S    0.230914
   66  H  3  S    0.661292
   67  H  3  S    0.061176
   68  H  3  X    0.001371
   69  H  3  Y    0.009544
   70  H  3  Z   -0.000000
   71  H  3  X    0.040564
   72  H  3  Y    0.108148
   73  H  3  Z   -0.000002
   74  H  3 XX   -0.002766
   75  H  3 YY    0.009366
   76  H  3 ZZ   -0.006600
   77  H  3 XY    0.006033
   78  H  3 XZ   -0.000000
   79  H  3 YZ   -0.000000
   80  H  4  S    0.000001
   81  H  4  S    0.000002
   82  H  4  S    0.000000
   83  H  4  X   -0.000000
   84  H  4  Y    0.006970
   85  H  4  Z    0.000000
   86  H  4  X   -0.000000
   87  H  4  Y    0.037050
   88  H  4  Z   -0.000000
   89  H  4 XX    0.000000
   90  H  4 YY   -0.000000
   91  H  4 ZZ   -0.000000
   92  H  4 XY   -0.006034
   93  H  4 XZ    0.000000
   94  H  4 YZ    0.000000

          ------------------------
          MCSCF OPTIMIZED ORBITALS
          ------------------------

                      1          2          3          4          5
                 -439.2723   -58.0908   -50.8008   -50.8006   -50.8006
                     A          A          A          A          A   
    1  AS 1  S    1.000007   0.000041  -0.000000   0.000000   0.000000
    2  AS 1  S   -0.000007   0.999990  -0.000000   0.000000   0.000000
    3  AS 1  S    0.000185  -0.000316   0.000000   0.000003  -0.000000
    4  AS 1  S    0.000180  -0.000285   0.000000   0.000004   0.000000
    5  AS 1  S   -0.000081  -0.000190  -0.000000  -0.000000   0.000000
    6  AS 1  S   -0.000023  -0.000071   0.000000   0.000001  -0.000000
    7  AS 1  X   -0.000000   0.000000   0.000050   1.000023  -0.000000
    8  AS 1  Y   -0.000000  -0.000000   0.000000   0.000000   1.000023
    9  AS 1  Z   -0.000000   0.000000   1.000024  -0.000050  -0.000000
   10  AS 1  X   -0.000000   0.000001  -0.000000  -0.000005  -0.000000
   11  AS 1  Y   -0.000000  -0.000000  -0.000000   0.000000  -0.000006
   12  AS 1  Z    0.000000  -0.000000  -0.000004   0.000000   0.000000
   13  AS 1  X   -0.000001   0.000002  -0.000000  -0.000083  -0.000000
   14  AS 1  Y   -0.000000  -0.000000  -0.000000   0.000000  -0.000087
   15  AS 1  Z    0.000000  -0.000000  -0.000005   0.000000  -0.000000
   16  AS 1  X   -0.000000   0.000000  -0.000000  -0.000469   0.000000
   17  AS 1  Y   -0.000000  -0.000000  -0.000000  -0.000000  -0.000470
   18  AS 1  Z   -0.000000  -0.000000  -0.000418   0.000000   0.000000
   19  AS 1  X   -0.000000   0.000000  -0.000000  -0.000084  -0.000000
   20  AS 1  Y   -0.000000   0.000000  -0.000000   0.000000  -0.000084
   21  AS 1  Z   -0.000000  -0.000000  -0.000065   0.000000   0.000000
   22  AS 1 XX   -0.000001   0.000002  -0.000000   0.000001   0.000000
   23  AS 1 YY   -0.000001   0.000002  -0.000000  -0.000001  -0.000000
   24  AS 1 ZZ    0.000002  -0.000004   0.000000   0.000000   0.000000
   25  AS 1 XY   -0.000000  -0.000000  -0.000000   0.000000  -0.000002
   26  AS 1 XZ    0.000000  -0.000000  -0.000000  -0.000000   0.000000
   27  AS 1 YZ   -0.000000  -0.000000  -0.000000   0.000000   0.000000
   28  AS 1 XX    0.000008  -0.000021   0.000000  -0.000052   0.000000
   29  AS 1 YY    0.000009  -0.000022  -0.000000   0.000052   0.000000
   30  AS 1 ZZ   -0.000017   0.000043  -0.000000  -0.000001  -0.000000
   31  AS 1 XY    0.000000  -0.000000   0.000000   0.000000   0.000061
   32  AS 1 XZ   -0.000000   0.000000   0.000000   0.000000  -0.000000
   33  AS 1 YZ   -0.000000  -0.000000  -0.000000  -0.000000  -0.000000
   34  AS 1 XX    0.000010  -0.000024   0.000000  -0.000014  -0.000000
   35  AS 1 YY    0.000010  -0.000025  -0.000000   0.000015   0.000000
   36  AS 1 ZZ   -0.000020   0.000049  -0.000000  -0.000001   0.000000
   37  AS 1 XY   -0.000000  -0.000000  -0.000000  -0.000000   0.000018
   38  AS 1 XZ   -0.000000   0.000000   0.000000   0.000000   0.000000
   39  AS 1 YZ   -0.000000   0.000000  -0.000000   0.000000  -0.000000
   40  AS 1 XXX   0.000020  -0.000050   0.000000  -0.000012   0.000000
   41  AS 1 YYY  -0.000000  -0.000000  -0.000000   0.000000  -0.000013
   42  AS 1 ZZZ  -0.000000   0.000000  -0.000000  -0.000000   0.000000
   43  AS 1 XXY  -0.000000   0.000000  -0.000000   0.000000  -0.000005
   44  AS 1 XXZ  -0.000000   0.000000   0.000000   0.000000  -0.000000
   45  AS 1 YYX  -0.000027   0.000068  -0.000000  -0.000006   0.000000
   46  AS 1 YYZ   0.000000  -0.000000   0.000000   0.000000   0.000000
   47  AS 1 ZZX   0.000000  -0.000000  -0.000000   0.000022   0.000000
   48  AS 1 ZZY  -0.000000  -0.000000  -0.000000  -0.000000   0.000022
   49  AS 1 XYZ   0.000000  -0.000000   0.000000   0.000000   0.000000
   50  H  2  S    0.000003  -0.000002  -0.000000   0.000007  -0.000012
   51  H  2  S   -0.000047   0.000115   0.000000  -0.000033   0.000058
   52  H  2  S    0.000001   0.000023   0.000000  -0.000022   0.000038
   53  H  2  X   -0.000000   0.000003   0.000000  -0.000004   0.000007
   54  H  2  Y    0.000001  -0.000004  -0.000000   0.000007  -0.000012
   55  H  2  Z   -0.000000  -0.000000   0.000001   0.000000  -0.000000
   56  H  2  X   -0.000014   0.000034  -0.000000  -0.000018   0.000029
   57  H  2  Y    0.000023  -0.000059  -0.000000   0.000029  -0.000051
   58  H  2  Z    0.000000  -0.000000  -0.000004   0.000000  -0.000000
   59  H  2 XX    0.000001  -0.000003   0.000000   0.000005  -0.000002
   60  H  2 YY   -0.000003   0.000011  -0.000000  -0.000015   0.000020
   61  H  2 ZZ    0.000002  -0.000008  -0.000000   0.000010  -0.000018
   62  H  2 XY    0.000004  -0.000014  -0.000000   0.000013  -0.000026
   63  H  2 XZ    0.000000  -0.000000   0.000003   0.000000  -0.000000
   64  H  2 YZ   -0.000000   0.000000  -0.000005  -0.000000   0.000000
   65  H  3  S    0.000003  -0.000002  -0.000000   0.000007   0.000012
   66  H  3  S   -0.000047   0.000115   0.000000  -0.000033  -0.000058
   67  H  3  S    0.000001   0.000023   0.000000  -0.000022  -0.000038
   68  H  3  X   -0.000000   0.000003   0.000000  -0.000004  -0.000007
   69  H  3  Y   -0.000001   0.000004  -0.000000  -0.000007  -0.000012
   70  H  3  Z    0.000000  -0.000000   0.000001   0.000000   0.000000
   71  H  3  X   -0.000014   0.000034  -0.000000  -0.000018  -0.000029
   72  H  3  Y   -0.000023   0.000059  -0.000000  -0.000029  -0.000051
   73  H  3  Z    0.000000  -0.000000  -0.000004   0.000000   0.000000
   74  H  3 XX    0.000001  -0.000003   0.000000   0.000005   0.000002
   75  H  3 YY   -0.000003   0.000011  -0.000000  -0.000015  -0.000020
   76  H  3 ZZ    0.000002  -0.000008  -0.000000   0.000010   0.000018
   77  H  3 XY   -0.000004   0.000014   0.000000  -0.000013  -0.000026
   78  H  3 XZ    0.000000  -0.000000   0.000003   0.000000   0.000000
   79  H  3 YZ    0.000000  -0.000000   0.000005   0.000000   0.000000
   80  H  4  S    0.000003  -0.000002  -0.000000  -0.000014   0.000000
   81  H  4  S   -0.000045   0.000111  -0.000000   0.000062   0.000000
   82  H  4  S    0.000001   0.000023  -0.000000   0.000043   0.000000
   83  H  4  X    0.000001  -0.000005   0.000000  -0.000015   0.000000
   84  H  4  Y   -0.000000   0.000000  -0.000000   0.000000  -0.000001
   85  H  4  Z   -0.000000   0.000000   0.000001   0.000000  -0.000000
   86  H  4  X    0.000026  -0.000067  -0.000000  -0.000065  -0.000000
   87  H  4  Y    0.000000  -0.000000  -0.000000   0.000000  -0.000002
   88  H  4  Z   -0.000000   0.000000  -0.000004   0.000000   0.000000
   89  H  4 XX   -0.000005   0.000018  -0.000000   0.000039   0.000000
   90  H  4 YY    0.000003  -0.000010  -0.000000  -0.000019   0.000000
   91  H  4 ZZ    0.000002  -0.000008   0.000000  -0.000020   0.000000
   92  H  4 XY   -0.000000  -0.000000   0.000000   0.000000  -0.000004
   93  H  4 XZ    0.000000  -0.000000  -0.000006  -0.000000   0.000000
   94  H  4 YZ   -0.000000   0.000000  -0.000000   0.000000   0.000000

                      6          7          8          9         10
                   -8.5921    -6.2545    -6.2545    -6.2511    -2.3907
                     A          A          A          A          A   
    1  AS 1  S   -0.000068  -0.000000   0.000002  -0.000000  -0.000000
    2  AS 1  S   -0.000319  -0.000000   0.000013  -0.000000  -0.000000
    3  AS 1  S    0.980078  -0.000000   0.000080  -0.000000  -0.000000
    4  AS 1  S   -0.000986   0.000000   0.000046  -0.000000  -0.000000
    5  AS 1  S    0.029990   0.000000  -0.000021   0.000000   0.000000
    6  AS 1  S    0.003078   0.000000  -0.000011   0.000000   0.000000
    7  AS 1  X    0.000001   0.000000  -0.000098   0.000000  -0.000000
    8  AS 1  Y    0.000000  -0.000097  -0.000000  -0.000000  -0.000158
    9  AS 1  Z   -0.000000  -0.000000   0.000000   0.000038  -0.000000
   10  AS 1  X   -0.000028  -0.000017   0.975576   0.000049  -0.000000
   11  AS 1  Y   -0.000000   0.975579   0.000017   0.000000  -0.000366
   12  AS 1  Z    0.000000  -0.000000  -0.000049   0.976861  -0.000000
   13  AS 1  X    0.000007   0.000000  -0.001005   0.000000  -0.000000
   14  AS 1  Y    0.000000  -0.001001  -0.000000   0.000000  -0.003347
   15  AS 1  Z   -0.000000   0.000000   0.000000   0.000471   0.000000
   16  AS 1  X   -0.000007  -0.000001   0.045899   0.000002   0.000000
   17  AS 1  Y   -0.000000   0.045884   0.000001   0.000000   0.001780
   18  AS 1  Z    0.000000  -0.000000  -0.000002   0.044775   0.000000
   19  AS 1  X   -0.000003  -0.000000   0.001939   0.000000   0.000000
   20  AS 1  Y    0.000000   0.001937   0.000000   0.000000   0.002400
   21  AS 1  Z    0.000000  -0.000000  -0.000000   0.001551  -0.000000
   22  AS 1 XX    0.000303  -0.000000   0.000590  -0.000000  -0.000002
   23  AS 1 YY    0.000311   0.000000  -0.000605  -0.000000   0.000002
   24  AS 1 ZZ   -0.000614  -0.000000   0.000015   0.000000   0.000000
   25  AS 1 XY   -0.000000  -0.000724  -0.000000  -0.000000   0.965603
   26  AS 1 XZ   -0.000000   0.000000  -0.000000  -0.000012  -0.000000
   27  AS 1 YZ    0.000000   0.000000   0.000000  -0.000000  -0.000049
   28  AS 1 XX    0.000053   0.000000  -0.000362  -0.000000  -0.000000
   29  AS 1 YY    0.000051  -0.000000   0.000367  -0.000000   0.000000
   30  AS 1 ZZ   -0.000105  -0.000000  -0.000005   0.000000   0.000000
   31  AS 1 XY   -0.000000   0.000415   0.000000  -0.000000   0.086255
   32  AS 1 XZ   -0.000000  -0.000000   0.000000  -0.000007  -0.000000
   33  AS 1 YZ    0.000000  -0.000000  -0.000000   0.000000  -0.000004
   34  AS 1 XX   -0.000001   0.000000  -0.000209   0.000000  -0.000000
   35  AS 1 YY   -0.000001  -0.000000   0.000211   0.000000   0.000000
   36  AS 1 ZZ    0.000002   0.000000  -0.000002  -0.000000   0.000000
   37  AS 1 XY   -0.000000   0.000244   0.000000  -0.000000   0.000635
   38  AS 1 XZ    0.000000   0.000000   0.000000   0.000003   0.000000
   39  AS 1 YZ    0.000000  -0.000000  -0.000000  -0.000000  -0.000000
   40  AS 1 XXX   0.000071  -0.000000   0.000049   0.000000  -0.000000
   41  AS 1 YYY   0.000000   0.000050   0.000000   0.000000  -0.000309
   42  AS 1 ZZZ   0.000000   0.000000   0.000000  -0.000215  -0.000000
   43  AS 1 XXY   0.000000   0.000018   0.000000   0.000000  -0.000171
   44  AS 1 XXZ  -0.000000  -0.000000  -0.000000   0.000143   0.000000
   45  AS 1 YYX  -0.000095  -0.000000   0.000018   0.000000  -0.000000
   46  AS 1 YYZ   0.000000  -0.000000  -0.000000   0.000146   0.000000
   47  AS 1 ZZX  -0.000000   0.000000  -0.000083  -0.000000   0.000000
   48  AS 1 ZZY  -0.000000  -0.000085  -0.000000  -0.000000   0.000585
   49  AS 1 XYZ  -0.000000  -0.000000  -0.000000   0.000000   0.000000
   50  H  2  S    0.000026   0.000368  -0.000212  -0.000000  -0.004983
   51  H  2  S    0.000227   0.001727  -0.001007   0.000000  -0.003389
   52  H  2  S   -0.000498  -0.000552   0.000320  -0.000000  -0.001434
   53  H  2  X    0.000005   0.000034   0.000004   0.000000  -0.000537
   54  H  2  Y   -0.000008  -0.000035   0.000035   0.000000   0.001410
   55  H  2  Z   -0.000000  -0.000000  -0.000000   0.000012   0.000000
   56  H  2  X   -0.000009   0.000277  -0.000057   0.000000   0.000236
   57  H  2  Y    0.000015  -0.000375   0.000282  -0.000000   0.000682
   58  H  2  Z    0.000000  -0.000000   0.000000   0.000117  -0.000000
   59  H  2 XX   -0.000005  -0.000053   0.000004  -0.000000   0.000296
   60  H  2 YY    0.000033   0.000146  -0.000058   0.000000  -0.000781
   61  H  2 ZZ   -0.000028  -0.000093   0.000054   0.000000   0.000486
   62  H  2 XY   -0.000038  -0.000168   0.000115   0.000000   0.000696
   63  H  2 XZ   -0.000000  -0.000000   0.000000  -0.000014   0.000000
   64  H  2 YZ    0.000000   0.000000  -0.000000   0.000025  -0.000000
   65  H  3  S    0.000026  -0.000368  -0.000212  -0.000000   0.004983
   66  H  3  S    0.000227  -0.001727  -0.001007   0.000000   0.003389
   67  H  3  S   -0.000498   0.000552   0.000320  -0.000000   0.001434
   68  H  3  X    0.000005  -0.000034   0.000004   0.000000   0.000537
   69  H  3  Y    0.000008  -0.000035  -0.000035  -0.000000   0.001410
   70  H  3  Z   -0.000000   0.000000  -0.000000   0.000012  -0.000000
   71  H  3  X   -0.000009  -0.000277  -0.000057   0.000000  -0.000236
   72  H  3  Y   -0.000015  -0.000375  -0.000282   0.000000   0.000682
   73  H  3  Z    0.000000   0.000000   0.000000   0.000117   0.000000
   74  H  3 XX   -0.000005   0.000053   0.000004  -0.000000  -0.000296
   75  H  3 YY    0.000033  -0.000146  -0.000058   0.000000   0.000781
   76  H  3 ZZ   -0.000028   0.000093   0.000054   0.000000  -0.000486
   77  H  3 XY    0.000038  -0.000168  -0.000115  -0.000000   0.000696
   78  H  3 XZ   -0.000000   0.000000   0.000000  -0.000014  -0.000000
   79  H  3 YZ   -0.000000   0.000000   0.000000  -0.000025  -0.000000
   80  H  4  S    0.000026  -0.000000   0.000415  -0.000000  -0.000000
   81  H  4  S    0.000221  -0.000000   0.001967   0.000000  -0.000000
[...]
       53    0.035595    0.035595  2-+200+
      332   -0.032359    0.032359  ++-2-0+
      526    0.029969    0.029969  ++220-0
      841   -0.028589    0.028589  +2+200-
      878    0.028547    0.028547  ++-2+0-
      809    0.027974   -0.027974  20+2+0-
      458   -0.027970    0.027970  2+02+-0
      323    0.025694   -0.025694  +022-+0
      320    0.025285    0.025285  0+22200
      534    0.025058    0.025058  0+22020
      264    0.025009   -0.025009  -++2-0+
      894    0.024889    0.024889  0+22002
      263   -0.024546   -0.024546  20+2-0+
      252    0.024404    0.024404  2+02-+0
      462    0.022366   -0.022366  2+02020
      806   -0.022112   -0.022112  2++200-
      529   -0.021418   -0.021418  +022+-0
       54   -0.020793    0.020793  -2+200+

 ---------------------------------------
      - DIABATIC STATES IN CMO -        
 ---------------------------------------

 State #    1  Energy =   -2260.772950150

      Det      Coef        Coefp    Occupancy (Ignoring core)
      ---      ----        ----    --------- --------- -----
        1   -0.976463    0.976463  222+000
      107    0.071030   -0.071030  +22-+00
      179    0.064567    0.064567  202+200
      143    0.062684    0.062684  220+200
      717    0.059111    0.059111  220+002
      393    0.058691    0.058691  202+020
      211   -0.037986   -0.037986  +22+-00
       76    0.033334    0.033334  2+2-0+0
      353   -0.033266   -0.033266  220++-0
      389    0.033208    0.033208  202++-0
       51    0.033107   -0.033107  22+-00+
        5   -0.033044   -0.033044  -22++00
      227    0.032944    0.032944  +2-+-0+
      218    0.032773   -0.032773  +-2+-+0
      704   -0.032468    0.032468  2-+++0-
      738    0.032301    0.032301  2+-++0-
      147    0.031371   -0.031371  220+-+0
      183   -0.031319    0.031319  202+-+0
      192   -0.030523    0.030523  2+-+-0+
      158    0.030421    0.030421  2-++-0+
      215    0.028923    0.028923  022+200
      705    0.028688    0.028688  -2+++0-
      390    0.028501   -0.028501  -+2++-0
      742   -0.026853   -0.026853  2+-+0+-
      368   -0.026840   -0.026840  2-++0-+
      773   -0.025417    0.025417  +2-++0-
       17   -0.025403   -0.025403  22-+00+
        8   -0.025321    0.025321  2-2+0+0
      424   -0.025235   -0.025235  +-2++-0
      159   -0.024040    0.024040  -2++-0+
      184   -0.023854   -0.023854  -+2+-+0
      357    0.022572    0.022572  220+020
      753    0.021802    0.021802  202+002
      429    0.021338    0.021338  022+020
      789    0.021309    0.021309  022+002

 State #    2  Energy =   -2260.585457376

      Det      Coef        Coefp    Occupancy (Ignoring core)
      ---      ----        ----    --------- --------- -----
        2   -0.953726    0.953726  2220+00
      106   -0.158027   -0.158027  +222000
      181   -0.084688   -0.084688  2+20-+0
      156   -0.081732    0.081732  22+0-0+
      387    0.080989   -0.080989  2+20+-0
      702    0.077905    0.077905  22+0+0-
      212    0.063692    0.063692  +220200
      720    0.061590    0.061590  2200+02
      396    0.061279    0.061279  2020+20
      110    0.056926   -0.056926  0222+00
      366    0.050529   -0.050529  22+00-+
      706   -0.050168   -0.050168  22+00+-
      751   -0.049633    0.049633  2+20002
      391    0.048640   -0.048640  2+20020
       38    0.030328   -0.030328  2202+00
       74    0.030306   -0.030306  2022+00
      186   -0.028745    0.028745  20202+0
      150    0.028711   -0.028711  22002+0
      195   -0.028223    0.028223  2+-020+
      161    0.027954    0.027954  2-+020+
      745   -0.026751   -0.026751  2+-0++-
      371   -0.026696   -0.026696  2-+0+-+
      360    0.026394    0.026394  2200+20
      756    0.025803    0.025803  2020+02
      230    0.022087    0.022087  +2-020+
      221    0.021951   -0.021951  +-202+0
      162   -0.020844    0.020844  -2+020+
      187   -0.020724   -0.020724  -+202+0

 State #    3  Energy =   -2260.543802098

      Det      Coef        Coefp    Occupancy (Ignoring core)
      ---      ----        ----    --------- --------- -----
       36   -0.943386   -0.943386  22+2000
       71   -0.115645    0.115645  2+22000
       16   -0.115606    0.115606  222000+
      142    0.114386    0.114386  22+0200
       39   -0.104171   -0.104171  2-+2+00
       73    0.104159   -0.104159  2+-2+00
       52    0.092006   -0.092006  220200+
      249    0.073488   -0.073488  20+2200
      108   -0.054437   -0.054437  +2-2+00
      463    0.051739   -0.051739  20+2020
      112    0.050439    0.050439  +2-20+0
      123    0.049798   -0.049798  +-2200+
       88    0.042898   -0.042898  202200+
      460    0.039607    0.039607  -++2+-0
       40    0.039106   -0.039106  -2+2+00
       77   -0.036603    0.036603  2+-20+0
      288    0.032176    0.032176  +-+2-+0
      491   -0.029174    0.029174  +2+20-0
      876   -0.028779   -0.028779  ++2200-
      459    0.028372   -0.028372  20+2+-0
      494   -0.028328    0.028328  +-+2+-0
      808    0.027732   -0.027732  2+02+0-
      297    0.025687   -0.025687  +202-0+
      285    0.025105   -0.025105  02+2200
      254   -0.025010    0.025010  -++2-+0
      499    0.024977   -0.024977  02+2020
      859    0.024925   -0.024925  02+2002
      253   -0.024812   -0.024812  20+2-+0
      262   -0.024330   -0.024330  2+02-0+
      823    0.022188   -0.022188  20+2002
      456    0.022009    0.022009  2++20-0
      843   -0.021302   -0.021302  +202+0-
       44   -0.021265    0.021265  -2+20+0
       89   -0.021019   -0.021019  -+2200+

 State #    4  Energy =   -2260.544683074

      Det      Coef        Coefp    Occupancy (Ignoring core)
      ---      ----        ----    --------- --------- -----
       71   -0.943029    0.943029  2+22000
        6   -0.117051    0.117051  22200+0
       36    0.115689    0.115689  22+2000
      177    0.115497   -0.115497  2+20200
       74    0.107280   -0.107280  2022+00
       38   -0.103655    0.103655  2202+00
       78    0.091976   -0.091976  20220+0
      248    0.071838   -0.071838  2+02200
      109   -0.055117    0.055117  +-22+00
      822    0.052127   -0.052127  2+02002
      122    0.049520    0.049520  +2-200+
      113   -0.048440    0.048440  +-220+0
       42    0.044044   -0.044044  22020+0
      810   -0.039821   -0.039821  -++2+0-
       75    0.039038    0.039038  -+22+00
       53    0.035378    0.035378  2-+200+
      332   -0.032285    0.032285  ++-2-0+
      458   -0.028666    0.028666  2+02+-0
      841   -0.028548    0.028548  +2+200-
      878    0.028521    0.028521  ++-2+0-
      526    0.028479    0.028479  ++220-0
      809    0.027675   -0.027675  20+2+0-
      323    0.025636   -0.025636  +022-+0
      320    0.025287    0.025287  0+22200
      264    0.025181   -0.025181  -++2-0+
      252    0.025055    0.025055  2+02-+0
      534    0.024885    0.024885  0+22020
      894    0.024815    0.024815  0+22002
      263   -0.024221   -0.024221  20+2-0+
      462    0.022774   -0.022774  2+02020
      806   -0.022460   -0.022460  2++200-
      529   -0.021242   -0.021242  +022+-0
       54   -0.020972    0.020972  -2+200+

 ---------------------------------------
    -DIABATIC STATES IN PROTOTYPES-     
 ---------------------------------------

     STATE:    1
 Group Ref#    Coefficients
     1    1    0.998876
     2    2   -0.000000
     3    3   -0.000000
     4    4   -0.000000

WEIGHT OF LISTED PROTOTYPES:   99.78%

     STATE:    2
 Group Ref#    Coefficients
     1    1   -0.000000
     2    2    0.997556
     3    3   -0.000124
     4    4    0.000013

WEIGHT OF LISTED PROTOTYPES:   99.51%

     STATE:    3
 Group Ref#    Coefficients
     1    1   -0.000000
     2    2   -0.000124
     3    3    0.996826
     4    4   -0.000022

WEIGHT OF LISTED PROTOTYPES:   99.37%

     STATE:    4
 Group Ref#    Coefficients
     1    1   -0.000000
     2    2    0.000013
     3    3   -0.000022
     4    4    0.996788

WEIGHT OF LISTED PROTOTYPES:   99.36%

     DIRECT MAX. DIABATIZATION FINISHED    
 CPU     0: STEP CPU TIME=     0.77 TOTAL CPU TIME=        240.3 (      4.0 MIN)
 TOTAL WALL CLOCK TIME=        275.4 SECONDS, CPU UTILIZATION IS    87.28%

DIABATS FOR SPIN-ORBIT CALCULATION ARE READY

TRANSITION DIPOLES BETWEEN ADIABATS (in A.U.):

STATE PAIR      X         Y         Z
    1    1  0.009457 -0.000000  0.000000
    2    1  0.000022  0.000000  0.432534
    2    2  0.024545 -0.000000  0.000000
    3    1  0.000000  0.000000  0.007190
    3    2  0.150261 -0.000000 -0.000008
    3    3 -0.398429 -0.000001  0.000020
    4    1  0.000000  0.000000  0.000000
    4    2  0.000000  0.144554 -0.000000
    4    3 -0.000001  0.404954 -0.000000
    4    4  0.414808  0.000001 -0.000020


TRANSITION DIPOLES BETWEEN DIABATS (in A.U.):

STATE PAIR      X         Y         Z
    1    1  0.009457 -0.000000  0.000001
    2    1  0.000027  0.000000  0.432581
    2    2  0.027185 -0.000037  0.000000
    3    1  0.000002 -0.000015 -0.000460
    3    2 -0.017781 -0.147043  0.000003
    3    3  0.402725  0.097570 -0.000020
    4    1  0.000015  0.000002 -0.003311
    4    2 -0.145391  0.018083  0.000023
    4    3 -0.098551  0.391687  0.000005
    4    4 -0.388985 -0.097533  0.000020

TRANSITION DIPOLES BETWEEN DIRECT MAX. DIABATS (in A.U.):

STATE PAIR      X         Y         Z
    1    1  0.009457 -0.000000  0.000001
    2    1  0.000027  0.000000  0.432581
    2    2  0.027185 -0.000037  0.000000
    3    1  0.000002 -0.000015 -0.000460
    3    2 -0.017781 -0.147043  0.000003
    3    3  0.402725  0.097570 -0.000020
    4    1  0.000015  0.000002 -0.003311
    4    2 -0.145391  0.018083  0.000023
    4    3 -0.098551  0.391687  0.000005
    4    4 -0.388985 -0.097533  0.000020
 No $TRANST Group Found.
 Quit without doing spin-orbit coupling
 ..... DONE WITH MP2 ENERGY .....
 CPU     0: STEP CPU TIME=     0.00 TOTAL CPU TIME=        240.3 (      4.0 MIN)
 TOTAL WALL CLOCK TIME=        275.4 SECONDS, CPU UTILIZATION IS    87.28%
            250000000  WORDS OF DYNAMIC MEMORY USED
 EXECUTION OF GAMESS TERMINATED NORMALLY Sat Dec  9 01:34:24 2023
 DDI: 14063448 bytes (13.4 MB / 1 MWords) used by master data server.

 ----------------------------------------
 CPU timing information for all processes
 ========================================
 0: 239.816 + 0.542 = 240.358
 1: 238.553 + 0.452 = 239.06
 ----------------------------------------
Note: The following floating-point exceptions are signalling: IEEE_DENORMAL
Note: The following floating-point exceptions are signalling: IEEE_DENORMAL
 ddikick.x: exited gracefully.
unset echo
----- accounting info -----
Files used on the master node io002 were:
-rw-r--r-- 1 bjb2chen nooijen  145269 Dec  9 01:29 /home/bjb2chen/gmsscr//AsH3cat_cct_gmcpt_C1_3st_diab_mode12_+0.05_mode3_+0.05.F05
-rw-r--r-- 1 bjb2chen nooijen 2906184 Dec  9 01:34 /home/bjb2chen/gmsscr//AsH3cat_cct_gmcpt_C1_3st_diab_mode12_+0.05_mode3_+0.05.F09
-rw-r--r-- 1 bjb2chen nooijen 4320384 Dec  9 01:34 /home/bjb2chen/gmsscr//AsH3cat_cct_gmcpt_C1_3st_diab_mode12_+0.05_mode3_+0.05.F09.001
-rw-r--r-- 1 bjb2chen nooijen 6478560 Dec  9 01:34 /home/bjb2chen/gmsscr//AsH3cat_cct_gmcpt_C1_3st_diab_mode12_+0.05_mode3_+0.05.F10
-rw-r--r-- 1 bjb2chen nooijen 1119352 Dec  9 01:33 /home/bjb2chen/gmsscr//AsH3cat_cct_gmcpt_C1_3st_diab_mode12_+0.05_mode3_+0.05.F13
-rw-r--r-- 1 bjb2chen nooijen 1119352 Dec  9 01:33 /home/bjb2chen/gmsscr//AsH3cat_cct_gmcpt_C1_3st_diab_mode12_+0.05_mode3_+0.05.F13.001
-rw-r--r-- 1 bjb2chen nooijen  181872 Dec  9 01:34 /home/bjb2chen/gmsscr//AsH3cat_cct_gmcpt_C1_3st_diab_mode12_+0.05_mode3_+0.05.F15
-rw-r--r-- 1 bjb2chen nooijen       0 Dec  9 01:29 /home/bjb2chen/gmsscr//AsH3cat_cct_gmcpt_C1_3st_diab_mode12_+0.05_mode3_+0.05.F16
-rw-r--r-- 1 bjb2chen nooijen    9808 Dec  9 01:34 /home/bjb2chen/gmsscr//AsH3cat_cct_gmcpt_C1_3st_diab_mode12_+0.05_mode3_+0.05.F70
-rw-r--r-- 1 bjb2chen nooijen    9808 Dec  9 01:34 /home/bjb2chen/gmsscr//AsH3cat_cct_gmcpt_C1_3st_diab_mode12_+0.05_mode3_+0.05.F70.001
-rw-r--r-- 1 bjb2chen nooijen    9808 Dec  9 01:34 /home/bjb2chen/gmsscr//AsH3cat_cct_gmcpt_C1_3st_diab_mode12_+0.05_mode3_+0.05.F71
-rw-r--r-- 1 bjb2chen nooijen    9808 Dec  9 01:34 /home/bjb2chen/gmsscr//AsH3cat_cct_gmcpt_C1_3st_diab_mode12_+0.05_mode3_+0.05.F71.001
-rw-r--r-- 1 bjb2chen nooijen   19608 Dec  9 01:34 /home/bjb2chen/gmsscr//AsH3cat_cct_gmcpt_C1_3st_diab_mode12_+0.05_mode3_+0.05.F72
-rw-r--r-- 1 bjb2chen nooijen   19608 Dec  9 01:34 /home/bjb2chen/gmsscr//AsH3cat_cct_gmcpt_C1_3st_diab_mode12_+0.05_mode3_+0.05.F72.001
-rw-r--r-- 1 bjb2chen nooijen   19608 Dec  9 01:34 /home/bjb2chen/gmsscr//AsH3cat_cct_gmcpt_C1_3st_diab_mode12_+0.05_mode3_+0.05.F73
-rw-r--r-- 1 bjb2chen nooijen   19608 Dec  9 01:34 /home/bjb2chen/gmsscr//AsH3cat_cct_gmcpt_C1_3st_diab_mode12_+0.05_mode3_+0.05.F73.001
-rw-r--r-- 1 bjb2chen nooijen  961208 Dec  9 01:34 /home/bjb2chen/gmsscr//AsH3cat_cct_gmcpt_C1_3st_diab_mode12_+0.05_mode3_+0.05.F74
-rw-r--r-- 1 bjb2chen nooijen  959640 Dec  9 01:34 /home/bjb2chen/gmsscr//AsH3cat_cct_gmcpt_C1_3st_diab_mode12_+0.05_mode3_+0.05.F74.001
-rw-r--r-- 1 bjb2chen nooijen       0 Dec  9 01:29 /home/bjb2chen/gmsscr//AsH3cat_cct_gmcpt_C1_3st_diab_mode12_+0.05_mode3_+0.05.F75
-rw-r--r-- 1 bjb2chen nooijen       0 Dec  9 01:29 /home/bjb2chen/gmsscr//AsH3cat_cct_gmcpt_C1_3st_diab_mode12_+0.05_mode3_+0.05.F75.001
-rw-r--r-- 1 bjb2chen nooijen   78456 Dec  9 01:34 /home/bjb2chen/gmsscr//AsH3cat_cct_gmcpt_C1_3st_diab_mode12_+0.05_mode3_+0.05.F76
-rw-r--r-- 1 bjb2chen nooijen   78456 Dec  9 01:34 /home/bjb2chen/gmsscr//AsH3cat_cct_gmcpt_C1_3st_diab_mode12_+0.05_mode3_+0.05.F76.001
-rw-r--r-- 1 bjb2chen nooijen       0 Dec  9 01:29 /home/bjb2chen/gmsscr//AsH3cat_cct_gmcpt_C1_3st_diab_mode12_+0.05_mode3_+0.05.F77
-rw-r--r-- 1 bjb2chen nooijen       0 Dec  9 01:29 /home/bjb2chen/gmsscr//AsH3cat_cct_gmcpt_C1_3st_diab_mode12_+0.05_mode3_+0.05.F77.001
-rw-r--r-- 1 bjb2chen nooijen    6408 Dec  9 01:34 /home/bjb2chen/gmsscr//AsH3cat_cct_gmcpt_C1_3st_diab_mode12_+0.05_mode3_+0.05.F78
-rw-r--r-- 1 bjb2chen nooijen    6408 Dec  9 01:34 /home/bjb2chen/gmsscr//AsH3cat_cct_gmcpt_C1_3st_diab_mode12_+0.05_mode3_+0.05.F78.001
-rw-r--r-- 1 bjb2chen nooijen   49008 Dec  9 01:34 /home/bjb2chen/gmsscr//AsH3cat_cct_gmcpt_C1_3st_diab_mode12_+0.05_mode3_+0.05.F79
-rw-r--r-- 1 bjb2chen nooijen   49008 Dec  9 01:34 /home/bjb2chen/gmsscr//AsH3cat_cct_gmcpt_C1_3st_diab_mode12_+0.05_mode3_+0.05.F79.001
-rw-r--r-- 1 bjb2chen nooijen     168 Dec  9 01:34 /home/bjb2chen/gmsscr//AsH3cat_cct_gmcpt_C1_3st_diab_mode12_+0.05_mode3_+0.05.F80
-rw-r--r-- 1 bjb2chen nooijen     168 Dec  9 01:34 /home/bjb2chen/gmsscr//AsH3cat_cct_gmcpt_C1_3st_diab_mode12_+0.05_mode3_+0.05.F80.001
-rw-r--r-- 1 bjb2chen nooijen  102416 Dec  9 01:34 /home/bjb2chen/gmsscr//AsH3cat_cct_gmcpt_C1_3st_diab_mode12_+0.05_mode3_+0.05.F81
-rw-r--r-- 1 bjb2chen nooijen  102416 Dec  9 01:34 /home/bjb2chen/gmsscr//AsH3cat_cct_gmcpt_C1_3st_diab_mode12_+0.05_mode3_+0.05.F81.001
-rw-r--r-- 1 bjb2chen nooijen     656 Dec  9 01:34 /home/bjb2chen/gmsscr//AsH3cat_cct_gmcpt_C1_3st_diab_mode12_+0.05_mode3_+0.05.F82
-rw-r--r-- 1 bjb2chen nooijen     656 Dec  9 01:34 /home/bjb2chen/gmsscr//AsH3cat_cct_gmcpt_C1_3st_diab_mode12_+0.05_mode3_+0.05.F82.001
-rw-r--r-- 1 bjb2chen nooijen   19216 Dec  9 01:34 /home/bjb2chen/gmsscr//AsH3cat_cct_gmcpt_C1_3st_diab_mode12_+0.05_mode3_+0.05.F83
-rw-r--r-- 1 bjb2chen nooijen   19216 Dec  9 01:34 /home/bjb2chen/gmsscr//AsH3cat_cct_gmcpt_C1_3st_diab_mode12_+0.05_mode3_+0.05.F83.001
-rw-r--r-- 1 bjb2chen nooijen  327696 Dec  9 01:34 /home/bjb2chen/gmsscr//AsH3cat_cct_gmcpt_C1_3st_diab_mode12_+0.05_mode3_+0.05.F84
-rw-r--r-- 1 bjb2chen nooijen  327696 Dec  9 01:34 /home/bjb2chen/gmsscr//AsH3cat_cct_gmcpt_C1_3st_diab_mode12_+0.05_mode3_+0.05.F84.001
-rw-r--r-- 1 bjb2chen nooijen 2428392 Dec  9 01:34 /home/bjb2chen/gmsscr//AsH3cat_cct_gmcpt_C1_3st_diab_mode12_+0.05_mode3_+0.05.F85
-rw-r--r-- 1 bjb2chen nooijen 2428392 Dec  9 01:34 /home/bjb2chen/gmsscr//AsH3cat_cct_gmcpt_C1_3st_diab_mode12_+0.05_mode3_+0.05.F85.001
-rw-r--r-- 1 bjb2chen nooijen 9954880 Dec  9 01:34 /home/bjb2chen/gmsscr//AsH3cat_cct_gmcpt_C1_3st_diab_mode12_+0.05_mode3_+0.05.F86
-rw-r--r-- 1 bjb2chen nooijen 9697472 Dec  9 01:34 /home/bjb2chen/gmsscr//AsH3cat_cct_gmcpt_C1_3st_diab_mode12_+0.05_mode3_+0.05.F86.001
-rw-r--r-- 1 bjb2chen nooijen    1160 Dec  9 01:34 /home/bjb2chen/gmsscr//AsH3cat_cct_gmcpt_C1_3st_diab_mode12_+0.05_mode3_+0.05.F87
-rw-r--r-- 1 bjb2chen nooijen    1160 Dec  9 01:34 /home/bjb2chen/gmsscr//AsH3cat_cct_gmcpt_C1_3st_diab_mode12_+0.05_mode3_+0.05.F87.001
-rw-r--r-- 1 bjb2chen nooijen   22336 Dec  9 01:34 /home/bjb2chen/gmsscr//AsH3cat_cct_gmcpt_C1_3st_diab_mode12_+0.05_mode3_+0.05.F88
-rw-r--r-- 1 bjb2chen nooijen   22336 Dec  9 01:34 /home/bjb2chen/gmsscr//AsH3cat_cct_gmcpt_C1_3st_diab_mode12_+0.05_mode3_+0.05.F88.001
-rw-r--r-- 1 bjb2chen nooijen     648 Dec  9 01:34 /home/bjb2chen/gmsscr//AsH3cat_cct_gmcpt_C1_3st_diab_mode12_+0.05_mode3_+0.05.F89
-rw-r--r-- 1 bjb2chen nooijen     648 Dec  9 01:34 /home/bjb2chen/gmsscr//AsH3cat_cct_gmcpt_C1_3st_diab_mode12_+0.05_mode3_+0.05.F89.001
-rw-r--r-- 1 bjb2chen nooijen       0 Dec  9 01:29 /home/bjb2chen/gmsscr//AsH3cat_cct_gmcpt_C1_3st_diab_mode12_+0.05_mode3_+0.05.F90
-rw-r--r-- 1 bjb2chen nooijen       0 Dec  9 01:29 /home/bjb2chen/gmsscr//AsH3cat_cct_gmcpt_C1_3st_diab_mode12_+0.05_mode3_+0.05.F90.001
-rw-r--r-- 1 bjb2chen nooijen   13760 Dec  9 01:34 /home/bjb2chen/gmsscr//AsH3cat_cct_gmcpt_C1_3st_diab_mode12_+0.05_mode3_+0.05.F91
-rw-r--r-- 1 bjb2chen nooijen   13760 Dec  9 01:34 /home/bjb2chen/gmsscr//AsH3cat_cct_gmcpt_C1_3st_diab_mode12_+0.05_mode3_+0.05.F91.001
-rw-r--r-- 1 bjb2chen nooijen   22776 Dec  9 01:34 /home/bjb2chen/gmsscr//AsH3cat_cct_gmcpt_C1_3st_diab_mode12_+0.05_mode3_+0.05.F92
-rw-r--r-- 1 bjb2chen nooijen   22776 Dec  9 01:34 /home/bjb2chen/gmsscr//AsH3cat_cct_gmcpt_C1_3st_diab_mode12_+0.05_mode3_+0.05.F92.001
-rw-r--r-- 1 bjb2chen nooijen   23168 Dec  9 01:34 /home/bjb2chen/gmsscr//AsH3cat_cct_gmcpt_C1_3st_diab_mode12_+0.05_mode3_+0.05.F93
-rw-r--r-- 1 bjb2chen nooijen   23168 Dec  9 01:34 /home/bjb2chen/gmsscr//AsH3cat_cct_gmcpt_C1_3st_diab_mode12_+0.05_mode3_+0.05.F93.001
-rw-r--r-- 1 bjb2chen nooijen   22776 Dec  9 01:34 /home/bjb2chen/gmsscr//AsH3cat_cct_gmcpt_C1_3st_diab_mode12_+0.05_mode3_+0.05.F94
-rw-r--r-- 1 bjb2chen nooijen   22776 Dec  9 01:34 /home/bjb2chen/gmsscr//AsH3cat_cct_gmcpt_C1_3st_diab_mode12_+0.05_mode3_+0.05.F94.001
-rw-r--r-- 1 bjb2chen nooijen   13760 Dec  9 01:34 /home/bjb2chen/gmsscr//AsH3cat_cct_gmcpt_C1_3st_diab_mode12_+0.05_mode3_+0.05.F95
-rw-r--r-- 1 bjb2chen nooijen   13760 Dec  9 01:34 /home/bjb2chen/gmsscr//AsH3cat_cct_gmcpt_C1_3st_diab_mode12_+0.05_mode3_+0.05.F95.001
-rw-r--r-- 1 bjb2chen nooijen   39248 Dec  9 01:34 /home/bjb2chen/gmsscr//AsH3cat_cct_gmcpt_C1_3st_diab_mode12_+0.05_mode3_+0.05.F96
-rw-r--r-- 1 bjb2chen nooijen   39248 Dec  9 01:34 /home/bjb2chen/gmsscr//AsH3cat_cct_gmcpt_C1_3st_diab_mode12_+0.05_mode3_+0.05.F96.001
-rw-r--r-- 1 bjb2chen nooijen    1184 Dec  9 01:34 /home/bjb2chen/gmsscr//AsH3cat_cct_gmcpt_C1_3st_diab_mode12_+0.05_mode3_+0.05.F97
-rw-r--r-- 1 bjb2chen nooijen    1184 Dec  9 01:34 /home/bjb2chen/gmsscr//AsH3cat_cct_gmcpt_C1_3st_diab_mode12_+0.05_mode3_+0.05.F97.001
-rw-r--r-- 1 bjb2chen nooijen    9808 Dec  9 01:34 /home/bjb2chen/gmsscr//AsH3cat_cct_gmcpt_C1_3st_diab_mode12_+0.05_mode3_+0.05.F98
-rw-r--r-- 1 bjb2chen nooijen    9808 Dec  9 01:34 /home/bjb2chen/gmsscr//AsH3cat_cct_gmcpt_C1_3st_diab_mode12_+0.05_mode3_+0.05.F98.001
-rw-r--r-- 1 bjb2chen nooijen   30264 Dec  9 01:34 /home/bjb2chen/gmsscr//AsH3cat_cct_gmcpt_C1_3st_diab_mode12_+0.05_mode3_+0.05.F99
-rw-r--r-- 1 bjb2chen nooijen   30264 Dec  9 01:34 /home/bjb2chen/gmsscr//AsH3cat_cct_gmcpt_C1_3st_diab_mode12_+0.05_mode3_+0.05.F99.001
ls: No match.
ls: No match.
ls: No match.
Sat 09 Dec 2023 01:34:27 AM EST
0.168u 0.023s 4:38.69 0.0%	0+0k 288+496io 0pf+0w
