----- GAMESS execution script 'rungms' -----
This job is running on host io001
under operating system Linux at Sat 09 Dec 2023 01:27:57 AM EST
Available scratch disk space (Kbyte units) at beginning of the job is
Filesystem             1K-blocks       Used Available Use% Mounted on
helmholtz.nlogn:/home 6391504896 5236079616 833286144  87% /home
GAMESS temporary binary files will be written to /home/bjb2chen/gmsscr/
GAMESS supplementary output files will be written to /home/bjb2chen/gamess/vibronics/ash3/relwfn
Copying input file AsH3cat_cct_gmcpt_C1_3st_diab_mode1_+0.05x2.inp to your run's scratch directory...
cp AsH3cat_cct_gmcpt_C1_3st_diab_mode1_+0.05x2.inp /home/bjb2chen/gmsscr//AsH3cat_cct_gmcpt_C1_3st_diab_mode1_+0.05x2.F05
unset echo
 
Assuming a single but multicore node.
 
/home/bjb2chen/gamess/ddikick.x /home/bjb2chen/gamess/gamess.00.x AsH3cat_cct_gmcpt_C1_3st_diab_mode1_+0.05x2 -ddi 1 2 io001:cpus=2 -scr /home/bjb2chen/gmsscr/

 Distributed Data Interface kickoff program.
 Initiating 2 compute processes on 1 nodes to run the following command:
 /home/bjb2chen/gamess/gamess.00.x AsH3cat_cct_gmcpt_C1_3st_diab_mode1_+0.05x2 

          ******************************************************
          *         GAMESS VERSION = 02 AUG 2018 (R2)         *
          *             FROM IOWA STATE UNIVERSITY             *
          * M.W.SCHMIDT, K.K.BALDRIDGE, J.A.BOATZ, S.T.ELBERT, *
          *   M.S.GORDON, J.H.JENSEN, S.KOSEKI, N.MATSUNAGA,   *
          *          K.A.NGUYEN, S.J.SU, T.L.WINDUS,           *
          *       TOGETHER WITH M.DUPUIS, J.A.MONTGOMERY       *
          *         J.COMPUT.CHEM.  14, 1347-1363(1993)        *
          **************** 64 BIT LINUX VERSION ****************

  SINCE 1993, STUDENTS AND POSTDOCS WORKING AT IOWA STATE UNIVERSITY
  AND ALSO IN THEIR VARIOUS JOBS AFTER LEAVING ISU HAVE MADE IMPORTANT
  CONTRIBUTIONS TO THE CODE:
     IVANA ADAMOVIC, CHRISTINE AIKENS, YURI ALEXEEV, POOJA ARORA,
     ANDREY ASADCHEV, ROB BELL, PRADIPTA BANDYOPADHYAY, JONATHAN BENTZ,
     BRETT BODE, KURT BRORSEN, CALEB CARLIN, GALINA CHABAN, WEI CHEN,
     CHEOL HO CHOI, PAUL DAY, ALBERT DEFUSCO, NUWAN DESILVA, TIM DUDLEY,
     DMITRI FEDOROV, ALEX FINDLATER, GRAHAM FLETCHER, MARK FREITAG,
     KURT GLAESEMANN, ANASTASIA GUININA,
     DAN KEMP, GRANT MERRILL, NORIYUKI MINEZAWA, JONATHAN MULLIN,
     TAKESHI NAGATA, SEAN NEDD, HEATHER NETZLOFF, BOSILJKA NJEGIC, RYAN OLSON,
     MIKE PAK, BUU PHAM,
     SPENCER PRUITT, LUKE ROSKOP, JIM SHOEMAKER, LYUDMILA SLIPCHENKO,
     TONY SMITH, SAROM SOK LEANG, JIE SONG, TETSUYA TAKETSUGU, SIMON WEBB,
     PENG XU, SOOHAENG YOO, FEDERICO ZAHARIEV

  ADDITIONAL CODE HAS BEEN PROVIDED BY COLLABORATORS IN OTHER GROUPS:
     IOWA STATE UNIVERSITY:
          JOE IVANIC, AARON WEST, LAIMUTIS BYTAUTAS, KLAUS RUEDENBERG
     UNIVERSITY OF TOKYO: KIMIHIKO HIRAO, TAKAHITO NAKAJIMA,
          TAKAO TSUNEDA, MUNEAKI KAMIYA, SUSUMU YANAGISAWA,
          KIYOSHI YAGI, MAHITO CHIBA, SEIKEN TOKURA, NAOAKI KAWAKAMI
     UNIVERSITY OF AARHUS: FRANK JENSEN
     UNIVERSITY OF IOWA: VISVALDAS KAIRYS, HUI LI
     NATIONAL INST. OF STANDARDS AND TECHNOLOGY: WALT STEVENS, DAVID GARMER
     UNIVERSITY OF PISA: BENEDETTA MENNUCCI, JACOPO TOMASI
     UNIVERSITY OF MEMPHIS: HENRY KURTZ, PRAKASHAN KORAMBATH
     UNIVERSITY OF ALBERTA: TOBY ZENG, MARIUSZ KLOBUKOWSKI
     UNIVERSITY OF NEW ENGLAND: MARK SPACKMAN
     MIE UNIVERSITY: HIROAKI UMEDA
     NAT. INST. OF ADVANCED INDUSTRIAL SCIENCE AND TECHNOLOGY: KAZUO KITAURA
     MICHIGAN STATE UNIVERSITY:
          KAROL KOWALSKI, MARTA WLOCH, JEFFREY GOUR, JESSE LUTZ,
          WEI LI, JUN SHEN, J. EMILIANO DEUSTUA, PIOTR PIECUCH
     UNIVERSITY OF MINNESOTA:
          YINAN SHU
     UNIVERSITY OF SILESIA: MONIKA MUSIAL, STANISLAW KUCHARSKI
     FACULTES UNIVERSITAIRES NOTRE-DAME DE LA PAIX:
          OLIVIER QUINET, BENOIT CHAMPAGNE
     UNIVERSITY OF CALIFORNIA - SANTA BARBARA: BERNARD KIRTMAN
     INSTITUTE FOR MOLECULAR SCIENCE:
          KAZUYA ISHIMURA, MICHIO KATOUDA, AND SHIGERU NAGASE
     UNIVERSITY OF NOTRE DAME: ANNA POMOGAEVA, DAN CHIPMAN
     KYUSHU UNIVERSITY:
          HARUYUKI NAKANO,
          FENG LONG GU, JACEK KORCHOWIEC, MARCIN MAKOWSKI, AND YURIKO AOKI,
          HIROTOSHI MORI AND EISAKU MIYOSHI
     PENNSYLVANIA STATE UNIVERSITY:
          TZVETELIN IORDANOV, CHET SWALINA, JONATHAN SKONE,
          SHARON HAMMES-SCHIFFER
     WASEDA UNIVERSITY:
          MASATO KOBAYASHI, TOMOKO AKAMA, TSUGUKI TOUMA,
          TAKESHI YOSHIKAWA, YASUHIRO IKABATA, JUNJI SEINO,
          YUYA NAKAJIMA, HIROMI NAKAI
     NANJING UNIVERSITY: SHUHUA LI
     UNIVERSITY OF NEBRASKA:
          PEIFENG SU, DEJUN SI, NANDUN THELLAMUREGE, YALI WANG, HUI LI
     UNIVERSITY OF ZURICH: ROBERTO PEVERATI, KIM BALDRIDGE
     N. COPERNICUS UNIVERSITY AND JACKSON STATE UNIVERSITY:
          MARIA BARYSZ
     UNIVERSITY OF COPENHAGEN: Jimmy Kromann, CASPER STEINMANN
     TOKYO INSTITUTE OF TECHNOLOGY: HIROYA NAKATA
     NAGOYA UNIVERSITY: YOSHIO NISHIMOTO, STEPHAN IRLE
     MOSCOW STATE UNIVERSITY: VLADIMIR MIRONOV


 PARALLEL VERSION RUNNING ON        2 PROCESSORS IN        1 NODES.

 EXECUTION OF GAMESS BEGUN Sat Dec  9 01:27:57 2023

            ECHO OF THE FIRST FEW INPUT CARDS -
 INPUT CARD> !Step 3: single point gmcpt calculation averaging 4 states                     
 INPUT CARD> !        for AsH3+ at AsH3 structure. The ROHF orbitals at                     
 INPUT CARD> !        the MP2 optimized structure is taken as the initial                   
 INPUT CARD> !        guess of orbitals in the $VEC group.                                  
 INPUT CARD> $system kdiag=3 mwords=250 memddi=8000 parall=.t. $end                         
 INPUT CARD> $contrl runtyp=energy ispher=1 relwfn=dk $end                                  
 INPUT CARD> $contrl icut=9 itol=20 inttyp=rysquad qmttol=1.0d-05 nosym=1 $end              
 INPUT CARD> $scf    npunch=2 conv=1.0d-06 dirscf=.t. diis=.t. soscf=.f. ethrsh=10.0 $end   
 INPUT CARD> $contrl scftyp=mcscf  mult=2 maxit=200 icharg=1 mplevl=2 $end                  
 INPUT CARD> $relwfn norder=3 $end                                                          
 INPUT CARD> $guess  guess=moread norb=85 purify=.t. $end                                   
 INPUT CARD> $basis  gbasis=cct $end                                                        
 INPUT CARD> $mcscf  cistep=gmcci fullnr=.t. finci=mos                                      
 INPUT CARD>         acurcy=1.d-6 maxit=200 $end                                            
 INPUT CARD> $trans  dirtrf=.t. $end                                                        
 INPUT CARD> $mrmp   mrpt=gmcpt rdvecs=.f. $end                                             
 INPUT CARD> $gmcpt  nmofzc=5 nmodoc=9 nmoact=7 nelact=7 stsym(1)=A                         
 INPUT CARD>         reftyp=ormas nspace=1 mstart(1)=15 mine(1)=7 maxe(1)=7                 
 INPUT CARD>         kstate(1)=1,1,1,1                                                      
 INPUT CARD>         wstate(1)=1,1,1,1                                                      
 INPUT CARD>         iwgt=0 thrwgt=-1.0 krot=.f. kszdoe=.f. knospn=.f.                      
 INPUT CARD>         thrde=-1.0 edshft=0.02 $end                                            
 INPUT CARD> $statpt hssend=.t. $end                                                        
 INPUT CARD> -data                                                                          
 INPUT CARD> AsH3+ 3 states calculation at AsH3 structure.                                  
 INPUT CARD> C1                                                                             
 INPUT CARD>  AS         33.0   0.0000000000  -0.0000000000   0.0000000000                  
 INPUT CARD> H           1.0  -0.7325148768   1.2687529838   0.0000000000                   
 INPUT CARD> H           1.0  -0.7325148768  -1.2687529838   0.0000000000                   
 INPUT CARD> H           1.0   1.4650297535   0.0000000000   0.0000000000                   
 INPUT CARD> $end                                                                           
 INPUT CARD> --- Semi-canonical MOs --- generated at Sat Dec  9 01:18:05 2023               
 INPUT CARD> $VEC                                                                           
 INPUT CARD> 1  1 1.00000651E+00-6.68369440E-06 1.85152951E-04 1.79685598E-04-8.07714337E-05
 INPUT CARD> 1  2-2.31149954E-05-0.00000000E+00-0.00000000E+00-0.00000000E+00 1.52132035E-11
 INPUT CARD> 1  3 2.42575930E-11-0.00000000E+00 4.01053631E-11 5.28975585E-11-0.00000000E+00
 INPUT CARD> 1  4-0.00000000E+00-0.00000000E+00-0.00000000E+00-0.00000000E+00-0.00000000E+00
 INPUT CARD> 1  5-0.00000000E+00-1.11237345E-06-1.11237452E-06 2.22474797E-06-0.00000000E+00
 INPUT CARD> 1  6-0.00000000E+00-0.00000000E+00 8.58528525E-06 8.58528010E-06-1.71705654E-05
 INPUT CARD> 1  7-1.20100248E-11-0.00000000E+00-0.00000000E+00 1.00552420E-05 1.00552075E-05
 INPUT CARD> 1  8-2.01104495E-05-2.83298525E-11-0.00000000E+00-0.00000000E+00 1.99730861E-05
 INPUT CARD> 1  9-0.00000000E+00-0.00000000E+00-0.00000000E+00-0.00000000E+00-2.67966997E-05
 INPUT CARD> 1 10-0.00000000E+00-0.00000000E+00-0.00000000E+00-0.00000000E+00 3.47117215E-06
 INPUT CARD> 1 11-4.60716982E-05 1.04466843E-06-4.03421058E-07 6.98737131E-07-0.00000000E+00
 INPUT CARD> 1 12-1.34256909E-05 2.32539851E-05-0.00000000E+00 1.05460937E-06-3.02016560E-06
 INPUT CARD> 1 13 1.96555623E-06 4.07477672E-06-0.00000000E+00-0.00000000E+00 3.47116073E-06
 INPUT CARD> 1 14-4.60716058E-05 1.04468814E-06-4.03422118E-07-6.98738938E-07-0.00000000E+00
 INPUT CARD> 1 15-1.34256677E-05-2.32539402E-05-0.00000000E+00 1.05460761E-06-3.02016073E-06
 INPUT CARD> 1 16 1.96555312E-06-4.07477055E-06-0.00000000E+00-0.00000000E+00 3.47117151E-06
 INPUT CARD> 1 17-4.60717176E-05 1.04469110E-06 8.06835201E-07-0.00000000E+00-0.00000000E+00
  250000000 WORDS OF MEMORY AVAILABLE

     BASIS OPTIONS
     -------------
     GBASIS=CCT          IGAUSS=       0      POLAR=NONE    
     NDFUNC=       0     NFFUNC=       0     DIFFSP=       F
     NPFUNC=       0      DIFFS=       F     BASNAM=        


     RUN TITLE
     ---------
  AsH3+ 4 state with relwfn calculation                                          

 THE POINT GROUP OF THE MOLECULE IS C1      
 THE ORDER OF THE PRINCIPAL AXIS IS     0

 ATOM      ATOMIC                      COORDINATES (BOHR)
           CHARGE         X                   Y                   Z
 AS         33.0     0.0000000000        0.0000000000       -0.0007540448
 H           1.0    -1.3842523970        2.3975954823        0.0186853762
 H           1.0    -1.3842523970       -2.3975954823        0.0186853762
 H           1.0     2.7685047942        0.0000000000        0.0186853752

          INTERNUCLEAR DISTANCES (ANGS.)
          ------------------------------

                1 AS         2 H          3 H          4 H     

   1 AS      0.0000000    1.4650659 *  1.4650659 *  1.4650659 *
   2 H       1.4650659 *  0.0000000    2.5375060 *  2.5375060 *
   3 H       1.4650659 *  2.5375060 *  0.0000000    2.5375060 *
   4 H       1.4650659 *  2.5375060 *  2.5375060 *  0.0000000  

  * ... LESS THAN  3.000


     ATOMIC BASIS SET
     ----------------
 THE CONTRACTED PRIMITIVE FUNCTIONS HAVE BEEN UNNORMALIZED
 THE CONTRACTED BASIS FUNCTIONS ARE NOW NORMALIZED TO UNITY

  SHELL TYPE  PRIMITIVE        EXPONENT          CONTRACTION COEFFICIENT(S)

 AS        

      1   S       1       8482339.6000000    0.000181400075
      1   S       2       1270150.9000000    0.000509300210
      1   S       3        289056.9600000    0.001349900557
      1   S       4         81879.8490000    0.003309201365
      1   S       5         26716.5640000    0.008034603315
      1   S       6          9647.5842000    0.019535208061
      1   S       7          3764.1195000    0.047315519523
      1   S       8          1561.5656000    0.108843244910
      1   S       9           680.8146700    0.218240590049
      1   S      10           309.2411900    0.333269937512
      1   S      11           145.2573600    0.304307225562
      1   S      12            69.7390480    0.111702146090
      1   S      13            31.7703250    0.007463503080
      1   S      14            15.3917570    0.000304100125
      1   S      15             7.3415260   -0.000142200059
      1   S      16             3.3237160    0.000019500008
      1   S      17             1.4858670   -0.000033200014
      1   S      18             0.2115000   -0.000008500004

      2   S      19       8482339.6000000   -0.000057995848
      2   S      20       1270150.9000000   -0.000163088325
      2   S      21        289056.9600000   -0.000433268984
      2   S      22         81879.8490000   -0.001065223744
      2   S      23         26716.5640000   -0.002605413487
      2   S      24          9647.5842000   -0.006395842144
      2   S      25          3764.1195000   -0.015881863072
      2   S      26          1561.5656000   -0.038079174044
      2   S      27           680.8146700   -0.084299965257
      2   S      28           309.2411900   -0.154355250242
      2   S      29           145.2573600   -0.198099018777
      2   S      30            69.7390480   -0.033758583340
      2   S      31            31.7703250    0.437607173216
      2   S      32            15.3917570    0.558621610211
      2   S      33             7.3415260    0.155689654716
      2   S      34             3.3237160    0.005010041348
      2   S      35             1.4858670    0.001680179722
      2   S      36             0.2115000    0.000228683629

      3   S      37       8482339.6000000    0.000023133401
      3   S      38       1270150.9000000    0.000065018105
      3   S      39        289056.9600000    0.000172634279
      3   S      40         81879.8490000    0.000424553958
      3   S      41         26716.5640000    0.001039576315
      3   S      42          9647.5842000    0.002554661217
      3   S      43          3764.1195000    0.006365761645
      3   S      44          1561.5656000    0.015338667773
      3   S      45           680.8146700    0.034419952954
      3   S      46           309.2411900    0.064576634114
      3   S      47           145.2573600    0.087234016980
      3   S      48            69.7390480    0.014828815768
      3   S      49            31.7703250   -0.267166221401
      3   S      50            15.3917570   -0.511407446230
      3   S      51             7.3415260   -0.020336603390
      3   S      52             3.3237160    0.736562901872
      3   S      53             1.4858670    0.503531695147
      3   S      54             0.2115000   -0.008965466753

      4   S      55       8482339.6000000   -0.000010225631
      4   S      56       1270150.9000000   -0.000028566842
      4   S      57        289056.9600000   -0.000076124142
      4   S      58         81879.8490000   -0.000187145279
      4   S      59         26716.5640000   -0.000458043346
      4   S      60          9647.5842000   -0.001126929466
      4   S      61          3764.1195000   -0.002805393763
      4   S      62          1561.5656000   -0.006779431073
      4   S      63           680.8146700   -0.015195936984
      4   S      64           309.2411900   -0.028739704152
      4   S      65           145.2573600   -0.038797991937
      4   S      66            69.7390480   -0.007149826154
      4   S      67            31.7703250    0.126719590806
      4   S      68            15.3917570    0.251979351046
      4   S      69             7.3415260    0.006924375336
      4   S      70             3.3237160   -0.491086580342
      4   S      71             1.4858670   -0.599181401530
      4   S      72             0.2115000    1.027494131359

      5   S      73             0.4210860    1.000000000000

      6   S      74             0.0889740    1.000000000000

      7   P      75          7423.8614000    0.000938377609
      7   P      76          1759.5166000    0.005133377508
      7   P      77           570.2291600    0.024099824935
      7   P      78           216.5799700    0.086762429694
      7   P      79            90.7342520    0.228273052999
      7   P      80            40.3087910    0.392022345650
      7   P      81            18.5555020    0.348929673917
      7   P      82             8.3965430    0.101835170032
      7   P      83             3.7673670    0.003273321893
      7   P      84             1.6297010    0.001772857696
      7   P      85             0.2225030    0.000216994822

      8   P      86          7423.8614000   -0.000377368830
      8   P      87          1759.5166000   -0.002078856782
      8   P      88           570.2291600   -0.009841594745
      8   P      89           216.5799700   -0.036476256021
      8   P      90            90.7342520   -0.099965258993
      8   P      91            40.3087910   -0.184025625096
      8   P      92            18.5555020   -0.144893040697
      8   P      93             8.3965430    0.209289264962
      8   P      94             3.7673670    0.550748557488
      8   P      95             1.6297010    0.387867158814
      8   P      96             0.2225030   -0.005154847972

      9   P      97          7423.8614000    0.000139223028
      9   P      98          1759.5166000    0.000768701503
      9   P      99           570.2291600    0.003638497780
      9   P     100           216.5799700    0.013549681419
      9   P     101            90.7342520    0.037246834642
      9   P     102            40.3087910    0.069389334914
      9   P     103            18.5555020    0.052882141611
      9   P     104             8.3965430   -0.096382453072
      9   P     105             3.7673670   -0.257993529431
      9   P     106             1.6297010   -0.205528886912
      9   P     107             0.2225030    0.990245287546

     10   P     108             0.5682630    1.000000000000

     11   P     109             0.0804050    1.000000000000

     12   D     110           321.0196100    0.001881680809
     12   D     111            96.2493050    0.014904607123
     12   D     112            36.6449630    0.065004552468
     12   D     113            15.4939650    0.183605431315
     12   D     114             6.8911380    0.330320202868
     12   D     115             3.0548310    0.388735616644
     12   D     116             1.3142410    0.287105421146

     13   D     117             0.5134300    1.000000000000

     14   D     118             0.1877000    1.000000000000

     15   F     119             0.4158000    1.000000000000

 H         

     16   S     120            33.8700000    0.025531286985
     16   S     121             5.0950000    0.190383336530
     16   S     122             1.1590000    0.852134062742

     17   S     123             0.3258000    1.000000000000

     18   S     124             0.1027000    1.000000000000

     19   P     125             1.4070000    1.000000000000

     20   P     126             0.3880000    1.000000000000

     21   D     127             1.0570000    1.000000000000

 H         

     22   S     128            33.8700000    0.025531286985
     22   S     129             5.0950000    0.190383336530
     22   S     130             1.1590000    0.852134062742

     23   S     131             0.3258000    1.000000000000

     24   S     132             0.1027000    1.000000000000

     25   P     133             1.4070000    1.000000000000

     26   P     134             0.3880000    1.000000000000

     27   D     135             1.0570000    1.000000000000

 H         

     28   S     136            33.8700000    0.025531286985
     28   S     137             5.0950000    0.190383336530
     28   S     138             1.1590000    0.852134062742

     29   S     139             0.3258000    1.000000000000

     30   S     140             0.1027000    1.000000000000

     31   P     141             1.4070000    1.000000000000

     32   P     142             0.3880000    1.000000000000

     33   D     143             1.0570000    1.000000000000

 TOTAL NUMBER OF BASIS SET SHELLS             =   33
 NUMBER OF CARTESIAN GAUSSIAN BASIS FUNCTIONS =   94
 NOTE: THIS RUN WILL RESTRICT THE MO VARIATION SPACE TO SPHERICAL HARMONICS.
 THE NUMBER OF ORBITALS KEPT IN THE VARIATIONAL SPACE WILL BE PRINTED LATER.
 NUMBER OF ELECTRONS                          =   35
 CHARGE OF MOLECULE                           =    1
 SPIN MULTIPLICITY                            =    2
 NUMBER OF OCCUPIED ORBITALS (ALPHA)          =   18
 NUMBER OF OCCUPIED ORBITALS (BETA )          =   17
 TOTAL NUMBER OF ATOMS                        =    4
 THE NUCLEAR REPULSION ENERGY IS       36.3841199034

     ---------------------------------
     RELATIVISTIC WAVEFUNCTION OPTIONS
     ---------------------------------
     METHOD=DK       NORDER= 3       NESOC=  0      MODEQR=      1
     NRATOM=  0      QMTTOL= 1.000E-10      QRTOL= 1.000E-02
     CLIGHT=137.03598950     TAU= 3.500E+00

 INTERNAL BASIS SET UNCONTRACTION FOR RESC/DK/IOTC/LUT-IOTC:
    67 SHELLS AND    174 AOS ARE CONSTRUCTED, COMPARED TO
    33 SHELLS AND     94 AOS IN THE CONTRACTED BASIS SET

    76 REDUNDANT PRIMITIVE(S) ELIMINATED.


     $CONTRL OPTIONS
     ---------------
 SCFTYP=MCSCF        RUNTYP=ENERGY       EXETYP=RUN     
 MPLEVL=       2     CITYP =NONE         CCTYP =NONE         VBTYP =NONE    
 DFTTYP=NONE         TDDFT =NONE    
 MULT  =       2     ICHARG=       1     NZVAR =       0     COORD =UNIQUE  
 PP    =NONE         RELWFN=DK           LOCAL =NONE         NUMGRD=       F
 ISPHER=       1     NOSYM =       1     MAXIT =     200     UNITS =ANGS    
 PLTORB=       F     MOLPLT=       F     AIMPAC=       F     FRIEND=        
 NPRINT=       7     IREST =       0     GEOM  =INPUT   
 NORMF =       0     NORMP =       0     ITOL  =      20     ICUT  =       9
 INTTYP=RYSQUAD      GRDTYP=BEST         QMTTOL= 1.0E-05

     $SYSTEM OPTIONS
     ---------------
  REPLICATED MEMORY=   250000000 WORDS (ON EVERY NODE).
 DISTRIBUTED MEMDDI=        8000 MILLION WORDS IN AGGREGATE,
 MEMDDI DISTRIBUTED OVER   2 PROCESSORS IS  4000000000 WORDS/PROCESSOR.
 TOTAL MEMORY REQUESTED ON EACH PROCESSOR=  4250000000 WORDS.
 TIMLIM=      525600.00 MINUTES, OR     365.0 DAYS.
 PARALL= T  BALTYP=  DLB     KDIAG=    3  COREFL= F
 MXSEQ2=     300 MXSEQ3=     150  mem10=         0

          ----------------
          PROPERTIES INPUT
          ----------------

     MOMENTS            FIELD           POTENTIAL          DENSITY
 IEMOM =       1   IEFLD =       0   IEPOT =       0   IEDEN =       0
 WHERE =COMASS     WHERE =NUCLEI     WHERE =NUCLEI     WHERE =NUCLEI  
 OUTPUT=BOTH       OUTPUT=BOTH       OUTPUT=BOTH       OUTPUT=BOTH    
 IEMINT=       0   IEFINT=       0                     IEDINT=       0
                                                       MORB  =       0

     -------------------------------
     INTEGRAL TRANSFORMATION OPTIONS
     -------------------------------
     NWORD  =            0
     CUTOFF = 1.0E-09     MPTRAN =       0
     DIRTRF =       T     AOINTS =DUP     

          ----------------------
          MCSCF INPUT PARAMETERS
          ----------------------
 CONVERGER SELECTION: FOCAS = F  SOSCF = F  FULLNR = T  QUD = F  JACOBI = F
 SECULAR EQUATION METHOD CISTEP = GMCCI   
 --- GENERAL INPUT OPTIONS:
 MAXIT =     200  MICIT =       1  ACURCY= 1.000E-06
 DAMP  =   0.000  CANONC=       T  ENGTOL= 1.000E-10
 EKT   =       F  NPUNCH=       2  NWORD =         0
 REGENERATE CI AFTER CONVERGENCE = NONE    
 DIABATIZATION AFTER CONVERGENCE =        F
 --- INPUT FOR FULLNR CONVERGER:
 METHOD=DM2       FORS  =       F  DROPC =       T
 LINSER=       F  FCORE =       F  NORB  =      94

          ----------------------
          INTEGRAL INPUT OPTIONS
          ----------------------
 NOPK  =       1 NORDER=       0 SCHWRZ=       T

 ------------------------------------------
 MULTIREFERENCE PERTURBATION THEORY CONTROL
 ------------------------------------------
 MRPT=GMCPT    READ CONVERGED MCSCF VECTORS= F


     ------------------------------------------
     THE POINT GROUP IS C1 , NAXIS= 1, ORDER= 1
     ------------------------------------------

 -- VARIATIONAL SPACE WILL BE RESTRICTED TO PURE SPHERICAL HARMONICS ONLY --
 AFTER EXCLUDING CONTAMINANT COMBINATIONS FROM THE CARTESIAN GAUSSIAN BASIS
 SET, THE NUMBER OF SPHERICAL HARMONICS KEPT IN THE VARIATION SPACE IS   85

     DIMENSIONS OF THE SYMMETRY SUBSPACES ARE
 A   =   85

 ..... DONE SETTING UP THE RUN .....
 CPU     0: STEP CPU TIME=     0.15 TOTAL CPU TIME=          0.2 (      0.0 MIN)
 TOTAL WALL CLOCK TIME=          0.3 SECONDS, CPU UTILIZATION IS    44.12%

          ********************
          1 ELECTRON INTEGRALS
          ********************
 TIME TO DO ORDINARY INTEGRALS=      0.00

 ------------------------------------------------------------------
 3RD ORDER DOUGLAS-KROLL-HESS RELATIVISTIC ONE-ELECTRON HAMILTONIAN
            CODED BY TAKAHITO NAKAJIMA AND DMITRI FEDOROV
 ------------------------------------------------------------------

 TIME TO DO  RELATIVISTIC INTS=      0.58
 TIME TO DO   DIPOLE INTEGRALS=      0.00
 ...... END OF ONE-ELECTRON INTEGRALS ......
 CPU     0: STEP CPU TIME=     0.58 TOTAL CPU TIME=          0.7 (      0.0 MIN)
 TOTAL WALL CLOCK TIME=          1.0 SECONDS, CPU UTILIZATION IS    73.74%

          -------------
          GUESS OPTIONS
          -------------
          GUESS =MOREAD            NORB  =      85          NORDER=       0
          MIX   =       F          PRTMO =       F          PUNMO =       F
          TOLZ  = 1.0E-08          TOLE  = 1.0E-05
          SYMDEN=       F          PURIFY=       T

 INITIAL GUESS ORBITALS GENERATED BY MOREAD   ROUTINE.

 STATISTICS FOR GENERATION OF SYMMETRY ORBITAL -Q- MATRIX
 NUMBER OF CARTESIAN ATOMIC ORBITALS=         94
 NUMBER OF SPHERICAL CONTAMINANTS DROPPED=     9
 NUMBER OF LINEARLY DEPENDENT MOS DROPPED=     0
 TOTAL NUMBER OF MOS IN VARIATION SPACE=      85
 ORBITAL PURIFICATION WILL OCCUR

 SYMMETRIES FOR INITIAL GUESS ORBITALS FOLLOW.   BOTH SET(S).
    18 ORBITALS ARE OCCUPIED (   14 CORE ORBITALS).
     1=A        2=A        3=A        4=A        5=A        6=A        7=A   
     8=A        9=A       10=A       11=A       12=A       13=A       14=A   
    15=A       16=A       17=A       18=A       19=A       20=A       21=A   
    22=A       23=A       24=A       25=A       26=A       27=A       28=A   
    29=A       30=A       31=A       32=A       33=A       34=A       35=A   
    36=A       37=A       38=A       39=A       40=A       41=A       42=A   
    43=A       44=A       45=A       46=A       47=A       48=A       49=A   
    50=A       51=A       52=A       53=A       54=A       55=A       56=A   
    57=A       58=A       59=A       60=A       61=A       62=A       63=A   
    64=A       65=A       66=A       67=A       68=A       69=A       70=A   
    71=A       72=A       73=A       74=A       75=A       76=A       77=A   
    78=A       79=A       80=A       81=A       82=A       83=A       84=A   
    85=A   
 ...... END OF INITIAL ORBITAL SELECTION ......
 CPU     0: STEP CPU TIME=     0.09 TOTAL CPU TIME=          0.8 (      0.0 MIN)
 TOTAL WALL CLOCK TIME=          1.1 SECONDS, CPU UTILIZATION IS    75.23%

                    ----------------------
                    AO INTEGRAL TECHNOLOGY
                    ----------------------
     S,P,L SHELL ROTATED AXIS INTEGRALS, REPROGRAMMED BY
        KAZUYA ISHIMURA (IMS) AND JOSE SIERRA (SYNSTAR).
     S,P,D,L SHELL ROTATED AXIS INTEGRALS PROGRAMMED BY
        KAZUYA ISHIMURA (INSTITUTE FOR MOLECULAR SCIENCE).
     S,P,D,F,G SHELL TO TOTAL QUARTET ANGULAR MOMENTUM SUM 5,
        ERIC PROGRAM BY GRAHAM FLETCHER (ELORET AND NASA ADVANCED
        SUPERCOMPUTING DIVISION, AMES RESEARCH CENTER).
     S,P,D,F,G,L SHELL GENERAL RYS QUADRATURE PROGRAMMED BY
        MICHEL DUPUIS (PACIFIC NORTHWEST NATIONAL LABORATORY).

          --------------------
          2 ELECTRON INTEGRALS
          --------------------

 DIRECT SCF METHOD SKIPS INTEGRAL STORAGE ON DISK.
 DIRECT TRANSFORMATION SKIPS AO INTEGRAL STORAGE ON DISK.
  ...... END OF TWO-ELECTRON INTEGRALS .....
 STEP CPU TIME =     0.02 TOTAL CPU TIME =          0.8 (      0.0 MIN)
 TOTAL WALL CLOCK TIME=          1.1 SECONDS, CPU UTILIZATION IS    75.00%
 DDI: Creating Array [0] - 8836 x 231 = 2041116 words.
 DDI: Creating Array [1] - 64 x 4851 = 310464 words.
 DDI: Creating Array [2] - 231 x 231 = 53361 words.
 DDI: Creating Array [3] - 4465 x 231 = 1031415 words.

          -----------------
          MCSCF CALCULATION
          -----------------

 ----- NUCLEAR ENERGY ----- =        36.3841199034

     -------------------------------------------------
     GMC-PT/GMC-QDPT or general MCSCF input parameters
     -------------------------------------------------
 # of frozen core orbs. =         5 ->         0
 # of doubly occ. orbs. =         9
 # of active      orbs. =         7
 # of virtual     orbs. =        64
 # of active electrons  =         7
 # of states in CI      =         4
 Highest state in CI    =         4
 kstate =  1 1 1 1
 avecoe =  0.250 0.250 0.250 0.250
 State symmetry           = A           
 Assigned symmetry number = 1

 <<<Act. MO sym.: 1111111

 <<<Division of 1-ext.:  0 0
 <<<Division of 2-ext.:  0 1

 *** Reference space

 Reference type: ORMAS (= Occupation restricted multiple active space)
 # of orbitals          =  7
 # of minimum electrons =  7
 # of maximum electrons =  7
 State symmetry    =    1 (input)
 2*Sz              =    1 (input)
 Spin multiplicity =    2 (input)
 Dimension of reference space =      1225  (from      3432 walks)

 Dimension of reference space =      1225  (from      1225 walks)

 <<<Ionized spaces for Ref-CI:
      0:         1225 /   -1-0:         1960 /  0-1-0:         2891

 EVALUATING EXCHANGE INTEGRALS FOR DIRECT INTEGRAL TRANSFORMATION
 SCHWARZ INEQUALITY OVERHEAD:      4465 INTEGRALS, T=        0.20

     --------------------------------------------
     PARTIAL TWO ELECTRON INTEGRAL TRANSFORMATION
     --------------------------------------------

 NUMBER OF CORE MOLECULAR ORBITALS     =   14
 NUMBER OF OCCUPIED MOLECULAR ORBITALS =   21
 TOTAL NUMBER OF MOLECULAR ORBITALS    =   85
 TOTAL NUMBER OF ATOMIC ORBITALS       =   94
 THRESHOLD FOR KEEPING TRANSFORMED 2E- INTEGRALS = 1.000E-09

 -------------------------------     ------------------------------
 DISTRIBUTED DATA TRANSFORMATION     PROGRAM WRITTEN BY G. FLETCHER
 -------------------------------     ------------------------------

 THE DISTRIBUTED MEMORY REQUIRED FOR THIS STEP IS MEMDDI=         4 MWORDS
 CREATING DISTRIBUTED STORAGE FOR [VIR OCC|VIR OCC] INTEGRALS
 CREATING DISTRIBUTED STORAGE FOR [VIR OCC|OCC OCC] INTEGRALS
 CREATING DISTRIBUTED STORAGE FOR [OCC OCC|OCC OCC] INTEGRALS
 CREATING DISTRIBUTED STORAGE FOR [VIR VIR|OCC OCC] INTEGRALS
 FOR    2 PROCESSORS, THE REPLICATED MEMORY NEEDED IS      615709 WORDS.
 SCHWARZ INEQUALITY OVERHEAD:      4465 INTEGRALS, T=        0.19

      DIRECT 4-INDEX TRANSFORMATION 
      SCHWARZ INEQUALITY TEST SKIPPED       1078 INTEGRAL BLOCKS
 ----- FROZEN CORE ENERGY =     -2283.3504939255
 ... END OF INTEGRAL TRANSFORMATION ...
 CPU     0: STEP CPU TIME=    14.53 TOTAL CPU TIME=         15.4 (      0.3 MIN)
 TOTAL WALL CLOCK TIME=         16.3 SECONDS, CPU UTILIZATION IS    94.18%

     --------------------------------     -----------------------------
     MCHF NEWTON-RAPHSON OPTIMIZATION     CODE WRITTEN BY MICHEL DUPUIS
     --------------------------------     -----------------------------
     PARALLEL VERSION WRITTEN BY G. FLETCHER (ELORET)
     NASA ADVANCED SUPERCOMPUTING DIVISION, AMES RESEARCH CENTER

 NUMBER OF INDEPENDENT ORBITAL ROTATION PARAMETERS =   760
 ..... DONE SOLVING NEWTON-RAPHSON EQUATIONS .....
 CPU     0: STEP CPU TIME=     0.62 TOTAL CPU TIME=         16.0 (      0.3 MIN)
 TOTAL WALL CLOCK TIME=         17.5 SECONDS, CPU UTILIZATION IS    91.37%
 ..... DONE WITH NTN-RPH ORBITAL ROTATIONS ..... 
 CPU     0: STEP CPU TIME=     0.00 TOTAL CPU TIME=         16.0 (      0.3 MIN)
 TOTAL WALL CLOCK TIME=         17.5 SECONDS, CPU UTILIZATION IS    91.32%
 MAXIMUM MEMORY USED BY NTN-RPH CODE WAS    197978 WORDS.

 ITER     TOTAL ENERGY      DEL(E)  LAGRANGIAN ASYMMETRY   SQCDF  MICIT   DAMP
   1    -2260.366602976 -0.366602976  0.001957   58   18 2.588E-05  1   0.0000
   2    -2260.366614872 -0.000011896  0.000197   31   18 1.316E-05  1   0.0000
   3    -2260.366615518 -0.000000646  0.000072   31   18 4.825E-06  1   0.0000
   4    -2260.366615717 -0.000000199  0.000034   31   18 1.745E-06  1   0.0000
   5    -2260.366615786 -0.000000069  0.000018   31   18 6.264E-07  1   0.0000
   6    -2260.366615811 -0.000000025  0.000010   31   18 2.241E-07  1   0.0000
   7    -2260.366615819 -0.000000009  0.000006   31   18 8.000E-08  1   0.0000
   8    -2260.366615823 -0.000000003  0.000004   31   18 2.864E-08  1   0.0000
   9    -2260.366615824 -0.000000001  0.000002   31   18 1.020E-08  1   0.0000
  10    -2260.366615824 -0.000000000  0.000001   31   18 3.645E-09  1   0.0000
  11    -2260.366615824 -0.000000000  0.000001   31   18 1.303E-09  1   0.0000

          --------------------
          LAGRANGIAN CONVERGED
          --------------------

 FINAL MCSCF ENERGY IS    -2260.3666158243 AFTER  11 ITERATIONS

 -MCCI- BASED ON OPTIMIZED ORBITALS
 ----------------------------------

 PLEASE NOTE: IF THE ACTIVE ORBITALS ARE CANONICALIZED BELOW,
 THE FOLLOWING CI EXPANSION COEFFICIENTS AND THE DENSITY DO NOT
 CORRESPOND TO THE PRINTED ORBITALS.  THE PRINTED EXPANSIONS MATCH
 THE ORBITALS USED DURING THE LAST ITERATION.  IF YOU WISH TO SEE
 CI EXPANSIONS BASED ON THE CANONICAL (OR NATURAL) ORBITALS, YOU
 MUST RUN A CI CALCULATION WITH THAT ORBITAL CHOICE READ IN $VEC.

 Averaged energy =   -2260.366615824

 State #    1  Energy =   -2260.541533987  S =  0.500

      Det      Coef    Occupancy (Ignoring core)
      ---      ----    --------- --------- -----
        1    0.976435  11110001110000
      107   -0.071022  11101000111000
      143    0.063615  11011001100100
      179    0.063615  10111001010100
      393    0.059198  10110101010010
      717    0.059198  11010011100001

 State #    2  Energy =   -2260.335496411  S =  0.500

      Det      Coef    Occupancy (Ignoring core)
      ---      ----    --------- --------- -----
        2    0.953695  11101001110000
      106   -0.158020  11110000111000
      110   -0.056928  01111000111000
      156    0.083139  11100011100100
      181   -0.083139  11100101010100
      212    0.063708  11101000110100
      387   -0.079390  11101001010010
      396    0.061790  10101101010010
      702    0.079390  11101001100001
      720    0.061790  11001011100001

 State #    3  Energy =   -2260.294716449  S =  0.500

      Det      Coef    Occupancy (Ignoring core)
      ---      ----    --------- --------- -----
       16    0.111575  11100011110000
       36   -0.890847  11110001101000
       39   -0.101883  10111001101000
       52   -0.087809  11010011101000
       71   -0.330502  11110001011000
       73   -0.101883  11011001011000
      108   -0.051737  11011000111000
      142    0.108422  11101001100100
      249   -0.068615  10111001001100

 State #    4  Energy =   -2260.294716449  S =  0.500

      Det      Coef    Occupancy (Ignoring core)
      ---      ----    --------- --------- -----
        6    0.111575  11100101110000
       36   -0.330502  11110001101000
       38    0.101883  11011001101000
       71    0.890847  11110001011000
       74   -0.101883  10111001011000
       78   -0.087809  10110101011000
      109    0.051737  10111000111000
      177   -0.108422  11101001010100
      248   -0.068615  11011001001100

 DENSITY MATRIX OVER ACTIVE MO-S

             1           2           3           4           5

    1    1.9736136
    2    0.0000000   1.7191400
    3    0.0000000   0.0000000   1.7191400
    4   -0.0003417  -0.0000000  -0.0000000   1.2366597
    5    0.0030185  -0.0000000   0.0000000  -0.0086098   0.2923883
    6    0.0000000  -0.0001666  -0.0000078   0.0000000  -0.0000000
    7   -0.0000000   0.0000078  -0.0001666  -0.0000000   0.0000000

             6           7

    6    0.0295292
    7   -0.0000000   0.0295292

 FORMING THE "STANDARD FOCK OPERATOR" IN DIRECT AO INTEGRAL MODE...
 ONLY THE   14 CORE AND   64 VIRTUAL ORBITALS WILL BE CANONICALIZED

          ----------------------
          MCSCF NATURAL ORBITALS
          ----------------------

                      1          2          3          4          5
                 -439.2723   -58.0908   -50.8008   -50.8006   -50.8006
                     A          A          A          A          A   
    1  AS 1  S    1.000007   0.000041   0.000000   0.000000   0.000000
    2  AS 1  S   -0.000007   0.999990  -0.000024   0.000000  -0.000000
    3  AS 1  S    0.000185  -0.000316   0.000005   0.000000   0.000000
    4  AS 1  S    0.000180  -0.000285   0.000004   0.000000   0.000000
    5  AS 1  S   -0.000081  -0.000190  -0.000003   0.000000   0.000000
    6  AS 1  S   -0.000023  -0.000071  -0.000002   0.000000  -0.000000
    7  AS 1  X   -0.000000   0.000000  -0.000000  -0.120942   0.992683
    8  AS 1  Y   -0.000000  -0.000000   0.000000   0.992683   0.120942
    9  AS 1  Z    0.000000   0.000026   1.000024  -0.000000   0.000000
   10  AS 1  X   -0.000000   0.000000   0.000000   0.000001  -0.000005
   11  AS 1  Y   -0.000000  -0.000000   0.000000  -0.000005  -0.000001
   12  AS 1  Z    0.000000   0.000001  -0.000004   0.000000   0.000000
   13  AS 1  X    0.000000   0.000000   0.000000   0.000010  -0.000084
   14  AS 1  Y   -0.000000   0.000000   0.000000  -0.000084  -0.000010
   15  AS 1  Z    0.000001  -0.000001  -0.000005   0.000000   0.000000
   16  AS 1  X    0.000000   0.000000  -0.000000   0.000057  -0.000466
   17  AS 1  Y   -0.000000   0.000000   0.000000  -0.000466  -0.000057
   18  AS 1  Z   -0.000000  -0.000001  -0.000418   0.000000  -0.000000
   19  AS 1  X   -0.000000  -0.000000   0.000000   0.000010  -0.000084
   20  AS 1  Y   -0.000000   0.000000   0.000000  -0.000084  -0.000010
   21  AS 1  Z   -0.000000  -0.000000  -0.000065   0.000000  -0.000000
   22  AS 1 XX   -0.000001   0.000002  -0.000001  -0.000000   0.000001
   23  AS 1 YY   -0.000001   0.000002  -0.000001   0.000000  -0.000001
   24  AS 1 ZZ    0.000002  -0.000004   0.000002   0.000000   0.000000
   25  AS 1 XY   -0.000000  -0.000000   0.000000  -0.000002  -0.000000
   26  AS 1 XZ   -0.000000  -0.000000   0.000000  -0.000000   0.000002
   27  AS 1 YZ   -0.000000  -0.000000   0.000000   0.000002   0.000000
   28  AS 1 XX    0.000009  -0.000021   0.000001   0.000006  -0.000052
   29  AS 1 YY    0.000009  -0.000021   0.000001  -0.000006   0.000052
   30  AS 1 ZZ   -0.000017   0.000043  -0.000001   0.000000  -0.000000
   31  AS 1 XY    0.000000  -0.000000   0.000000   0.000060   0.000007
   32  AS 1 XZ    0.000000   0.000000  -0.000000   0.000000  -0.000002
   33  AS 1 YZ   -0.000000  -0.000000   0.000000  -0.000002  -0.000000
   34  AS 1 XX    0.000010  -0.000024  -0.000000   0.000002  -0.000015
   35  AS 1 YY    0.000010  -0.000024  -0.000000  -0.000002   0.000015
   36  AS 1 ZZ   -0.000020   0.000049   0.000000  -0.000000   0.000000
   37  AS 1 XY    0.000000  -0.000000  -0.000000   0.000017   0.000002
   38  AS 1 XZ   -0.000000  -0.000000   0.000000  -0.000000   0.000000
   39  AS 1 YZ   -0.000000  -0.000000   0.000000   0.000000   0.000000
   40  AS 1 XXX   0.000020  -0.000050   0.000000   0.000001  -0.000012
   41  AS 1 YYY  -0.000000  -0.000000   0.000000  -0.000012  -0.000001
   42  AS 1 ZZZ  -0.000000   0.000001  -0.000000   0.000000  -0.000000
   43  AS 1 XXY  -0.000000  -0.000000   0.000000  -0.000005  -0.000001
   44  AS 1 XXZ   0.000000  -0.000000   0.000000   0.000000  -0.000000
   45  AS 1 YYX  -0.000027   0.000068  -0.000000   0.000001  -0.000005
   46  AS 1 YYZ   0.000000  -0.000000   0.000000  -0.000000   0.000000
   47  AS 1 ZZX   0.000000   0.000000   0.000000  -0.000003   0.000022
   48  AS 1 ZZY   0.000000  -0.000000   0.000000   0.000022   0.000003
   49  AS 1 XYZ  -0.000000  -0.000000   0.000000   0.000001   0.000000
   50  H  2  S    0.000003  -0.000002  -0.000000  -0.000012   0.000005
   51  H  2  S   -0.000046   0.000114  -0.000001   0.000060  -0.000026
   52  H  2  S    0.000001   0.000023   0.000000   0.000041  -0.000017
   53  H  2  X   -0.000000   0.000002   0.000000   0.000007  -0.000004
   54  H  2  Y    0.000001  -0.000004  -0.000000  -0.000013   0.000005
   55  H  2  Z   -0.000000  -0.000000   0.000001  -0.000000   0.000000
   56  H  2  X   -0.000013   0.000034  -0.000000   0.000030  -0.000014
   57  H  2  Y    0.000023  -0.000059   0.000000  -0.000054   0.000022
   58  H  2  Z    0.000000  -0.000001  -0.000004  -0.000000   0.000000
   59  H  2 XX    0.000001  -0.000003   0.000000  -0.000003   0.000004
   60  H  2 YY   -0.000003   0.000011   0.000000   0.000022  -0.000012
   61  H  2 ZZ    0.000002  -0.000008  -0.000000  -0.000019   0.000008
   62  H  2 XY    0.000004  -0.000014  -0.000000  -0.000027   0.000010
   63  H  2 XZ    0.000000  -0.000000   0.000003  -0.000000   0.000000
   64  H  2 YZ   -0.000000   0.000000  -0.000005   0.000000  -0.000000
   65  H  3  S    0.000003  -0.000002  -0.000000   0.000011   0.000008
   66  H  3  S   -0.000046   0.000114  -0.000001  -0.000052  -0.000039
   67  H  3  S    0.000001   0.000023   0.000000  -0.000035  -0.000026
   68  H  3  X   -0.000000   0.000002   0.000000  -0.000006  -0.000005
   69  H  3  Y   -0.000001   0.000004   0.000000  -0.000011  -0.000008
   70  H  3  Z   -0.000000  -0.000000   0.000001   0.000000   0.000000
   71  H  3  X   -0.000013   0.000034  -0.000000  -0.000026  -0.000021
   72  H  3  Y   -0.000023   0.000059  -0.000000  -0.000047  -0.000034
   73  H  3  Z    0.000000  -0.000001  -0.000004   0.000000   0.000000
   74  H  3 XX    0.000001  -0.000003   0.000000   0.000002   0.000005
   75  H  3 YY   -0.000003   0.000011   0.000000  -0.000018  -0.000017
   76  H  3 ZZ    0.000002  -0.000008  -0.000000   0.000016   0.000012
   77  H  3 XY   -0.000004   0.000014   0.000000  -0.000024  -0.000016
   78  H  3 XZ    0.000000  -0.000000   0.000003   0.000000   0.000000
   79  H  3 YZ    0.000000  -0.000000   0.000005   0.000000   0.000000
   80  H  4  S    0.000003  -0.000002  -0.000000   0.000002  -0.000013
   81  H  4  S   -0.000046   0.000114  -0.000001  -0.000008   0.000065
   82  H  4  S    0.000001   0.000023   0.000000  -0.000005   0.000044
   83  H  4  X    0.000001  -0.000005  -0.000000   0.000002  -0.000016
   84  H  4  Y   -0.000000  -0.000000   0.000000  -0.000001  -0.000000
   85  H  4  Z   -0.000000  -0.000000   0.000001   0.000000  -0.000000
   86  H  4  X    0.000027  -0.000068   0.000000   0.000008  -0.000067
   87  H  4  Y   -0.000000   0.000000   0.000000  -0.000002  -0.000000
   88  H  4  Z    0.000000  -0.000001  -0.000004   0.000000  -0.000000
   89  H  4 XX   -0.000005   0.000018   0.000000  -0.000005   0.000039
   90  H  4 YY    0.000003  -0.000010  -0.000000   0.000002  -0.000019
   91  H  4 ZZ    0.000002  -0.000008  -0.000000   0.000002  -0.000020
   92  H  4 XY   -0.000000  -0.000000   0.000000  -0.000004  -0.000000
   93  H  4 XZ   -0.000000   0.000000  -0.000006  -0.000000   0.000000
   94  H  4 YZ   -0.000000  -0.000000  -0.000000  -0.000000  -0.000000

                      6          7          8          9         10
                   -8.5921    -6.2545    -6.2545    -6.2511    -2.3907
                     A          A          A          A          A   
    1  AS 1  S   -0.000068  -0.000000   0.000000  -0.000006  -0.000000
    2  AS 1  S   -0.000319  -0.000000   0.000000  -0.000039   0.000000
    3  AS 1  S    0.980078  -0.000000   0.000000  -0.000307   0.000000
    4  AS 1  S   -0.000986   0.000000   0.000000  -0.000133  -0.000000
    5  AS 1  S    0.029990   0.000000  -0.000000   0.000091  -0.000000
    6  AS 1  S    0.003077   0.000000  -0.000000   0.000037  -0.000000
    7  AS 1  X   -0.000000  -0.000097   0.000009   0.000000   0.000160
    8  AS 1  Y   -0.000000  -0.000009  -0.000097   0.000000   0.000012
    9  AS 1  Z   -0.000003  -0.000000   0.000000   0.000038  -0.000000
   10  AS 1  X   -0.000000   0.971057  -0.093808   0.000000   0.000412
   11  AS 1  Y   -0.000000   0.093808   0.971057   0.000000   0.000031
   12  AS 1  Z    0.000155  -0.000000  -0.000000   0.976861  -0.000000
   13  AS 1  X   -0.000000  -0.000998   0.000096   0.000000   0.003351
   14  AS 1  Y   -0.000000  -0.000096  -0.000998   0.000000   0.000250
   15  AS 1  Z   -0.000017  -0.000000   0.000000   0.000470  -0.000000
   16  AS 1  X   -0.000000   0.045679  -0.004413   0.000000  -0.001801
   17  AS 1  Y    0.000000   0.004413   0.045679   0.000000  -0.000135
   18  AS 1  Z    0.000029  -0.000000  -0.000000   0.044775   0.000000
   19  AS 1  X    0.000000   0.001929  -0.000186   0.000000  -0.002395
   20  AS 1  Y    0.000000   0.000186   0.001929   0.000000  -0.000179
   21  AS 1  Z    0.000009  -0.000000   0.000000   0.001552   0.000000
   22  AS 1 XX    0.000307   0.000609  -0.000059  -0.000048   0.833899
   23  AS 1 YY    0.000307  -0.000609   0.000059  -0.000048  -0.833899
   24  AS 1 ZZ   -0.000614   0.000000   0.000000   0.000096  -0.000000
   25  AS 1 XY   -0.000000  -0.000068  -0.000704   0.000000  -0.071952
   26  AS 1 XZ    0.000000   0.000094  -0.000009   0.000000   0.006852
   27  AS 1 YZ   -0.000000   0.000009   0.000094   0.000000   0.000512
   28  AS 1 XX    0.000052  -0.000360   0.000035  -0.000008   0.074492
   29  AS 1 YY    0.000052   0.000360  -0.000035  -0.000008  -0.074492
   30  AS 1 ZZ   -0.000105  -0.000000   0.000000   0.000016  -0.000000
   31  AS 1 XY    0.000000   0.000040   0.000416  -0.000000  -0.006427
   32  AS 1 XZ   -0.000000   0.000005  -0.000001  -0.000000   0.000606
   33  AS 1 YZ   -0.000000   0.000001   0.000005   0.000000   0.000045
   34  AS 1 XX   -0.000001  -0.000210   0.000020   0.000000   0.000541
   35  AS 1 YY   -0.000001   0.000210  -0.000020   0.000000  -0.000541
   36  AS 1 ZZ    0.000002  -0.000000   0.000000  -0.000000  -0.000000
   37  AS 1 XY   -0.000000   0.000023   0.000242  -0.000000  -0.000047
   38  AS 1 XZ    0.000000  -0.000012   0.000001   0.000000   0.000021
   39  AS 1 YZ   -0.000000  -0.000001  -0.000012   0.000000   0.000002
   40  AS 1 XXX   0.000071   0.000047  -0.000005  -0.000006   0.000323
   41  AS 1 YYY  -0.000000   0.000005   0.000047   0.000000   0.000024
   42  AS 1 ZZZ  -0.000001  -0.000000   0.000000  -0.000215  -0.000000
   43  AS 1 XXY  -0.000000   0.000002   0.000021   0.000000   0.000011
   44  AS 1 XXZ   0.000001  -0.000003   0.000000   0.000144   0.000053
   45  AS 1 YYX  -0.000095   0.000021  -0.000002   0.000008   0.000145
   46  AS 1 YYZ   0.000001   0.000003  -0.000000   0.000144  -0.000053
   47  AS 1 ZZX  -0.000000  -0.000084   0.000008   0.000000  -0.000578
   48  AS 1 ZZY  -0.000000  -0.000008  -0.000084  -0.000000  -0.000043
   49  AS 1 XYZ  -0.000000   0.000000   0.000003   0.000000  -0.000005
   50  H  2  S    0.000026  -0.000175   0.000384   0.000001  -0.002477
   51  H  2  S    0.000225  -0.000824   0.001809   0.000023  -0.001696
   52  H  2  S   -0.000496   0.000263  -0.000579  -0.000009  -0.000721
   53  H  2  X    0.000004   0.000009   0.000031   0.000000  -0.000739
   54  H  2  Y   -0.000007   0.000029  -0.000034  -0.000000   0.000425
   55  H  2  Z    0.000000   0.000000  -0.000001   0.000012   0.000005
   56  H  2  X   -0.000009  -0.000028   0.000282   0.000005  -0.000978
   57  H  2  Y    0.000015   0.000240  -0.000401  -0.000009  -0.000291
   58  H  2  Z    0.000000   0.000001  -0.000002   0.000117   0.000010
   59  H  2 XX   -0.000005  -0.000001  -0.000052  -0.000001  -0.000181
   60  H  2 YY    0.000032  -0.000042   0.000147   0.000001  -0.000060
   61  H  2 ZZ   -0.000027   0.000043  -0.000095  -0.000001   0.000241
   62  H  2 XY   -0.000037   0.000096  -0.000174  -0.000002   0.000565
   63  H  2 XZ   -0.000000   0.000001  -0.000001  -0.000014   0.000011
   64  H  2 YZ    0.000000  -0.000001   0.000002   0.000025  -0.000004
   65  H  3  S    0.000026  -0.000245  -0.000343   0.000001  -0.003214
   66  H  3  S    0.000225  -0.001155  -0.001618   0.000023  -0.002201
   67  H  3  S   -0.000496   0.000369   0.000517  -0.000009  -0.000935
   68  H  3  X    0.000004   0.000002  -0.000032   0.000000  -0.000818
   69  H  3  Y    0.000007  -0.000035  -0.000028   0.000000  -0.000632
   70  H  3  Z    0.000000   0.000001   0.000001   0.000012   0.000006
   71  H  3  X   -0.000009  -0.000081  -0.000271   0.000005  -0.000942
   72  H  3  Y   -0.000015  -0.000313  -0.000347   0.000009   0.000189
   73  H  3  Z    0.000000   0.000001   0.000002   0.000117   0.000013
   74  H  3 XX   -0.000005   0.000009   0.000052  -0.000001  -0.000138
   75  H  3 YY    0.000032  -0.000069  -0.000136   0.000001  -0.000176
   76  H  3 ZZ   -0.000027   0.000061   0.000085  -0.000001   0.000313
   77  H  3 XY    0.000037  -0.000128  -0.000153   0.000002  -0.000667
   78  H  3 XZ   -0.000000   0.000001   0.000001  -0.000014   0.000012
   79  H  3 YZ   -0.000000   0.000001   0.000002  -0.000025   0.000006
   80  H  4  S    0.000026   0.000419  -0.000041   0.000001   0.005691
   81  H  4  S    0.000225   0.001979  -0.000191   0.000023   0.003897
   82  H  4  S   -0.000496  -0.000633   0.000061  -0.000009   0.001656
   83  H  4  X   -0.000008  -0.000050   0.000005  -0.000000  -0.001694
   84  H  4  Y   -0.000000   0.000002   0.000024   0.000000  -0.000035
   85  H  4  Z    0.000000  -0.000001   0.000000   0.000012  -0.000011
   86  H  4  X    0.000018  -0.000534   0.000052  -0.000011  -0.000545
   87  H  4  Y    0.000000   0.000010   0.000105   0.000000  -0.000082
   88  H  4  Z    0.000000  -0.000002   0.000000   0.000117  -0.000023
   89  H  4 XX    0.000050   0.000249  -0.000024   0.000002   0.001181
   90  H  4 YY   -0.000023  -0.000146   0.000014  -0.000002  -0.000626
   91  H  4 ZZ   -0.000027  -0.000104   0.000010  -0.000001  -0.000555
   92  H  4 XY   -0.000000   0.000003   0.000030   0.000000   0.000028
   93  H  4 XZ    0.000001   0.000003  -0.000000   0.000029   0.000019
   94  H  4 YZ   -0.000000   0.000000   0.000001   0.000000   0.000001

                     11         12         13         14         15
                   -2.3907    -2.3863    -2.3854    -2.3854     1.9736
                     A          A          A          A          A   
    1  AS 1  S    0.000000  -0.000051   0.000000   0.000000   0.000423
    2  AS 1  S   -0.000000  -0.000339  -0.000000   0.000000   0.002499
    3  AS 1  S   -0.000000  -0.000414  -0.000000  -0.000000   0.003952
    4  AS 1  S   -0.000000  -0.000688  -0.000000  -0.000000   0.554365
    5  AS 1  S    0.000000   0.000755   0.000000   0.000000   0.267595
    6  AS 1  S    0.000000   0.003846   0.000000  -0.000000   0.127643
    7  AS 1  X    0.000012   0.000000  -0.000012   0.000000  -0.000000
    8  AS 1  Y   -0.000160  -0.000000  -0.000000  -0.000012  -0.000000
    9  AS 1  Z    0.000000  -0.000008   0.000000   0.000000  -0.000017
   10  AS 1  X    0.000031   0.000000  -0.000197   0.000002  -0.000000
   11  AS 1  Y   -0.000412   0.000000  -0.000002  -0.000197   0.000000
   12  AS 1  Z   -0.000000  -0.000155   0.000000   0.000000  -0.000259
   13  AS 1  X    0.000250   0.000000  -0.000072   0.000001  -0.000000
   14  AS 1  Y   -0.003351   0.000000  -0.000001  -0.000072   0.000000
   15  AS 1  Z   -0.000000  -0.000145   0.000000  -0.000000  -0.000087
   16  AS 1  X   -0.000135  -0.000000   0.000109  -0.000001  -0.000000
   17  AS 1  Y    0.001801  -0.000000   0.000001   0.000109  -0.000000
   18  AS 1  Z    0.000000   0.000047   0.000000   0.000000   0.000098
   19  AS 1  X   -0.000179   0.000000  -0.000023   0.000000   0.000000
   20  AS 1  Y    0.002395  -0.000000  -0.000000  -0.000023  -0.000000
   21  AS 1  Z    0.000000  -0.000030   0.000000   0.000000  -0.000443
   22  AS 1 XX    0.062312  -0.483554  -0.005969   0.000049  -0.013234
   23  AS 1 YY   -0.062312  -0.483554   0.005969  -0.000049  -0.013234
   24  AS 1 ZZ   -0.000000   0.967108   0.000000   0.000000   0.026468
   25  AS 1 XY    0.962903  -0.000000   0.000056   0.006893  -0.000000
   26  AS 1 XZ    0.000512  -0.000000   0.967289  -0.007889  -0.000000
   27  AS 1 YZ   -0.006852  -0.000000   0.007889   0.967289  -0.000000
   28  AS 1 XX    0.005566  -0.041929  -0.000529   0.000004   0.008365
   29  AS 1 YY   -0.005566  -0.041929   0.000529  -0.000004   0.008365
   30  AS 1 ZZ    0.000000   0.083858   0.000000   0.000000  -0.016730
   31  AS 1 XY    0.086016  -0.000000   0.000005   0.000611  -0.000000
   32  AS 1 XZ    0.000045  -0.000000   0.084088  -0.000686  -0.000000
   33  AS 1 YZ   -0.000606  -0.000000   0.000686   0.084088  -0.000000
   34  AS 1 XX    0.000040  -0.000826  -0.000055   0.000000   0.004256
   35  AS 1 YY   -0.000040  -0.000826   0.000055  -0.000000   0.004256
   36  AS 1 ZZ    0.000000   0.001653   0.000000   0.000000  -0.008512
   37  AS 1 XY    0.000625  -0.000000   0.000001   0.000064   0.000000
   38  AS 1 XZ    0.000002   0.000000   0.001514  -0.000012  -0.000000
   39  AS 1 YZ   -0.000021  -0.000000   0.000012   0.001514  -0.000000
   40  AS 1 XXX   0.000024  -0.000758  -0.000038   0.000000   0.013368
   41  AS 1 YYY  -0.000323  -0.000000  -0.000000  -0.000038  -0.000000
   42  AS 1 ZZZ   0.000000   0.000063  -0.000000   0.000000  -0.000158
   43  AS 1 XXY  -0.000145  -0.000000  -0.000000  -0.000017  -0.000000
   44  AS 1 XXZ   0.000004  -0.000042   0.000226  -0.000002   0.000106
   45  AS 1 YYX   0.000011   0.001017  -0.000017   0.000000  -0.017935
   46  AS 1 YYZ  -0.000004  -0.000042  -0.000226   0.000002   0.000106
   47  AS 1 ZZX  -0.000043  -0.000000   0.000067  -0.000001  -0.000000
   48  AS 1 ZZY   0.000578  -0.000000   0.000001   0.000067  -0.000000
   49  AS 1 XYZ   0.000061  -0.000000  -0.000002  -0.000261  -0.000000
   50  H  2  S   -0.005141  -0.002786  -0.000026   0.000046   0.072744
   51  H  2  S   -0.003521  -0.001359  -0.000071   0.000125   0.103701
   52  H  2  S   -0.001496  -0.000350  -0.000020   0.000035   0.008754
   53  H  2  X   -0.000587  -0.000470   0.000001   0.000012   0.003447
   54  H  2  Y    0.001428   0.000813   0.000012  -0.000012  -0.005971
   55  H  2  Z    0.000010   0.000012  -0.000235   0.000414  -0.000048
   56  H  2  X    0.000168  -0.000121   0.000000   0.000031   0.006062
   57  H  2  Y    0.000665   0.000209   0.000031  -0.000036  -0.010500
   58  H  2  Z    0.000021   0.000025  -0.000597   0.001053  -0.000081
   59  H  2 XX    0.000282  -0.000004   0.000004   0.000006   0.000026
   60  H  2 YY   -0.000782  -0.000448  -0.000011   0.000006   0.001480
   61  H  2 ZZ    0.000501   0.000452   0.000007  -0.000012  -0.001505
   62  H  2 XY    0.000733   0.000444  -0.000000  -0.000009  -0.001454
   63  H  2 XZ    0.000006   0.000010  -0.000039   0.000264  -0.000011
   64  H  2 YZ   -0.000017  -0.000017   0.000261  -0.000348   0.000019
   65  H  3  S    0.004716  -0.002786  -0.000027  -0.000046   0.072744
   66  H  3  S    0.003230  -0.001359  -0.000073  -0.000124   0.103701
   67  H  3  S    0.001372  -0.000350  -0.000021  -0.000035   0.008754
   68  H  3  X    0.000470  -0.000470   0.000001  -0.000012   0.003447
   69  H  3  Y    0.001349  -0.000813  -0.000012  -0.000012   0.005971
   70  H  3  Z   -0.000009   0.000012  -0.000241  -0.000410  -0.000048
   71  H  3  X   -0.000311  -0.000121  -0.000000  -0.000031   0.006062
   72  H  3  Y    0.000701  -0.000209  -0.000031  -0.000035   0.010500
   73  H  3  Z   -0.000019   0.000025  -0.000614  -0.001043  -0.000081
   74  H  3 XX   -0.000305  -0.000004   0.000004  -0.000006   0.000026
   75  H  3 YY    0.000765  -0.000448  -0.000011  -0.000006   0.001480
   76  H  3 ZZ   -0.000460   0.000452   0.000007   0.000012  -0.001505
   77  H  3 XY    0.000641  -0.000444  -0.000000  -0.000009   0.001454
   78  H  3 XZ   -0.000004   0.000010  -0.000044  -0.000263  -0.000011
   79  H  3 YZ   -0.000016   0.000017  -0.000266  -0.000344  -0.000019
   80  H  4  S    0.000425  -0.002786   0.000053  -0.000000   0.072744
   81  H  4  S    0.000291  -0.001359   0.000144  -0.000001   0.103701
   82  H  4  S    0.000124  -0.000350   0.000041  -0.000000   0.008754
   83  H  4  X   -0.000127   0.000939  -0.000019   0.000000  -0.006894
   84  H  4  Y    0.000473  -0.000000   0.000000   0.000008  -0.000000
   85  H  4  Z   -0.000001   0.000012   0.000476  -0.000004  -0.000048
   86  H  4  X   -0.000041   0.000241  -0.000053   0.000000  -0.012125
   87  H  4  Y    0.001098  -0.000000   0.000000   0.000018  -0.000000
   88  H  4  Z   -0.000002   0.000025   0.001210  -0.000010  -0.000081
   89  H  4 XX    0.000088  -0.000670   0.000014  -0.000000   0.002207
   90  H  4 YY   -0.000047   0.000217  -0.000001   0.000000  -0.000701
   91  H  4 ZZ   -0.000041   0.000452  -0.000013   0.000000  -0.001505
   92  H  4 XY   -0.000380  -0.000000  -0.000000  -0.000009  -0.000000
   93  H  4 XZ    0.000001  -0.000019  -0.000498   0.000004   0.000022
   94  H  4 YZ   -0.000008  -0.000000   0.000001   0.000111  -0.000000

                     16         17         18         19         20
                    1.7191     1.7191     1.2367     0.2923     0.0295
                     A          A          A          A          A   
    1  AS 1  S   -0.000000   0.000000  -0.000018   0.001429  -0.000000
    2  AS 1  S   -0.000000   0.000000  -0.000135   0.010683  -0.000000
    3  AS 1  S   -0.000000   0.000000  -0.000826   0.067535  -0.000000
    4  AS 1  S   -0.000000   0.000000  -0.006307   0.493010  -0.000000
    5  AS 1  S    0.000000  -0.000000  -0.003516   0.282128   0.000000
    6  AS 1  S   -0.000000   0.000000  -0.005496   0.620129  -0.000000
    7  AS 1  X   -0.003961   0.000444   0.000000  -0.000000   0.003253
    8  AS 1  Y   -0.000444  -0.003961  -0.000000  -0.000000   0.013256
    9  AS 1  Z    0.000000   0.000000  -0.000279   0.000068  -0.000000
   10  AS 1  X   -0.052853   0.005918   0.000000   0.000000   0.044436
   11  AS 1  Y   -0.005918  -0.052853  -0.000000  -0.000000   0.181077
   12  AS 1  Z   -0.000000   0.000000  -0.001555   0.000947  -0.000000
   13  AS 1  X    0.359809  -0.040288   0.000000   0.000000   0.231758
   14  AS 1  Y    0.040288   0.359809  -0.000000   0.000000   0.944418
   15  AS 1  Z    0.000000   0.000000   0.609897   0.009709  -0.000000
   16  AS 1  X    0.169575  -0.018987   0.000000  -0.000000   0.065588
   17  AS 1  Y    0.018987   0.169575  -0.000000  -0.000000   0.267272
   18  AS 1  Z   -0.000000   0.000000   0.231736   0.003099  -0.000000
   19  AS 1  X    0.065101  -0.007289   0.000000   0.000000   0.048865
   20  AS 1  Y    0.007289   0.065101  -0.000000  -0.000000   0.199128
   21  AS 1  Z    0.000000   0.000000   0.294049   0.007028  -0.000000
   22  AS 1 XX   -0.053975   0.006044  -0.000234   0.057044   0.024906
   23  AS 1 YY    0.053975  -0.006044  -0.000234   0.057044  -0.024906
   24  AS 1 ZZ    0.000000   0.000000   0.000469  -0.114087   0.000000
   25  AS 1 XY    0.006978   0.062324  -0.000000  -0.000000  -0.117195
   26  AS 1 XZ   -0.001011   0.000113  -0.000000  -0.000000   0.000962
   27  AS 1 YZ   -0.000113  -0.001011  -0.000000  -0.000000   0.003922
   28  AS 1 XX    0.027397  -0.003068  -0.000068  -0.045522  -0.013992
   29  AS 1 YY   -0.027397   0.003068  -0.000068  -0.045522   0.013992
   30  AS 1 ZZ    0.000000   0.000000   0.000137   0.091045  -0.000000
   31  AS 1 XY   -0.003542  -0.031635   0.000000  -0.000000   0.065839
   32  AS 1 XZ    0.000406  -0.000045   0.000000  -0.000000  -0.001056
   33  AS 1 YZ    0.000045   0.000406  -0.000000  -0.000000  -0.004302
   34  AS 1 XX    0.020580  -0.002304  -0.000408  -0.086567   0.009723
   35  AS 1 YY   -0.020580   0.002304  -0.000408  -0.086567  -0.009723
   36  AS 1 ZZ   -0.000000   0.000000   0.000816   0.173134   0.000000
   37  AS 1 XY   -0.002661  -0.023764   0.000000   0.000000  -0.045749
   38  AS 1 XZ    0.000310  -0.000035  -0.000000  -0.000000  -0.001048
   39  AS 1 YZ    0.000035   0.000310  -0.000000  -0.000000  -0.004272
   40  AS 1 XXX   0.007669  -0.000859   0.000368  -0.043228  -0.001441
   41  AS 1 YYY   0.000859   0.007669  -0.000000  -0.000000  -0.005871
   42  AS 1 ZZZ   0.000000   0.000000  -0.014738   0.001022   0.000000
   43  AS 1 XXY   0.000384   0.003430  -0.000000  -0.000000  -0.002625
   44  AS 1 XXZ   0.000203  -0.000023   0.009887  -0.000685  -0.000144
   45  AS 1 YYX   0.003430  -0.000384  -0.000494   0.057997  -0.000644
   46  AS 1 YYZ  -0.000203   0.000023   0.009887  -0.000685   0.000144
   47  AS 1 ZZX  -0.013719   0.001536  -0.000000   0.000000   0.002577
   48  AS 1 ZZY  -0.001536  -0.013719   0.000000   0.000000   0.010502
   49  AS 1 XYZ  -0.000026  -0.000234  -0.000000  -0.000000   0.000679
   50  H  2  S   -0.065018   0.148742   0.001935  -0.140770  -0.191905
   51  H  2  S   -0.114090   0.261002   0.004119  -0.328315  -0.549428
   52  H  2  S   -0.032656   0.074707   0.002071  -0.298843  -0.051756
   53  H  2  X   -0.000722   0.005883   0.000039   0.000602   0.000556
   54  H  2  Y    0.004837  -0.008622  -0.000067  -0.001042   0.008779
   55  H  2  Z    0.000032  -0.000073   0.004510   0.000064  -0.000180
   56  H  2  X   -0.000867   0.014326   0.000081  -0.000351  -0.024841
   57  H  2  Y    0.011963  -0.020242  -0.000140   0.000608   0.094454
   58  H  2  Z    0.000063  -0.000144   0.023404  -0.000113  -0.000711
   59  H  2 XX    0.001464   0.000063   0.000018  -0.000452   0.003511
   60  H  2 YY   -0.002335   0.001931   0.000043  -0.000048  -0.008974
   61  H  2 ZZ    0.000872  -0.001994  -0.000061   0.000500   0.005463
   62  H  2 XY    0.000461  -0.003328  -0.000025  -0.000404   0.004140
   63  H  2 XZ    0.000010  -0.000024   0.001334  -0.000003  -0.000158
   64  H  2 YZ   -0.000018   0.000042  -0.002311   0.000006   0.000073
   65  H  3  S   -0.096305  -0.130679   0.001935  -0.140770   0.255260
   66  H  3  S   -0.168990  -0.229305   0.004119  -0.328315   0.730812
   67  H  3  S   -0.048370  -0.065634   0.002071  -0.298843   0.068842
   68  H  3  X   -0.002005  -0.005578   0.000039   0.000602   0.003169
   69  H  3  Y   -0.006624  -0.007339   0.000067   0.001042   0.009420
   70  H  3  Z    0.000047   0.000064   0.004510   0.000064   0.000239
   71  H  3  X   -0.004014  -0.013780   0.000081  -0.000351   0.053678
   72  H  3  Y   -0.016143  -0.017095   0.000140  -0.000608   0.113722
   73  H  3  Z    0.000093   0.000127   0.023404  -0.000113   0.000946
   74  H  3 XX    0.001413  -0.000385   0.000018  -0.000452  -0.001770
   75  H  3 YY   -0.002705  -0.001367   0.000043  -0.000048   0.009037
   76  H  3 ZZ    0.001291   0.001752  -0.000061   0.000500  -0.007267
   77  H  3 XY   -0.001185  -0.003143   0.000025   0.000404   0.007440
   78  H  3 XZ    0.000015   0.000021   0.001334  -0.000003   0.000129
   79  H  3 YZ    0.000027   0.000037   0.002311  -0.000006   0.000143
   80  H  4  S    0.161324  -0.018063   0.001935  -0.140770  -0.063354
   81  H  4  S    0.283079  -0.031696   0.004119  -0.328315  -0.181385
   82  H  4  S    0.081026  -0.009073   0.002071  -0.298843  -0.017086
   83  H  4  X   -0.011289   0.001264  -0.000078  -0.001204   0.002418
   84  H  4  Y    0.000218   0.001945   0.000000  -0.000000   0.006836
   85  H  4  Z   -0.000079   0.000009   0.004510   0.000064  -0.000059
   86  H  4  X   -0.026782   0.002999  -0.000161   0.000702   0.031105
   87  H  4  Y    0.000635   0.005673  -0.000000  -0.000000   0.036088
   88  H  4  Z   -0.000156   0.000018   0.023404  -0.000113  -0.000235
   89  H  4 XX    0.004295  -0.000481   0.000056   0.000154  -0.002957
   90  H  4 YY   -0.002132   0.000239   0.000005  -0.000654   0.001154
   91  H  4 ZZ   -0.002163   0.000242  -0.000061   0.000500   0.001804
   92  H  4 XY   -0.000203  -0.001810  -0.000000  -0.000000  -0.005856
   93  H  4 XZ    0.000052  -0.000006  -0.002669   0.000007   0.000047
   94  H  4 YZ   -0.000000  -0.000000  -0.000000  -0.000000  -0.000141

                     21
                    0.0295
                     A   
    1  AS 1  S   -0.000000
    2  AS 1  S   -0.000000
    3  AS 1  S   -0.000000
    4  AS 1  S   -0.000000
    5  AS 1  S    0.000000
    6  AS 1  S   -0.000000
    7  AS 1  X    0.013256
    8  AS 1  Y   -0.003253
    9  AS 1  Z    0.000000
   10  AS 1  X    0.181077
   11  AS 1  Y   -0.044436
   12  AS 1  Z    0.000000
   13  AS 1  X    0.944418
   14  AS 1  Y   -0.231758
   15  AS 1  Z   -0.000000
   16  AS 1  X    0.267272
   17  AS 1  Y   -0.065588
   18  AS 1  Z   -0.000000
   19  AS 1  X    0.199128
   20  AS 1  Y   -0.048865
   21  AS 1  Z   -0.000000
   22  AS 1 XX    0.101494
   23  AS 1 YY   -0.101494
   24  AS 1 ZZ    0.000000
   25  AS 1 XY    0.028759
   26  AS 1 XZ    0.003922
   27  AS 1 YZ   -0.000962
   28  AS 1 XX   -0.057018
   29  AS 1 YY    0.057018
   30  AS 1 ZZ    0.000000
   31  AS 1 XY   -0.016157
   32  AS 1 XZ   -0.004302
   33  AS 1 YZ    0.001056
   34  AS 1 XX    0.039619
   35  AS 1 YY   -0.039619
   36  AS 1 ZZ    0.000000
   37  AS 1 XY    0.011227
   38  AS 1 XZ   -0.004272
   39  AS 1 YZ    0.001048
   40  AS 1 XXX  -0.005871
   41  AS 1 YYY   0.001441
   42  AS 1 ZZZ   0.000000
   43  AS 1 XXY   0.000644
   44  AS 1 XXZ  -0.000588
   45  AS 1 YYX  -0.002625
   46  AS 1 YYZ   0.000588
   47  AS 1 ZZX   0.010502
   48  AS 1 ZZY  -0.002577
   49  AS 1 XYZ  -0.000167
   50  H  2  S    0.183952
   51  H  2  S    0.526657
   52  H  2  S    0.049611
   53  H  2  X    0.007911
   54  H  2  Y   -0.003540
   55  H  2  Z    0.000172
   56  H  2  X    0.068389
   57  H  2  Y   -0.064802
   58  H  2  Z    0.000681
   59  H  2 XX    0.002899
   60  H  2 YY    0.002338
   61  H  2 ZZ   -0.005237
   62  H  2 XY   -0.008144
   63  H  2 XZ   -0.000023
   64  H  2 YZ   -0.000170
   65  H  3  S    0.074219
   66  H  3  S    0.212490
   67  H  3  S    0.020017
   68  H  3  X    0.007270
   69  H  3  Y   -0.000926
   70  H  3  Z    0.000069
   71  H  3  X    0.049121
   72  H  3  Y    0.013717
   73  H  3  Z    0.000275
   74  H  3 XX    0.004195
   75  H  3 YY   -0.002082
   76  H  3 ZZ   -0.002113
   77  H  3 XY    0.005303
   78  H  3 XZ   -0.000093
   79  H  3 YZ    0.000117
   80  H  4  S   -0.258171
   81  H  4  S   -0.739147
   82  H  4  S   -0.069627
   83  H  4  X    0.009854
   84  H  4  Y   -0.001678
   85  H  4  Z   -0.000242
   86  H  4  X    0.126754
   87  H  4  Y   -0.008856
   88  H  4  Z   -0.000956
   89  H  4 XX   -0.012051
   90  H  4 YY    0.004701
   91  H  4 ZZ    0.007350
   92  H  4 XY    0.001437
   93  H  4 XZ    0.000190
   94  H  4 YZ    0.000035

          ------------------------
          MCSCF OPTIMIZED ORBITALS
          ------------------------

                      1          2          3          4          5
                 -439.2723   -58.0908   -50.8008   -50.8006   -50.8006
                     A          A          A          A          A   
    1  AS 1  S    1.000007   0.000041   0.000000   0.000000   0.000000
    2  AS 1  S   -0.000007   0.999990  -0.000024   0.000000  -0.000000
    3  AS 1  S    0.000185  -0.000316   0.000005   0.000000   0.000000
    4  AS 1  S    0.000180  -0.000285   0.000004   0.000000   0.000000
    5  AS 1  S   -0.000081  -0.000190  -0.000003   0.000000   0.000000
    6  AS 1  S   -0.000023  -0.000071  -0.000002   0.000000  -0.000000
    7  AS 1  X   -0.000000   0.000000  -0.000000  -0.120942   0.992683
    8  AS 1  Y   -0.000000  -0.000000   0.000000   0.992683   0.120942
    9  AS 1  Z    0.000000   0.000026   1.000024  -0.000000   0.000000
   10  AS 1  X   -0.000000   0.000000   0.000000   0.000001  -0.000005
   11  AS 1  Y   -0.000000  -0.000000   0.000000  -0.000005  -0.000001
   12  AS 1  Z    0.000000   0.000001  -0.000004   0.000000   0.000000
   13  AS 1  X    0.000000   0.000000   0.000000   0.000010  -0.000084
   14  AS 1  Y   -0.000000   0.000000   0.000000  -0.000084  -0.000010
   15  AS 1  Z    0.000001  -0.000001  -0.000005   0.000000   0.000000
   16  AS 1  X    0.000000   0.000000  -0.000000   0.000057  -0.000466
   17  AS 1  Y   -0.000000   0.000000   0.000000  -0.000466  -0.000057
   18  AS 1  Z   -0.000000  -0.000001  -0.000418   0.000000  -0.000000
   19  AS 1  X   -0.000000  -0.000000   0.000000   0.000010  -0.000084
   20  AS 1  Y   -0.000000   0.000000   0.000000  -0.000084  -0.000010
   21  AS 1  Z   -0.000000  -0.000000  -0.000065   0.000000  -0.000000
   22  AS 1 XX   -0.000001   0.000002  -0.000001  -0.000000   0.000001
   23  AS 1 YY   -0.000001   0.000002  -0.000001   0.000000  -0.000001
   24  AS 1 ZZ    0.000002  -0.000004   0.000002   0.000000   0.000000
   25  AS 1 XY   -0.000000  -0.000000   0.000000  -0.000002  -0.000000
   26  AS 1 XZ   -0.000000  -0.000000   0.000000  -0.000000   0.000002
   27  AS 1 YZ   -0.000000  -0.000000   0.000000   0.000002   0.000000
   28  AS 1 XX    0.000009  -0.000021   0.000001   0.000006  -0.000052
   29  AS 1 YY    0.000009  -0.000021   0.000001  -0.000006   0.000052
   30  AS 1 ZZ   -0.000017   0.000043  -0.000001   0.000000  -0.000000
   31  AS 1 XY    0.000000  -0.000000   0.000000   0.000060   0.000007
   32  AS 1 XZ    0.000000   0.000000  -0.000000   0.000000  -0.000002
   33  AS 1 YZ   -0.000000  -0.000000   0.000000  -0.000002  -0.000000
   34  AS 1 XX    0.000010  -0.000024  -0.000000   0.000002  -0.000015
   35  AS 1 YY    0.000010  -0.000024  -0.000000  -0.000002   0.000015
   36  AS 1 ZZ   -0.000020   0.000049   0.000000  -0.000000   0.000000
   37  AS 1 XY    0.000000  -0.000000  -0.000000   0.000017   0.000002
   38  AS 1 XZ   -0.000000  -0.000000   0.000000  -0.000000   0.000000
   39  AS 1 YZ   -0.000000  -0.000000   0.000000   0.000000   0.000000
   40  AS 1 XXX   0.000020  -0.000050   0.000000   0.000001  -0.000012
   41  AS 1 YYY  -0.000000  -0.000000   0.000000  -0.000012  -0.000001
   42  AS 1 ZZZ  -0.000000   0.000001  -0.000000   0.000000  -0.000000
   43  AS 1 XXY  -0.000000  -0.000000   0.000000  -0.000005  -0.000001
   44  AS 1 XXZ   0.000000  -0.000000   0.000000   0.000000  -0.000000
   45  AS 1 YYX  -0.000027   0.000068  -0.000000   0.000001  -0.000005
   46  AS 1 YYZ   0.000000  -0.000000   0.000000  -0.000000   0.000000
   47  AS 1 ZZX   0.000000   0.000000   0.000000  -0.000003   0.000022
   48  AS 1 ZZY   0.000000  -0.000000   0.000000   0.000022   0.000003
   49  AS 1 XYZ  -0.000000  -0.000000   0.000000   0.000001   0.000000
   50  H  2  S    0.000003  -0.000002  -0.000000  -0.000012   0.000005
   51  H  2  S   -0.000046   0.000114  -0.000001   0.000060  -0.000026
   52  H  2  S    0.000001   0.000023   0.000000   0.000041  -0.000017
   53  H  2  X   -0.000000   0.000002   0.000000   0.000007  -0.000004
   54  H  2  Y    0.000001  -0.000004  -0.000000  -0.000013   0.000005
   55  H  2  Z   -0.000000  -0.000000   0.000001  -0.000000   0.000000
   56  H  2  X   -0.000013   0.000034  -0.000000   0.000030  -0.000014
   57  H  2  Y    0.000023  -0.000059   0.000000  -0.000054   0.000022
   58  H  2  Z    0.000000  -0.000001  -0.000004  -0.000000   0.000000
   59  H  2 XX    0.000001  -0.000003   0.000000  -0.000003   0.000004
   60  H  2 YY   -0.000003   0.000011   0.000000   0.000022  -0.000012
   61  H  2 ZZ    0.000002  -0.000008  -0.000000  -0.000019   0.000008
   62  H  2 XY    0.000004  -0.000014  -0.000000  -0.000027   0.000010
   63  H  2 XZ    0.000000  -0.000000   0.000003  -0.000000   0.000000
   64  H  2 YZ   -0.000000   0.000000  -0.000005   0.000000  -0.000000
   65  H  3  S    0.000003  -0.000002  -0.000000   0.000011   0.000008
   66  H  3  S   -0.000046   0.000114  -0.000001  -0.000052  -0.000039
   67  H  3  S    0.000001   0.000023   0.000000  -0.000035  -0.000026
   68  H  3  X   -0.000000   0.000002   0.000000  -0.000006  -0.000005
   69  H  3  Y   -0.000001   0.000004   0.000000  -0.000011  -0.000008
   70  H  3  Z   -0.000000  -0.000000   0.000001   0.000000   0.000000
   71  H  3  X   -0.000013   0.000034  -0.000000  -0.000026  -0.000021
   72  H  3  Y   -0.000023   0.000059  -0.000000  -0.000047  -0.000034
   73  H  3  Z    0.000000  -0.000001  -0.000004   0.000000   0.000000
   74  H  3 XX    0.000001  -0.000003   0.000000   0.000002   0.000005
   75  H  3 YY   -0.000003   0.000011   0.000000  -0.000018  -0.000017
   76  H  3 ZZ    0.000002  -0.000008  -0.000000   0.000016   0.000012
   77  H  3 XY   -0.000004   0.000014   0.000000  -0.000024  -0.000016
   78  H  3 XZ    0.000000  -0.000000   0.000003   0.000000   0.000000
   79  H  3 YZ    0.000000  -0.000000   0.000005   0.000000   0.000000
   80  H  4  S    0.000003  -0.000002  -0.000000   0.000002  -0.000013
   81  H  4  S   -0.000046   0.000114  -0.000001  -0.000008   0.000065
   82  H  4  S    0.000001   0.000023   0.000000  -0.000005   0.000044
   83  H  4  X    0.000001  -0.000005  -0.000000   0.000002  -0.000016
   84  H  4  Y   -0.000000  -0.000000   0.000000  -0.000001  -0.000000
   85  H  4  Z   -0.000000  -0.000000   0.000001   0.000000  -0.000000
   86  H  4  X    0.000027  -0.000068   0.000000   0.000008  -0.000067
   87  H  4  Y   -0.000000   0.000000   0.000000  -0.000002  -0.000000
   88  H  4  Z    0.000000  -0.000001  -0.000004   0.000000  -0.000000
   89  H  4 XX   -0.000005   0.000018   0.000000  -0.000005   0.000039
   90  H  4 YY    0.000003  -0.000010  -0.000000   0.000002  -0.000019
   91  H  4 ZZ    0.000002  -0.000008  -0.000000   0.000002  -0.000020
   92  H  4 XY   -0.000000  -0.000000   0.000000  -0.000004  -0.000000
   93  H  4 XZ   -0.000000   0.000000  -0.000006  -0.000000   0.000000
   94  H  4 YZ   -0.000000  -0.000000  -0.000000  -0.000000  -0.000000

                      6          7          8          9         10
                   -8.5921    -6.2545    -6.2545    -6.2511    -2.3907
                     A          A          A          A          A   
    1  AS 1  S   -0.000068  -0.000000   0.000000  -0.000006  -0.000000
    2  AS 1  S   -0.000319  -0.000000   0.000000  -0.000039   0.000000
    3  AS 1  S    0.980078  -0.000000   0.000000  -0.000307   0.000000
    4  AS 1  S   -0.000986   0.000000   0.000000  -0.000133  -0.000000
    5  AS 1  S    0.029990   0.000000  -0.000000   0.000091  -0.000000
    6  AS 1  S    0.003077   0.000000  -0.000000   0.000037  -0.000000
    7  AS 1  X   -0.000000  -0.000097   0.000009   0.000000   0.000160
    8  AS 1  Y   -0.000000  -0.000009  -0.000097   0.000000   0.000012
    9  AS 1  Z   -0.000003  -0.000000   0.000000   0.000038  -0.000000
   10  AS 1  X   -0.000000   0.971057  -0.093808   0.000000   0.000412
   11  AS 1  Y   -0.000000   0.093808   0.971057   0.000000   0.000031
   12  AS 1  Z    0.000155  -0.000000  -0.000000   0.976861  -0.000000
   13  AS 1  X   -0.000000  -0.000998   0.000096   0.000000   0.003351
   14  AS 1  Y   -0.000000  -0.000096  -0.000998   0.000000   0.000250
   15  AS 1  Z   -0.000017  -0.000000   0.000000   0.000470  -0.000000
   16  AS 1  X   -0.000000   0.045679  -0.004413   0.000000  -0.001801
   17  AS 1  Y    0.000000   0.004413   0.045679   0.000000  -0.000135
   18  AS 1  Z    0.000029  -0.000000  -0.000000   0.044775   0.000000
   19  AS 1  X    0.000000   0.001929  -0.000186   0.000000  -0.002395
   20  AS 1  Y    0.000000   0.000186   0.001929   0.000000  -0.000179
   21  AS 1  Z    0.000009  -0.000000   0.000000   0.001552   0.000000
   22  AS 1 XX    0.000307   0.000609  -0.000059  -0.000048   0.833899
   23  AS 1 YY    0.000307  -0.000609   0.000059  -0.000048  -0.833899
   24  AS 1 ZZ   -0.000614   0.000000   0.000000   0.000096  -0.000000
   25  AS 1 XY   -0.000000  -0.000068  -0.000704   0.000000  -0.071952
   26  AS 1 XZ    0.000000   0.000094  -0.000009   0.000000   0.006852
   27  AS 1 YZ   -0.000000   0.000009   0.000094   0.000000   0.000512
   28  AS 1 XX    0.000052  -0.000360   0.000035  -0.000008   0.074492
   29  AS 1 YY    0.000052   0.000360  -0.000035  -0.000008  -0.074492
   30  AS 1 ZZ   -0.000105  -0.000000   0.000000   0.000016  -0.000000
   31  AS 1 XY    0.000000   0.000040   0.000416  -0.000000  -0.006427
   32  AS 1 XZ   -0.000000   0.000005  -0.000001  -0.000000   0.000606
   33  AS 1 YZ   -0.000000   0.000001   0.000005   0.000000   0.000045
   34  AS 1 XX   -0.000001  -0.000210   0.000020   0.000000   0.000541
   35  AS 1 YY   -0.000001   0.000210  -0.000020   0.000000  -0.000541
   36  AS 1 ZZ    0.000002  -0.000000   0.000000  -0.000000  -0.000000
   37  AS 1 XY   -0.000000   0.000023   0.000242  -0.000000  -0.000047
   38  AS 1 XZ    0.000000  -0.000012   0.000001   0.000000   0.000021
   39  AS 1 YZ   -0.000000  -0.000001  -0.000012   0.000000   0.000002
   40  AS 1 XXX   0.000071   0.000047  -0.000005  -0.000006   0.000323
   41  AS 1 YYY  -0.000000   0.000005   0.000047   0.000000   0.000024
   42  AS 1 ZZZ  -0.000001  -0.000000   0.000000  -0.000215  -0.000000
   43  AS 1 XXY  -0.000000   0.000002   0.000021   0.000000   0.000011
   44  AS 1 XXZ   0.000001  -0.000003   0.000000   0.000144   0.000053
   45  AS 1 YYX  -0.000095   0.000021  -0.000002   0.000008   0.000145
   46  AS 1 YYZ   0.000001   0.000003  -0.000000   0.000144  -0.000053
   47  AS 1 ZZX  -0.000000  -0.000084   0.000008   0.000000  -0.000578
   48  AS 1 ZZY  -0.000000  -0.000008  -0.000084  -0.000000  -0.000043
   49  AS 1 XYZ  -0.000000   0.000000   0.000003   0.000000  -0.000005
   50  H  2  S    0.000026  -0.000175   0.000384   0.000001  -0.002477
   51  H  2  S    0.000225  -0.000824   0.001809   0.000023  -0.001696
   52  H  2  S   -0.000496   0.000263  -0.000579  -0.000009  -0.000721
   53  H  2  X    0.000004   0.000009   0.000031   0.000000  -0.000739
   54  H  2  Y   -0.000007   0.000029  -0.000034  -0.000000   0.000425
   55  H  2  Z    0.000000   0.000000  -0.000001   0.000012   0.000005
   56  H  2  X   -0.000009  -0.000028   0.000282   0.000005  -0.000978
   57  H  2  Y    0.000015   0.000240  -0.000401  -0.000009  -0.000291
   58  H  2  Z    0.000000   0.000001  -0.000002   0.000117   0.000010
   59  H  2 XX   -0.000005  -0.000001  -0.000052  -0.000001  -0.000181
   60  H  2 YY    0.000032  -0.000042   0.000147   0.000001  -0.000060
   61  H  2 ZZ   -0.000027   0.000043  -0.000095  -0.000001   0.000241
   62  H  2 XY   -0.000037   0.000096  -0.000174  -0.000002   0.000565
   63  H  2 XZ   -0.000000   0.000001  -0.000001  -0.000014   0.000011
   64  H  2 YZ    0.000000  -0.000001   0.000002   0.000025  -0.000004
   65  H  3  S    0.000026  -0.000245  -0.000343   0.000001  -0.003214
   66  H  3  S    0.000225  -0.001155  -0.001618   0.000023  -0.002201
   67  H  3  S   -0.000496   0.000369   0.000517  -0.000009  -0.000935
   68  H  3  X    0.000004   0.000002  -0.000032   0.000000  -0.000818
   69  H  3  Y    0.000007  -0.000035  -0.000028   0.000000  -0.000632
   70  H  3  Z    0.000000   0.000001   0.000001   0.000012   0.000006
   71  H  3  X   -0.000009  -0.000081  -0.000271   0.000005  -0.000942
   72  H  3  Y   -0.000015  -0.000313  -0.000347   0.000009   0.000189
   73  H  3  Z    0.000000   0.000001   0.000002   0.000117   0.000013
   74  H  3 XX   -0.000005   0.000009   0.000052  -0.000001  -0.000138
   75  H  3 YY    0.000032  -0.000069  -0.000136   0.000001  -0.000176
   76  H  3 ZZ   -0.000027   0.000061   0.000085  -0.000001   0.000313
   77  H  3 XY    0.000037  -0.000128  -0.000153   0.000002  -0.000667
   78  H  3 XZ   -0.000000   0.000001   0.000001  -0.000014   0.000012
   79  H  3 YZ   -0.000000   0.000001   0.000002  -0.000025   0.000006
   80  H  4  S    0.000026   0.000419  -0.000041   0.000001   0.005691
   81  H  4  S    0.000225   0.001979  -0.000191   0.000023   0.003897
   82  H  4  S   -0.000496  -0.000633   0.000061  -0.000009   0.001656
   83  H  4  X   -0.000008  -0.000050   0.000005  -0.000000  -0.001694
   84  H  4  Y   -0.000000   0.000002   0.000024   0.000000  -0.000035
[...]
        6   -0.115963    0.115963  22200+0
      177    0.115066   -0.115066  2+20200
       74    0.103826   -0.103826  2022+00
       38   -0.103816    0.103816  2202+00
       78    0.092311   -0.092311  20220+0
       36    0.087268    0.087268  22+2000
      248    0.072876   -0.072876  2+02200
      109   -0.054943    0.054943  +-22+00
      822    0.052196   -0.052196  2+02002
      113   -0.049438    0.049438  +-220+0
      122    0.049438    0.049438  +2-200+
       42    0.042845   -0.042845  22020+0
      810   -0.039612   -0.039612  -++2+0-
       75    0.039142    0.039142  -+22+00
       53    0.035808    0.035808  2-+200+
      332   -0.032309    0.032309  ++-2-0+
      841   -0.028686    0.028686  +2+200-
      526    0.028684    0.028684  ++220-0
      878    0.028471    0.028471  ++-2+0-
      458   -0.028061    0.028061  2+02+-0
      809    0.028060   -0.028060  20+2+0-
      323    0.025725   -0.025725  +022-+0
      320    0.025280    0.025280  0+22200
      264    0.025035   -0.025035  -++2-0+
      534    0.025031    0.025031  0+22020
      894    0.024914    0.024914  0+22002
      252    0.024562    0.024562  2+02-+0
      263   -0.024562   -0.024562  20+2-0+
      462    0.022437   -0.022437  2+02020
      806   -0.022158   -0.022158  2++200-
      529   -0.021318   -0.021318  +022+-0
       79    0.020754    0.020754  -+220+0
       54   -0.020752    0.020752  -2+200+

 ---------------------------------------
      - DIABATIC STATES IN CMO -        
 ---------------------------------------

 State #    1  Energy =   -2260.772943479

      Det      Coef        Coefp    Occupancy (Ignoring core)
      ---      ----        ----    --------- --------- -----
        1   -0.976389    0.976389  222+000
      107    0.071040   -0.071040  +22-+00
      143    0.063614    0.063614  220+200
      179    0.063614    0.063614  202+200
      393    0.059152    0.059152  202+020
      717    0.059152    0.059152  220+002
      211   -0.038004   -0.038004  +22+-00
       76    0.033167    0.033167  2+2-0+0
       51    0.033167   -0.033167  22+-00+
        5   -0.033036   -0.033036  -22++00
      389    0.032816    0.032816  202++-0
      704   -0.032816    0.032816  2-+++0-
      353   -0.032816   -0.032816  220++-0
      738    0.032816    0.032816  2+-++0-
      218    0.032801   -0.032801  +-2+-+0
      227    0.032801    0.032801  +2-+-0+
      158    0.030907    0.030907  2-++-0+
      147    0.030907   -0.030907  220+-+0
      183   -0.030907    0.030907  202+-+0
      192   -0.030907    0.030907  2+-+-0+
      215    0.028925    0.028925  022+200
      705    0.028557    0.028557  -2+++0-
      390    0.028557   -0.028557  -+2++-0
      368   -0.026345   -0.026345  2-++0-+
      742   -0.026345   -0.026345  2+-+0+-
        8   -0.025327    0.025327  2-2+0+0
       17   -0.025327   -0.025327  22-+00+
      773   -0.025292    0.025292  +2-++0-
      424   -0.025292   -0.025292  +-2++-0
      184   -0.023906   -0.023906  -+2+-+0
      159   -0.023906    0.023906  -2++-0+
      357    0.021928    0.021928  220+020
      753    0.021928    0.021928  202+002
      789    0.021319    0.021319  022+002
      429    0.021319    0.021319  022+020

 State #    2  Energy =   -2260.585456573

      Det      Coef        Coefp    Occupancy (Ignoring core)
      ---      ----        ----    --------- --------- -----
        2   -0.953645    0.953645  2220+00
      106   -0.157987   -0.157987  +222000
      156   -0.083093    0.083093  22+0-0+
      181   -0.083089   -0.083089  2+20-+0
      702    0.079354    0.079354  22+0+0-
      387    0.079351   -0.079351  2+20+-0
      212    0.063662    0.063662  +220200
      396    0.061745    0.061745  2020+20
      720    0.061744    0.061744  2200+02
      110    0.056926   -0.056926  0222+00
      751   -0.049672    0.049672  2+20002
      706   -0.049672   -0.049672  22+00+-
      366    0.049671   -0.049671  22+00-+
      391    0.049669   -0.049669  2+20020
       38    0.030349   -0.030349  2202+00
       74    0.030317   -0.030317  2022+00
      186   -0.028405    0.028405  20202+0
      161    0.028405    0.028405  2-+020+
      150    0.028404   -0.028404  22002+0
      195   -0.028404    0.028404  2+-020+
      371   -0.026176   -0.026176  2-+0+-+
      745   -0.026175   -0.026175  2+-0++-
      756    0.025779    0.025779  2020+02
      360    0.025779    0.025779  2200+20
      230    0.021980    0.021980  +2-020+
      221    0.021979   -0.021979  +-202+0
      162   -0.020746    0.020746  -2+020+
      187   -0.020745   -0.020745  -+202+0

 State #    3  Energy =   -2260.544288371

      Det      Coef        Coefp    Occupancy (Ignoring core)
      ---      ----        ----    --------- --------- -----
       36   -0.940724   -0.940724  22+2000
       71   -0.134345    0.134345  2+22000
       16   -0.116689    0.116689  222000+
      142    0.114565    0.114565  22+0200
       73    0.105218   -0.105218  2+-2+00
       39   -0.105218   -0.105218  2-+2+00
       52    0.092276   -0.092276  220200+
      249    0.072450   -0.072450  20+2200
      108   -0.054635   -0.054635  +2-2+00
      463    0.052248   -0.052248  20+2020
      123    0.049406   -0.049406  +-2200+
      112    0.049406    0.049406  +2-20+0
       88    0.043741   -0.043741  202200+
      460    0.039861    0.039861  -++2+-0
       40    0.038946   -0.038946  -2+2+00
       77   -0.035418    0.035418  2+-20+0
      288    0.032109    0.032109  +-+2-+0
      876   -0.028665   -0.028665  ++2200-
      491   -0.028665    0.028665  +2+20-0
      494   -0.028340    0.028340  +-+2+-0
      808    0.028043   -0.028043  2+02+0-
      459    0.028043   -0.028043  20+2+-0
      297    0.025486   -0.025486  +202-0+
      254   -0.025195    0.025195  -++2-+0
      285    0.025138   -0.025138  02+2200
      859    0.024889   -0.024889  02+2002
      499    0.024768   -0.024768  02+2020
      262   -0.024552   -0.024552  2+02-0+
      253   -0.024552   -0.024552  20+2-+0
      456    0.022300    0.022300  2++20-0
      823    0.021969   -0.021969  20+2002
      843   -0.021144   -0.021144  +202+0-
       44   -0.020741    0.020741  -2+20+0
       89   -0.020741   -0.020741  -+2200+

 State #    4  Energy =   -2260.544288371

      Det      Coef        Coefp    Occupancy (Ignoring core)
      ---      ----        ----    --------- --------- -----
       71   -0.940724    0.940724  2+22000
       36    0.134345    0.134345  22+2000
        6   -0.116689    0.116689  22200+0
      177    0.114565   -0.114565  2+20200
       74    0.105222   -0.105222  2022+00
       38   -0.105213    0.105213  2202+00
       78    0.092279   -0.092279  20220+0
      248    0.072450   -0.072450  2+02200
      109   -0.054635    0.054635  +-22+00
      822    0.052249   -0.052249  2+02002
      113   -0.049406    0.049406  +-220+0
      122    0.049406    0.049406  +2-200+
       42    0.043738   -0.043738  22020+0
      810   -0.039861   -0.039861  -++2+0-
       75    0.038946    0.038946  -+22+00
       53    0.035416    0.035416  2-+200+
      332   -0.032110    0.032110  ++-2-0+
      841   -0.028665    0.028665  +2+200-
      526    0.028664    0.028664  ++220-0
      878    0.028340    0.028340  ++-2+0-
      458   -0.028044    0.028044  2+02+-0
      809    0.028043   -0.028043  20+2+0-
      323    0.025485   -0.025485  +022-+0
      264    0.025195   -0.025195  -++2-0+
      320    0.025138    0.025138  0+22200
      534    0.024889    0.024889  0+22020
      894    0.024768    0.024768  0+22002
      252    0.024552    0.024552  2+02-+0
      263   -0.024552   -0.024552  20+2-0+
      806   -0.022300   -0.022300  2++200-
      462    0.021969   -0.021969  2+02020
      529   -0.021144   -0.021144  +022+-0
       79    0.020742    0.020742  -+220+0
       54   -0.020740    0.020740  -2+200+

 ---------------------------------------
    -DIABATIC STATES IN PROTOTYPES-     
 ---------------------------------------

     STATE:    1
 Group Ref#    Coefficients
     1    1    0.998874
     2    2   -0.000018
     3    3   -0.000000
     4    4   -0.000000

WEIGHT OF LISTED PROTOTYPES:   99.78%

     STATE:    2
 Group Ref#    Coefficients
     1    1   -0.000018
     2    2    0.997631
     3    3   -0.000008
     4    4    0.000082

WEIGHT OF LISTED PROTOTYPES:   99.53%

     STATE:    3
 Group Ref#    Coefficients
     1    1   -0.000000
     2    2   -0.000008
     3    3    0.996564
     4    4   -0.000000

WEIGHT OF LISTED PROTOTYPES:   99.31%

     STATE:    4
 Group Ref#    Coefficients
     1    1   -0.000000
     2    2    0.000082
     3    3   -0.000000
     4    4    0.996564

WEIGHT OF LISTED PROTOTYPES:   99.31%

     DIRECT MAX. DIABATIZATION FINISHED    
 CPU     0: STEP CPU TIME=     0.54 TOTAL CPU TIME=        279.2 (      4.7 MIN)
 TOTAL WALL CLOCK TIME=        352.2 SECONDS, CPU UTILIZATION IS    79.27%

DIABATS FOR SPIN-ORBIT CALCULATION ARE READY

TRANSITION DIPOLES BETWEEN ADIABATS (in A.U.):

STATE PAIR      X         Y         Z
    1    1  0.000000  0.000000  0.046283
    2    1 -0.000000  0.000000 -0.432309
    2    2  0.000000  0.000000  0.068788
    3    1 -0.000012  0.003779 -0.000000
    3    2  0.000476 -0.147243  0.000000
    3    3  0.405766 -0.002623  0.022374
    4    1 -0.003779 -0.000012  0.000000
    4    2  0.147243  0.000476  0.000000
    4    3 -0.002623 -0.405766 -0.000000
    4    4 -0.405766  0.002623  0.022374


TRANSITION DIPOLES BETWEEN DIABATS (in A.U.):

STATE PAIR      X         Y         Z
    1    1  0.000000 -0.000000  0.056790
    2    1  0.000002 -0.000000  0.432455
    2    2  0.000045 -0.000006  0.058281
    3    1 -0.000677 -0.005528 -0.000000
    3    2 -0.017901 -0.146153  0.000000
    3    3  0.393749  0.098051  0.022374
    4    1 -0.005524  0.000678  0.000066
    4    2 -0.146033  0.017932  0.000008
    4    3 -0.098053  0.393727  0.000000
    4    4 -0.393794 -0.098045  0.022374

TRANSITION DIPOLES BETWEEN DIRECT MAX. DIABATS (in A.U.):

STATE PAIR      X         Y         Z
    1    1  0.000000 -0.000000  0.056790
    2    1  0.000002 -0.000000  0.432455
    2    2  0.000045 -0.000006  0.058281
    3    1 -0.000677 -0.005528 -0.000000
    3    2 -0.017901 -0.146153  0.000000
    3    3  0.393749  0.098051  0.022374
    4    1 -0.005524  0.000678  0.000066
    4    2 -0.146033  0.017932  0.000008
    4    3 -0.098053  0.393727  0.000000
    4    4 -0.393794 -0.098045  0.022374
 No $TRANST Group Found.
 Quit without doing spin-orbit coupling
 ..... DONE WITH MP2 ENERGY .....
 CPU     0: STEP CPU TIME=     0.01 TOTAL CPU TIME=        279.2 (      4.7 MIN)
 TOTAL WALL CLOCK TIME=        352.2 SECONDS, CPU UTILIZATION IS    79.27%
            250000000  WORDS OF DYNAMIC MEMORY USED
 EXECUTION OF GAMESS TERMINATED NORMALLY Sat Dec  9 01:33:49 2023
 DDI: 14063448 bytes (13.4 MB / 1 MWords) used by master data server.
Note: The following floating-point exceptions are signalling: IEEE_DENORMAL

 ----------------------------------------
 CPU timing information for all processes
 ========================================
 0: 278.532 + 0.700 = 279.232
 1: 273.818 + 0.662 = 274.481
 ----------------------------------------
Note: The following floating-point exceptions are signalling: IEEE_DENORMAL
 ddikick.x: exited gracefully.
unset echo
----- accounting info -----
Files used on the master node io001 were:
-rw-r--r-- 1 bjb2chen nooijen   145182 Dec  9 01:27 /home/bjb2chen/gmsscr//AsH3cat_cct_gmcpt_C1_3st_diab_mode1_+0.05x2.F05
-rw-r--r-- 1 bjb2chen nooijen  3986280 Dec  9 01:32 /home/bjb2chen/gmsscr//AsH3cat_cct_gmcpt_C1_3st_diab_mode1_+0.05x2.F09
-rw-r--r-- 1 bjb2chen nooijen  6120544 Dec  9 01:32 /home/bjb2chen/gmsscr//AsH3cat_cct_gmcpt_C1_3st_diab_mode1_+0.05x2.F09.001
-rw-r--r-- 1 bjb2chen nooijen  6478560 Dec  9 01:33 /home/bjb2chen/gmsscr//AsH3cat_cct_gmcpt_C1_3st_diab_mode1_+0.05x2.F10
-rw-r--r-- 1 bjb2chen nooijen  1153696 Dec  9 01:32 /home/bjb2chen/gmsscr//AsH3cat_cct_gmcpt_C1_3st_diab_mode1_+0.05x2.F13
-rw-r--r-- 1 bjb2chen nooijen  1153696 Dec  9 01:32 /home/bjb2chen/gmsscr//AsH3cat_cct_gmcpt_C1_3st_diab_mode1_+0.05x2.F13.001
-rw-r--r-- 1 bjb2chen nooijen   181872 Dec  9 01:33 /home/bjb2chen/gmsscr//AsH3cat_cct_gmcpt_C1_3st_diab_mode1_+0.05x2.F15
-rw-r--r-- 1 bjb2chen nooijen        0 Dec  9 01:27 /home/bjb2chen/gmsscr//AsH3cat_cct_gmcpt_C1_3st_diab_mode1_+0.05x2.F16
-rw-r--r-- 1 bjb2chen nooijen     9808 Dec  9 01:32 /home/bjb2chen/gmsscr//AsH3cat_cct_gmcpt_C1_3st_diab_mode1_+0.05x2.F70
-rw-r--r-- 1 bjb2chen nooijen     9808 Dec  9 01:32 /home/bjb2chen/gmsscr//AsH3cat_cct_gmcpt_C1_3st_diab_mode1_+0.05x2.F70.001
-rw-r--r-- 1 bjb2chen nooijen     9808 Dec  9 01:32 /home/bjb2chen/gmsscr//AsH3cat_cct_gmcpt_C1_3st_diab_mode1_+0.05x2.F71
-rw-r--r-- 1 bjb2chen nooijen     9808 Dec  9 01:32 /home/bjb2chen/gmsscr//AsH3cat_cct_gmcpt_C1_3st_diab_mode1_+0.05x2.F71.001
-rw-r--r-- 1 bjb2chen nooijen    19608 Dec  9 01:32 /home/bjb2chen/gmsscr//AsH3cat_cct_gmcpt_C1_3st_diab_mode1_+0.05x2.F72
-rw-r--r-- 1 bjb2chen nooijen    19608 Dec  9 01:32 /home/bjb2chen/gmsscr//AsH3cat_cct_gmcpt_C1_3st_diab_mode1_+0.05x2.F72.001
-rw-r--r-- 1 bjb2chen nooijen    19608 Dec  9 01:32 /home/bjb2chen/gmsscr//AsH3cat_cct_gmcpt_C1_3st_diab_mode1_+0.05x2.F73
-rw-r--r-- 1 bjb2chen nooijen    19608 Dec  9 01:32 /home/bjb2chen/gmsscr//AsH3cat_cct_gmcpt_C1_3st_diab_mode1_+0.05x2.F73.001
-rw-r--r-- 1 bjb2chen nooijen   961208 Dec  9 01:32 /home/bjb2chen/gmsscr//AsH3cat_cct_gmcpt_C1_3st_diab_mode1_+0.05x2.F74
-rw-r--r-- 1 bjb2chen nooijen   959640 Dec  9 01:32 /home/bjb2chen/gmsscr//AsH3cat_cct_gmcpt_C1_3st_diab_mode1_+0.05x2.F74.001
-rw-r--r-- 1 bjb2chen nooijen        0 Dec  9 01:27 /home/bjb2chen/gmsscr//AsH3cat_cct_gmcpt_C1_3st_diab_mode1_+0.05x2.F75
-rw-r--r-- 1 bjb2chen nooijen        0 Dec  9 01:27 /home/bjb2chen/gmsscr//AsH3cat_cct_gmcpt_C1_3st_diab_mode1_+0.05x2.F75.001
-rw-r--r-- 1 bjb2chen nooijen    78456 Dec  9 01:32 /home/bjb2chen/gmsscr//AsH3cat_cct_gmcpt_C1_3st_diab_mode1_+0.05x2.F76
-rw-r--r-- 1 bjb2chen nooijen    78456 Dec  9 01:32 /home/bjb2chen/gmsscr//AsH3cat_cct_gmcpt_C1_3st_diab_mode1_+0.05x2.F76.001
-rw-r--r-- 1 bjb2chen nooijen        0 Dec  9 01:27 /home/bjb2chen/gmsscr//AsH3cat_cct_gmcpt_C1_3st_diab_mode1_+0.05x2.F77
-rw-r--r-- 1 bjb2chen nooijen        0 Dec  9 01:27 /home/bjb2chen/gmsscr//AsH3cat_cct_gmcpt_C1_3st_diab_mode1_+0.05x2.F77.001
-rw-r--r-- 1 bjb2chen nooijen     6408 Dec  9 01:32 /home/bjb2chen/gmsscr//AsH3cat_cct_gmcpt_C1_3st_diab_mode1_+0.05x2.F78
-rw-r--r-- 1 bjb2chen nooijen     6408 Dec  9 01:32 /home/bjb2chen/gmsscr//AsH3cat_cct_gmcpt_C1_3st_diab_mode1_+0.05x2.F78.001
-rw-r--r-- 1 bjb2chen nooijen    49008 Dec  9 01:32 /home/bjb2chen/gmsscr//AsH3cat_cct_gmcpt_C1_3st_diab_mode1_+0.05x2.F79
-rw-r--r-- 1 bjb2chen nooijen    49008 Dec  9 01:32 /home/bjb2chen/gmsscr//AsH3cat_cct_gmcpt_C1_3st_diab_mode1_+0.05x2.F79.001
-rw-r--r-- 1 bjb2chen nooijen      168 Dec  9 01:32 /home/bjb2chen/gmsscr//AsH3cat_cct_gmcpt_C1_3st_diab_mode1_+0.05x2.F80
-rw-r--r-- 1 bjb2chen nooijen      168 Dec  9 01:32 /home/bjb2chen/gmsscr//AsH3cat_cct_gmcpt_C1_3st_diab_mode1_+0.05x2.F80.001
-rw-r--r-- 1 bjb2chen nooijen   102416 Dec  9 01:32 /home/bjb2chen/gmsscr//AsH3cat_cct_gmcpt_C1_3st_diab_mode1_+0.05x2.F81
-rw-r--r-- 1 bjb2chen nooijen   102416 Dec  9 01:32 /home/bjb2chen/gmsscr//AsH3cat_cct_gmcpt_C1_3st_diab_mode1_+0.05x2.F81.001
-rw-r--r-- 1 bjb2chen nooijen      656 Dec  9 01:32 /home/bjb2chen/gmsscr//AsH3cat_cct_gmcpt_C1_3st_diab_mode1_+0.05x2.F82
-rw-r--r-- 1 bjb2chen nooijen      656 Dec  9 01:32 /home/bjb2chen/gmsscr//AsH3cat_cct_gmcpt_C1_3st_diab_mode1_+0.05x2.F82.001
-rw-r--r-- 1 bjb2chen nooijen    19216 Dec  9 01:32 /home/bjb2chen/gmsscr//AsH3cat_cct_gmcpt_C1_3st_diab_mode1_+0.05x2.F83
-rw-r--r-- 1 bjb2chen nooijen    19216 Dec  9 01:32 /home/bjb2chen/gmsscr//AsH3cat_cct_gmcpt_C1_3st_diab_mode1_+0.05x2.F83.001
-rw-r--r-- 1 bjb2chen nooijen   327696 Dec  9 01:32 /home/bjb2chen/gmsscr//AsH3cat_cct_gmcpt_C1_3st_diab_mode1_+0.05x2.F84
-rw-r--r-- 1 bjb2chen nooijen   327696 Dec  9 01:32 /home/bjb2chen/gmsscr//AsH3cat_cct_gmcpt_C1_3st_diab_mode1_+0.05x2.F84.001
-rw-r--r-- 1 bjb2chen nooijen  3427112 Dec  9 01:32 /home/bjb2chen/gmsscr//AsH3cat_cct_gmcpt_C1_3st_diab_mode1_+0.05x2.F85
-rw-r--r-- 1 bjb2chen nooijen  3427112 Dec  9 01:32 /home/bjb2chen/gmsscr//AsH3cat_cct_gmcpt_C1_3st_diab_mode1_+0.05x2.F85.001
-rw-r--r-- 1 bjb2chen nooijen 14757856 Dec  9 01:32 /home/bjb2chen/gmsscr//AsH3cat_cct_gmcpt_C1_3st_diab_mode1_+0.05x2.F86
-rw-r--r-- 1 bjb2chen nooijen 14453344 Dec  9 01:32 /home/bjb2chen/gmsscr//AsH3cat_cct_gmcpt_C1_3st_diab_mode1_+0.05x2.F86.001
-rw-r--r-- 1 bjb2chen nooijen     1160 Dec  9 01:33 /home/bjb2chen/gmsscr//AsH3cat_cct_gmcpt_C1_3st_diab_mode1_+0.05x2.F87
-rw-r--r-- 1 bjb2chen nooijen     1160 Dec  9 01:33 /home/bjb2chen/gmsscr//AsH3cat_cct_gmcpt_C1_3st_diab_mode1_+0.05x2.F87.001
-rw-r--r-- 1 bjb2chen nooijen    27872 Dec  9 01:33 /home/bjb2chen/gmsscr//AsH3cat_cct_gmcpt_C1_3st_diab_mode1_+0.05x2.F88
-rw-r--r-- 1 bjb2chen nooijen    27872 Dec  9 01:33 /home/bjb2chen/gmsscr//AsH3cat_cct_gmcpt_C1_3st_diab_mode1_+0.05x2.F88.001
-rw-r--r-- 1 bjb2chen nooijen      648 Dec  9 01:32 /home/bjb2chen/gmsscr//AsH3cat_cct_gmcpt_C1_3st_diab_mode1_+0.05x2.F89
-rw-r--r-- 1 bjb2chen nooijen      648 Dec  9 01:32 /home/bjb2chen/gmsscr//AsH3cat_cct_gmcpt_C1_3st_diab_mode1_+0.05x2.F89.001
-rw-r--r-- 1 bjb2chen nooijen        0 Dec  9 01:27 /home/bjb2chen/gmsscr//AsH3cat_cct_gmcpt_C1_3st_diab_mode1_+0.05x2.F90
-rw-r--r-- 1 bjb2chen nooijen        0 Dec  9 01:27 /home/bjb2chen/gmsscr//AsH3cat_cct_gmcpt_C1_3st_diab_mode1_+0.05x2.F90.001
-rw-r--r-- 1 bjb2chen nooijen    13760 Dec  9 01:33 /home/bjb2chen/gmsscr//AsH3cat_cct_gmcpt_C1_3st_diab_mode1_+0.05x2.F91
-rw-r--r-- 1 bjb2chen nooijen    13760 Dec  9 01:33 /home/bjb2chen/gmsscr//AsH3cat_cct_gmcpt_C1_3st_diab_mode1_+0.05x2.F91.001
-rw-r--r-- 1 bjb2chen nooijen    22776 Dec  9 01:32 /home/bjb2chen/gmsscr//AsH3cat_cct_gmcpt_C1_3st_diab_mode1_+0.05x2.F92
-rw-r--r-- 1 bjb2chen nooijen    22776 Dec  9 01:32 /home/bjb2chen/gmsscr//AsH3cat_cct_gmcpt_C1_3st_diab_mode1_+0.05x2.F92.001
-rw-r--r-- 1 bjb2chen nooijen    23168 Dec  9 01:32 /home/bjb2chen/gmsscr//AsH3cat_cct_gmcpt_C1_3st_diab_mode1_+0.05x2.F93
-rw-r--r-- 1 bjb2chen nooijen    23168 Dec  9 01:32 /home/bjb2chen/gmsscr//AsH3cat_cct_gmcpt_C1_3st_diab_mode1_+0.05x2.F93.001
-rw-r--r-- 1 bjb2chen nooijen    22776 Dec  9 01:32 /home/bjb2chen/gmsscr//AsH3cat_cct_gmcpt_C1_3st_diab_mode1_+0.05x2.F94
-rw-r--r-- 1 bjb2chen nooijen    22776 Dec  9 01:32 /home/bjb2chen/gmsscr//AsH3cat_cct_gmcpt_C1_3st_diab_mode1_+0.05x2.F94.001
-rw-r--r-- 1 bjb2chen nooijen    13760 Dec  9 01:32 /home/bjb2chen/gmsscr//AsH3cat_cct_gmcpt_C1_3st_diab_mode1_+0.05x2.F95
-rw-r--r-- 1 bjb2chen nooijen    13760 Dec  9 01:32 /home/bjb2chen/gmsscr//AsH3cat_cct_gmcpt_C1_3st_diab_mode1_+0.05x2.F95.001
-rw-r--r-- 1 bjb2chen nooijen    39248 Dec  9 01:33 /home/bjb2chen/gmsscr//AsH3cat_cct_gmcpt_C1_3st_diab_mode1_+0.05x2.F96
-rw-r--r-- 1 bjb2chen nooijen    39248 Dec  9 01:33 /home/bjb2chen/gmsscr//AsH3cat_cct_gmcpt_C1_3st_diab_mode1_+0.05x2.F96.001
-rw-r--r-- 1 bjb2chen nooijen     1184 Dec  9 01:32 /home/bjb2chen/gmsscr//AsH3cat_cct_gmcpt_C1_3st_diab_mode1_+0.05x2.F97
-rw-r--r-- 1 bjb2chen nooijen     1184 Dec  9 01:32 /home/bjb2chen/gmsscr//AsH3cat_cct_gmcpt_C1_3st_diab_mode1_+0.05x2.F97.001
-rw-r--r-- 1 bjb2chen nooijen     9808 Dec  9 01:32 /home/bjb2chen/gmsscr//AsH3cat_cct_gmcpt_C1_3st_diab_mode1_+0.05x2.F98
-rw-r--r-- 1 bjb2chen nooijen     9808 Dec  9 01:32 /home/bjb2chen/gmsscr//AsH3cat_cct_gmcpt_C1_3st_diab_mode1_+0.05x2.F98.001
-rw-r--r-- 1 bjb2chen nooijen    30264 Dec  9 01:32 /home/bjb2chen/gmsscr//AsH3cat_cct_gmcpt_C1_3st_diab_mode1_+0.05x2.F99
-rw-r--r-- 1 bjb2chen nooijen    30264 Dec  9 01:32 /home/bjb2chen/gmsscr//AsH3cat_cct_gmcpt_C1_3st_diab_mode1_+0.05x2.F99.001
ls: No match.
ls: No match.
ls: No match.
Sat 09 Dec 2023 01:33:52 AM EST
0.272u 0.056s 5:55.69 0.0%	0+0k 288+496io 0pf+0w
