----- GAMESS execution script 'rungms' -----
This job is running on host io001
under operating system Linux at Sat 09 Dec 2023 01:29:52 AM EST
Available scratch disk space (Kbyte units) at beginning of the job is
Filesystem             1K-blocks       Used Available Use% Mounted on
helmholtz.nlogn:/home 6391504896 5236263936 833102848  87% /home
GAMESS temporary binary files will be written to /home/bjb2chen/gmsscr/
GAMESS supplementary output files will be written to /home/bjb2chen/gamess/vibronics/ash3/relwfn
Copying input file AsH3cat_cct_gmcpt_C1_3st_diab_mode12_-0.05_mode3_+0.05.inp to your run's scratch directory...
cp AsH3cat_cct_gmcpt_C1_3st_diab_mode12_-0.05_mode3_+0.05.inp /home/bjb2chen/gmsscr//AsH3cat_cct_gmcpt_C1_3st_diab_mode12_-0.05_mode3_+0.05.F05
unset echo
 
Assuming a single but multicore node.
 
/home/bjb2chen/gamess/ddikick.x /home/bjb2chen/gamess/gamess.00.x AsH3cat_cct_gmcpt_C1_3st_diab_mode12_-0.05_mode3_+0.05 -ddi 1 2 io001:cpus=2 -scr /home/bjb2chen/gmsscr/

 Distributed Data Interface kickoff program.
 Initiating 2 compute processes on 1 nodes to run the following command:
 /home/bjb2chen/gamess/gamess.00.x AsH3cat_cct_gmcpt_C1_3st_diab_mode12_-0.05_mode3_+0.05 

          ******************************************************
          *         GAMESS VERSION = 02 AUG 2018 (R2)         *
          *             FROM IOWA STATE UNIVERSITY             *
          * M.W.SCHMIDT, K.K.BALDRIDGE, J.A.BOATZ, S.T.ELBERT, *
          *   M.S.GORDON, J.H.JENSEN, S.KOSEKI, N.MATSUNAGA,   *
          *          K.A.NGUYEN, S.J.SU, T.L.WINDUS,           *
          *       TOGETHER WITH M.DUPUIS, J.A.MONTGOMERY       *
          *         J.COMPUT.CHEM.  14, 1347-1363(1993)        *
          **************** 64 BIT LINUX VERSION ****************

  SINCE 1993, STUDENTS AND POSTDOCS WORKING AT IOWA STATE UNIVERSITY
  AND ALSO IN THEIR VARIOUS JOBS AFTER LEAVING ISU HAVE MADE IMPORTANT
  CONTRIBUTIONS TO THE CODE:
     IVANA ADAMOVIC, CHRISTINE AIKENS, YURI ALEXEEV, POOJA ARORA,
     ANDREY ASADCHEV, ROB BELL, PRADIPTA BANDYOPADHYAY, JONATHAN BENTZ,
     BRETT BODE, KURT BRORSEN, CALEB CARLIN, GALINA CHABAN, WEI CHEN,
     CHEOL HO CHOI, PAUL DAY, ALBERT DEFUSCO, NUWAN DESILVA, TIM DUDLEY,
     DMITRI FEDOROV, ALEX FINDLATER, GRAHAM FLETCHER, MARK FREITAG,
     KURT GLAESEMANN, ANASTASIA GUININA,
     DAN KEMP, GRANT MERRILL, NORIYUKI MINEZAWA, JONATHAN MULLIN,
     TAKESHI NAGATA, SEAN NEDD, HEATHER NETZLOFF, BOSILJKA NJEGIC, RYAN OLSON,
     MIKE PAK, BUU PHAM,
     SPENCER PRUITT, LUKE ROSKOP, JIM SHOEMAKER, LYUDMILA SLIPCHENKO,
     TONY SMITH, SAROM SOK LEANG, JIE SONG, TETSUYA TAKETSUGU, SIMON WEBB,
     PENG XU, SOOHAENG YOO, FEDERICO ZAHARIEV

  ADDITIONAL CODE HAS BEEN PROVIDED BY COLLABORATORS IN OTHER GROUPS:
     IOWA STATE UNIVERSITY:
          JOE IVANIC, AARON WEST, LAIMUTIS BYTAUTAS, KLAUS RUEDENBERG
     UNIVERSITY OF TOKYO: KIMIHIKO HIRAO, TAKAHITO NAKAJIMA,
          TAKAO TSUNEDA, MUNEAKI KAMIYA, SUSUMU YANAGISAWA,
          KIYOSHI YAGI, MAHITO CHIBA, SEIKEN TOKURA, NAOAKI KAWAKAMI
     UNIVERSITY OF AARHUS: FRANK JENSEN
     UNIVERSITY OF IOWA: VISVALDAS KAIRYS, HUI LI
     NATIONAL INST. OF STANDARDS AND TECHNOLOGY: WALT STEVENS, DAVID GARMER
     UNIVERSITY OF PISA: BENEDETTA MENNUCCI, JACOPO TOMASI
     UNIVERSITY OF MEMPHIS: HENRY KURTZ, PRAKASHAN KORAMBATH
     UNIVERSITY OF ALBERTA: TOBY ZENG, MARIUSZ KLOBUKOWSKI
     UNIVERSITY OF NEW ENGLAND: MARK SPACKMAN
     MIE UNIVERSITY: HIROAKI UMEDA
     NAT. INST. OF ADVANCED INDUSTRIAL SCIENCE AND TECHNOLOGY: KAZUO KITAURA
     MICHIGAN STATE UNIVERSITY:
          KAROL KOWALSKI, MARTA WLOCH, JEFFREY GOUR, JESSE LUTZ,
          WEI LI, JUN SHEN, J. EMILIANO DEUSTUA, PIOTR PIECUCH
     UNIVERSITY OF MINNESOTA:
          YINAN SHU
     UNIVERSITY OF SILESIA: MONIKA MUSIAL, STANISLAW KUCHARSKI
     FACULTES UNIVERSITAIRES NOTRE-DAME DE LA PAIX:
          OLIVIER QUINET, BENOIT CHAMPAGNE
     UNIVERSITY OF CALIFORNIA - SANTA BARBARA: BERNARD KIRTMAN
     INSTITUTE FOR MOLECULAR SCIENCE:
          KAZUYA ISHIMURA, MICHIO KATOUDA, AND SHIGERU NAGASE
     UNIVERSITY OF NOTRE DAME: ANNA POMOGAEVA, DAN CHIPMAN
     KYUSHU UNIVERSITY:
          HARUYUKI NAKANO,
          FENG LONG GU, JACEK KORCHOWIEC, MARCIN MAKOWSKI, AND YURIKO AOKI,
          HIROTOSHI MORI AND EISAKU MIYOSHI
     PENNSYLVANIA STATE UNIVERSITY:
          TZVETELIN IORDANOV, CHET SWALINA, JONATHAN SKONE,
          SHARON HAMMES-SCHIFFER
     WASEDA UNIVERSITY:
          MASATO KOBAYASHI, TOMOKO AKAMA, TSUGUKI TOUMA,
          TAKESHI YOSHIKAWA, YASUHIRO IKABATA, JUNJI SEINO,
          YUYA NAKAJIMA, HIROMI NAKAI
     NANJING UNIVERSITY: SHUHUA LI
     UNIVERSITY OF NEBRASKA:
          PEIFENG SU, DEJUN SI, NANDUN THELLAMUREGE, YALI WANG, HUI LI
     UNIVERSITY OF ZURICH: ROBERTO PEVERATI, KIM BALDRIDGE
     N. COPERNICUS UNIVERSITY AND JACKSON STATE UNIVERSITY:
          MARIA BARYSZ
     UNIVERSITY OF COPENHAGEN: Jimmy Kromann, CASPER STEINMANN
     TOKYO INSTITUTE OF TECHNOLOGY: HIROYA NAKATA
     NAGOYA UNIVERSITY: YOSHIO NISHIMOTO, STEPHAN IRLE
     MOSCOW STATE UNIVERSITY: VLADIMIR MIRONOV


 PARALLEL VERSION RUNNING ON        2 PROCESSORS IN        1 NODES.

 EXECUTION OF GAMESS BEGUN Sat Dec  9 01:29:52 2023

            ECHO OF THE FIRST FEW INPUT CARDS -
 INPUT CARD> !Step 3: single point gmcpt calculation averaging 4 states                     
 INPUT CARD> !        for AsH3+ at AsH3 structure. The ROHF orbitals at                     
 INPUT CARD> !        the MP2 optimized structure is taken as the initial                   
 INPUT CARD> !        guess of orbitals in the $VEC group.                                  
 INPUT CARD> $system kdiag=3 mwords=250 memddi=8000 parall=.t. $end                         
 INPUT CARD> $contrl runtyp=energy ispher=1 relwfn=dk $end                                  
 INPUT CARD> $contrl icut=9 itol=20 inttyp=rysquad qmttol=1.0d-05 nosym=1 $end              
 INPUT CARD> $scf    npunch=2 conv=1.0d-06 dirscf=.t. diis=.t. soscf=.f. ethrsh=10.0 $end   
 INPUT CARD> $contrl scftyp=mcscf  mult=2 maxit=200 icharg=1 mplevl=2 $end                  
 INPUT CARD> $relwfn norder=3 $end                                                          
 INPUT CARD> $guess  guess=moread norb=85 purify=.t. $end                                   
 INPUT CARD> $basis  gbasis=cct $end                                                        
 INPUT CARD> $mcscf  cistep=gmcci fullnr=.t. finci=mos                                      
 INPUT CARD>         acurcy=1.d-6 maxit=200 $end                                            
 INPUT CARD> $trans  dirtrf=.t. $end                                                        
 INPUT CARD> $mrmp   mrpt=gmcpt rdvecs=.f. $end                                             
 INPUT CARD> $gmcpt  nmofzc=5 nmodoc=9 nmoact=7 nelact=7 stsym(1)=A                         
 INPUT CARD>         reftyp=ormas nspace=1 mstart(1)=15 mine(1)=7 maxe(1)=7                 
 INPUT CARD>         kstate(1)=1,1,1,1                                                      
 INPUT CARD>         wstate(1)=1,1,1,1                                                      
 INPUT CARD>         iwgt=0 thrwgt=-1.0 krot=.f. kszdoe=.f. knospn=.f.                      
 INPUT CARD>         thrde=-1.0 edshft=0.02 $end                                            
 INPUT CARD> $statpt hssend=.t. $end                                                        
 INPUT CARD> -data                                                                          
 INPUT CARD> AsH3+ 3 states calculation at AsH3 structure.                                  
 INPUT CARD> C1                                                                             
 INPUT CARD>  AS         33.0   0.0000000000  -0.0000000000   0.0000000000                  
 INPUT CARD> H           1.0  -0.7325148768   1.2687529838   0.0000000000                   
 INPUT CARD> H           1.0  -0.7325148768  -1.2687529838   0.0000000000                   
 INPUT CARD> H           1.0   1.4650297535   0.0000000000   0.0000000000                   
 INPUT CARD> $end                                                                           
 INPUT CARD> --- Semi-canonical MOs --- generated at Sat Dec  9 01:18:05 2023               
 INPUT CARD> $VEC                                                                           
 INPUT CARD> 1  1 1.00000651E+00-6.68369440E-06 1.85152951E-04 1.79685598E-04-8.07714337E-05
 INPUT CARD> 1  2-2.31149954E-05-0.00000000E+00-0.00000000E+00-0.00000000E+00 1.52132035E-11
 INPUT CARD> 1  3 2.42575930E-11-0.00000000E+00 4.01053631E-11 5.28975585E-11-0.00000000E+00
 INPUT CARD> 1  4-0.00000000E+00-0.00000000E+00-0.00000000E+00-0.00000000E+00-0.00000000E+00
 INPUT CARD> 1  5-0.00000000E+00-1.11237345E-06-1.11237452E-06 2.22474797E-06-0.00000000E+00
 INPUT CARD> 1  6-0.00000000E+00-0.00000000E+00 8.58528525E-06 8.58528010E-06-1.71705654E-05
 INPUT CARD> 1  7-1.20100248E-11-0.00000000E+00-0.00000000E+00 1.00552420E-05 1.00552075E-05
 INPUT CARD> 1  8-2.01104495E-05-2.83298525E-11-0.00000000E+00-0.00000000E+00 1.99730861E-05
 INPUT CARD> 1  9-0.00000000E+00-0.00000000E+00-0.00000000E+00-0.00000000E+00-2.67966997E-05
 INPUT CARD> 1 10-0.00000000E+00-0.00000000E+00-0.00000000E+00-0.00000000E+00 3.47117215E-06
 INPUT CARD> 1 11-4.60716982E-05 1.04466843E-06-4.03421058E-07 6.98737131E-07-0.00000000E+00
 INPUT CARD> 1 12-1.34256909E-05 2.32539851E-05-0.00000000E+00 1.05460937E-06-3.02016560E-06
 INPUT CARD> 1 13 1.96555623E-06 4.07477672E-06-0.00000000E+00-0.00000000E+00 3.47116073E-06
 INPUT CARD> 1 14-4.60716058E-05 1.04468814E-06-4.03422118E-07-6.98738938E-07-0.00000000E+00
 INPUT CARD> 1 15-1.34256677E-05-2.32539402E-05-0.00000000E+00 1.05460761E-06-3.02016073E-06
 INPUT CARD> 1 16 1.96555312E-06-4.07477055E-06-0.00000000E+00-0.00000000E+00 3.47117151E-06
 INPUT CARD> 1 17-4.60717176E-05 1.04469110E-06 8.06835201E-07-0.00000000E+00-0.00000000E+00
  250000000 WORDS OF MEMORY AVAILABLE

     BASIS OPTIONS
     -------------
     GBASIS=CCT          IGAUSS=       0      POLAR=NONE    
     NDFUNC=       0     NFFUNC=       0     DIFFSP=       F
     NPFUNC=       0      DIFFS=       F     BASNAM=        


     RUN TITLE
     ---------
  AsH3+ 4 state with relwfn calculation                                          

 THE POINT GROUP OF THE MOLECULE IS C1      
 THE ORDER OF THE PRINCIPAL AXIS IS     0

 ATOM      ATOMIC                      COORDINATES (BOHR)
           CHARGE         X                   Y                   Z
 AS         33.0     0.6212687328       -0.0000006034       -0.0202197806
 H           1.0    -0.7652396080        2.4014603557       -0.0201501041
 H           1.0    -0.7652397792       -2.4014615190       -0.0201498298
 H           1.0     3.3808469740       -0.0000007131       -0.0203588592

          INTERNUCLEAR DISTANCES (ANGS.)
          ------------------------------

                1 AS         2 H          3 H          4 H     

   1 AS      0.0000000    1.4673981 *  1.4673981 *  1.4603060 *
   2 H       1.4673981 *  0.0000000    2.5415970 *  2.5354742 *
   3 H       1.4673981 *  2.5415970 *  0.0000000    2.5354742 *
   4 H       1.4603060 *  2.5354742 *  2.5354742 *  0.0000000  

  * ... LESS THAN  3.000


     ATOMIC BASIS SET
     ----------------
 THE CONTRACTED PRIMITIVE FUNCTIONS HAVE BEEN UNNORMALIZED
 THE CONTRACTED BASIS FUNCTIONS ARE NOW NORMALIZED TO UNITY

  SHELL TYPE  PRIMITIVE        EXPONENT          CONTRACTION COEFFICIENT(S)

 AS        

      1   S       1       8482339.6000000    0.000181400075
      1   S       2       1270150.9000000    0.000509300210
      1   S       3        289056.9600000    0.001349900557
      1   S       4         81879.8490000    0.003309201365
      1   S       5         26716.5640000    0.008034603315
      1   S       6          9647.5842000    0.019535208061
      1   S       7          3764.1195000    0.047315519523
      1   S       8          1561.5656000    0.108843244910
      1   S       9           680.8146700    0.218240590049
      1   S      10           309.2411900    0.333269937512
      1   S      11           145.2573600    0.304307225562
      1   S      12            69.7390480    0.111702146090
      1   S      13            31.7703250    0.007463503080
      1   S      14            15.3917570    0.000304100125
      1   S      15             7.3415260   -0.000142200059
      1   S      16             3.3237160    0.000019500008
      1   S      17             1.4858670   -0.000033200014
      1   S      18             0.2115000   -0.000008500004

      2   S      19       8482339.6000000   -0.000057995848
      2   S      20       1270150.9000000   -0.000163088325
      2   S      21        289056.9600000   -0.000433268984
      2   S      22         81879.8490000   -0.001065223744
      2   S      23         26716.5640000   -0.002605413487
      2   S      24          9647.5842000   -0.006395842144
      2   S      25          3764.1195000   -0.015881863072
      2   S      26          1561.5656000   -0.038079174044
      2   S      27           680.8146700   -0.084299965257
      2   S      28           309.2411900   -0.154355250242
      2   S      29           145.2573600   -0.198099018777
      2   S      30            69.7390480   -0.033758583340
      2   S      31            31.7703250    0.437607173216
      2   S      32            15.3917570    0.558621610211
      2   S      33             7.3415260    0.155689654716
      2   S      34             3.3237160    0.005010041348
      2   S      35             1.4858670    0.001680179722
      2   S      36             0.2115000    0.000228683629

      3   S      37       8482339.6000000    0.000023133401
      3   S      38       1270150.9000000    0.000065018105
      3   S      39        289056.9600000    0.000172634279
      3   S      40         81879.8490000    0.000424553958
      3   S      41         26716.5640000    0.001039576315
      3   S      42          9647.5842000    0.002554661217
      3   S      43          3764.1195000    0.006365761645
      3   S      44          1561.5656000    0.015338667773
      3   S      45           680.8146700    0.034419952954
      3   S      46           309.2411900    0.064576634114
      3   S      47           145.2573600    0.087234016980
      3   S      48            69.7390480    0.014828815768
      3   S      49            31.7703250   -0.267166221401
      3   S      50            15.3917570   -0.511407446230
      3   S      51             7.3415260   -0.020336603390
      3   S      52             3.3237160    0.736562901872
      3   S      53             1.4858670    0.503531695147
      3   S      54             0.2115000   -0.008965466753

      4   S      55       8482339.6000000   -0.000010225631
      4   S      56       1270150.9000000   -0.000028566842
      4   S      57        289056.9600000   -0.000076124142
      4   S      58         81879.8490000   -0.000187145279
      4   S      59         26716.5640000   -0.000458043346
      4   S      60          9647.5842000   -0.001126929466
      4   S      61          3764.1195000   -0.002805393763
      4   S      62          1561.5656000   -0.006779431073
      4   S      63           680.8146700   -0.015195936984
      4   S      64           309.2411900   -0.028739704152
      4   S      65           145.2573600   -0.038797991937
      4   S      66            69.7390480   -0.007149826154
      4   S      67            31.7703250    0.126719590806
      4   S      68            15.3917570    0.251979351046
      4   S      69             7.3415260    0.006924375336
      4   S      70             3.3237160   -0.491086580342
      4   S      71             1.4858670   -0.599181401530
      4   S      72             0.2115000    1.027494131359

      5   S      73             0.4210860    1.000000000000

      6   S      74             0.0889740    1.000000000000

      7   P      75          7423.8614000    0.000938377609
      7   P      76          1759.5166000    0.005133377508
      7   P      77           570.2291600    0.024099824935
      7   P      78           216.5799700    0.086762429694
      7   P      79            90.7342520    0.228273052999
      7   P      80            40.3087910    0.392022345650
      7   P      81            18.5555020    0.348929673917
      7   P      82             8.3965430    0.101835170032
      7   P      83             3.7673670    0.003273321893
      7   P      84             1.6297010    0.001772857696
      7   P      85             0.2225030    0.000216994822

      8   P      86          7423.8614000   -0.000377368830
      8   P      87          1759.5166000   -0.002078856782
      8   P      88           570.2291600   -0.009841594745
      8   P      89           216.5799700   -0.036476256021
      8   P      90            90.7342520   -0.099965258993
      8   P      91            40.3087910   -0.184025625096
      8   P      92            18.5555020   -0.144893040697
      8   P      93             8.3965430    0.209289264962
      8   P      94             3.7673670    0.550748557488
      8   P      95             1.6297010    0.387867158814
      8   P      96             0.2225030   -0.005154847972

      9   P      97          7423.8614000    0.000139223028
      9   P      98          1759.5166000    0.000768701503
      9   P      99           570.2291600    0.003638497780
      9   P     100           216.5799700    0.013549681419
      9   P     101            90.7342520    0.037246834642
      9   P     102            40.3087910    0.069389334914
      9   P     103            18.5555020    0.052882141611
      9   P     104             8.3965430   -0.096382453072
      9   P     105             3.7673670   -0.257993529431
      9   P     106             1.6297010   -0.205528886912
      9   P     107             0.2225030    0.990245287546

     10   P     108             0.5682630    1.000000000000

     11   P     109             0.0804050    1.000000000000

     12   D     110           321.0196100    0.001881680809
     12   D     111            96.2493050    0.014904607123
     12   D     112            36.6449630    0.065004552468
     12   D     113            15.4939650    0.183605431315
     12   D     114             6.8911380    0.330320202868
     12   D     115             3.0548310    0.388735616644
     12   D     116             1.3142410    0.287105421146

     13   D     117             0.5134300    1.000000000000

     14   D     118             0.1877000    1.000000000000

     15   F     119             0.4158000    1.000000000000

 H         

     16   S     120            33.8700000    0.025531286985
     16   S     121             5.0950000    0.190383336530
     16   S     122             1.1590000    0.852134062742

     17   S     123             0.3258000    1.000000000000

     18   S     124             0.1027000    1.000000000000

     19   P     125             1.4070000    1.000000000000

     20   P     126             0.3880000    1.000000000000

     21   D     127             1.0570000    1.000000000000

 H         

     22   S     128            33.8700000    0.025531286985
     22   S     129             5.0950000    0.190383336530
     22   S     130             1.1590000    0.852134062742

     23   S     131             0.3258000    1.000000000000

     24   S     132             0.1027000    1.000000000000

     25   P     133             1.4070000    1.000000000000

     26   P     134             0.3880000    1.000000000000

     27   D     135             1.0570000    1.000000000000

 H         

     28   S     136            33.8700000    0.025531286985
     28   S     137             5.0950000    0.190383336530
     28   S     138             1.1590000    0.852134062742

     29   S     139             0.3258000    1.000000000000

     30   S     140             0.1027000    1.000000000000

     31   P     141             1.4070000    1.000000000000

     32   P     142             0.3880000    1.000000000000

     33   D     143             1.0570000    1.000000000000

 TOTAL NUMBER OF BASIS SET SHELLS             =   33
 NUMBER OF CARTESIAN GAUSSIAN BASIS FUNCTIONS =   94
 NOTE: THIS RUN WILL RESTRICT THE MO VARIATION SPACE TO SPHERICAL HARMONICS.
 THE NUMBER OF ORBITALS KEPT IN THE VARIATIONAL SPACE WILL BE PRINTED LATER.
 NUMBER OF ELECTRONS                          =   35
 CHARGE OF MOLECULE                           =    1
 SPIN MULTIPLICITY                            =    2
 NUMBER OF OCCUPIED ORBITALS (ALPHA)          =   18
 NUMBER OF OCCUPIED ORBITALS (BETA )          =   17
 TOTAL NUMBER OF ATOMS                        =    4
 THE NUCLEAR REPULSION ENERGY IS       36.3850803549

     ---------------------------------
     RELATIVISTIC WAVEFUNCTION OPTIONS
     ---------------------------------
     METHOD=DK       NORDER= 3       NESOC=  0      MODEQR=      1
     NRATOM=  0      QMTTOL= 1.000E-10      QRTOL= 1.000E-02
     CLIGHT=137.03598950     TAU= 3.500E+00

 INTERNAL BASIS SET UNCONTRACTION FOR RESC/DK/IOTC/LUT-IOTC:
    67 SHELLS AND    174 AOS ARE CONSTRUCTED, COMPARED TO
    33 SHELLS AND     94 AOS IN THE CONTRACTED BASIS SET

    76 REDUNDANT PRIMITIVE(S) ELIMINATED.


     $CONTRL OPTIONS
     ---------------
 SCFTYP=MCSCF        RUNTYP=ENERGY       EXETYP=RUN     
 MPLEVL=       2     CITYP =NONE         CCTYP =NONE         VBTYP =NONE    
 DFTTYP=NONE         TDDFT =NONE    
 MULT  =       2     ICHARG=       1     NZVAR =       0     COORD =UNIQUE  
 PP    =NONE         RELWFN=DK           LOCAL =NONE         NUMGRD=       F
 ISPHER=       1     NOSYM =       1     MAXIT =     200     UNITS =ANGS    
 PLTORB=       F     MOLPLT=       F     AIMPAC=       F     FRIEND=        
 NPRINT=       7     IREST =       0     GEOM  =INPUT   
 NORMF =       0     NORMP =       0     ITOL  =      20     ICUT  =       9
 INTTYP=RYSQUAD      GRDTYP=BEST         QMTTOL= 1.0E-05

     $SYSTEM OPTIONS
     ---------------
  REPLICATED MEMORY=   250000000 WORDS (ON EVERY NODE).
 DISTRIBUTED MEMDDI=        8000 MILLION WORDS IN AGGREGATE,
 MEMDDI DISTRIBUTED OVER   2 PROCESSORS IS  4000000000 WORDS/PROCESSOR.
 TOTAL MEMORY REQUESTED ON EACH PROCESSOR=  4250000000 WORDS.
 TIMLIM=      525600.00 MINUTES, OR     365.0 DAYS.
 PARALL= T  BALTYP=  DLB     KDIAG=    3  COREFL= F
 MXSEQ2=     300 MXSEQ3=     150  mem10=         0

          ----------------
          PROPERTIES INPUT
          ----------------

     MOMENTS            FIELD           POTENTIAL          DENSITY
 IEMOM =       1   IEFLD =       0   IEPOT =       0   IEDEN =       0
 WHERE =COMASS     WHERE =NUCLEI     WHERE =NUCLEI     WHERE =NUCLEI  
 OUTPUT=BOTH       OUTPUT=BOTH       OUTPUT=BOTH       OUTPUT=BOTH    
 IEMINT=       0   IEFINT=       0                     IEDINT=       0
                                                       MORB  =       0

     -------------------------------
     INTEGRAL TRANSFORMATION OPTIONS
     -------------------------------
     NWORD  =            0
     CUTOFF = 1.0E-09     MPTRAN =       0
     DIRTRF =       T     AOINTS =DUP     

          ----------------------
          MCSCF INPUT PARAMETERS
          ----------------------
 CONVERGER SELECTION: FOCAS = F  SOSCF = F  FULLNR = T  QUD = F  JACOBI = F
 SECULAR EQUATION METHOD CISTEP = GMCCI   
 --- GENERAL INPUT OPTIONS:
 MAXIT =     200  MICIT =       1  ACURCY= 1.000E-06
 DAMP  =   0.000  CANONC=       T  ENGTOL= 1.000E-10
 EKT   =       F  NPUNCH=       2  NWORD =         0
 REGENERATE CI AFTER CONVERGENCE = NONE    
 DIABATIZATION AFTER CONVERGENCE =        F
 --- INPUT FOR FULLNR CONVERGER:
 METHOD=DM2       FORS  =       F  DROPC =       T
 LINSER=       F  FCORE =       F  NORB  =      94

          ----------------------
          INTEGRAL INPUT OPTIONS
          ----------------------
 NOPK  =       1 NORDER=       0 SCHWRZ=       T

 ------------------------------------------
 MULTIREFERENCE PERTURBATION THEORY CONTROL
 ------------------------------------------
 MRPT=GMCPT    READ CONVERGED MCSCF VECTORS= F


     ------------------------------------------
     THE POINT GROUP IS C1 , NAXIS= 1, ORDER= 1
     ------------------------------------------

 -- VARIATIONAL SPACE WILL BE RESTRICTED TO PURE SPHERICAL HARMONICS ONLY --
 AFTER EXCLUDING CONTAMINANT COMBINATIONS FROM THE CARTESIAN GAUSSIAN BASIS
 SET, THE NUMBER OF SPHERICAL HARMONICS KEPT IN THE VARIATION SPACE IS   85

     DIMENSIONS OF THE SYMMETRY SUBSPACES ARE
 A   =   85

 ..... DONE SETTING UP THE RUN .....
 CPU     0: STEP CPU TIME=     0.08 TOTAL CPU TIME=          0.1 (      0.0 MIN)
 TOTAL WALL CLOCK TIME=          0.1 SECONDS, CPU UTILIZATION IS    57.14%

          ********************
          1 ELECTRON INTEGRALS
          ********************
 TIME TO DO ORDINARY INTEGRALS=      0.00

 ------------------------------------------------------------------
 3RD ORDER DOUGLAS-KROLL-HESS RELATIVISTIC ONE-ELECTRON HAMILTONIAN
            CODED BY TAKAHITO NAKAJIMA AND DMITRI FEDOROV
 ------------------------------------------------------------------

 TIME TO DO  RELATIVISTIC INTS=      0.31
 TIME TO DO   DIPOLE INTEGRALS=      0.00
 ...... END OF ONE-ELECTRON INTEGRALS ......
 CPU     0: STEP CPU TIME=     0.31 TOTAL CPU TIME=          0.4 (      0.0 MIN)
 TOTAL WALL CLOCK TIME=          0.5 SECONDS, CPU UTILIZATION IS    82.98%

          -------------
          GUESS OPTIONS
          -------------
          GUESS =MOREAD            NORB  =      85          NORDER=       0
          MIX   =       F          PRTMO =       F          PUNMO =       F
          TOLZ  = 1.0E-08          TOLE  = 1.0E-05
          SYMDEN=       F          PURIFY=       T

 INITIAL GUESS ORBITALS GENERATED BY MOREAD   ROUTINE.

 STATISTICS FOR GENERATION OF SYMMETRY ORBITAL -Q- MATRIX
 NUMBER OF CARTESIAN ATOMIC ORBITALS=         94
 NUMBER OF SPHERICAL CONTAMINANTS DROPPED=     9
 NUMBER OF LINEARLY DEPENDENT MOS DROPPED=     0
 TOTAL NUMBER OF MOS IN VARIATION SPACE=      85
 ORBITAL PURIFICATION WILL OCCUR

 SYMMETRIES FOR INITIAL GUESS ORBITALS FOLLOW.   BOTH SET(S).
    18 ORBITALS ARE OCCUPIED (   14 CORE ORBITALS).
     1=A        2=A        3=A        4=A        5=A        6=A        7=A   
     8=A        9=A       10=A       11=A       12=A       13=A       14=A   
    15=A       16=A       17=A       18=A       19=A       20=A       21=A   
    22=A       23=A       24=A       25=A       26=A       27=A       28=A   
    29=A       30=A       31=A       32=A       33=A       34=A       35=A   
    36=A       37=A       38=A       39=A       40=A       41=A       42=A   
    43=A       44=A       45=A       46=A       47=A       48=A       49=A   
    50=A       51=A       52=A       53=A       54=A       55=A       56=A   
    57=A       58=A       59=A       60=A       61=A       62=A       63=A   
    64=A       65=A       66=A       67=A       68=A       69=A       70=A   
    71=A       72=A       73=A       74=A       75=A       76=A       77=A   
    78=A       79=A       80=A       81=A       82=A       83=A       84=A   
    85=A   
 ...... END OF INITIAL ORBITAL SELECTION ......
 CPU     0: STEP CPU TIME=     0.05 TOTAL CPU TIME=          0.4 (      0.0 MIN)
 TOTAL WALL CLOCK TIME=          0.5 SECONDS, CPU UTILIZATION IS    81.48%

                    ----------------------
                    AO INTEGRAL TECHNOLOGY
                    ----------------------
     S,P,L SHELL ROTATED AXIS INTEGRALS, REPROGRAMMED BY
        KAZUYA ISHIMURA (IMS) AND JOSE SIERRA (SYNSTAR).
     S,P,D,L SHELL ROTATED AXIS INTEGRALS PROGRAMMED BY
        KAZUYA ISHIMURA (INSTITUTE FOR MOLECULAR SCIENCE).
     S,P,D,F,G SHELL TO TOTAL QUARTET ANGULAR MOMENTUM SUM 5,
        ERIC PROGRAM BY GRAHAM FLETCHER (ELORET AND NASA ADVANCED
        SUPERCOMPUTING DIVISION, AMES RESEARCH CENTER).
     S,P,D,F,G,L SHELL GENERAL RYS QUADRATURE PROGRAMMED BY
        MICHEL DUPUIS (PACIFIC NORTHWEST NATIONAL LABORATORY).

          --------------------
          2 ELECTRON INTEGRALS
          --------------------

 DIRECT SCF METHOD SKIPS INTEGRAL STORAGE ON DISK.
 DIRECT TRANSFORMATION SKIPS AO INTEGRAL STORAGE ON DISK.
  ...... END OF TWO-ELECTRON INTEGRALS .....
 STEP CPU TIME =     0.01 TOTAL CPU TIME =          0.4 (      0.0 MIN)
 TOTAL WALL CLOCK TIME=          0.6 SECONDS, CPU UTILIZATION IS    81.82%
 DDI: Creating Array [0] - 8836 x 231 = 2041116 words.
 DDI: Creating Array [1] - 64 x 4851 = 310464 words.
 DDI: Creating Array [2] - 231 x 231 = 53361 words.
 DDI: Creating Array [3] - 4465 x 231 = 1031415 words.

          -----------------
          MCSCF CALCULATION
          -----------------

 ----- NUCLEAR ENERGY ----- =        36.3850803549

     -------------------------------------------------
     GMC-PT/GMC-QDPT or general MCSCF input parameters
     -------------------------------------------------
 # of frozen core orbs. =         5 ->         0
 # of doubly occ. orbs. =         9
 # of active      orbs. =         7
 # of virtual     orbs. =        64
 # of active electrons  =         7
 # of states in CI      =         4
 Highest state in CI    =         4
 kstate =  1 1 1 1
 avecoe =  0.250 0.250 0.250 0.250
 State symmetry           = A           
 Assigned symmetry number = 1

 <<<Act. MO sym.: 1111111

 <<<Division of 1-ext.:  0 0
 <<<Division of 2-ext.:  0 1

 *** Reference space

 Reference type: ORMAS (= Occupation restricted multiple active space)
 # of orbitals          =  7
 # of minimum electrons =  7
 # of maximum electrons =  7
 State symmetry    =    1 (input)
 2*Sz              =    1 (input)
 Spin multiplicity =    2 (input)
 Dimension of reference space =      1225  (from      3432 walks)

 Dimension of reference space =      1225  (from      1225 walks)

 <<<Ionized spaces for Ref-CI:
      0:         1225 /   -1-0:         1960 /  0-1-0:         2891

 EVALUATING EXCHANGE INTEGRALS FOR DIRECT INTEGRAL TRANSFORMATION
 SCHWARZ INEQUALITY OVERHEAD:      4465 INTEGRALS, T=        0.11

     --------------------------------------------
     PARTIAL TWO ELECTRON INTEGRAL TRANSFORMATION
     --------------------------------------------

 NUMBER OF CORE MOLECULAR ORBITALS     =   14
 NUMBER OF OCCUPIED MOLECULAR ORBITALS =   21
 TOTAL NUMBER OF MOLECULAR ORBITALS    =   85
 TOTAL NUMBER OF ATOMIC ORBITALS       =   94
 THRESHOLD FOR KEEPING TRANSFORMED 2E- INTEGRALS = 1.000E-09

 -------------------------------     ------------------------------
 DISTRIBUTED DATA TRANSFORMATION     PROGRAM WRITTEN BY G. FLETCHER
 -------------------------------     ------------------------------

 THE DISTRIBUTED MEMORY REQUIRED FOR THIS STEP IS MEMDDI=         4 MWORDS
 CREATING DISTRIBUTED STORAGE FOR [VIR OCC|VIR OCC] INTEGRALS
 CREATING DISTRIBUTED STORAGE FOR [VIR OCC|OCC OCC] INTEGRALS
 CREATING DISTRIBUTED STORAGE FOR [OCC OCC|OCC OCC] INTEGRALS
 CREATING DISTRIBUTED STORAGE FOR [VIR VIR|OCC OCC] INTEGRALS
 FOR    2 PROCESSORS, THE REPLICATED MEMORY NEEDED IS      615709 WORDS.
 SCHWARZ INEQUALITY OVERHEAD:      4465 INTEGRALS, T=        0.11

      DIRECT 4-INDEX TRANSFORMATION 
      SCHWARZ INEQUALITY TEST SKIPPED       1090 INTEGRAL BLOCKS
 ----- FROZEN CORE ENERGY =     -2283.3513097490
 ... END OF INTEGRAL TRANSFORMATION ...
 CPU     0: STEP CPU TIME=    14.30 TOTAL CPU TIME=         14.8 (      0.2 MIN)
 TOTAL WALL CLOCK TIME=         15.0 SECONDS, CPU UTILIZATION IS    98.40%

     --------------------------------     -----------------------------
     MCHF NEWTON-RAPHSON OPTIMIZATION     CODE WRITTEN BY MICHEL DUPUIS
     --------------------------------     -----------------------------
     PARALLEL VERSION WRITTEN BY G. FLETCHER (ELORET)
     NASA ADVANCED SUPERCOMPUTING DIVISION, AMES RESEARCH CENTER

 NUMBER OF INDEPENDENT ORBITAL ROTATION PARAMETERS =  1305
 ..... DONE SOLVING NEWTON-RAPHSON EQUATIONS .....
 CPU     0: STEP CPU TIME=     0.72 TOTAL CPU TIME=         15.5 (      0.3 MIN)
 TOTAL WALL CLOCK TIME=         16.4 SECONDS, CPU UTILIZATION IS    94.16%
 ..... DONE WITH NTN-RPH ORBITAL ROTATIONS ..... 
 CPU     0: STEP CPU TIME=     0.00 TOTAL CPU TIME=         15.5 (      0.3 MIN)
 TOTAL WALL CLOCK TIME=         16.4 SECONDS, CPU UTILIZATION IS    94.16%
 MAXIMUM MEMORY USED BY NTN-RPH CODE WAS    197978 WORDS.

 ITER     TOTAL ENERGY      DEL(E)  LAGRANGIAN ASYMMETRY   SQCDF  MICIT   DAMP
   1    -2260.366584039 -0.366584039  0.000999   60   15 7.250E-06  1   0.0000
   2    -2260.366586843 -0.000002803  0.000077   60   19 2.050E-06  1   0.0000
   3    -2260.366587054 -0.000000211  0.000047   60   19 8.448E-07  1   0.0000
   4    -2260.366587136 -0.000000082  0.000029   60   19 3.627E-07  1   0.0000
   5    -2260.366587170 -0.000000034  0.000018   60   19 1.556E-07  1   0.0000
   6    -2260.366587184 -0.000000014  0.000012   60   19 6.712E-08  1   0.0000
   7    -2260.366587190 -0.000000006  0.000007   60   19 2.843E-08  1   0.0000
   8    -2260.366587192 -0.000000003  0.000005   60   19 1.204E-08  1   0.0000
   9    -2260.366587194 -0.000000001  0.000003   60   19 5.084E-09  1   0.0000
  10    -2260.366587194 -0.000000000  0.000002   60   19 2.147E-09  1   0.0000
  11    -2260.366587194 -0.000000000  0.000001   60   19 9.008E-10  1   0.0000
  12    -2260.366587194 -0.000000000  0.000001   60   19 3.825E-10  1   0.0000

          --------------------
          LAGRANGIAN CONVERGED
          --------------------

 FINAL MCSCF ENERGY IS    -2260.3665871942 AFTER  12 ITERATIONS

 -MCCI- BASED ON OPTIMIZED ORBITALS
 ----------------------------------

 PLEASE NOTE: IF THE ACTIVE ORBITALS ARE CANONICALIZED BELOW,
 THE FOLLOWING CI EXPANSION COEFFICIENTS AND THE DENSITY DO NOT
 CORRESPOND TO THE PRINTED ORBITALS.  THE PRINTED EXPANSIONS MATCH
 THE ORBITALS USED DURING THE LAST ITERATION.  IF YOU WISH TO SEE
 CI EXPANSIONS BASED ON THE CANONICAL (OR NATURAL) ORBITALS, YOU
 MUST RUN A CI CALCULATION WITH THAT ORBITAL CHOICE READ IN $VEC.

 Averaged energy =   -2260.366587194

 State #    1  Energy =   -2260.541515970  S =  0.500

      Det      Coef    Occupancy (Ignoring core)
      ---      ----    --------- --------- -----
        1   -0.976462  11110001110000
      107    0.071038  11101000111000
      143   -0.063879  11011001100100
      179   -0.063367  10111001010100
      393   -0.059102  10110101010010
      717   -0.059368  11010011100001

 State #    2  Energy =   -2260.335531379  S =  0.500

      Det      Coef    Occupancy (Ignoring core)
      ---      ----    --------- --------- -----
        2   -0.953623  11101001110000
      106    0.158037  11110000111000
      110    0.056918  01111000111000
      156   -0.084238  11100011100100
      181    0.082033  11100101010100
      212   -0.063705  11101000110100
      387    0.077898  11101001010010
      396   -0.062105  10101101010010
      702   -0.080849  11101001100001
      706    0.050220  11100101100001
      720   -0.061991  11001011100001

 State #    3  Energy =   -2260.295105694  S =  0.500

      Det      Coef    Occupancy (Ignoring core)
      ---      ----    --------- --------- -----
       16   -0.117955  11100011110000
       36    0.949748  11110001101000
       39    0.105207  10111001101000
       52    0.092897  11010011101000
       73    0.105513  11011001011000
      108    0.055354  11011000111000
      142   -0.116055  11101001100100
      249    0.072968  10111001001100
      463    0.052495  10110101001010

 State #    4  Energy =   -2260.294195734  S =  0.500

      Det      Coef    Occupancy (Ignoring core)
      ---      ----    --------- --------- -----
        6   -0.116315  11100101110000
       38   -0.105830  11011001101000
       71   -0.949903  11110001011000
       74    0.105097  10111001011000
       78    0.092809  10110101011000
      109   -0.054989  10111000111000
      113   -0.050109  10110100111000
      177    0.115431  11101001010100
      248    0.073376  11011001001100
      822    0.052706  11010011001001

 DENSITY MATRIX OVER ACTIVE MO-S

             1           2           3           4           5

    1    1.9736175
    2    0.0005820   1.7193429
    3    0.0000175   0.0000120   1.7189423
    4    0.0000000  -0.0000121  -0.0000004   1.2367324
    5    0.0029634  -0.0008636  -0.0000259   0.0000000   0.2922955
    6   -0.0006568  -0.0007795  -0.0000152   0.0000247  -0.0024759
    7    0.0000112  -0.0000013   0.0004830  -0.0000004   0.0000421

             6           7

    6    0.0293277
    7    0.0000070   0.0297417

 FORMING THE "STANDARD FOCK OPERATOR" IN DIRECT AO INTEGRAL MODE...
 ONLY THE   14 CORE AND   64 VIRTUAL ORBITALS WILL BE CANONICALIZED

          ----------------------
          MCSCF NATURAL ORBITALS
          ----------------------

                      1          2          3          4          5
                 -439.2723   -58.0908   -50.8008   -50.8006   -50.8006
                     A          A          A          A          A   
    1  AS 1  S    1.000007   0.000041  -0.000000  -0.000000  -0.000000
    2  AS 1  S   -0.000007   0.999990  -0.000000  -0.000000  -0.000000
    3  AS 1  S    0.000185  -0.000316  -0.000000  -0.000000  -0.000003
    4  AS 1  S    0.000180  -0.000285  -0.000000  -0.000000  -0.000004
    5  AS 1  S   -0.000081  -0.000190  -0.000000  -0.000000   0.000000
    6  AS 1  S   -0.000023  -0.000071  -0.000000   0.000000  -0.000001
    7  AS 1  X    0.000000  -0.000001   0.000050   0.000005   1.000023
    8  AS 1  Y    0.000000   0.000000   0.000000   1.000023  -0.000005
    9  AS 1  Z   -0.000000   0.000000   1.000024  -0.000000  -0.000050
   10  AS 1  X    0.000000  -0.000001  -0.000000  -0.000000  -0.000006
   11  AS 1  Y   -0.000000   0.000000   0.000000  -0.000005   0.000000
   12  AS 1  Z   -0.000000   0.000000  -0.000004   0.000000   0.000000
   13  AS 1  X    0.000001  -0.000002  -0.000000  -0.000000  -0.000087
   14  AS 1  Y   -0.000000   0.000000   0.000000  -0.000083   0.000000
   15  AS 1  Z   -0.000000   0.000000  -0.000005   0.000000   0.000000
   16  AS 1  X    0.000000  -0.000000  -0.000000  -0.000000  -0.000470
   17  AS 1  Y   -0.000000   0.000000  -0.000000  -0.000469   0.000000
   18  AS 1  Z   -0.000000   0.000000  -0.000418   0.000000   0.000000
   19  AS 1  X    0.000000  -0.000000  -0.000000  -0.000000  -0.000084
   20  AS 1  Y   -0.000000   0.000000  -0.000000  -0.000084   0.000000
   21  AS 1  Z   -0.000000   0.000000  -0.000065   0.000000   0.000000
   22  AS 1 XX   -0.000001   0.000002  -0.000000   0.000000   0.000002
   23  AS 1 YY   -0.000001   0.000002  -0.000000  -0.000000  -0.000002
   24  AS 1 ZZ    0.000002  -0.000004  -0.000000  -0.000000  -0.000000
   25  AS 1 XY   -0.000000   0.000000  -0.000000  -0.000002  -0.000000
   26  AS 1 XZ    0.000000  -0.000000   0.000000  -0.000000  -0.000000
   27  AS 1 YZ   -0.000000   0.000000  -0.000000   0.000000  -0.000000
   28  AS 1 XX    0.000009  -0.000022  -0.000000  -0.000000  -0.000054
   29  AS 1 YY    0.000008  -0.000021  -0.000000   0.000000   0.000053
   30  AS 1 ZZ   -0.000017   0.000043   0.000000   0.000000   0.000001
   31  AS 1 XY    0.000000   0.000000  -0.000000   0.000060  -0.000000
   32  AS 1 XZ   -0.000000   0.000000  -0.000000  -0.000000   0.000000
   33  AS 1 YZ   -0.000000   0.000000  -0.000000  -0.000000   0.000000
   34  AS 1 XX    0.000010  -0.000025  -0.000000  -0.000000  -0.000016
   35  AS 1 YY    0.000010  -0.000024  -0.000000   0.000000   0.000015
   36  AS 1 ZZ   -0.000020   0.000049   0.000000   0.000000   0.000001
   37  AS 1 XY   -0.000000   0.000000  -0.000000   0.000017  -0.000000
   38  AS 1 XZ   -0.000000   0.000000  -0.000000  -0.000000   0.000000
   39  AS 1 YZ    0.000000   0.000000  -0.000000  -0.000000  -0.000000
   40  AS 1 XXX   0.000020  -0.000051  -0.000000  -0.000000  -0.000013
   41  AS 1 YYY   0.000000   0.000000  -0.000000  -0.000012   0.000000
   42  AS 1 ZZZ   0.000000  -0.000000  -0.000000  -0.000000  -0.000000
   43  AS 1 XXY  -0.000000   0.000000  -0.000000  -0.000006   0.000000
   44  AS 1 XXZ  -0.000000   0.000000   0.000000   0.000000   0.000000
   45  AS 1 YYX  -0.000027   0.000068   0.000000  -0.000000  -0.000005
   46  AS 1 YYZ   0.000000  -0.000000   0.000000  -0.000000   0.000000
   47  AS 1 ZZX  -0.000000   0.000000  -0.000000   0.000000   0.000022
   48  AS 1 ZZY  -0.000000   0.000000  -0.000000   0.000022  -0.000000
   49  AS 1 XYZ   0.000000  -0.000000  -0.000000   0.000000  -0.000000
   50  H  2  S    0.000003  -0.000002  -0.000000  -0.000012   0.000007
   51  H  2  S   -0.000046   0.000112   0.000000   0.000055  -0.000032
   52  H  2  S    0.000001   0.000023   0.000000   0.000038  -0.000022
   53  H  2  X   -0.000000   0.000002   0.000000   0.000007  -0.000004
   54  H  2  Y    0.000001  -0.000004  -0.000000  -0.000012   0.000007
   55  H  2  Z    0.000000  -0.000000   0.000001  -0.000000   0.000000
   56  H  2  X   -0.000013   0.000034  -0.000000   0.000028  -0.000018
   57  H  2  Y    0.000023  -0.000059  -0.000000  -0.000050   0.000028
   58  H  2  Z    0.000000  -0.000000  -0.000004  -0.000000   0.000000
   59  H  2 XX    0.000001  -0.000003   0.000000  -0.000002   0.000004
   60  H  2 YY   -0.000003   0.000011  -0.000000   0.000020  -0.000015
   61  H  2 ZZ    0.000002  -0.000008  -0.000000  -0.000018   0.000010
   62  H  2 XY    0.000004  -0.000014  -0.000000  -0.000026   0.000013
   63  H  2 XZ    0.000000  -0.000000   0.000003  -0.000000   0.000000
   64  H  2 YZ   -0.000000   0.000000  -0.000005   0.000000  -0.000000
   65  H  3  S    0.000003  -0.000002  -0.000000   0.000012   0.000007
   66  H  3  S   -0.000046   0.000112   0.000000  -0.000055  -0.000032
   67  H  3  S    0.000001   0.000023   0.000000  -0.000038  -0.000022
   68  H  3  X   -0.000000   0.000002   0.000000  -0.000007  -0.000004
   69  H  3  Y   -0.000001   0.000004  -0.000000  -0.000012  -0.000007
   70  H  3  Z    0.000000  -0.000000   0.000001   0.000000   0.000000
   71  H  3  X   -0.000013   0.000034  -0.000000  -0.000028  -0.000018
   72  H  3  Y   -0.000023   0.000059   0.000000  -0.000050  -0.000028
   73  H  3  Z    0.000000  -0.000000  -0.000004   0.000000   0.000000
   74  H  3 XX    0.000001  -0.000003   0.000000   0.000002   0.000004
   75  H  3 YY   -0.000003   0.000011  -0.000000  -0.000020  -0.000015
   76  H  3 ZZ    0.000002  -0.000008  -0.000000   0.000018   0.000010
   77  H  3 XY   -0.000004   0.000014   0.000000  -0.000026  -0.000013
   78  H  3 XZ    0.000000  -0.000000   0.000003   0.000000   0.000000
   79  H  3 YZ    0.000000  -0.000000   0.000005   0.000000   0.000000
   80  H  4  S    0.000003  -0.000002  -0.000000  -0.000000  -0.000013
   81  H  4  S   -0.000047   0.000116  -0.000000   0.000000   0.000069
   82  H  4  S    0.000001   0.000024  -0.000000   0.000000   0.000045
   83  H  4  X    0.000001  -0.000005   0.000000  -0.000000  -0.000016
   84  H  4  Y   -0.000000   0.000000  -0.000000  -0.000000  -0.000000
   85  H  4  Z   -0.000000   0.000000   0.000001  -0.000000   0.000000
   86  H  4  X    0.000027  -0.000069  -0.000000  -0.000000  -0.000069
   87  H  4  Y    0.000000   0.000000  -0.000000  -0.000002   0.000000
   88  H  4  Z   -0.000000   0.000000  -0.000004  -0.000000   0.000000
   89  H  4 XX   -0.000005   0.000018  -0.000000   0.000000   0.000039
   90  H  4 YY    0.000003  -0.000011  -0.000000  -0.000000  -0.000019
   91  H  4 ZZ    0.000002  -0.000008   0.000000  -0.000000  -0.000021
   92  H  4 XY   -0.000000   0.000000   0.000000  -0.000004   0.000000
   93  H  4 XZ    0.000000  -0.000000  -0.000006  -0.000000  -0.000000
   94  H  4 YZ   -0.000000   0.000000  -0.000000   0.000000  -0.000000

                      6          7          8          9         10
                   -8.5921    -6.2545    -6.2545    -6.2511    -2.3907
                     A          A          A          A          A   
    1  AS 1  S   -0.000068  -0.000002  -0.000000   0.000000   0.000002
    2  AS 1  S   -0.000319  -0.000012  -0.000000  -0.000000   0.000011
    3  AS 1  S    0.980078  -0.000080  -0.000000   0.000000   0.000027
    4  AS 1  S   -0.000986  -0.000046  -0.000000   0.000000  -0.000030
    5  AS 1  S    0.029990   0.000020   0.000000   0.000000  -0.000070
    6  AS 1  S    0.003078   0.000011   0.000000   0.000000  -0.000042
    7  AS 1  X   -0.000001  -0.000097  -0.000000   0.000000   0.000158
    8  AS 1  Y   -0.000000   0.000000  -0.000098   0.000000   0.000000
    9  AS 1  Z    0.000000   0.000000   0.000000   0.000038  -0.000000
   10  AS 1  X    0.000028   0.975579   0.000015   0.000049   0.000366
   11  AS 1  Y   -0.000000  -0.000015   0.975576   0.000000   0.000000
   12  AS 1  Z   -0.000000  -0.000049  -0.000000   0.976861  -0.000000
   13  AS 1  X   -0.000007  -0.001000  -0.000000   0.000000   0.003347
   14  AS 1  Y   -0.000000   0.000000  -0.001005   0.000000   0.000000
   15  AS 1  Z    0.000000   0.000000   0.000000   0.000471  -0.000000
   16  AS 1  X    0.000007   0.045884   0.000001   0.000002  -0.001780
   17  AS 1  Y   -0.000000  -0.000001   0.045899   0.000000  -0.000000
   18  AS 1  Z   -0.000000  -0.000002  -0.000000   0.044775   0.000000
   19  AS 1  X    0.000003   0.001937   0.000000   0.000000  -0.002400
   20  AS 1  Y    0.000000  -0.000000   0.001939   0.000000  -0.000000
   21  AS 1  Z   -0.000000  -0.000000  -0.000000   0.001551   0.000000
   22  AS 1 XX    0.000311   0.000635   0.000000   0.000000   0.838002
   23  AS 1 YY    0.000303  -0.000619  -0.000000   0.000000  -0.834461
   24  AS 1 ZZ   -0.000614  -0.000015  -0.000000  -0.000000  -0.003541
   25  AS 1 XY   -0.000000   0.000000  -0.000690   0.000000  -0.000002
   26  AS 1 XZ   -0.000000  -0.000000   0.000000   0.000012  -0.000049
   27  AS 1 YZ   -0.000000   0.000000   0.000000  -0.000000   0.000000
   28  AS 1 XX    0.000051  -0.000362  -0.000000   0.000000   0.074858
   29  AS 1 YY    0.000053   0.000357   0.000000   0.000000  -0.074539
   30  AS 1 ZZ   -0.000105   0.000005   0.000000  -0.000000  -0.000318
   31  AS 1 XY   -0.000000  -0.000000   0.000421   0.000000  -0.000000
   32  AS 1 XZ   -0.000000   0.000000  -0.000000   0.000007  -0.000004
   33  AS 1 YZ   -0.000000  -0.000000  -0.000000  -0.000000   0.000000
   34  AS 1 XX   -0.000001  -0.000212  -0.000000  -0.000000   0.000559
   35  AS 1 YY   -0.000001   0.000210   0.000000   0.000000  -0.000541
   36  AS 1 ZZ    0.000002   0.000002  -0.000000   0.000000  -0.000018
   37  AS 1 XY    0.000000  -0.000000   0.000242   0.000000  -0.000000
   38  AS 1 XZ    0.000000   0.000000   0.000000  -0.000003  -0.000000
   39  AS 1 YZ    0.000000  -0.000000  -0.000000   0.000000   0.000000
   40  AS 1 XXX   0.000070   0.000045   0.000000   0.000000   0.000349
   41  AS 1 YYY  -0.000000  -0.000000   0.000044   0.000000   0.000000
   42  AS 1 ZZZ  -0.000000   0.000000   0.000000  -0.000215   0.000000
   43  AS 1 XXY  -0.000000  -0.000000   0.000024   0.000000   0.000000
   44  AS 1 XXZ  -0.000000  -0.000000   0.000000   0.000146  -0.000000
   45  AS 1 YYX  -0.000095   0.000024   0.000000   0.000000   0.000117
   46  AS 1 YYZ   0.000000  -0.000000  -0.000000   0.000143  -0.000000
   47  AS 1 ZZX   0.000000  -0.000085  -0.000000  -0.000000  -0.000585
   48  AS 1 ZZY   0.000000   0.000000  -0.000083  -0.000000  -0.000000
   49  AS 1 XYZ  -0.000000  -0.000000  -0.000000  -0.000000  -0.000000
   50  H  2  S    0.000026  -0.000209   0.000362   0.000000  -0.002830
   51  H  2  S    0.000223  -0.000981   0.001717   0.000000  -0.001974
   52  H  2  S   -0.000494   0.000316  -0.000549  -0.000000  -0.000826
   53  H  2  X    0.000003   0.000007   0.000030   0.000000  -0.000771
   54  H  2  Y   -0.000006   0.000030  -0.000027   0.000000   0.000523
   55  H  2  Z   -0.000000  -0.000000  -0.000000   0.000012   0.000000
   56  H  2  X   -0.000009  -0.000053   0.000279   0.000000  -0.000962
   57  H  2  Y    0.000015   0.000273  -0.000376   0.000000  -0.000231
   58  H  2  Z    0.000000   0.000000  -0.000000   0.000116   0.000000
   59  H  2 XX   -0.000005   0.000003  -0.000051  -0.000000  -0.000157
   60  H  2 YY    0.000031  -0.000054   0.000139   0.000000  -0.000117
   61  H  2 ZZ   -0.000026   0.000050  -0.000088   0.000000   0.000274
   62  H  2 XY   -0.000035   0.000110  -0.000161   0.000000   0.000611
   63  H  2 XZ   -0.000000   0.000000  -0.000000  -0.000015   0.000000
   64  H  2 YZ    0.000000  -0.000000   0.000000   0.000025  -0.000000
   65  H  3  S    0.000026  -0.000209  -0.000362   0.000000  -0.002830
   66  H  3  S    0.000223  -0.000981  -0.001717  -0.000000  -0.001974
   67  H  3  S   -0.000494   0.000316   0.000549  -0.000000  -0.000826
   68  H  3  X    0.000003   0.000007  -0.000030   0.000000  -0.000771
   69  H  3  Y    0.000006  -0.000030  -0.000027  -0.000000  -0.000523
   70  H  3  Z   -0.000000  -0.000000   0.000000   0.000012   0.000000
   71  H  3  X   -0.000009  -0.000053  -0.000279   0.000000  -0.000962
   72  H  3  Y   -0.000015  -0.000273  -0.000376  -0.000000   0.000231
   73  H  3  Z    0.000000   0.000000   0.000000   0.000116   0.000000
   74  H  3 XX   -0.000005   0.000003   0.000051  -0.000000  -0.000157
   75  H  3 YY    0.000031  -0.000054  -0.000139   0.000000  -0.000117
   76  H  3 ZZ   -0.000026   0.000050   0.000088   0.000000   0.000274
   77  H  3 XY    0.000035  -0.000110  -0.000161  -0.000000  -0.000611
   78  H  3 XZ   -0.000000   0.000000   0.000000  -0.000015   0.000000
   79  H  3 YZ   -0.000000   0.000000   0.000000  -0.000025   0.000000
   80  H  4  S    0.000027   0.000428   0.000000   0.000000   0.005802
   81  H  4  S    0.000229   0.002009   0.000000   0.000000   0.003896
   82  H  4  S   -0.000500  -0.000641  -0.000000  -0.000000   0.001658
   83  H  4  X   -0.000011  -0.000061  -0.000000   0.000000  -0.001743
   84  H  4  Y   -0.000000  -0.000000   0.000024   0.000000  -0.000000
   85  H  4  Z    0.000000   0.000000   0.000000   0.000012   0.000000
   86  H  4  X    0.000017  -0.000539  -0.000000   0.000000  -0.000537
   87  H  4  Y   -0.000000  -0.000000   0.000105  -0.000000  -0.000000
   88  H  4  Z   -0.000000   0.000000   0.000000   0.000117   0.000000
   89  H  4 XX    0.000053   0.000263   0.000000   0.000000   0.001207
   90  H  4 YY   -0.000025  -0.000153  -0.000000   0.000000  -0.000639
   91  H  4 ZZ   -0.000028  -0.000110  -0.000000  -0.000000  -0.000568
   92  H  4 XY   -0.000000  -0.000000   0.000030   0.000000   0.000000
   93  H  4 XZ   -0.000000  -0.000000  -0.000000   0.000028  -0.000000
   94  H  4 YZ   -0.000000  -0.000000  -0.000000   0.000000  -0.000000

                     11         12         13         14         15
                   -2.3906    -2.3863    -2.3854    -2.3854     1.9736
                     A          A          A          A          A   
    1  AS 1  S   -0.000000  -0.000051   0.000000  -0.000000   0.000423
    2  AS 1  S   -0.000000  -0.000339   0.000000  -0.000000   0.002498
    3  AS 1  S   -0.000000  -0.000412   0.000000  -0.000000   0.003944
    4  AS 1  S   -0.000000  -0.000681   0.000000   0.000000   0.554342
    5  AS 1  S    0.000000   0.000757   0.000000   0.000000   0.267582
    6  AS 1  S    0.000000   0.003848   0.000000   0.000000   0.127626
    7  AS 1  X    0.000000  -0.000001   0.000000  -0.000000  -0.000035
    8  AS 1  Y   -0.000163   0.000000  -0.000000   0.000000   0.000000
    9  AS 1  Z   -0.000000   0.000000   0.000000  -0.000003   0.000000
   10  AS 1  X    0.000000   0.000010   0.000000  -0.000000  -0.000453
   11  AS 1  Y   -0.000459   0.000000   0.000000   0.000000  -0.000000
   12  AS 1  Z   -0.000000  -0.000000   0.000000  -0.000040   0.000000
   13  AS 1  X    0.000000  -0.000023   0.000000   0.000000   0.000546
   14  AS 1  Y   -0.003372  -0.000000   0.000000   0.000000   0.000000
   15  AS 1  Z    0.000000   0.000000  -0.000000   0.000000  -0.000000
   16  AS 1  X   -0.000000  -0.000003  -0.000000   0.000000   0.000551
   17  AS 1  Y    0.001831  -0.000000   0.000000  -0.000000   0.000000
   18  AS 1  Z    0.000000   0.000000  -0.000000   0.000042  -0.000000
   19  AS 1  X   -0.000000  -0.000010   0.000000   0.000000  -0.000023
   20  AS 1  Y    0.002405  -0.000000  -0.000000   0.000000  -0.000000
   21  AS 1  Z    0.000000   0.000000  -0.000000   0.000010   0.000000
   22  AS 1 XX    0.000002  -0.480464  -0.000000   0.000084  -0.013452
   23  AS 1 YY   -0.000002  -0.486638   0.000000  -0.000000  -0.013013
   24  AS 1 ZZ    0.000000   0.967101   0.000000  -0.000084   0.026465
   25  AS 1 XY    0.965620  -0.000000   0.000049   0.000000   0.000000
   26  AS 1 XZ   -0.000000   0.000084  -0.000120   0.967342   0.000002
   27  AS 1 YZ   -0.000049  -0.000000   0.967350   0.000120  -0.000000
   28  AS 1 XX    0.000000  -0.041665  -0.000000   0.000007   0.008522
   29  AS 1 YY   -0.000000  -0.042191   0.000000  -0.000000   0.008215
   30  AS 1 ZZ    0.000000   0.083857   0.000000  -0.000007  -0.016737
   31  AS 1 XY    0.086261  -0.000000   0.000004   0.000000  -0.000000
   32  AS 1 XZ   -0.000000   0.000007  -0.000010   0.084099  -0.000001
   33  AS 1 YZ   -0.000004  -0.000000   0.084086   0.000010  -0.000000
   34  AS 1 XX    0.000000  -0.000844   0.000000   0.000000   0.004264
   35  AS 1 YY   -0.000000  -0.000808  -0.000000  -0.000000   0.004253
   36  AS 1 ZZ    0.000000   0.001652  -0.000000  -0.000000  -0.008516
   37  AS 1 XY    0.000615   0.000000   0.000000  -0.000000   0.000000
   38  AS 1 XZ   -0.000000   0.000000  -0.000000   0.001515  -0.000001
   39  AS 1 YZ   -0.000000  -0.000000   0.001515   0.000000  -0.000000
   40  AS 1 XXX   0.000000  -0.000768   0.000000   0.000000   0.013407
   41  AS 1 YYY  -0.000340   0.000000   0.000000  -0.000000   0.000000
   42  AS 1 ZZZ  -0.000000  -0.000000   0.000000  -0.000009   0.000000
   43  AS 1 XXY  -0.000120  -0.000000  -0.000000   0.000000  -0.000000
   44  AS 1 XXZ  -0.000000   0.000000  -0.000000   0.000242  -0.000001
   45  AS 1 YYX   0.000000   0.001012  -0.000000  -0.000000  -0.017923
   46  AS 1 YYZ   0.000000  -0.000000   0.000000  -0.000231   0.000001
   47  AS 1 ZZX  -0.000000   0.000018  -0.000000  -0.000000  -0.000064
   48  AS 1 ZZY   0.000575   0.000000   0.000000  -0.000000  -0.000000
   49  AS 1 XYZ   0.000000  -0.000000  -0.000249  -0.000000   0.000000
   50  H  2  S   -0.004903  -0.002769   0.000000   0.000000   0.072379
   51  H  2  S   -0.003384  -0.001379   0.000000   0.000000   0.103347
   52  H  2  S   -0.001443  -0.000355   0.000000  -0.000000   0.008765
   53  H  2  X   -0.000523  -0.000466   0.000000  -0.000000   0.003428
   54  H  2  Y    0.001376   0.000805   0.000000  -0.000000  -0.005933
   55  H  2  Z    0.000000   0.000000   0.000407  -0.000235  -0.000000
   56  H  2  X    0.000245  -0.000130   0.000000  -0.000000   0.006059
   57  H  2  Y    0.000690   0.000215  -0.000000  -0.000000  -0.010456
   58  H  2  Z   -0.000000   0.000000   0.001049  -0.000602  -0.000000
   59  H  2 XX    0.000293  -0.000005   0.000000  -0.000000   0.000032
   60  H  2 YY   -0.000771  -0.000445  -0.000000  -0.000000   0.001464
   61  H  2 ZZ    0.000478   0.000450  -0.000000   0.000000  -0.001496
   62  H  2 XY    0.000683   0.000442  -0.000000   0.000000  -0.001447
   63  H  2 XZ    0.000000   0.000000   0.000261  -0.000040  -0.000000
   64  H  2 YZ   -0.000000  -0.000000  -0.000342   0.000260   0.000000
   65  H  3  S    0.004903  -0.002769   0.000000   0.000000   0.072379
   66  H  3  S    0.003383  -0.001379   0.000000   0.000000   0.103347
   67  H  3  S    0.001443  -0.000355  -0.000000   0.000000   0.008765
   68  H  3  X    0.000523  -0.000466  -0.000000  -0.000000   0.003428
   69  H  3  Y    0.001376  -0.000805  -0.000000  -0.000000   0.005933
   70  H  3  Z   -0.000000   0.000000  -0.000407  -0.000235  -0.000000
   71  H  3  X   -0.000245  -0.000130  -0.000000  -0.000000   0.006059
   72  H  3  Y    0.000690  -0.000215  -0.000000   0.000000   0.010456
   73  H  3  Z    0.000000   0.000000  -0.001049  -0.000602  -0.000000
   74  H  3 XX   -0.000293  -0.000005  -0.000000  -0.000000   0.000032
   75  H  3 YY    0.000771  -0.000445  -0.000000  -0.000000   0.001464
   76  H  3 ZZ   -0.000478   0.000450   0.000000   0.000000  -0.001496
   77  H  3 XY    0.000683  -0.000442  -0.000000  -0.000000   0.001447
   78  H  3 XZ   -0.000000   0.000000  -0.000261  -0.000040  -0.000000
   79  H  3 YZ   -0.000000   0.000000  -0.000342  -0.000260  -0.000000
   80  H  4  S    0.000000  -0.002817   0.000000  -0.000000   0.073500
   81  H  4  S    0.000000  -0.001316   0.000000  -0.000000   0.104434
   82  H  4  S    0.000000  -0.000339  -0.000000  -0.000000   0.008750
   83  H  4  X   -0.000000   0.000957  -0.000000   0.000000  -0.006980
   84  H  4  Y    0.000486   0.000000  -0.000000   0.000000   0.000000
   85  H  4  Z   -0.000000  -0.000000  -0.000000   0.000490   0.000000
   86  H  4  X   -0.000000   0.000223   0.000000   0.000000  -0.012204
   87  H  4  Y    0.001105  -0.000000   0.000000   0.000000   0.000000
   88  H  4  Z   -0.000000  -0.000000  -0.000000   0.001215   0.000001
   89  H  4 XX    0.000000  -0.000676  -0.000000  -0.000000   0.002238
   90  H  4 YY   -0.000000   0.000219   0.000000  -0.000000  -0.000713
   91  H  4 ZZ   -0.000000   0.000457   0.000000   0.000000  -0.001525
   92  H  4 XY   -0.000390  -0.000000   0.000000  -0.000000  -0.000000
   93  H  4 XZ    0.000000   0.000000   0.000000  -0.000511  -0.000000
   94  H  4 YZ    0.000000   0.000000   0.000112   0.000000  -0.000000

                     16         17         18         19         20
                    1.7193     1.7189     1.2367     0.2923     0.0297
                     A          A          A          A          A   
    1  AS 1  S   -0.000015   0.000000   0.000000   0.001429   0.000000
    2  AS 1  S   -0.000104  -0.000000   0.000000   0.010682   0.000000
    3  AS 1  S   -0.000421  -0.000000   0.000000   0.067531   0.000000
    4  AS 1  S   -0.001732  -0.000000   0.000000   0.493008   0.000000
    5  AS 1  S   -0.000650  -0.000000   0.000000   0.282125   0.000000
    6  AS 1  S   -0.001605  -0.000000   0.000000   0.620028   0.000000
    7  AS 1  X   -0.004015  -0.000000  -0.000000  -0.000013   0.000000
    8  AS 1  Y    0.000000  -0.003958  -0.000000   0.000000   0.013523
    9  AS 1  Z    0.000000   0.000000  -0.000279   0.000000  -0.000000
   10  AS 1  X   -0.053532  -0.000000  -0.000000  -0.000307   0.000000
   11  AS 1  Y    0.000000  -0.052849  -0.000000  -0.000000   0.184853
   12  AS 1  Z    0.000003   0.000000  -0.001552   0.000000  -0.000000
   13  AS 1  X    0.361787   0.000001   0.000031  -0.006907   0.000001
   14  AS 1  Y   -0.000001   0.362320   0.000000  -0.000000   0.969201
   15  AS 1  Z   -0.000018  -0.000000   0.609953   0.000000  -0.000000
   16  AS 1  X    0.170811   0.000000   0.000012  -0.002674   0.000000
   17  AS 1  Y   -0.000000   0.170467   0.000000  -0.000000   0.274806
   18  AS 1  Z   -0.000009  -0.000000   0.231760   0.000000  -0.000000
   19  AS 1  X    0.065184   0.000000   0.000015  -0.004559   0.000000
   20  AS 1  Y   -0.000000   0.065830   0.000000  -0.000000   0.205552
   21  AS 1  Z   -0.000003  -0.000000   0.294113   0.000000  -0.000000
   22  AS 1 XX   -0.054661  -0.000000  -0.000000   0.056365   0.000000
   23  AS 1 YY    0.054438   0.000000   0.000000   0.057730  -0.000000
   24  AS 1 ZZ    0.000223   0.000000   0.000000  -0.114095  -0.000000
   25  AS 1 XY   -0.000000   0.062451  -0.000000  -0.000000  -0.120291
   26  AS 1 XZ    0.000003  -0.000000  -0.000079  -0.000010   0.000000
   27  AS 1 YZ   -0.000000  -0.000003  -0.000000  -0.000000   0.000006
   28  AS 1 XX    0.027733   0.000000   0.000000  -0.045095  -0.000000
   29  AS 1 YY   -0.027621  -0.000000  -0.000000  -0.045960   0.000000
   30  AS 1 ZZ   -0.000112  -0.000000  -0.000000   0.091055  -0.000000
   31  AS 1 XY    0.000000  -0.031702  -0.000000   0.000000   0.067974
   32  AS 1 XZ   -0.000002   0.000000   0.000011   0.000008  -0.000000
   33  AS 1 YZ    0.000000   0.000002   0.000000   0.000000  -0.000003
   34  AS 1 XX    0.020743   0.000000  -0.000000  -0.085337   0.000000
   35  AS 1 YY   -0.020691  -0.000000  -0.000000  -0.087789  -0.000000
   36  AS 1 ZZ   -0.000051   0.000000   0.000000   0.173126  -0.000000
   37  AS 1 XY    0.000000  -0.023884  -0.000000  -0.000000  -0.046238
   38  AS 1 XZ   -0.000001   0.000000  -0.000084   0.000015  -0.000000
   39  AS 1 YZ   -0.000000   0.000001  -0.000000   0.000000   0.000002
   40  AS 1 XXX   0.007824   0.000000   0.000001  -0.043114   0.000000
   41  AS 1 YYY  -0.000000   0.007725   0.000000  -0.000000  -0.006028
   42  AS 1 ZZZ   0.000002   0.000000  -0.014735   0.000000   0.000000
   43  AS 1 XXY  -0.000000   0.003415   0.000000   0.000000  -0.002899
   44  AS 1 XXZ  -0.000002  -0.000000   0.009882   0.000003   0.000000
   45  AS 1 YYX   0.003342   0.000000   0.000000   0.058063  -0.000000
   46  AS 1 YYZ  -0.000000  -0.000000   0.009887  -0.000003  -0.000000
   47  AS 1 ZZX  -0.013840  -0.000000  -0.000002  -0.000219   0.000000
   48  AS 1 ZZY   0.000000  -0.013779  -0.000000  -0.000000   0.010987
   49  AS 1 XYZ  -0.000000  -0.000001  -0.000000  -0.000000   0.000001
   50  H  2  S   -0.081211   0.140362  -0.000000  -0.141570  -0.229540
   51  H  2  S   -0.142719   0.246664  -0.000000  -0.330611  -0.657007
   52  H  2  S   -0.040679   0.070753  -0.000000  -0.301204  -0.062971
   53  H  2  X   -0.001389   0.005743   0.000000   0.000552  -0.001317
   54  H  2  Y    0.005766  -0.008004   0.000000  -0.001099   0.009206
   55  H  2  Z    0.000000  -0.000000   0.004487  -0.000000   0.000000
   56  H  2  X   -0.002535   0.014147   0.000001  -0.000635  -0.040278
   57  H  2  Y    0.014217  -0.018784   0.000000   0.000549   0.106257
   58  H  2  Z    0.000000  -0.000001   0.023380   0.000000   0.000002
   59  H  2 XX    0.001445   0.000219   0.000000  -0.000481   0.002681
   60  H  2 YY   -0.002536   0.001668  -0.000000  -0.000005  -0.009184
   61  H  2 ZZ    0.001091  -0.001887  -0.000000   0.000486   0.006503
   62  H  2 XY    0.000841  -0.003248  -0.000000  -0.000399   0.005891
   63  H  2 XZ   -0.000000  -0.000000   0.001332   0.000000   0.000000
   64  H  2 YZ   -0.000000   0.000000  -0.002309   0.000000  -0.000000
   65  H  3  S   -0.081210  -0.140362  -0.000000  -0.141570   0.229540
   66  H  3  S   -0.142718  -0.246664  -0.000000  -0.330611   0.657008
   67  H  3  S   -0.040679  -0.070753  -0.000000  -0.301204   0.062972
   68  H  3  X   -0.001389  -0.005743   0.000000   0.000552   0.001317
   69  H  3  Y   -0.005766  -0.008004   0.000000   0.001099   0.009206
   70  H  3  Z    0.000000   0.000000   0.004487  -0.000000  -0.000000
   71  H  3  X   -0.002535  -0.014147   0.000001  -0.000635   0.040278
   72  H  3  Y   -0.014217  -0.018785   0.000000  -0.000549   0.106257
   73  H  3  Z    0.000000   0.000001   0.023380   0.000000  -0.000002
   74  H  3 XX    0.001445  -0.000219   0.000000  -0.000481  -0.002681
   75  H  3 YY   -0.002536  -0.001668   0.000000  -0.000005   0.009184
   76  H  3 ZZ    0.001091   0.001887  -0.000000   0.000486  -0.006503
   77  H  3 XY   -0.000841  -0.003248   0.000000   0.000399   0.005891
   78  H  3 XZ   -0.000000   0.000000   0.001332   0.000000  -0.000000
   79  H  3 YZ    0.000000   0.000000   0.002309  -0.000000  -0.000000
   80  H  4  S    0.162677   0.000000  -0.000000  -0.139173  -0.000000
   81  H  4  S    0.284591   0.000001  -0.000000  -0.323663  -0.000001
   82  H  4  S    0.081351   0.000000   0.000000  -0.293903  -0.000000
   83  H  4  X   -0.011412  -0.000000   0.000000  -0.001148   0.000000
   84  H  4  Y   -0.000000   0.001990   0.000000  -0.000000   0.007121
   85  H  4  Z    0.000001  -0.000000   0.004560   0.000000   0.000000
   86  H  4  X   -0.026845  -0.000000   0.000001   0.000519   0.000000
   87  H  4  Y   -0.000000   0.005753   0.000000  -0.000000   0.037331
   88  H  4  Z    0.000001  -0.000000   0.023473  -0.000000  -0.000000
   89  H  4 XX    0.004315   0.000000  -0.000000   0.000112  -0.000000
   90  H  4 YY   -0.002145  -0.000000  -0.000000  -0.000639   0.000000
   91  H  4 ZZ   -0.002170  -0.000000   0.000000   0.000527   0.000000
   92  H  4 XY    0.000000  -0.001846  -0.000000   0.000000  -0.006040
   93  H  4 XZ   -0.000000   0.000000  -0.002678   0.000000   0.000000
   94  H  4 YZ   -0.000000   0.000000   0.000000   0.000000   0.000000

                     21
                    0.0293
                     A   
    1  AS 1  S    0.000151
    2  AS 1  S    0.001049
    3  AS 1  S    0.004679
    4  AS 1  S    0.011830
    5  AS 1  S    0.005527
    6  AS 1  S   -0.000185
    7  AS 1  X    0.013783
    8  AS 1  Y   -0.000000
    9  AS 1  Z   -0.000001
   10  AS 1  X    0.188136
   11  AS 1  Y   -0.000000
   12  AS 1  Z   -0.000009
   13  AS 1  X    0.975749
   14  AS 1  Y   -0.000001
   15  AS 1  Z   -0.000049
   16  AS 1  X    0.275562
   17  AS 1  Y   -0.000000
   18  AS 1  Z   -0.000014
   19  AS 1  X    0.204566
   20  AS 1  Y   -0.000000
   21  AS 1  Z   -0.000010
   22  AS 1 XX    0.105960
   23  AS 1 YY   -0.104009
   24  AS 1 ZZ   -0.001951
   25  AS 1 XY    0.000000
   26  AS 1 XZ   -0.000006
   27  AS 1 YZ    0.000000
   28  AS 1 XX   -0.059349
   29  AS 1 YY    0.058116
   30  AS 1 ZZ    0.001232
   31  AS 1 XY   -0.000000
   32  AS 1 XZ    0.000004
   33  AS 1 YZ   -0.000000
   34  AS 1 XX    0.041068
   35  AS 1 YY   -0.041683
   36  AS 1 ZZ    0.000615
   37  AS 1 XY    0.000000
   38  AS 1 XZ   -0.000002
   39  AS 1 YZ   -0.000000
   40  AS 1 XXX  -0.006750
   41  AS 1 YYY  -0.000000
   42  AS 1 ZZZ  -0.000001
   43  AS 1 XXY   0.000000
   44  AS 1 XXZ   0.000002
   45  AS 1 YYX  -0.001584
   46  AS 1 YYZ   0.000000
   47  AS 1 ZZX   0.010640
   48  AS 1 ZZY   0.000000
   49  AS 1 XYZ  -0.000000
   50  H  2  S    0.130013
   51  H  2  S    0.374977
   52  H  2  S    0.036833
   53  H  2  X    0.007724
   54  H  2  Y   -0.001192
   55  H  2  Z   -0.000000
   56  H  2  X    0.060344
   57  H  2  Y   -0.039863
   58  H  2  Z   -0.000003
   59  H  2 XX    0.003635
   60  H  2 YY    0.000052
   61  H  2 ZZ   -0.003687
   62  H  2 XY   -0.006907
   63  H  2 XZ   -0.000000
   64  H  2 YZ    0.000000
   65  H  3  S    0.130012
   66  H  3  S    0.374976
   67  H  3  S    0.036832
   68  H  3  X    0.007724
   69  H  3  Y    0.001192
   70  H  3  Z   -0.000000
   71  H  3  X    0.060344
   72  H  3  Y    0.039863
   73  H  3  Z   -0.000003
   74  H  3 XX    0.003635
   75  H  3 YY    0.000052
   76  H  3 ZZ   -0.003687
   77  H  3 XY    0.006907
   78  H  3 XZ   -0.000000
   79  H  3 YZ   -0.000000
   80  H  4  S   -0.269951
   81  H  4  S   -0.770374
   82  H  4  S   -0.069106
   83  H  4  X    0.010612
   84  H  4  Y   -0.000000
   85  H  4  Z   -0.000001
   86  H  4  X    0.132662
   87  H  4  Y   -0.000000
   88  H  4  Z   -0.000007
   89  H  4 XX   -0.012681
   90  H  4 YY    0.004934
   91  H  4 ZZ    0.007747
   92  H  4 XY    0.000000
   93  H  4 XZ    0.000001
   94  H  4 YZ   -0.000000

          ------------------------
          MCSCF OPTIMIZED ORBITALS
          ------------------------

                      1          2          3          4          5
                 -439.2723   -58.0908   -50.8008   -50.8006   -50.8006
                     A          A          A          A          A   
    1  AS 1  S    1.000007   0.000041  -0.000000  -0.000000  -0.000000
    2  AS 1  S   -0.000007   0.999990  -0.000000  -0.000000  -0.000000
    3  AS 1  S    0.000185  -0.000316  -0.000000  -0.000000  -0.000003
    4  AS 1  S    0.000180  -0.000285  -0.000000  -0.000000  -0.000004
    5  AS 1  S   -0.000081  -0.000190  -0.000000  -0.000000   0.000000
    6  AS 1  S   -0.000023  -0.000071  -0.000000   0.000000  -0.000001
    7  AS 1  X    0.000000  -0.000001   0.000050   0.000005   1.000023
    8  AS 1  Y    0.000000   0.000000   0.000000   1.000023  -0.000005
    9  AS 1  Z   -0.000000   0.000000   1.000024  -0.000000  -0.000050
   10  AS 1  X    0.000000  -0.000001  -0.000000  -0.000000  -0.000006
   11  AS 1  Y   -0.000000   0.000000   0.000000  -0.000005   0.000000
   12  AS 1  Z   -0.000000   0.000000  -0.000004   0.000000   0.000000
   13  AS 1  X    0.000001  -0.000002  -0.000000  -0.000000  -0.000087
   14  AS 1  Y   -0.000000   0.000000   0.000000  -0.000083   0.000000
   15  AS 1  Z   -0.000000   0.000000  -0.000005   0.000000   0.000000
   16  AS 1  X    0.000000  -0.000000  -0.000000  -0.000000  -0.000470
   17  AS 1  Y   -0.000000   0.000000  -0.000000  -0.000469   0.000000
   18  AS 1  Z   -0.000000   0.000000  -0.000418   0.000000   0.000000
   19  AS 1  X    0.000000  -0.000000  -0.000000  -0.000000  -0.000084
   20  AS 1  Y   -0.000000   0.000000  -0.000000  -0.000084   0.000000
   21  AS 1  Z   -0.000000   0.000000  -0.000065   0.000000   0.000000
   22  AS 1 XX   -0.000001   0.000002  -0.000000   0.000000   0.000002
   23  AS 1 YY   -0.000001   0.000002  -0.000000  -0.000000  -0.000002
   24  AS 1 ZZ    0.000002  -0.000004  -0.000000  -0.000000  -0.000000
   25  AS 1 XY   -0.000000   0.000000  -0.000000  -0.000002  -0.000000
   26  AS 1 XZ    0.000000  -0.000000   0.000000  -0.000000  -0.000000
   27  AS 1 YZ   -0.000000   0.000000  -0.000000   0.000000  -0.000000
   28  AS 1 XX    0.000009  -0.000022  -0.000000  -0.000000  -0.000054
   29  AS 1 YY    0.000008  -0.000021  -0.000000   0.000000   0.000053
   30  AS 1 ZZ   -0.000017   0.000043   0.000000   0.000000   0.000001
   31  AS 1 XY    0.000000   0.000000  -0.000000   0.000060  -0.000000
   32  AS 1 XZ   -0.000000   0.000000  -0.000000  -0.000000   0.000000
   33  AS 1 YZ   -0.000000   0.000000  -0.000000  -0.000000   0.000000
   34  AS 1 XX    0.000010  -0.000025  -0.000000  -0.000000  -0.000016
   35  AS 1 YY    0.000010  -0.000024  -0.000000   0.000000   0.000015
   36  AS 1 ZZ   -0.000020   0.000049   0.000000   0.000000   0.000001
   37  AS 1 XY   -0.000000   0.000000  -0.000000   0.000017  -0.000000
   38  AS 1 XZ   -0.000000   0.000000  -0.000000  -0.000000   0.000000
   39  AS 1 YZ    0.000000   0.000000  -0.000000  -0.000000  -0.000000
   40  AS 1 XXX   0.000020  -0.000051  -0.000000  -0.000000  -0.000013
   41  AS 1 YYY   0.000000   0.000000  -0.000000  -0.000012   0.000000
   42  AS 1 ZZZ   0.000000  -0.000000  -0.000000  -0.000000  -0.000000
   43  AS 1 XXY  -0.000000   0.000000  -0.000000  -0.000006   0.000000
   44  AS 1 XXZ  -0.000000   0.000000   0.000000   0.000000   0.000000
   45  AS 1 YYX  -0.000027   0.000068   0.000000  -0.000000  -0.000005
   46  AS 1 YYZ   0.000000  -0.000000   0.000000  -0.000000   0.000000
   47  AS 1 ZZX  -0.000000   0.000000  -0.000000   0.000000   0.000022
   48  AS 1 ZZY  -0.000000   0.000000  -0.000000   0.000022  -0.000000
   49  AS 1 XYZ   0.000000  -0.000000  -0.000000   0.000000  -0.000000
   50  H  2  S    0.000003  -0.000002  -0.000000  -0.000012   0.000007
   51  H  2  S   -0.000046   0.000112   0.000000   0.000055  -0.000032
   52  H  2  S    0.000001   0.000023   0.000000   0.000038  -0.000022
   53  H  2  X   -0.000000   0.000002   0.000000   0.000007  -0.000004
   54  H  2  Y    0.000001  -0.000004  -0.000000  -0.000012   0.000007
   55  H  2  Z    0.000000  -0.000000   0.000001  -0.000000   0.000000
   56  H  2  X   -0.000013   0.000034  -0.000000   0.000028  -0.000018
   57  H  2  Y    0.000023  -0.000059  -0.000000  -0.000050   0.000028
   58  H  2  Z    0.000000  -0.000000  -0.000004  -0.000000   0.000000
   59  H  2 XX    0.000001  -0.000003   0.000000  -0.000002   0.000004
   60  H  2 YY   -0.000003   0.000011  -0.000000   0.000020  -0.000015
   61  H  2 ZZ    0.000002  -0.000008  -0.000000  -0.000018   0.000010
   62  H  2 XY    0.000004  -0.000014  -0.000000  -0.000026   0.000013
   63  H  2 XZ    0.000000  -0.000000   0.000003  -0.000000   0.000000
   64  H  2 YZ   -0.000000   0.000000  -0.000005   0.000000  -0.000000
   65  H  3  S    0.000003  -0.000002  -0.000000   0.000012   0.000007
   66  H  3  S   -0.000046   0.000112   0.000000  -0.000055  -0.000032
   67  H  3  S    0.000001   0.000023   0.000000  -0.000038  -0.000022
   68  H  3  X   -0.000000   0.000002   0.000000  -0.000007  -0.000004
   69  H  3  Y   -0.000001   0.000004  -0.000000  -0.000012  -0.000007
   70  H  3  Z    0.000000  -0.000000   0.000001   0.000000   0.000000
   71  H  3  X   -0.000013   0.000034  -0.000000  -0.000028  -0.000018
   72  H  3  Y   -0.000023   0.000059   0.000000  -0.000050  -0.000028
   73  H  3  Z    0.000000  -0.000000  -0.000004   0.000000   0.000000
   74  H  3 XX    0.000001  -0.000003   0.000000   0.000002   0.000004
   75  H  3 YY   -0.000003   0.000011  -0.000000  -0.000020  -0.000015
   76  H  3 ZZ    0.000002  -0.000008  -0.000000   0.000018   0.000010
   77  H  3 XY   -0.000004   0.000014   0.000000  -0.000026  -0.000013
   78  H  3 XZ    0.000000  -0.000000   0.000003   0.000000   0.000000
   79  H  3 YZ    0.000000  -0.000000   0.000005   0.000000   0.000000
   80  H  4  S    0.000003  -0.000002  -0.000000  -0.000000  -0.000013
   81  H  4  S   -0.000047   0.000116  -0.000000   0.000000   0.000069
   82  H  4  S    0.000001   0.000024  -0.000000   0.000000   0.000045
   83  H  4  X    0.000001  -0.000005   0.000000  -0.000000  -0.000016
   84  H  4  Y   -0.000000   0.000000  -0.000000  -0.000000  -0.000000
   85  H  4  Z   -0.000000   0.000000   0.000001  -0.000000   0.000000
   86  H  4  X    0.000027  -0.000069  -0.000000  -0.000000  -0.000069
   87  H  4  Y    0.000000   0.000000  -0.000000  -0.000002   0.000000
   88  H  4  Z   -0.000000   0.000000  -0.000004  -0.000000   0.000000
   89  H  4 XX   -0.000005   0.000018  -0.000000   0.000000   0.000039
   90  H  4 YY    0.000003  -0.000011  -0.000000  -0.000000  -0.000019
   91  H  4 ZZ    0.000002  -0.000008   0.000000  -0.000000  -0.000021
   92  H  4 XY   -0.000000   0.000000   0.000000  -0.000004   0.000000
   93  H  4 XZ    0.000000  -0.000000  -0.000006  -0.000000  -0.000000
   94  H  4 YZ   -0.000000   0.000000  -0.000000   0.000000  -0.000000

                      6          7          8          9         10
                   -8.5921    -6.2545    -6.2545    -6.2511    -2.3907
                     A          A          A          A          A   
    1  AS 1  S   -0.000068  -0.000002  -0.000000   0.000000   0.000002
    2  AS 1  S   -0.000319  -0.000012  -0.000000  -0.000000   0.000011
    3  AS 1  S    0.980078  -0.000080  -0.000000   0.000000   0.000027
    4  AS 1  S   -0.000986  -0.000046  -0.000000   0.000000  -0.000030
    5  AS 1  S    0.029990   0.000020   0.000000   0.000000  -0.000070
    6  AS 1  S    0.003078   0.000011   0.000000   0.000000  -0.000042
    7  AS 1  X   -0.000001  -0.000097  -0.000000   0.000000   0.000158
    8  AS 1  Y   -0.000000   0.000000  -0.000098   0.000000   0.000000
    9  AS 1  Z    0.000000   0.000000   0.000000   0.000038  -0.000000
   10  AS 1  X    0.000028   0.975579   0.000015   0.000049   0.000366
   11  AS 1  Y   -0.000000  -0.000015   0.975576   0.000000   0.000000
   12  AS 1  Z   -0.000000  -0.000049  -0.000000   0.976861  -0.000000
   13  AS 1  X   -0.000007  -0.001000  -0.000000   0.000000   0.003347
   14  AS 1  Y   -0.000000   0.000000  -0.001005   0.000000   0.000000
   15  AS 1  Z    0.000000   0.000000   0.000000   0.000471  -0.000000
   16  AS 1  X    0.000007   0.045884   0.000001   0.000002  -0.001780
   17  AS 1  Y   -0.000000  -0.000001   0.045899   0.000000  -0.000000
   18  AS 1  Z   -0.000000  -0.000002  -0.000000   0.044775   0.000000
   19  AS 1  X    0.000003   0.001937   0.000000   0.000000  -0.002400
   20  AS 1  Y    0.000000  -0.000000   0.001939   0.000000  -0.000000
   21  AS 1  Z   -0.000000  -0.000000  -0.000000   0.001551   0.000000
   22  AS 1 XX    0.000311   0.000635   0.000000   0.000000   0.838002
   23  AS 1 YY    0.000303  -0.000619  -0.000000   0.000000  -0.834461
   24  AS 1 ZZ   -0.000614  -0.000015  -0.000000  -0.000000  -0.003541
   25  AS 1 XY   -0.000000   0.000000  -0.000690   0.000000  -0.000002
   26  AS 1 XZ   -0.000000  -0.000000   0.000000   0.000012  -0.000049
   27  AS 1 YZ   -0.000000   0.000000   0.000000  -0.000000   0.000000
   28  AS 1 XX    0.000051  -0.000362  -0.000000   0.000000   0.074858
   29  AS 1 YY    0.000053   0.000357   0.000000   0.000000  -0.074539
   30  AS 1 ZZ   -0.000105   0.000005   0.000000  -0.000000  -0.000318
   31  AS 1 XY   -0.000000  -0.000000   0.000421   0.000000  -0.000000
   32  AS 1 XZ   -0.000000   0.000000  -0.000000   0.000007  -0.000004
   33  AS 1 YZ   -0.000000  -0.000000  -0.000000  -0.000000   0.000000
   34  AS 1 XX   -0.000001  -0.000212  -0.000000  -0.000000   0.000559
   35  AS 1 YY   -0.000001   0.000210   0.000000   0.000000  -0.000541
   36  AS 1 ZZ    0.000002   0.000002  -0.000000   0.000000  -0.000018
   37  AS 1 XY    0.000000  -0.000000   0.000242   0.000000  -0.000000
   38  AS 1 XZ    0.000000   0.000000   0.000000  -0.000003  -0.000000
   39  AS 1 YZ    0.000000  -0.000000  -0.000000   0.000000   0.000000
   40  AS 1 XXX   0.000070   0.000045   0.000000   0.000000   0.000349
   41  AS 1 YYY  -0.000000  -0.000000   0.000044   0.000000   0.000000
   42  AS 1 ZZZ  -0.000000   0.000000   0.000000  -0.000215   0.000000
   43  AS 1 XXY  -0.000000  -0.000000   0.000024   0.000000   0.000000
   44  AS 1 XXZ  -0.000000  -0.000000   0.000000   0.000146  -0.000000
   45  AS 1 YYX  -0.000095   0.000024   0.000000   0.000000   0.000117
   46  AS 1 YYZ   0.000000  -0.000000  -0.000000   0.000143  -0.000000
   47  AS 1 ZZX   0.000000  -0.000085  -0.000000  -0.000000  -0.000585
   48  AS 1 ZZY   0.000000   0.000000  -0.000083  -0.000000  -0.000000
   49  AS 1 XYZ  -0.000000  -0.000000  -0.000000  -0.000000  -0.000000
   50  H  2  S    0.000026  -0.000209   0.000362   0.000000  -0.002830
   51  H  2  S    0.000223  -0.000981   0.001717   0.000000  -0.001974
   52  H  2  S   -0.000494   0.000316  -0.000549  -0.000000  -0.000826
   53  H  2  X    0.000003   0.000007   0.000030   0.000000  -0.000771
   54  H  2  Y   -0.000006   0.000030  -0.000027   0.000000   0.000523
   55  H  2  Z   -0.000000  -0.000000  -0.000000   0.000012   0.000000
   56  H  2  X   -0.000009  -0.000053   0.000279   0.000000  -0.000962
   57  H  2  Y    0.000015   0.000273  -0.000376   0.000000  -0.000231
   58  H  2  Z    0.000000   0.000000  -0.000000   0.000116   0.000000
   59  H  2 XX   -0.000005   0.000003  -0.000051  -0.000000  -0.000157
   60  H  2 YY    0.000031  -0.000054   0.000139   0.000000  -0.000117
   61  H  2 ZZ   -0.000026   0.000050  -0.000088   0.000000   0.000274
   62  H  2 XY   -0.000035   0.000110  -0.000161   0.000000   0.000611
   63  H  2 XZ   -0.000000   0.000000  -0.000000  -0.000015   0.000000
   64  H  2 YZ    0.000000  -0.000000   0.000000   0.000025  -0.000000
   65  H  3  S    0.000026  -0.000209  -0.000362   0.000000  -0.002830
   66  H  3  S    0.000223  -0.000981  -0.001717  -0.000000  -0.001974
   67  H  3  S   -0.000494   0.000316   0.000549  -0.000000  -0.000826
   68  H  3  X    0.000003   0.000007  -0.000030   0.000000  -0.000771
   69  H  3  Y    0.000006  -0.000030  -0.000027  -0.000000  -0.000523
   70  H  3  Z   -0.000000  -0.000000   0.000000   0.000012   0.000000
   71  H  3  X   -0.000009  -0.000053  -0.000279   0.000000  -0.000962
   72  H  3  Y   -0.000015  -0.000273  -0.000376  -0.000000   0.000231
   73  H  3  Z    0.000000   0.000000   0.000000   0.000116   0.000000
   74  H  3 XX   -0.000005   0.000003   0.000051  -0.000000  -0.000157
   75  H  3 YY    0.000031  -0.000054  -0.000139   0.000000  -0.000117
   76  H  3 ZZ   -0.000026   0.000050   0.000088   0.000000   0.000274
   77  H  3 XY    0.000035  -0.000110  -0.000161  -0.000000  -0.000611
   78  H  3 XZ   -0.000000   0.000000   0.000000  -0.000015   0.000000
   79  H  3 YZ   -0.000000   0.000000   0.000000  -0.000025   0.000000
   80  H  4  S    0.000027   0.000428   0.000000   0.000000   0.005802
   81  H  4  S    0.000229   0.002009   0.000000   0.000000   0.003896
[...]
      841   -0.028810    0.028810  +2+200-
      878    0.028425    0.028425  ++-2+0-
      458   -0.028168    0.028168  2+02+-0
      809    0.028165   -0.028165  20+2+0-
      526    0.027413    0.027413  ++220-0
      323    0.025765   -0.025765  +022-+0
      320    0.025279    0.025279  0+22200
      264    0.025086   -0.025086  -++2-0+
      534    0.025008    0.025008  0+22020
      894    0.024958    0.024958  0+22002
      252    0.024732    0.024732  2+02-+0
      263   -0.024589   -0.024589  20+2-0+
      462    0.022535   -0.022535  2+02020
      806   -0.022262   -0.022262  2++200-
       79    0.022035    0.022035  -+220+0
      529   -0.021236   -0.021236  +022+-0
       54   -0.020743    0.020743  -2+200+

 ---------------------------------------
      - DIABATIC STATES IN CMO -        
 ---------------------------------------

 State #    1  Energy =   -2260.772950008

      Det      Coef        Coefp    Occupancy (Ignoring core)
      ---      ----        ----    --------- --------- -----
        1   -0.976463    0.976463  222+000
      107    0.071030   -0.071030  +22-+00
      143    0.064537    0.064537  220+200
      179    0.062714    0.062714  202+200
      393    0.059832    0.059832  202+020
      717    0.059453    0.059453  220+002
      211   -0.037986   -0.037986  +22+-00
       51    0.033345   -0.033345  22+-00+
      738    0.033324    0.033324  2+-++0-
      704   -0.033161    0.033161  2-+++0-
       76    0.033097    0.033097  2+2-0+0
        5   -0.033044   -0.033044  -22++00
      218    0.032935   -0.032935  +-2+-+0
      227    0.032782    0.032782  +2-+-0+
      389    0.032406    0.032406  202++-0
      353   -0.032354   -0.032354  220++-0
      158    0.031400    0.031400  2-++-0+
      192   -0.031302    0.031302  2+-+-0+
      183   -0.030490    0.030490  202+-+0
      147    0.030445   -0.030445  220+-+0
      215    0.028923    0.028923  022+200
      390    0.028680   -0.028680  -+2++-0
      705    0.028510    0.028510  -2+++0-
      368   -0.026112   -0.026112  2-++0-+
      742   -0.026099   -0.026099  2+-+0+-
      424   -0.025409   -0.025409  +-2++-0
        8   -0.025395    0.025395  2-2+0+0
       17   -0.025329   -0.025329  22-+00+
      773   -0.025242    0.025242  +2-++0-
      184   -0.024032   -0.024032  -+2+-+0
      159   -0.023862    0.023862  -2++-0+
      753    0.021820    0.021820  202+002
      789    0.021333    0.021333  022+002
      429    0.021314    0.021314  022+020
      357    0.021072    0.021072  220+020

 State #    2  Energy =   -2260.585457262

      Det      Coef        Coefp    Occupancy (Ignoring core)
      ---      ----        ----    --------- --------- -----
        2   -0.953726    0.953726  2220+00
      106   -0.158027   -0.158027  +222000
      156   -0.084705    0.084705  22+0-0+
      181   -0.081718   -0.081718  2+20-+0
      702    0.081011    0.081011  22+0+0-
      387    0.077885   -0.077885  2+20+-0
      212    0.063693    0.063693  +220200
      396    0.062422    0.062422  2020+20
      720    0.062145    0.062145  2200+02
      110    0.056926   -0.056926  0222+00
      391    0.050789   -0.050789  2+20020
      751   -0.049886    0.049886  2+20002
      706   -0.049323   -0.049323  22+00+-
      366    0.048973   -0.048973  22+00-+
       38    0.030339   -0.030339  2202+00
       74    0.030296   -0.030296  2022+00
      161    0.028867    0.028867  2-+020+
      195   -0.028601    0.028601  2+-020+
      150    0.028100   -0.028100  22002+0
      186   -0.028064    0.028064  20202+0
      371   -0.025901   -0.025901  2-+0+-+
      745   -0.025846   -0.025846  2+-0++-
      756    0.025538    0.025538  2020+02
      360    0.024961    0.024961  2200+20
      221    0.022081   -0.022081  +-202+0
      230    0.021957    0.021957  +2-020+
      187   -0.020839   -0.020839  -+202+0
      162   -0.020729    0.020729  -2+020+

 State #    3  Energy =   -2260.544685895

      Det      Coef        Coefp    Occupancy (Ignoring core)
      ---      ----        ----    --------- --------- -----
       36   -0.943025   -0.943025  22+2000
       16   -0.117109    0.117109  222000+
       71   -0.115688    0.115688  2+22000
      142    0.115500    0.115500  22+0200
       73    0.105463   -0.105463  2+-2+00
       39   -0.105440   -0.105440  2-+2+00
       52    0.092612   -0.092612  220200+
      249    0.071863   -0.071863  20+2200
      108   -0.055111   -0.055111  +2-2+00
      463    0.052698   -0.052698  20+2020
      123    0.049301   -0.049301  +-2200+
      112    0.048671    0.048671  +2-20+0
       88    0.043443   -0.043443  202200+
      460    0.039812    0.039812  -++2+-0
       40    0.039041   -0.039041  -2+2+00
       77   -0.034779    0.034779  2+-20+0
      288    0.032311    0.032311  +-+2-+0
      876   -0.028713   -0.028713  ++2200-
      494   -0.028532    0.028532  +-+2+-0
      808    0.028494   -0.028494  2+02+0-
      491   -0.028316    0.028316  +2+20-0
      459    0.027839   -0.027839  20+2+-0
      297    0.025607   -0.025607  +202-0+
      285    0.025282   -0.025282  02+2200
      254   -0.025174    0.025174  -++2-+0
      859    0.024987   -0.024987  02+2002
      262   -0.024887   -0.024887  2+02-0+
      499    0.024717   -0.024717  02+2020
      253   -0.024385   -0.024385  20+2-+0
      456    0.022457    0.022457  2++20-0
      823    0.022176   -0.022176  20+2002
      843   -0.021226   -0.021226  +202+0-
       89   -0.020587   -0.020587  -+2200+
       44   -0.020355    0.020355  -2+20+0

 State #    4  Energy =   -2260.543798848

      Det      Coef        Coefp    Occupancy (Ignoring core)
      ---      ----        ----    --------- --------- -----
       71   -0.943391    0.943391  2+22000
       36    0.115643    0.115643  22+2000
        6   -0.115550    0.115550  22200+0
      177    0.114384   -0.114384  2+20200
       38   -0.105968    0.105968  2202+00
       74    0.102395   -0.102395  2022+00
       78    0.092575   -0.092575  20220+0
      248    0.073464   -0.073464  2+02200
      109   -0.054444    0.054444  +-22+00
      822    0.052344   -0.052344  2+02002
      113   -0.050644    0.050644  +-220+0
      122    0.049581    0.049581  +2-200+
       42    0.042295   -0.042295  22020+0
      810   -0.039616   -0.039616  -++2+0-
       75    0.039103    0.039103  -+22+00
       53    0.035997    0.035997  2-+200+
      332   -0.032220    0.032220  ++-2-0+
      526    0.029002    0.029002  ++220-0
      841   -0.028948    0.028948  +2+200-
      809    0.028553   -0.028553  20+2+0-
      878    0.028358    0.028358  ++-2+0-
      458   -0.027560    0.027560  2+02+-0
      323    0.025646   -0.025646  +022-+0
      320    0.025110    0.025110  0+22200
      534    0.025029    0.025029  0+22020
      264    0.025017   -0.025017  -++2-0+
      263   -0.024991   -0.024991  20+2-0+
      894    0.024869    0.024869  0+22002
      252    0.024156    0.024156  2+02-+0
      806   -0.022012   -0.022012  2++200-
       79    0.021642    0.021642  -+220+0
      462    0.021610   -0.021610  2+02020
      529   -0.021276   -0.021276  +022+-0
       54   -0.020633    0.020633  -2+200+

 ---------------------------------------
    -DIABATIC STATES IN PROTOTYPES-     
 ---------------------------------------

     STATE:    1
 Group Ref#    Coefficients
     1    1    0.998874
     2    2    0.000000
     3    3   -0.000000
     4    4   -0.000000

WEIGHT OF LISTED PROTOTYPES:   99.77%

     STATE:    2
 Group Ref#    Coefficients
     1    1    0.000000
     2    2    0.997566
     3    3    0.000105
     4    4    0.000140

WEIGHT OF LISTED PROTOTYPES:   99.51%

     STATE:    3
 Group Ref#    Coefficients
     1    1   -0.000000
     2    2    0.000105
     3    3    0.996785
     4    4    0.000022

WEIGHT OF LISTED PROTOTYPES:   99.36%

     STATE:    4
 Group Ref#    Coefficients
     1    1   -0.000000
     2    2    0.000140
     3    3    0.000022
     4    4    0.996814

WEIGHT OF LISTED PROTOTYPES:   99.36%

     DIRECT MAX. DIABATIZATION FINISHED    
 CPU     0: STEP CPU TIME=     0.84 TOTAL CPU TIME=        244.8 (      4.1 MIN)
 TOTAL WALL CLOCK TIME=        261.8 SECONDS, CPU UTILIZATION IS    93.50%

DIABATS FOR SPIN-ORBIT CALCULATION ARE READY

TRANSITION DIPOLES BETWEEN ADIABATS (in A.U.):

STATE PAIR      X         Y         Z
    1    1 -0.009592 -0.000000  0.000000
    2    1  0.000022  0.000000  0.432537
    2    2 -0.024504 -0.000000  0.000001
    3    1  0.000000  0.000000 -0.000000
    3    2  0.000000  0.149971 -0.000000
    3    3  0.396656  0.000001 -0.000020
    4    1  0.000000 -0.000000  0.007099
    4    2 -0.144838  0.000000  0.000007
    4    3  0.000001 -0.406683  0.000000
    4    4 -0.413128 -0.000001  0.000021


TRANSITION DIPOLES BETWEEN DIABATS (in A.U.):

STATE PAIR      X         Y         Z
    1    1 -0.009592 -0.000000  0.000000
    2    1  0.000027  0.000000  0.432581
    2    2 -0.026948  0.000024  0.000001
    3    1  0.000002 -0.000015  0.000461
    3    2 -0.018057 -0.145488  0.000003
    3    3  0.384692  0.098541 -0.000020
    4    1  0.000015  0.000002  0.003461
    4    2 -0.146954  0.017807  0.000023
    4    3 -0.097551  0.395836  0.000005
    4    4 -0.398721 -0.098566  0.000020

TRANSITION DIPOLES BETWEEN DIRECT MAX. DIABATS (in A.U.):

STATE PAIR      X         Y         Z
    1    1 -0.009592 -0.000000  0.000000
    2    1  0.000027  0.000000  0.432581
    2    2 -0.026948  0.000024  0.000001
    3    1  0.000002 -0.000015  0.000461
    3    2 -0.018057 -0.145488  0.000003
    3    3  0.384692  0.098541 -0.000020
    4    1  0.000015  0.000002  0.003461
    4    2 -0.146954  0.017807  0.000023
    4    3 -0.097551  0.395836  0.000005
    4    4 -0.398721 -0.098566  0.000020
 No $TRANST Group Found.
 Quit without doing spin-orbit coupling
 ..... DONE WITH MP2 ENERGY .....
 CPU     0: STEP CPU TIME=     0.01 TOTAL CPU TIME=        244.8 (      4.1 MIN)
 TOTAL WALL CLOCK TIME=        261.9 SECONDS, CPU UTILIZATION IS    93.50%
            250000000  WORDS OF DYNAMIC MEMORY USED
 EXECUTION OF GAMESS TERMINATED NORMALLY Sat Dec  9 01:34:14 2023
 DDI: 14063448 bytes (13.4 MB / 1 MWords) used by master data server.
Note: The following floating-point exceptions are signalling: IEEE_DENORMAL

 ----------------------------------------
 CPU timing information for all processes
 ========================================
 0: 244.212 + 0.630 = 244.843
 1: 243.912 + 0.530 = 244.443
 ----------------------------------------
Note: The following floating-point exceptions are signalling: IEEE_DENORMAL
 ddikick.x: exited gracefully.
unset echo
----- accounting info -----
Files used on the master node io001 were:
-rw-r--r-- 1 bjb2chen nooijen  145268 Dec  9 01:29 /home/bjb2chen/gmsscr//AsH3cat_cct_gmcpt_C1_3st_diab_mode12_-0.05_mode3_+0.05.F05
-rw-r--r-- 1 bjb2chen nooijen 2726168 Dec  9 01:34 /home/bjb2chen/gmsscr//AsH3cat_cct_gmcpt_C1_3st_diab_mode12_-0.05_mode3_+0.05.F09
-rw-r--r-- 1 bjb2chen nooijen 4320384 Dec  9 01:34 /home/bjb2chen/gmsscr//AsH3cat_cct_gmcpt_C1_3st_diab_mode12_-0.05_mode3_+0.05.F09.001
-rw-r--r-- 1 bjb2chen nooijen 6478560 Dec  9 01:34 /home/bjb2chen/gmsscr//AsH3cat_cct_gmcpt_C1_3st_diab_mode12_-0.05_mode3_+0.05.F10
-rw-r--r-- 1 bjb2chen nooijen 1119224 Dec  9 01:33 /home/bjb2chen/gmsscr//AsH3cat_cct_gmcpt_C1_3st_diab_mode12_-0.05_mode3_+0.05.F13
-rw-r--r-- 1 bjb2chen nooijen 1119224 Dec  9 01:33 /home/bjb2chen/gmsscr//AsH3cat_cct_gmcpt_C1_3st_diab_mode12_-0.05_mode3_+0.05.F13.001
-rw-r--r-- 1 bjb2chen nooijen  181872 Dec  9 01:34 /home/bjb2chen/gmsscr//AsH3cat_cct_gmcpt_C1_3st_diab_mode12_-0.05_mode3_+0.05.F15
-rw-r--r-- 1 bjb2chen nooijen       0 Dec  9 01:29 /home/bjb2chen/gmsscr//AsH3cat_cct_gmcpt_C1_3st_diab_mode12_-0.05_mode3_+0.05.F16
-rw-r--r-- 1 bjb2chen nooijen    9808 Dec  9 01:33 /home/bjb2chen/gmsscr//AsH3cat_cct_gmcpt_C1_3st_diab_mode12_-0.05_mode3_+0.05.F70
-rw-r--r-- 1 bjb2chen nooijen    9808 Dec  9 01:33 /home/bjb2chen/gmsscr//AsH3cat_cct_gmcpt_C1_3st_diab_mode12_-0.05_mode3_+0.05.F70.001
-rw-r--r-- 1 bjb2chen nooijen    9808 Dec  9 01:33 /home/bjb2chen/gmsscr//AsH3cat_cct_gmcpt_C1_3st_diab_mode12_-0.05_mode3_+0.05.F71
-rw-r--r-- 1 bjb2chen nooijen    9808 Dec  9 01:33 /home/bjb2chen/gmsscr//AsH3cat_cct_gmcpt_C1_3st_diab_mode12_-0.05_mode3_+0.05.F71.001
-rw-r--r-- 1 bjb2chen nooijen   19608 Dec  9 01:33 /home/bjb2chen/gmsscr//AsH3cat_cct_gmcpt_C1_3st_diab_mode12_-0.05_mode3_+0.05.F72
-rw-r--r-- 1 bjb2chen nooijen   19608 Dec  9 01:33 /home/bjb2chen/gmsscr//AsH3cat_cct_gmcpt_C1_3st_diab_mode12_-0.05_mode3_+0.05.F72.001
-rw-r--r-- 1 bjb2chen nooijen   19608 Dec  9 01:33 /home/bjb2chen/gmsscr//AsH3cat_cct_gmcpt_C1_3st_diab_mode12_-0.05_mode3_+0.05.F73
-rw-r--r-- 1 bjb2chen nooijen   19608 Dec  9 01:33 /home/bjb2chen/gmsscr//AsH3cat_cct_gmcpt_C1_3st_diab_mode12_-0.05_mode3_+0.05.F73.001
-rw-r--r-- 1 bjb2chen nooijen  961208 Dec  9 01:34 /home/bjb2chen/gmsscr//AsH3cat_cct_gmcpt_C1_3st_diab_mode12_-0.05_mode3_+0.05.F74
-rw-r--r-- 1 bjb2chen nooijen  959640 Dec  9 01:34 /home/bjb2chen/gmsscr//AsH3cat_cct_gmcpt_C1_3st_diab_mode12_-0.05_mode3_+0.05.F74.001
-rw-r--r-- 1 bjb2chen nooijen       0 Dec  9 01:29 /home/bjb2chen/gmsscr//AsH3cat_cct_gmcpt_C1_3st_diab_mode12_-0.05_mode3_+0.05.F75
-rw-r--r-- 1 bjb2chen nooijen       0 Dec  9 01:29 /home/bjb2chen/gmsscr//AsH3cat_cct_gmcpt_C1_3st_diab_mode12_-0.05_mode3_+0.05.F75.001
-rw-r--r-- 1 bjb2chen nooijen   78456 Dec  9 01:34 /home/bjb2chen/gmsscr//AsH3cat_cct_gmcpt_C1_3st_diab_mode12_-0.05_mode3_+0.05.F76
-rw-r--r-- 1 bjb2chen nooijen   78456 Dec  9 01:34 /home/bjb2chen/gmsscr//AsH3cat_cct_gmcpt_C1_3st_diab_mode12_-0.05_mode3_+0.05.F76.001
-rw-r--r-- 1 bjb2chen nooijen       0 Dec  9 01:29 /home/bjb2chen/gmsscr//AsH3cat_cct_gmcpt_C1_3st_diab_mode12_-0.05_mode3_+0.05.F77
-rw-r--r-- 1 bjb2chen nooijen       0 Dec  9 01:29 /home/bjb2chen/gmsscr//AsH3cat_cct_gmcpt_C1_3st_diab_mode12_-0.05_mode3_+0.05.F77.001
-rw-r--r-- 1 bjb2chen nooijen    6408 Dec  9 01:34 /home/bjb2chen/gmsscr//AsH3cat_cct_gmcpt_C1_3st_diab_mode12_-0.05_mode3_+0.05.F78
-rw-r--r-- 1 bjb2chen nooijen    6408 Dec  9 01:34 /home/bjb2chen/gmsscr//AsH3cat_cct_gmcpt_C1_3st_diab_mode12_-0.05_mode3_+0.05.F78.001
-rw-r--r-- 1 bjb2chen nooijen   49008 Dec  9 01:34 /home/bjb2chen/gmsscr//AsH3cat_cct_gmcpt_C1_3st_diab_mode12_-0.05_mode3_+0.05.F79
-rw-r--r-- 1 bjb2chen nooijen   49008 Dec  9 01:34 /home/bjb2chen/gmsscr//AsH3cat_cct_gmcpt_C1_3st_diab_mode12_-0.05_mode3_+0.05.F79.001
-rw-r--r-- 1 bjb2chen nooijen     168 Dec  9 01:33 /home/bjb2chen/gmsscr//AsH3cat_cct_gmcpt_C1_3st_diab_mode12_-0.05_mode3_+0.05.F80
-rw-r--r-- 1 bjb2chen nooijen     168 Dec  9 01:33 /home/bjb2chen/gmsscr//AsH3cat_cct_gmcpt_C1_3st_diab_mode12_-0.05_mode3_+0.05.F80.001
-rw-r--r-- 1 bjb2chen nooijen  102416 Dec  9 01:34 /home/bjb2chen/gmsscr//AsH3cat_cct_gmcpt_C1_3st_diab_mode12_-0.05_mode3_+0.05.F81
-rw-r--r-- 1 bjb2chen nooijen  102416 Dec  9 01:34 /home/bjb2chen/gmsscr//AsH3cat_cct_gmcpt_C1_3st_diab_mode12_-0.05_mode3_+0.05.F81.001
-rw-r--r-- 1 bjb2chen nooijen     656 Dec  9 01:34 /home/bjb2chen/gmsscr//AsH3cat_cct_gmcpt_C1_3st_diab_mode12_-0.05_mode3_+0.05.F82
-rw-r--r-- 1 bjb2chen nooijen     656 Dec  9 01:34 /home/bjb2chen/gmsscr//AsH3cat_cct_gmcpt_C1_3st_diab_mode12_-0.05_mode3_+0.05.F82.001
-rw-r--r-- 1 bjb2chen nooijen   19216 Dec  9 01:34 /home/bjb2chen/gmsscr//AsH3cat_cct_gmcpt_C1_3st_diab_mode12_-0.05_mode3_+0.05.F83
-rw-r--r-- 1 bjb2chen nooijen   19216 Dec  9 01:34 /home/bjb2chen/gmsscr//AsH3cat_cct_gmcpt_C1_3st_diab_mode12_-0.05_mode3_+0.05.F83.001
-rw-r--r-- 1 bjb2chen nooijen  327696 Dec  9 01:34 /home/bjb2chen/gmsscr//AsH3cat_cct_gmcpt_C1_3st_diab_mode12_-0.05_mode3_+0.05.F84
-rw-r--r-- 1 bjb2chen nooijen  327696 Dec  9 01:34 /home/bjb2chen/gmsscr//AsH3cat_cct_gmcpt_C1_3st_diab_mode12_-0.05_mode3_+0.05.F84.001
-rw-r--r-- 1 bjb2chen nooijen 2291048 Dec  9 01:34 /home/bjb2chen/gmsscr//AsH3cat_cct_gmcpt_C1_3st_diab_mode12_-0.05_mode3_+0.05.F85
-rw-r--r-- 1 bjb2chen nooijen 2291048 Dec  9 01:34 /home/bjb2chen/gmsscr//AsH3cat_cct_gmcpt_C1_3st_diab_mode12_-0.05_mode3_+0.05.F85.001
-rw-r--r-- 1 bjb2chen nooijen 9771616 Dec  9 01:34 /home/bjb2chen/gmsscr//AsH3cat_cct_gmcpt_C1_3st_diab_mode12_-0.05_mode3_+0.05.F86
-rw-r--r-- 1 bjb2chen nooijen 9569376 Dec  9 01:34 /home/bjb2chen/gmsscr//AsH3cat_cct_gmcpt_C1_3st_diab_mode12_-0.05_mode3_+0.05.F86.001
-rw-r--r-- 1 bjb2chen nooijen    1160 Dec  9 01:34 /home/bjb2chen/gmsscr//AsH3cat_cct_gmcpt_C1_3st_diab_mode12_-0.05_mode3_+0.05.F87
-rw-r--r-- 1 bjb2chen nooijen    1160 Dec  9 01:34 /home/bjb2chen/gmsscr//AsH3cat_cct_gmcpt_C1_3st_diab_mode12_-0.05_mode3_+0.05.F87.001
-rw-r--r-- 1 bjb2chen nooijen   22432 Dec  9 01:34 /home/bjb2chen/gmsscr//AsH3cat_cct_gmcpt_C1_3st_diab_mode12_-0.05_mode3_+0.05.F88
-rw-r--r-- 1 bjb2chen nooijen   22432 Dec  9 01:34 /home/bjb2chen/gmsscr//AsH3cat_cct_gmcpt_C1_3st_diab_mode12_-0.05_mode3_+0.05.F88.001
-rw-r--r-- 1 bjb2chen nooijen     648 Dec  9 01:34 /home/bjb2chen/gmsscr//AsH3cat_cct_gmcpt_C1_3st_diab_mode12_-0.05_mode3_+0.05.F89
-rw-r--r-- 1 bjb2chen nooijen     648 Dec  9 01:34 /home/bjb2chen/gmsscr//AsH3cat_cct_gmcpt_C1_3st_diab_mode12_-0.05_mode3_+0.05.F89.001
-rw-r--r-- 1 bjb2chen nooijen       0 Dec  9 01:29 /home/bjb2chen/gmsscr//AsH3cat_cct_gmcpt_C1_3st_diab_mode12_-0.05_mode3_+0.05.F90
-rw-r--r-- 1 bjb2chen nooijen       0 Dec  9 01:29 /home/bjb2chen/gmsscr//AsH3cat_cct_gmcpt_C1_3st_diab_mode12_-0.05_mode3_+0.05.F90.001
-rw-r--r-- 1 bjb2chen nooijen   13760 Dec  9 01:34 /home/bjb2chen/gmsscr//AsH3cat_cct_gmcpt_C1_3st_diab_mode12_-0.05_mode3_+0.05.F91
-rw-r--r-- 1 bjb2chen nooijen   13760 Dec  9 01:34 /home/bjb2chen/gmsscr//AsH3cat_cct_gmcpt_C1_3st_diab_mode12_-0.05_mode3_+0.05.F91.001
-rw-r--r-- 1 bjb2chen nooijen   22776 Dec  9 01:34 /home/bjb2chen/gmsscr//AsH3cat_cct_gmcpt_C1_3st_diab_mode12_-0.05_mode3_+0.05.F92
-rw-r--r-- 1 bjb2chen nooijen   22776 Dec  9 01:34 /home/bjb2chen/gmsscr//AsH3cat_cct_gmcpt_C1_3st_diab_mode12_-0.05_mode3_+0.05.F92.001
-rw-r--r-- 1 bjb2chen nooijen   23168 Dec  9 01:34 /home/bjb2chen/gmsscr//AsH3cat_cct_gmcpt_C1_3st_diab_mode12_-0.05_mode3_+0.05.F93
-rw-r--r-- 1 bjb2chen nooijen   23168 Dec  9 01:34 /home/bjb2chen/gmsscr//AsH3cat_cct_gmcpt_C1_3st_diab_mode12_-0.05_mode3_+0.05.F93.001
-rw-r--r-- 1 bjb2chen nooijen   22776 Dec  9 01:34 /home/bjb2chen/gmsscr//AsH3cat_cct_gmcpt_C1_3st_diab_mode12_-0.05_mode3_+0.05.F94
-rw-r--r-- 1 bjb2chen nooijen   22776 Dec  9 01:34 /home/bjb2chen/gmsscr//AsH3cat_cct_gmcpt_C1_3st_diab_mode12_-0.05_mode3_+0.05.F94.001
-rw-r--r-- 1 bjb2chen nooijen   13760 Dec  9 01:34 /home/bjb2chen/gmsscr//AsH3cat_cct_gmcpt_C1_3st_diab_mode12_-0.05_mode3_+0.05.F95
-rw-r--r-- 1 bjb2chen nooijen   13760 Dec  9 01:34 /home/bjb2chen/gmsscr//AsH3cat_cct_gmcpt_C1_3st_diab_mode12_-0.05_mode3_+0.05.F95.001
-rw-r--r-- 1 bjb2chen nooijen   39248 Dec  9 01:34 /home/bjb2chen/gmsscr//AsH3cat_cct_gmcpt_C1_3st_diab_mode12_-0.05_mode3_+0.05.F96
-rw-r--r-- 1 bjb2chen nooijen   39248 Dec  9 01:34 /home/bjb2chen/gmsscr//AsH3cat_cct_gmcpt_C1_3st_diab_mode12_-0.05_mode3_+0.05.F96.001
-rw-r--r-- 1 bjb2chen nooijen    1184 Dec  9 01:34 /home/bjb2chen/gmsscr//AsH3cat_cct_gmcpt_C1_3st_diab_mode12_-0.05_mode3_+0.05.F97
-rw-r--r-- 1 bjb2chen nooijen    1184 Dec  9 01:34 /home/bjb2chen/gmsscr//AsH3cat_cct_gmcpt_C1_3st_diab_mode12_-0.05_mode3_+0.05.F97.001
-rw-r--r-- 1 bjb2chen nooijen    9808 Dec  9 01:33 /home/bjb2chen/gmsscr//AsH3cat_cct_gmcpt_C1_3st_diab_mode12_-0.05_mode3_+0.05.F98
-rw-r--r-- 1 bjb2chen nooijen    9808 Dec  9 01:33 /home/bjb2chen/gmsscr//AsH3cat_cct_gmcpt_C1_3st_diab_mode12_-0.05_mode3_+0.05.F98.001
-rw-r--r-- 1 bjb2chen nooijen   30264 Dec  9 01:34 /home/bjb2chen/gmsscr//AsH3cat_cct_gmcpt_C1_3st_diab_mode12_-0.05_mode3_+0.05.F99
-rw-r--r-- 1 bjb2chen nooijen   30264 Dec  9 01:34 /home/bjb2chen/gmsscr//AsH3cat_cct_gmcpt_C1_3st_diab_mode12_-0.05_mode3_+0.05.F99.001
ls: No match.
ls: No match.
ls: No match.
Sat 09 Dec 2023 01:34:17 AM EST
0.201u 0.021s 4:25.20 0.0%	0+0k 288+496io 0pf+0w
