----- GAMESS execution script 'rungms' -----
This job is running on host io001
under operating system Linux at Sat 09 Dec 2023 01:27:57 AM EST
Available scratch disk space (Kbyte units) at beginning of the job is
Filesystem             1K-blocks       Used Available Use% Mounted on
helmholtz.nlogn:/home 6391504896 5236079616 833286144  87% /home
GAMESS temporary binary files will be written to /home/bjb2chen/gmsscr/
GAMESS supplementary output files will be written to /home/bjb2chen/gamess/vibronics/ash3/relwfn
Copying input file AsH3cat_cct_gmcpt_C1_3st_diab_mode1_-0.05.inp to your run's scratch directory...
cp AsH3cat_cct_gmcpt_C1_3st_diab_mode1_-0.05.inp /home/bjb2chen/gmsscr//AsH3cat_cct_gmcpt_C1_3st_diab_mode1_-0.05.F05
unset echo
 
Assuming a single but multicore node.
 
/home/bjb2chen/gamess/ddikick.x /home/bjb2chen/gamess/gamess.00.x AsH3cat_cct_gmcpt_C1_3st_diab_mode1_-0.05 -ddi 1 2 io001:cpus=2 -scr /home/bjb2chen/gmsscr/

 Distributed Data Interface kickoff program.
 Initiating 2 compute processes on 1 nodes to run the following command:
 /home/bjb2chen/gamess/gamess.00.x AsH3cat_cct_gmcpt_C1_3st_diab_mode1_-0.05 

          ******************************************************
          *         GAMESS VERSION = 02 AUG 2018 (R2)         *
          *             FROM IOWA STATE UNIVERSITY             *
          * M.W.SCHMIDT, K.K.BALDRIDGE, J.A.BOATZ, S.T.ELBERT, *
          *   M.S.GORDON, J.H.JENSEN, S.KOSEKI, N.MATSUNAGA,   *
          *          K.A.NGUYEN, S.J.SU, T.L.WINDUS,           *
          *       TOGETHER WITH M.DUPUIS, J.A.MONTGOMERY       *
          *         J.COMPUT.CHEM.  14, 1347-1363(1993)        *
          **************** 64 BIT LINUX VERSION ****************

  SINCE 1993, STUDENTS AND POSTDOCS WORKING AT IOWA STATE UNIVERSITY
  AND ALSO IN THEIR VARIOUS JOBS AFTER LEAVING ISU HAVE MADE IMPORTANT
  CONTRIBUTIONS TO THE CODE:
     IVANA ADAMOVIC, CHRISTINE AIKENS, YURI ALEXEEV, POOJA ARORA,
     ANDREY ASADCHEV, ROB BELL, PRADIPTA BANDYOPADHYAY, JONATHAN BENTZ,
     BRETT BODE, KURT BRORSEN, CALEB CARLIN, GALINA CHABAN, WEI CHEN,
     CHEOL HO CHOI, PAUL DAY, ALBERT DEFUSCO, NUWAN DESILVA, TIM DUDLEY,
     DMITRI FEDOROV, ALEX FINDLATER, GRAHAM FLETCHER, MARK FREITAG,
     KURT GLAESEMANN, ANASTASIA GUININA,
     DAN KEMP, GRANT MERRILL, NORIYUKI MINEZAWA, JONATHAN MULLIN,
     TAKESHI NAGATA, SEAN NEDD, HEATHER NETZLOFF, BOSILJKA NJEGIC, RYAN OLSON,
     MIKE PAK, BUU PHAM,
     SPENCER PRUITT, LUKE ROSKOP, JIM SHOEMAKER, LYUDMILA SLIPCHENKO,
     TONY SMITH, SAROM SOK LEANG, JIE SONG, TETSUYA TAKETSUGU, SIMON WEBB,
     PENG XU, SOOHAENG YOO, FEDERICO ZAHARIEV

  ADDITIONAL CODE HAS BEEN PROVIDED BY COLLABORATORS IN OTHER GROUPS:
     IOWA STATE UNIVERSITY:
          JOE IVANIC, AARON WEST, LAIMUTIS BYTAUTAS, KLAUS RUEDENBERG
     UNIVERSITY OF TOKYO: KIMIHIKO HIRAO, TAKAHITO NAKAJIMA,
          TAKAO TSUNEDA, MUNEAKI KAMIYA, SUSUMU YANAGISAWA,
          KIYOSHI YAGI, MAHITO CHIBA, SEIKEN TOKURA, NAOAKI KAWAKAMI
     UNIVERSITY OF AARHUS: FRANK JENSEN
     UNIVERSITY OF IOWA: VISVALDAS KAIRYS, HUI LI
     NATIONAL INST. OF STANDARDS AND TECHNOLOGY: WALT STEVENS, DAVID GARMER
     UNIVERSITY OF PISA: BENEDETTA MENNUCCI, JACOPO TOMASI
     UNIVERSITY OF MEMPHIS: HENRY KURTZ, PRAKASHAN KORAMBATH
     UNIVERSITY OF ALBERTA: TOBY ZENG, MARIUSZ KLOBUKOWSKI
     UNIVERSITY OF NEW ENGLAND: MARK SPACKMAN
     MIE UNIVERSITY: HIROAKI UMEDA
     NAT. INST. OF ADVANCED INDUSTRIAL SCIENCE AND TECHNOLOGY: KAZUO KITAURA
     MICHIGAN STATE UNIVERSITY:
          KAROL KOWALSKI, MARTA WLOCH, JEFFREY GOUR, JESSE LUTZ,
          WEI LI, JUN SHEN, J. EMILIANO DEUSTUA, PIOTR PIECUCH
     UNIVERSITY OF MINNESOTA:
          YINAN SHU
     UNIVERSITY OF SILESIA: MONIKA MUSIAL, STANISLAW KUCHARSKI
     FACULTES UNIVERSITAIRES NOTRE-DAME DE LA PAIX:
          OLIVIER QUINET, BENOIT CHAMPAGNE
     UNIVERSITY OF CALIFORNIA - SANTA BARBARA: BERNARD KIRTMAN
     INSTITUTE FOR MOLECULAR SCIENCE:
          KAZUYA ISHIMURA, MICHIO KATOUDA, AND SHIGERU NAGASE
     UNIVERSITY OF NOTRE DAME: ANNA POMOGAEVA, DAN CHIPMAN
     KYUSHU UNIVERSITY:
          HARUYUKI NAKANO,
          FENG LONG GU, JACEK KORCHOWIEC, MARCIN MAKOWSKI, AND YURIKO AOKI,
          HIROTOSHI MORI AND EISAKU MIYOSHI
     PENNSYLVANIA STATE UNIVERSITY:
          TZVETELIN IORDANOV, CHET SWALINA, JONATHAN SKONE,
          SHARON HAMMES-SCHIFFER
     WASEDA UNIVERSITY:
          MASATO KOBAYASHI, TOMOKO AKAMA, TSUGUKI TOUMA,
          TAKESHI YOSHIKAWA, YASUHIRO IKABATA, JUNJI SEINO,
          YUYA NAKAJIMA, HIROMI NAKAI
     NANJING UNIVERSITY: SHUHUA LI
     UNIVERSITY OF NEBRASKA:
          PEIFENG SU, DEJUN SI, NANDUN THELLAMUREGE, YALI WANG, HUI LI
     UNIVERSITY OF ZURICH: ROBERTO PEVERATI, KIM BALDRIDGE
     N. COPERNICUS UNIVERSITY AND JACKSON STATE UNIVERSITY:
          MARIA BARYSZ
     UNIVERSITY OF COPENHAGEN: Jimmy Kromann, CASPER STEINMANN
     TOKYO INSTITUTE OF TECHNOLOGY: HIROYA NAKATA
     NAGOYA UNIVERSITY: YOSHIO NISHIMOTO, STEPHAN IRLE
     MOSCOW STATE UNIVERSITY: VLADIMIR MIRONOV


 PARALLEL VERSION RUNNING ON        2 PROCESSORS IN        1 NODES.

 EXECUTION OF GAMESS BEGUN Sat Dec  9 01:27:57 2023

            ECHO OF THE FIRST FEW INPUT CARDS -
 INPUT CARD> !Step 3: single point gmcpt calculation averaging 4 states                     
 INPUT CARD> !        for AsH3+ at AsH3 structure. The ROHF orbitals at                     
 INPUT CARD> !        the MP2 optimized structure is taken as the initial                   
 INPUT CARD> !        guess of orbitals in the $VEC group.                                  
 INPUT CARD> $system kdiag=3 mwords=250 memddi=8000 parall=.t. $end                         
 INPUT CARD> $contrl runtyp=energy ispher=1 relwfn=dk $end                                  
 INPUT CARD> $contrl icut=9 itol=20 inttyp=rysquad qmttol=1.0d-05 nosym=1 $end              
 INPUT CARD> $scf    npunch=2 conv=1.0d-06 dirscf=.t. diis=.t. soscf=.f. ethrsh=10.0 $end   
 INPUT CARD> $contrl scftyp=mcscf  mult=2 maxit=200 icharg=1 mplevl=2 $end                  
 INPUT CARD> $relwfn norder=3 $end                                                          
 INPUT CARD> $guess  guess=moread norb=85 purify=.t. $end                                   
 INPUT CARD> $basis  gbasis=cct $end                                                        
 INPUT CARD> $mcscf  cistep=gmcci fullnr=.t. finci=mos                                      
 INPUT CARD>         acurcy=1.d-6 maxit=200 $end                                            
 INPUT CARD> $trans  dirtrf=.t. $end                                                        
 INPUT CARD> $mrmp   mrpt=gmcpt rdvecs=.f. $end                                             
 INPUT CARD> $gmcpt  nmofzc=5 nmodoc=9 nmoact=7 nelact=7 stsym(1)=A                         
 INPUT CARD>         reftyp=ormas nspace=1 mstart(1)=15 mine(1)=7 maxe(1)=7                 
 INPUT CARD>         kstate(1)=1,1,1,1                                                      
 INPUT CARD>         wstate(1)=1,1,1,1                                                      
 INPUT CARD>         iwgt=0 thrwgt=-1.0 krot=.f. kszdoe=.f. knospn=.f.                      
 INPUT CARD>         thrde=-1.0 edshft=0.02 $end                                            
 INPUT CARD> $statpt hssend=.t. $end                                                        
 INPUT CARD> -data                                                                          
 INPUT CARD> AsH3+ 3 states calculation at AsH3 structure.                                  
 INPUT CARD> C1                                                                             
 INPUT CARD>  AS         33.0   0.0000000000  -0.0000000000   0.0000000000                  
 INPUT CARD> H           1.0  -0.7325148768   1.2687529838   0.0000000000                   
 INPUT CARD> H           1.0  -0.7325148768  -1.2687529838   0.0000000000                   
 INPUT CARD> H           1.0   1.4650297535   0.0000000000   0.0000000000                   
 INPUT CARD> $end                                                                           
 INPUT CARD> --- Semi-canonical MOs --- generated at Sat Dec  9 01:18:05 2023               
 INPUT CARD> $VEC                                                                           
 INPUT CARD> 1  1 1.00000651E+00-6.68369440E-06 1.85152951E-04 1.79685598E-04-8.07714337E-05
 INPUT CARD> 1  2-2.31149954E-05-0.00000000E+00-0.00000000E+00-0.00000000E+00 1.52132035E-11
 INPUT CARD> 1  3 2.42575930E-11-0.00000000E+00 4.01053631E-11 5.28975585E-11-0.00000000E+00
 INPUT CARD> 1  4-0.00000000E+00-0.00000000E+00-0.00000000E+00-0.00000000E+00-0.00000000E+00
 INPUT CARD> 1  5-0.00000000E+00-1.11237345E-06-1.11237452E-06 2.22474797E-06-0.00000000E+00
 INPUT CARD> 1  6-0.00000000E+00-0.00000000E+00 8.58528525E-06 8.58528010E-06-1.71705654E-05
 INPUT CARD> 1  7-1.20100248E-11-0.00000000E+00-0.00000000E+00 1.00552420E-05 1.00552075E-05
 INPUT CARD> 1  8-2.01104495E-05-2.83298525E-11-0.00000000E+00-0.00000000E+00 1.99730861E-05
 INPUT CARD> 1  9-0.00000000E+00-0.00000000E+00-0.00000000E+00-0.00000000E+00-2.67966997E-05
 INPUT CARD> 1 10-0.00000000E+00-0.00000000E+00-0.00000000E+00-0.00000000E+00 3.47117215E-06
 INPUT CARD> 1 11-4.60716982E-05 1.04466843E-06-4.03421058E-07 6.98737131E-07-0.00000000E+00
 INPUT CARD> 1 12-1.34256909E-05 2.32539851E-05-0.00000000E+00 1.05460937E-06-3.02016560E-06
 INPUT CARD> 1 13 1.96555623E-06 4.07477672E-06-0.00000000E+00-0.00000000E+00 3.47116073E-06
 INPUT CARD> 1 14-4.60716058E-05 1.04468814E-06-4.03422118E-07-6.98738938E-07-0.00000000E+00
 INPUT CARD> 1 15-1.34256677E-05-2.32539402E-05-0.00000000E+00 1.05460761E-06-3.02016073E-06
 INPUT CARD> 1 16 1.96555312E-06-4.07477055E-06-0.00000000E+00-0.00000000E+00 3.47117151E-06
 INPUT CARD> 1 17-4.60717176E-05 1.04469110E-06 8.06835201E-07-0.00000000E+00-0.00000000E+00
  250000000 WORDS OF MEMORY AVAILABLE

     BASIS OPTIONS
     -------------
     GBASIS=CCT          IGAUSS=       0      POLAR=NONE    
     NDFUNC=       0     NFFUNC=       0     DIFFSP=       F
     NPFUNC=       0      DIFFS=       F     BASNAM=        


     RUN TITLE
     ---------
  AsH3+ 4 state with relwfn calculation                                          

 THE POINT GROUP OF THE MOLECULE IS C1      
 THE ORDER OF THE PRINCIPAL AXIS IS     0

 ATOM      ATOMIC                      COORDINATES (BOHR)
           CHARGE         X                   Y                   Z
 AS         33.0     0.0000000000        0.0000000000        0.0003770224
 H           1.0    -1.3842523970        2.3975954823       -0.0093426881
 H           1.0    -1.3842523970       -2.3975954823       -0.0093426881
 H           1.0     2.7685047942        0.0000000000       -0.0093426876

          INTERNUCLEAR DISTANCES (ANGS.)
          ------------------------------

                1 AS         2 H          3 H          4 H     

   1 AS      0.0000000    1.4650388 *  1.4650388 *  1.4650388 *
   2 H       1.4650388 *  0.0000000    2.5375060 *  2.5375060 *
   3 H       1.4650388 *  2.5375060 *  0.0000000    2.5375060 *
   4 H       1.4650388 *  2.5375060 *  2.5375060 *  0.0000000  

  * ... LESS THAN  3.000


     ATOMIC BASIS SET
     ----------------
 THE CONTRACTED PRIMITIVE FUNCTIONS HAVE BEEN UNNORMALIZED
 THE CONTRACTED BASIS FUNCTIONS ARE NOW NORMALIZED TO UNITY

  SHELL TYPE  PRIMITIVE        EXPONENT          CONTRACTION COEFFICIENT(S)

 AS        

      1   S       1       8482339.6000000    0.000181400075
      1   S       2       1270150.9000000    0.000509300210
      1   S       3        289056.9600000    0.001349900557
      1   S       4         81879.8490000    0.003309201365
      1   S       5         26716.5640000    0.008034603315
      1   S       6          9647.5842000    0.019535208061
      1   S       7          3764.1195000    0.047315519523
      1   S       8          1561.5656000    0.108843244910
      1   S       9           680.8146700    0.218240590049
      1   S      10           309.2411900    0.333269937512
      1   S      11           145.2573600    0.304307225562
      1   S      12            69.7390480    0.111702146090
      1   S      13            31.7703250    0.007463503080
      1   S      14            15.3917570    0.000304100125
      1   S      15             7.3415260   -0.000142200059
      1   S      16             3.3237160    0.000019500008
      1   S      17             1.4858670   -0.000033200014
      1   S      18             0.2115000   -0.000008500004

      2   S      19       8482339.6000000   -0.000057995848
      2   S      20       1270150.9000000   -0.000163088325
      2   S      21        289056.9600000   -0.000433268984
      2   S      22         81879.8490000   -0.001065223744
      2   S      23         26716.5640000   -0.002605413487
      2   S      24          9647.5842000   -0.006395842144
      2   S      25          3764.1195000   -0.015881863072
      2   S      26          1561.5656000   -0.038079174044
      2   S      27           680.8146700   -0.084299965257
      2   S      28           309.2411900   -0.154355250242
      2   S      29           145.2573600   -0.198099018777
      2   S      30            69.7390480   -0.033758583340
      2   S      31            31.7703250    0.437607173216
      2   S      32            15.3917570    0.558621610211
      2   S      33             7.3415260    0.155689654716
      2   S      34             3.3237160    0.005010041348
      2   S      35             1.4858670    0.001680179722
      2   S      36             0.2115000    0.000228683629

      3   S      37       8482339.6000000    0.000023133401
      3   S      38       1270150.9000000    0.000065018105
      3   S      39        289056.9600000    0.000172634279
      3   S      40         81879.8490000    0.000424553958
      3   S      41         26716.5640000    0.001039576315
      3   S      42          9647.5842000    0.002554661217
      3   S      43          3764.1195000    0.006365761645
      3   S      44          1561.5656000    0.015338667773
      3   S      45           680.8146700    0.034419952954
      3   S      46           309.2411900    0.064576634114
      3   S      47           145.2573600    0.087234016980
      3   S      48            69.7390480    0.014828815768
      3   S      49            31.7703250   -0.267166221401
      3   S      50            15.3917570   -0.511407446230
      3   S      51             7.3415260   -0.020336603390
      3   S      52             3.3237160    0.736562901872
      3   S      53             1.4858670    0.503531695147
      3   S      54             0.2115000   -0.008965466753

      4   S      55       8482339.6000000   -0.000010225631
      4   S      56       1270150.9000000   -0.000028566842
      4   S      57        289056.9600000   -0.000076124142
      4   S      58         81879.8490000   -0.000187145279
      4   S      59         26716.5640000   -0.000458043346
      4   S      60          9647.5842000   -0.001126929466
      4   S      61          3764.1195000   -0.002805393763
      4   S      62          1561.5656000   -0.006779431073
      4   S      63           680.8146700   -0.015195936984
      4   S      64           309.2411900   -0.028739704152
      4   S      65           145.2573600   -0.038797991937
      4   S      66            69.7390480   -0.007149826154
      4   S      67            31.7703250    0.126719590806
      4   S      68            15.3917570    0.251979351046
      4   S      69             7.3415260    0.006924375336
      4   S      70             3.3237160   -0.491086580342
      4   S      71             1.4858670   -0.599181401530
      4   S      72             0.2115000    1.027494131359

      5   S      73             0.4210860    1.000000000000

      6   S      74             0.0889740    1.000000000000

      7   P      75          7423.8614000    0.000938377609
      7   P      76          1759.5166000    0.005133377508
      7   P      77           570.2291600    0.024099824935
      7   P      78           216.5799700    0.086762429694
      7   P      79            90.7342520    0.228273052999
      7   P      80            40.3087910    0.392022345650
      7   P      81            18.5555020    0.348929673917
      7   P      82             8.3965430    0.101835170032
      7   P      83             3.7673670    0.003273321893
      7   P      84             1.6297010    0.001772857696
      7   P      85             0.2225030    0.000216994822

      8   P      86          7423.8614000   -0.000377368830
      8   P      87          1759.5166000   -0.002078856782
      8   P      88           570.2291600   -0.009841594745
      8   P      89           216.5799700   -0.036476256021
      8   P      90            90.7342520   -0.099965258993
      8   P      91            40.3087910   -0.184025625096
      8   P      92            18.5555020   -0.144893040697
      8   P      93             8.3965430    0.209289264962
      8   P      94             3.7673670    0.550748557488
      8   P      95             1.6297010    0.387867158814
      8   P      96             0.2225030   -0.005154847972

      9   P      97          7423.8614000    0.000139223028
      9   P      98          1759.5166000    0.000768701503
      9   P      99           570.2291600    0.003638497780
      9   P     100           216.5799700    0.013549681419
      9   P     101            90.7342520    0.037246834642
      9   P     102            40.3087910    0.069389334914
      9   P     103            18.5555020    0.052882141611
      9   P     104             8.3965430   -0.096382453072
      9   P     105             3.7673670   -0.257993529431
      9   P     106             1.6297010   -0.205528886912
      9   P     107             0.2225030    0.990245287546

     10   P     108             0.5682630    1.000000000000

     11   P     109             0.0804050    1.000000000000

     12   D     110           321.0196100    0.001881680809
     12   D     111            96.2493050    0.014904607123
     12   D     112            36.6449630    0.065004552468
     12   D     113            15.4939650    0.183605431315
     12   D     114             6.8911380    0.330320202868
     12   D     115             3.0548310    0.388735616644
     12   D     116             1.3142410    0.287105421146

     13   D     117             0.5134300    1.000000000000

     14   D     118             0.1877000    1.000000000000

     15   F     119             0.4158000    1.000000000000

 H         

     16   S     120            33.8700000    0.025531286985
     16   S     121             5.0950000    0.190383336530
     16   S     122             1.1590000    0.852134062742

     17   S     123             0.3258000    1.000000000000

     18   S     124             0.1027000    1.000000000000

     19   P     125             1.4070000    1.000000000000

     20   P     126             0.3880000    1.000000000000

     21   D     127             1.0570000    1.000000000000

 H         

     22   S     128            33.8700000    0.025531286985
     22   S     129             5.0950000    0.190383336530
     22   S     130             1.1590000    0.852134062742

     23   S     131             0.3258000    1.000000000000

     24   S     132             0.1027000    1.000000000000

     25   P     133             1.4070000    1.000000000000

     26   P     134             0.3880000    1.000000000000

     27   D     135             1.0570000    1.000000000000

 H         

     28   S     136            33.8700000    0.025531286985
     28   S     137             5.0950000    0.190383336530
     28   S     138             1.1590000    0.852134062742

     29   S     139             0.3258000    1.000000000000

     30   S     140             0.1027000    1.000000000000

     31   P     141             1.4070000    1.000000000000

     32   P     142             0.3880000    1.000000000000

     33   D     143             1.0570000    1.000000000000

 TOTAL NUMBER OF BASIS SET SHELLS             =   33
 NUMBER OF CARTESIAN GAUSSIAN BASIS FUNCTIONS =   94
 NOTE: THIS RUN WILL RESTRICT THE MO VARIATION SPACE TO SPHERICAL HARMONICS.
 THE NUMBER OF ORBITALS KEPT IN THE VARIATIONAL SPACE WILL BE PRINTED LATER.
 NUMBER OF ELECTRONS                          =   35
 CHARGE OF MOLECULE                           =    1
 SPIN MULTIPLICITY                            =    2
 NUMBER OF OCCUPIED ORBITALS (ALPHA)          =   18
 NUMBER OF OCCUPIED ORBITALS (BETA )          =   17
 TOTAL NUMBER OF ATOMS                        =    4
 THE NUCLEAR REPULSION ENERGY IS       36.3847810186

     ---------------------------------
     RELATIVISTIC WAVEFUNCTION OPTIONS
     ---------------------------------
     METHOD=DK       NORDER= 3       NESOC=  0      MODEQR=      1
     NRATOM=  0      QMTTOL= 1.000E-10      QRTOL= 1.000E-02
     CLIGHT=137.03598950     TAU= 3.500E+00

 INTERNAL BASIS SET UNCONTRACTION FOR RESC/DK/IOTC/LUT-IOTC:
    67 SHELLS AND    174 AOS ARE CONSTRUCTED, COMPARED TO
    33 SHELLS AND     94 AOS IN THE CONTRACTED BASIS SET

    76 REDUNDANT PRIMITIVE(S) ELIMINATED.


     $CONTRL OPTIONS
     ---------------
 SCFTYP=MCSCF        RUNTYP=ENERGY       EXETYP=RUN     
 MPLEVL=       2     CITYP =NONE         CCTYP =NONE         VBTYP =NONE    
 DFTTYP=NONE         TDDFT =NONE    
 MULT  =       2     ICHARG=       1     NZVAR =       0     COORD =UNIQUE  
 PP    =NONE         RELWFN=DK           LOCAL =NONE         NUMGRD=       F
 ISPHER=       1     NOSYM =       1     MAXIT =     200     UNITS =ANGS    
 PLTORB=       F     MOLPLT=       F     AIMPAC=       F     FRIEND=        
 NPRINT=       7     IREST =       0     GEOM  =INPUT   
 NORMF =       0     NORMP =       0     ITOL  =      20     ICUT  =       9
 INTTYP=RYSQUAD      GRDTYP=BEST         QMTTOL= 1.0E-05

     $SYSTEM OPTIONS
     ---------------
  REPLICATED MEMORY=   250000000 WORDS (ON EVERY NODE).
 DISTRIBUTED MEMDDI=        8000 MILLION WORDS IN AGGREGATE,
 MEMDDI DISTRIBUTED OVER   2 PROCESSORS IS  4000000000 WORDS/PROCESSOR.
 TOTAL MEMORY REQUESTED ON EACH PROCESSOR=  4250000000 WORDS.
 TIMLIM=      525600.00 MINUTES, OR     365.0 DAYS.
 PARALL= T  BALTYP=  DLB     KDIAG=    3  COREFL= F
 MXSEQ2=     300 MXSEQ3=     150  mem10=         0

          ----------------
          PROPERTIES INPUT
          ----------------

     MOMENTS            FIELD           POTENTIAL          DENSITY
 IEMOM =       1   IEFLD =       0   IEPOT =       0   IEDEN =       0
 WHERE =COMASS     WHERE =NUCLEI     WHERE =NUCLEI     WHERE =NUCLEI  
 OUTPUT=BOTH       OUTPUT=BOTH       OUTPUT=BOTH       OUTPUT=BOTH    
 IEMINT=       0   IEFINT=       0                     IEDINT=       0
                                                       MORB  =       0

     -------------------------------
     INTEGRAL TRANSFORMATION OPTIONS
     -------------------------------
     NWORD  =            0
     CUTOFF = 1.0E-09     MPTRAN =       0
     DIRTRF =       T     AOINTS =DUP     

          ----------------------
          MCSCF INPUT PARAMETERS
          ----------------------
 CONVERGER SELECTION: FOCAS = F  SOSCF = F  FULLNR = T  QUD = F  JACOBI = F
 SECULAR EQUATION METHOD CISTEP = GMCCI   
 --- GENERAL INPUT OPTIONS:
 MAXIT =     200  MICIT =       1  ACURCY= 1.000E-06
 DAMP  =   0.000  CANONC=       T  ENGTOL= 1.000E-10
 EKT   =       F  NPUNCH=       2  NWORD =         0
 REGENERATE CI AFTER CONVERGENCE = NONE    
 DIABATIZATION AFTER CONVERGENCE =        F
 --- INPUT FOR FULLNR CONVERGER:
 METHOD=DM2       FORS  =       F  DROPC =       T
 LINSER=       F  FCORE =       F  NORB  =      94

          ----------------------
          INTEGRAL INPUT OPTIONS
          ----------------------
 NOPK  =       1 NORDER=       0 SCHWRZ=       T

 ------------------------------------------
 MULTIREFERENCE PERTURBATION THEORY CONTROL
 ------------------------------------------
 MRPT=GMCPT    READ CONVERGED MCSCF VECTORS= F


     ------------------------------------------
     THE POINT GROUP IS C1 , NAXIS= 1, ORDER= 1
     ------------------------------------------

 -- VARIATIONAL SPACE WILL BE RESTRICTED TO PURE SPHERICAL HARMONICS ONLY --
 AFTER EXCLUDING CONTAMINANT COMBINATIONS FROM THE CARTESIAN GAUSSIAN BASIS
 SET, THE NUMBER OF SPHERICAL HARMONICS KEPT IN THE VARIATION SPACE IS   85

     DIMENSIONS OF THE SYMMETRY SUBSPACES ARE
 A   =   85

 ..... DONE SETTING UP THE RUN .....
 CPU     0: STEP CPU TIME=     0.16 TOTAL CPU TIME=          0.2 (      0.0 MIN)
 TOTAL WALL CLOCK TIME=          0.4 SECONDS, CPU UTILIZATION IS    41.03%

          ********************
          1 ELECTRON INTEGRALS
          ********************
 TIME TO DO ORDINARY INTEGRALS=      0.01

 ------------------------------------------------------------------
 3RD ORDER DOUGLAS-KROLL-HESS RELATIVISTIC ONE-ELECTRON HAMILTONIAN
            CODED BY TAKAHITO NAKAJIMA AND DMITRI FEDOROV
 ------------------------------------------------------------------

 TIME TO DO  RELATIVISTIC INTS=      0.56
 TIME TO DO   DIPOLE INTEGRALS=      0.00
 ...... END OF ONE-ELECTRON INTEGRALS ......
 CPU     0: STEP CPU TIME=     0.57 TOTAL CPU TIME=          0.7 (      0.0 MIN)
 TOTAL WALL CLOCK TIME=          1.2 SECONDS, CPU UTILIZATION IS    61.34%

          -------------
          GUESS OPTIONS
          -------------
          GUESS =MOREAD            NORB  =      85          NORDER=       0
          MIX   =       F          PRTMO =       F          PUNMO =       F
          TOLZ  = 1.0E-08          TOLE  = 1.0E-05
          SYMDEN=       F          PURIFY=       T

 INITIAL GUESS ORBITALS GENERATED BY MOREAD   ROUTINE.

 STATISTICS FOR GENERATION OF SYMMETRY ORBITAL -Q- MATRIX
 NUMBER OF CARTESIAN ATOMIC ORBITALS=         94
 NUMBER OF SPHERICAL CONTAMINANTS DROPPED=     9
 NUMBER OF LINEARLY DEPENDENT MOS DROPPED=     0
 TOTAL NUMBER OF MOS IN VARIATION SPACE=      85
 ORBITAL PURIFICATION WILL OCCUR

 SYMMETRIES FOR INITIAL GUESS ORBITALS FOLLOW.   BOTH SET(S).
    18 ORBITALS ARE OCCUPIED (   14 CORE ORBITALS).
     1=A        2=A        3=A        4=A        5=A        6=A        7=A   
     8=A        9=A       10=A       11=A       12=A       13=A       14=A   
    15=A       16=A       17=A       18=A       19=A       20=A       21=A   
    22=A       23=A       24=A       25=A       26=A       27=A       28=A   
    29=A       30=A       31=A       32=A       33=A       34=A       35=A   
    36=A       37=A       38=A       39=A       40=A       41=A       42=A   
    43=A       44=A       45=A       46=A       47=A       48=A       49=A   
    50=A       51=A       52=A       53=A       54=A       55=A       56=A   
    57=A       58=A       59=A       60=A       61=A       62=A       63=A   
    64=A       65=A       66=A       67=A       68=A       69=A       70=A   
    71=A       72=A       73=A       74=A       75=A       76=A       77=A   
    78=A       79=A       80=A       81=A       82=A       83=A       84=A   
    85=A   
 ...... END OF INITIAL ORBITAL SELECTION ......
 CPU     0: STEP CPU TIME=     0.08 TOTAL CPU TIME=          0.8 (      0.0 MIN)
 TOTAL WALL CLOCK TIME=          1.3 SECONDS, CPU UTILIZATION IS    60.45%

                    ----------------------
                    AO INTEGRAL TECHNOLOGY
                    ----------------------
     S,P,L SHELL ROTATED AXIS INTEGRALS, REPROGRAMMED BY
        KAZUYA ISHIMURA (IMS) AND JOSE SIERRA (SYNSTAR).
     S,P,D,L SHELL ROTATED AXIS INTEGRALS PROGRAMMED BY
        KAZUYA ISHIMURA (INSTITUTE FOR MOLECULAR SCIENCE).
     S,P,D,F,G SHELL TO TOTAL QUARTET ANGULAR MOMENTUM SUM 5,
        ERIC PROGRAM BY GRAHAM FLETCHER (ELORET AND NASA ADVANCED
        SUPERCOMPUTING DIVISION, AMES RESEARCH CENTER).
     S,P,D,F,G,L SHELL GENERAL RYS QUADRATURE PROGRAMMED BY
        MICHEL DUPUIS (PACIFIC NORTHWEST NATIONAL LABORATORY).

          --------------------
          2 ELECTRON INTEGRALS
          --------------------

 DIRECT SCF METHOD SKIPS INTEGRAL STORAGE ON DISK.
 DIRECT TRANSFORMATION SKIPS AO INTEGRAL STORAGE ON DISK.
  ...... END OF TWO-ELECTRON INTEGRALS .....
 STEP CPU TIME =     0.03 TOTAL CPU TIME =          0.8 (      0.0 MIN)
 TOTAL WALL CLOCK TIME=          1.4 SECONDS, CPU UTILIZATION IS    61.76%
 DDI: Creating Array [0] - 8836 x 231 = 2041116 words.
 DDI: Creating Array [1] - 64 x 4851 = 310464 words.
 DDI: Creating Array [2] - 231 x 231 = 53361 words.
 DDI: Creating Array [3] - 4465 x 231 = 1031415 words.

          -----------------
          MCSCF CALCULATION
          -----------------

 ----- NUCLEAR ENERGY ----- =        36.3847810186

     -------------------------------------------------
     GMC-PT/GMC-QDPT or general MCSCF input parameters
     -------------------------------------------------
 # of frozen core orbs. =         5 ->         0
 # of doubly occ. orbs. =         9
 # of active      orbs. =         7
 # of virtual     orbs. =        64
 # of active electrons  =         7
 # of states in CI      =         4
 Highest state in CI    =         4
 kstate =  1 1 1 1
 avecoe =  0.250 0.250 0.250 0.250
 State symmetry           = A           
 Assigned symmetry number = 1

 <<<Act. MO sym.: 1111111

 <<<Division of 1-ext.:  0 0
 <<<Division of 2-ext.:  0 1

 *** Reference space

 Reference type: ORMAS (= Occupation restricted multiple active space)
 # of orbitals          =  7
 # of minimum electrons =  7
 # of maximum electrons =  7
 State symmetry    =    1 (input)
 2*Sz              =    1 (input)
 Spin multiplicity =    2 (input)
 Dimension of reference space =      1225  (from      3432 walks)

 Dimension of reference space =      1225  (from      1225 walks)

 <<<Ionized spaces for Ref-CI:
      0:         1225 /   -1-0:         1960 /  0-1-0:         2891

 EVALUATING EXCHANGE INTEGRALS FOR DIRECT INTEGRAL TRANSFORMATION
 SCHWARZ INEQUALITY OVERHEAD:      4465 INTEGRALS, T=        0.19

     --------------------------------------------
     PARTIAL TWO ELECTRON INTEGRAL TRANSFORMATION
     --------------------------------------------

 NUMBER OF CORE MOLECULAR ORBITALS     =   14
 NUMBER OF OCCUPIED MOLECULAR ORBITALS =   21
 TOTAL NUMBER OF MOLECULAR ORBITALS    =   85
 TOTAL NUMBER OF ATOMIC ORBITALS       =   94
 THRESHOLD FOR KEEPING TRANSFORMED 2E- INTEGRALS = 1.000E-09

 -------------------------------     ------------------------------
 DISTRIBUTED DATA TRANSFORMATION     PROGRAM WRITTEN BY G. FLETCHER
 -------------------------------     ------------------------------

 THE DISTRIBUTED MEMORY REQUIRED FOR THIS STEP IS MEMDDI=         4 MWORDS
 CREATING DISTRIBUTED STORAGE FOR [VIR OCC|VIR OCC] INTEGRALS
 CREATING DISTRIBUTED STORAGE FOR [VIR OCC|OCC OCC] INTEGRALS
 CREATING DISTRIBUTED STORAGE FOR [OCC OCC|OCC OCC] INTEGRALS
 CREATING DISTRIBUTED STORAGE FOR [VIR VIR|OCC OCC] INTEGRALS
 FOR    2 PROCESSORS, THE REPLICATED MEMORY NEEDED IS      615709 WORDS.
 SCHWARZ INEQUALITY OVERHEAD:      4465 INTEGRALS, T=        0.21

      DIRECT 4-INDEX TRANSFORMATION 
      SCHWARZ INEQUALITY TEST SKIPPED       1078 INTEGRAL BLOCKS
 ----- FROZEN CORE ENERGY =     -2283.3510545082
 ... END OF INTEGRAL TRANSFORMATION ...
 CPU     0: STEP CPU TIME=    14.81 TOTAL CPU TIME=         15.7 (      0.3 MIN)
 TOTAL WALL CLOCK TIME=         16.4 SECONDS, CPU UTILIZATION IS    95.72%

     --------------------------------     -----------------------------
     MCHF NEWTON-RAPHSON OPTIMIZATION     CODE WRITTEN BY MICHEL DUPUIS
     --------------------------------     -----------------------------
     PARALLEL VERSION WRITTEN BY G. FLETCHER (ELORET)
     NASA ADVANCED SUPERCOMPUTING DIVISION, AMES RESEARCH CENTER

 NUMBER OF INDEPENDENT ORBITAL ROTATION PARAMETERS =   739
 ..... DONE SOLVING NEWTON-RAPHSON EQUATIONS .....
 CPU     0: STEP CPU TIME=     0.64 TOTAL CPU TIME=         16.3 (      0.3 MIN)
 TOTAL WALL CLOCK TIME=         17.3 SECONDS, CPU UTILIZATION IS    94.05%
 ..... DONE WITH NTN-RPH ORBITAL ROTATIONS ..... 
 CPU     0: STEP CPU TIME=     0.00 TOTAL CPU TIME=         16.3 (      0.3 MIN)
 TOTAL WALL CLOCK TIME=         17.3 SECONDS, CPU UTILIZATION IS    94.00%
 MAXIMUM MEMORY USED BY NTN-RPH CODE WAS    197978 WORDS.

 ITER     TOTAL ENERGY      DEL(E)  LAGRANGIAN ASYMMETRY   SQCDF  MICIT   DAMP
   1    -2260.366598916 -0.366598916  0.000979   58   18 6.475E-06  1   0.0000
   2    -2260.366601891 -0.000002974  0.000098   31   18 3.293E-06  1   0.0000
   3    -2260.366602053 -0.000000162  0.000036   31   18 1.208E-06  1   0.0000
   4    -2260.366602102 -0.000000050  0.000017   31   18 4.368E-07  1   0.0000
   5    -2260.366602120 -0.000000017  0.000009   31   18 1.568E-07  1   0.0000
   6    -2260.366602126 -0.000000006  0.000005   31   18 5.607E-08  1   0.0000
   7    -2260.366602128 -0.000000002  0.000003   31   18 2.008E-08  1   0.0000
   8    -2260.366602129 -0.000000001  0.000002   31   18 7.155E-09  1   0.0000
   9    -2260.366602129 -0.000000000  0.000001   31   18 2.557E-09  1   0.0000
  10    -2260.366602129 -0.000000000  0.000001   31   18 9.107E-10  1   0.0000

          --------------------
          LAGRANGIAN CONVERGED
          --------------------

 FINAL MCSCF ENERGY IS    -2260.3666021291 AFTER  10 ITERATIONS

 -MCCI- BASED ON OPTIMIZED ORBITALS
 ----------------------------------

 PLEASE NOTE: IF THE ACTIVE ORBITALS ARE CANONICALIZED BELOW,
 THE FOLLOWING CI EXPANSION COEFFICIENTS AND THE DENSITY DO NOT
 CORRESPOND TO THE PRINTED ORBITALS.  THE PRINTED EXPANSIONS MATCH
 THE ORBITALS USED DURING THE LAST ITERATION.  IF YOU WISH TO SEE
 CI EXPANSIONS BASED ON THE CANONICAL (OR NATURAL) ORBITALS, YOU
 MUST RUN A CI CALCULATION WITH THAT ORBITAL CHOICE READ IN $VEC.

 Averaged energy =   -2260.366602129

 State #    1  Energy =   -2260.541530560  S =  0.500

      Det      Coef    Occupancy (Ignoring core)
      ---      ----    --------- --------- -----
        1   -0.976457  11110001110000
      107    0.071035  11101000111000
      143   -0.063618  11011001100100
      179   -0.063618  10111001010100
      393   -0.059198  10110101010010
      717   -0.059198  11010011100001

 State #    2  Energy =   -2260.335522379  S =  0.500

      Det      Coef    Occupancy (Ignoring core)
      ---      ----    --------- --------- -----
        2    0.953719  11101001110000
      106   -0.158042  11110000111000
      110   -0.056926  01111000111000
      156    0.083139  11100011100100
      181   -0.083139  11100101010100
      212    0.063707  11101000110100
      387   -0.079381  11101001010010
      396    0.061787  10101101010010
      702    0.079381  11101001100001
      720    0.061787  11001011100001

 State #    3  Energy =   -2260.294677789  S =  0.500

      Det      Coef    Occupancy (Ignoring core)
      ---      ----    --------- --------- -----
       16   -0.116678  11100011110000
       36    0.940854  11110001101000
       39    0.105458  10111001101000
       52    0.092266  11010011101000
       71    0.133287  11110001011000
       73    0.105458  11011001011000
      108    0.054648  11011000111000
      142   -0.114634  11101001100100
      249    0.072474  10111001001100
      463    0.052238  10110101001010

 State #    4  Energy =   -2260.294677789  S =  0.500

      Det      Coef    Occupancy (Ignoring core)
      ---      ----    --------- --------- -----
        6    0.116678  11100101110000
       36   -0.133287  11110001101000
       38    0.105458  11011001101000
       71    0.940854  11110001011000
       74   -0.105458  10111001011000
       78   -0.092266  10110101011000
      109    0.054648  10111000111000
      177   -0.114634  11101001010100
      248   -0.072474  11011001001100
      822   -0.052238  11010011001001

 DENSITY MATRIX OVER ACTIVE MO-S

             1           2           3           4           5

    1    1.9736165
    2    0.0000000   1.7191448
    3   -0.0000000   0.0000000   1.7191448
    4    0.0001716  -0.0000000  -0.0000000   1.2367108
    5    0.0029761  -0.0000000   0.0000000   0.0043046   0.2923317
    6    0.0000000  -0.0001519  -0.0000071  -0.0000000   0.0000000
    7    0.0000000   0.0000071  -0.0001519   0.0000000  -0.0000000

             6           7

    6    0.0295257
    7    0.0000000   0.0295257

 FORMING THE "STANDARD FOCK OPERATOR" IN DIRECT AO INTEGRAL MODE...
 ONLY THE   14 CORE AND   64 VIRTUAL ORBITALS WILL BE CANONICALIZED

          ----------------------
          MCSCF NATURAL ORBITALS
          ----------------------

                      1          2          3          4          5
                 -439.2723   -58.0908   -50.8008   -50.8006   -50.8006
                     A          A          A          A          A   
    1  AS 1  S    1.000007   0.000041  -0.000000  -0.000000  -0.000000
    2  AS 1  S   -0.000007   0.999990   0.000012  -0.000000   0.000000
    3  AS 1  S    0.000185  -0.000316  -0.000003   0.000000  -0.000000
    4  AS 1  S    0.000180  -0.000285  -0.000002   0.000000  -0.000000
    5  AS 1  S   -0.000081  -0.000190   0.000002   0.000000  -0.000000
    6  AS 1  S   -0.000023  -0.000071   0.000001  -0.000000   0.000000
    7  AS 1  X    0.000000   0.000000  -0.000001   0.821684  -0.569984
    8  AS 1  Y    0.000000   0.000000  -0.000000   0.569984   0.821684
    9  AS 1  Z   -0.000000  -0.000013   1.000024   0.000001  -0.000000
   10  AS 1  X    0.000000  -0.000000  -0.000000  -0.000005   0.000003
   11  AS 1  Y    0.000000   0.000000  -0.000000  -0.000003  -0.000005
   12  AS 1  Z   -0.000000  -0.000001  -0.000004   0.000000  -0.000000
   13  AS 1  X    0.000000   0.000000   0.000000  -0.000070   0.000048
   14  AS 1  Y    0.000000   0.000000   0.000000  -0.000048  -0.000070
   15  AS 1  Z   -0.000000   0.000000  -0.000005  -0.000000   0.000000
   16  AS 1  X    0.000000   0.000000   0.000000  -0.000386   0.000268
   17  AS 1  Y    0.000000   0.000000   0.000000  -0.000268  -0.000386
   18  AS 1  Z    0.000000   0.000000  -0.000418  -0.000000   0.000000
   19  AS 1  X    0.000000  -0.000000   0.000000  -0.000069   0.000048
   20  AS 1  Y   -0.000000   0.000000   0.000000  -0.000048  -0.000069
   21  AS 1  Z    0.000000   0.000000  -0.000065  -0.000000   0.000000
   22  AS 1 XX   -0.000001   0.000002   0.000001   0.000001  -0.000001
   23  AS 1 YY   -0.000001   0.000002   0.000001  -0.000001   0.000001
   24  AS 1 ZZ    0.000002  -0.000004  -0.000001  -0.000000  -0.000000
   25  AS 1 XY    0.000000   0.000000   0.000000  -0.000001  -0.000001
   26  AS 1 XZ    0.000000  -0.000000   0.000000  -0.000001   0.000001
   27  AS 1 YZ    0.000000   0.000000   0.000000  -0.000001  -0.000001
   28  AS 1 XX    0.000009  -0.000021  -0.000000  -0.000043   0.000030
   29  AS 1 YY    0.000009  -0.000021  -0.000000   0.000043  -0.000030
   30  AS 1 ZZ   -0.000017   0.000043   0.000001  -0.000000   0.000000
   31  AS 1 XY    0.000000  -0.000000  -0.000000   0.000035   0.000050
   32  AS 1 XZ    0.000000   0.000000  -0.000000   0.000001  -0.000000
   33  AS 1 YZ    0.000000   0.000000   0.000000   0.000000   0.000001
   34  AS 1 XX    0.000010  -0.000024   0.000000  -0.000012   0.000008
   35  AS 1 YY    0.000010  -0.000024   0.000000   0.000012  -0.000008
   36  AS 1 ZZ   -0.000020   0.000049  -0.000000   0.000000  -0.000000
   37  AS 1 XY    0.000000  -0.000000  -0.000000   0.000010   0.000014
   38  AS 1 XZ    0.000000   0.000000   0.000000  -0.000000   0.000000
   39  AS 1 YZ    0.000000   0.000000   0.000000  -0.000000  -0.000000
   40  AS 1 XXX   0.000020  -0.000050  -0.000000  -0.000010   0.000007
   41  AS 1 YYY   0.000000   0.000000   0.000000  -0.000007  -0.000010
   42  AS 1 ZZZ   0.000000  -0.000000  -0.000000   0.000000  -0.000000
   43  AS 1 XXY   0.000000   0.000000   0.000000  -0.000003  -0.000005
   44  AS 1 XXZ  -0.000000   0.000000   0.000000   0.000000  -0.000000
   45  AS 1 YYX  -0.000027   0.000068   0.000000  -0.000005   0.000003
   46  AS 1 YYZ  -0.000000   0.000000   0.000000  -0.000000   0.000000
   47  AS 1 ZZX   0.000000   0.000000  -0.000000   0.000018  -0.000013
   48  AS 1 ZZY   0.000000  -0.000000  -0.000000   0.000013   0.000018
   49  AS 1 XYZ   0.000000   0.000000   0.000000  -0.000000  -0.000000
   50  H  2  S    0.000003  -0.000002   0.000000  -0.000001  -0.000013
   51  H  2  S   -0.000046   0.000114   0.000001   0.000005   0.000065
   52  H  2  S    0.000001   0.000023  -0.000000   0.000004   0.000044
   53  H  2  X   -0.000000   0.000002  -0.000000   0.000000   0.000008
   54  H  2  Y    0.000001  -0.000004   0.000000  -0.000001  -0.000014
   55  H  2  Z    0.000000   0.000000   0.000001   0.000000   0.000000
   56  H  2  X   -0.000013   0.000034   0.000000   0.000001   0.000034
   57  H  2  Y    0.000023  -0.000059  -0.000000  -0.000006  -0.000058
   58  H  2  Z   -0.000000   0.000000  -0.000004   0.000000   0.000000
   59  H  2 XX    0.000001  -0.000003  -0.000000   0.000002  -0.000004
   60  H  2 YY   -0.000003   0.000011  -0.000000  -0.000001   0.000025
   61  H  2 ZZ    0.000002  -0.000008   0.000000  -0.000002  -0.000020
   62  H  2 XY    0.000004  -0.000014   0.000000  -0.000004  -0.000029
   63  H  2 XZ   -0.000000   0.000000   0.000003   0.000000   0.000000
   64  H  2 YZ    0.000000  -0.000000  -0.000005   0.000000  -0.000000
   65  H  3  S    0.000003  -0.000002   0.000000   0.000012   0.000006
   66  H  3  S   -0.000046   0.000114   0.000001  -0.000059  -0.000028
   67  H  3  S    0.000001   0.000023  -0.000000  -0.000040  -0.000019
   68  H  3  X   -0.000000   0.000002  -0.000000  -0.000007  -0.000003
   69  H  3  Y   -0.000001   0.000004  -0.000000  -0.000012  -0.000006
   70  H  3  Z    0.000000   0.000000   0.000001  -0.000000  -0.000000
   71  H  3  X   -0.000013   0.000034   0.000000  -0.000031  -0.000013
   72  H  3  Y   -0.000023   0.000059   0.000000  -0.000052  -0.000026
   73  H  3  Z   -0.000000   0.000000  -0.000004  -0.000000  -0.000000
   74  H  3 XX    0.000001  -0.000003  -0.000000   0.000005  -0.000001
   75  H  3 YY   -0.000003   0.000011  -0.000000  -0.000024  -0.000008
   76  H  3 ZZ    0.000002  -0.000008   0.000000   0.000019   0.000009
   77  H  3 XY   -0.000004   0.000014  -0.000000  -0.000025  -0.000014
   78  H  3 XZ   -0.000000   0.000000   0.000003  -0.000000  -0.000000
   79  H  3 YZ   -0.000000   0.000000   0.000005  -0.000000  -0.000000
   80  H  4  S    0.000003  -0.000002   0.000000  -0.000011   0.000008
   81  H  4  S   -0.000046   0.000114   0.000001   0.000054  -0.000037
   82  H  4  S    0.000001   0.000023  -0.000000   0.000036  -0.000025
   83  H  4  X    0.000001  -0.000005   0.000000  -0.000013   0.000009
   84  H  4  Y    0.000000   0.000000  -0.000000  -0.000000  -0.000000
   85  H  4  Z    0.000000   0.000000   0.000001   0.000000  -0.000000
   86  H  4  X    0.000027  -0.000068  -0.000000  -0.000055   0.000038
   87  H  4  Y    0.000000   0.000000   0.000000  -0.000001  -0.000001
   88  H  4  Z   -0.000000   0.000000  -0.000004   0.000000  -0.000000
   89  H  4 XX   -0.000005   0.000018  -0.000000   0.000032  -0.000022
   90  H  4 YY    0.000003  -0.000010   0.000000  -0.000015   0.000011
   91  H  4 ZZ    0.000002  -0.000008   0.000000  -0.000017   0.000012
   92  H  4 XY    0.000000   0.000000   0.000000  -0.000002  -0.000003
   93  H  4 XZ    0.000000  -0.000000  -0.000006  -0.000000   0.000000
   94  H  4 YZ    0.000000   0.000000   0.000000   0.000000   0.000000

                      6          7          8          9         10
                   -8.5921    -6.2545    -6.2545    -6.2511    -2.3907
                     A          A          A          A          A   
    1  AS 1  S   -0.000068   0.000000  -0.000000   0.000003   0.000000
    2  AS 1  S   -0.000319  -0.000000  -0.000000   0.000020   0.000000
    3  AS 1  S    0.980078  -0.000000   0.000000   0.000153   0.000000
    4  AS 1  S   -0.000986   0.000000  -0.000000   0.000066   0.000000
    5  AS 1  S    0.029990   0.000000  -0.000000  -0.000045  -0.000000
    6  AS 1  S    0.003077   0.000000  -0.000000  -0.000019   0.000000
    7  AS 1  X   -0.000000  -0.000098   0.000005  -0.000000   0.000004
    8  AS 1  Y   -0.000000  -0.000005  -0.000098  -0.000000  -0.000160
    9  AS 1  Z    0.000001   0.000000  -0.000000   0.000038   0.000000
   10  AS 1  X   -0.000000   0.974060  -0.054388  -0.000000   0.000009
   11  AS 1  Y   -0.000000   0.054388   0.974060   0.000000  -0.000412
   12  AS 1  Z   -0.000078   0.000000  -0.000000   0.976861   0.000000
   13  AS 1  X   -0.000000  -0.001001   0.000056   0.000000   0.000077
   14  AS 1  Y   -0.000000  -0.000056  -0.001001  -0.000000  -0.003359
   15  AS 1  Z    0.000009   0.000000  -0.000000   0.000471   0.000000
   16  AS 1  X    0.000000   0.045820  -0.002558  -0.000000  -0.000042
   17  AS 1  Y    0.000000   0.002558   0.045820   0.000000   0.001805
   18  AS 1  Z   -0.000014   0.000000  -0.000000   0.044775   0.000000
   19  AS 1  X    0.000000   0.001935  -0.000108  -0.000000  -0.000055
   20  AS 1  Y    0.000000   0.000108   0.001935  -0.000000   0.002401
   21  AS 1  Z   -0.000004  -0.000000  -0.000000   0.001551   0.000000
   22  AS 1 XX    0.000307   0.000611  -0.000034   0.000024   0.019252
   23  AS 1 YY    0.000307  -0.000611   0.000034   0.000024  -0.019252
   24  AS 1 ZZ   -0.000614   0.000000  -0.000000  -0.000048  -0.000000
   25  AS 1 XY   -0.000000  -0.000039  -0.000706   0.000000   0.965350
   26  AS 1 XZ   -0.000000  -0.000047   0.000003   0.000000  -0.000079
   27  AS 1 YZ   -0.000000  -0.000003  -0.000047   0.000000   0.003433
   28  AS 1 XX    0.000052  -0.000361   0.000020   0.000004   0.001720
   29  AS 1 YY    0.000052   0.000361  -0.000020   0.000004  -0.001720
   30  AS 1 ZZ   -0.000105   0.000000  -0.000000  -0.000008  -0.000000
   31  AS 1 XY    0.000000   0.000023   0.000417   0.000000   0.086235
   32  AS 1 XZ    0.000000  -0.000003   0.000000  -0.000000  -0.000007
   33  AS 1 YZ   -0.000000  -0.000000  -0.000003   0.000000   0.000304
   34  AS 1 XX   -0.000001  -0.000210   0.000012  -0.000000   0.000012
   35  AS 1 YY   -0.000001   0.000210  -0.000012  -0.000000  -0.000012
   36  AS 1 ZZ    0.000002   0.000000  -0.000000   0.000000   0.000000
   37  AS 1 XY   -0.000000   0.000014   0.000243   0.000000   0.000625
   38  AS 1 XZ   -0.000000   0.000006  -0.000000   0.000000  -0.000000
   39  AS 1 YZ   -0.000000   0.000000   0.000006   0.000000   0.000011
   40  AS 1 XXX   0.000071   0.000047  -0.000003   0.000003   0.000007
   41  AS 1 YYY  -0.000000   0.000003   0.000047  -0.000000  -0.000324
   42  AS 1 ZZZ   0.000000   0.000000  -0.000000  -0.000215   0.000000
   43  AS 1 XXY  -0.000000   0.000001   0.000021  -0.000000  -0.000145
   44  AS 1 XXZ  -0.000000   0.000001  -0.000000   0.000144  -0.000001
   45  AS 1 YYX  -0.000095   0.000021  -0.000001  -0.000004   0.000003
   46  AS 1 YYZ  -0.000000  -0.000001   0.000000   0.000144   0.000001
   47  AS 1 ZZX   0.000000  -0.000084   0.000005   0.000000  -0.000013
   48  AS 1 ZZY  -0.000000  -0.000005  -0.000084   0.000000   0.000580
   49  AS 1 XYZ  -0.000000  -0.000000  -0.000002   0.000000  -0.000031
   50  H  2  S    0.000026  -0.000190   0.000376  -0.000001  -0.005007
   51  H  2  S    0.000225  -0.000896   0.001774  -0.000011  -0.003430
   52  H  2  S   -0.000496   0.000287  -0.000568   0.000004  -0.001457
   53  H  2  X    0.000004   0.000007   0.000032  -0.000000  -0.000548
   54  H  2  Y   -0.000007   0.000030  -0.000033   0.000000   0.001405
   55  H  2  Z   -0.000000  -0.000000   0.000000   0.000012  -0.000005
   56  H  2  X   -0.000009  -0.000039   0.000280  -0.000003   0.000218
   57  H  2  Y    0.000015   0.000256  -0.000391   0.000005   0.000680
   58  H  2  Z   -0.000000  -0.000000   0.000001   0.000117  -0.000010
   59  H  2 XX   -0.000005   0.000001  -0.000052   0.000000   0.000291
   60  H  2 YY    0.000032  -0.000048   0.000145  -0.000001  -0.000779
   61  H  2 ZZ   -0.000027   0.000047  -0.000093   0.000000   0.000488
   62  H  2 XY   -0.000037   0.000103  -0.000170   0.000001   0.000703
   63  H  2 XZ    0.000000  -0.000001   0.000001  -0.000014  -0.000003
   64  H  2 YZ   -0.000000   0.000000  -0.000001   0.000025   0.000008
   65  H  3  S    0.000026  -0.000231  -0.000353  -0.000001   0.004876
   66  H  3  S    0.000225  -0.001088  -0.001664  -0.000011   0.003340
   67  H  3  S   -0.000496   0.000348   0.000532   0.000004   0.001419
   68  H  3  X    0.000004   0.000004  -0.000032  -0.000000   0.000512
   69  H  3  Y    0.000007  -0.000034  -0.000030  -0.000000   0.001380
   70  H  3  Z   -0.000000  -0.000000  -0.000000   0.000012   0.000005
   71  H  3  X   -0.000009  -0.000070  -0.000274  -0.000003  -0.000262
   72  H  3  Y   -0.000015  -0.000298  -0.000360  -0.000005   0.000691
   73  H  3  Z   -0.000000  -0.000001  -0.000001   0.000117   0.000010
   74  H  3 XX   -0.000005   0.000007   0.000052   0.000000  -0.000298
   75  H  3 YY    0.000032  -0.000064  -0.000139  -0.000001   0.000773
   76  H  3 ZZ   -0.000027   0.000057   0.000087   0.000000  -0.000475
   77  H  3 XY    0.000037  -0.000121  -0.000158  -0.000001   0.000675
   78  H  3 XZ    0.000000  -0.000001  -0.000001  -0.000014   0.000002
   79  H  3 YZ    0.000000  -0.000001  -0.000001  -0.000025   0.000008
   80  H  4  S    0.000026   0.000421  -0.000023  -0.000001   0.000131
   81  H  4  S    0.000225   0.001985  -0.000111  -0.000011   0.000090
   82  H  4  S   -0.000496  -0.000635   0.000035   0.000004   0.000038
   83  H  4  X   -0.000008  -0.000050   0.000003   0.000000  -0.000039
   84  H  4  Y   -0.000000   0.000001   0.000024   0.000000   0.000474
   85  H  4  Z   -0.000000   0.000000  -0.000000   0.000012   0.000000
   86  H  4  X    0.000018  -0.000535   0.000030   0.000005  -0.000013
   87  H  4  Y    0.000000   0.000006   0.000105  -0.000000   0.001101
   88  H  4  Z   -0.000000   0.000001  -0.000000   0.000117   0.000000
   89  H  4 XX    0.000050   0.000250  -0.000014  -0.000001   0.000027
   90  H  4 YY   -0.000023  -0.000146   0.000008   0.000001  -0.000014
   91  H  4 ZZ   -0.000027  -0.000104   0.000006   0.000000  -0.000013
   92  H  4 XY   -0.000000   0.000002   0.000030   0.000000  -0.000381
   93  H  4 XZ   -0.000000  -0.000002   0.000000   0.000029  -0.000000
   94  H  4 YZ   -0.000000  -0.000000  -0.000000   0.000000   0.000004

                     11         12         13         14         15
                   -2.3907    -2.3863    -2.3854    -2.3854     1.9736
                     A          A          A          A          A   
    1  AS 1  S   -0.000000  -0.000051   0.000000  -0.000000   0.000423
    2  AS 1  S    0.000000  -0.000339   0.000000  -0.000000   0.002499
    3  AS 1  S    0.000000  -0.000412   0.000000  -0.000000   0.003949
    4  AS 1  S   -0.000000  -0.000684   0.000000  -0.000000   0.554351
    5  AS 1  S   -0.000000   0.000756  -0.000000   0.000000   0.267585
    6  AS 1  S   -0.000000   0.003847  -0.000000   0.000000   0.127631
    7  AS 1  X    0.000160  -0.000000   0.000006   0.000000  -0.000000
    8  AS 1  Y    0.000004  -0.000000  -0.000000   0.000006  -0.000000
    9  AS 1  Z   -0.000000   0.000004   0.000000  -0.000000   0.000008
   10  AS 1  X    0.000412   0.000000   0.000098   0.000000  -0.000000
   11  AS 1  Y    0.000009  -0.000000  -0.000000   0.000098  -0.000000
   12  AS 1  Z   -0.000000   0.000078   0.000000  -0.000000   0.000129
   13  AS 1  X    0.003359   0.000000   0.000036   0.000000  -0.000000
   14  AS 1  Y    0.000077  -0.000000  -0.000000   0.000036   0.000000
   15  AS 1  Z   -0.000000   0.000073   0.000000  -0.000000   0.000044
   16  AS 1  X   -0.001805  -0.000000  -0.000055  -0.000000   0.000000
   17  AS 1  Y   -0.000042  -0.000000   0.000000  -0.000055  -0.000000
   18  AS 1  Z    0.000000  -0.000024  -0.000000  -0.000000  -0.000049
   19  AS 1  X   -0.002401   0.000000   0.000012   0.000000   0.000000
   20  AS 1  Y   -0.000055  -0.000000  -0.000000   0.000012  -0.000000
   21  AS 1  Z   -0.000000   0.000015   0.000000  -0.000000   0.000222
   22  AS 1 XX    0.836017  -0.483554   0.002984   0.000000  -0.013234
   23  AS 1 YY   -0.836017  -0.483554  -0.002984  -0.000000  -0.013234
   24  AS 1 ZZ   -0.000000   0.967108  -0.000000   0.000000   0.026468
   25  AS 1 XY   -0.022230   0.000000   0.000000  -0.003445   0.000000
   26  AS 1 XZ   -0.003433   0.000000   0.967340   0.000023   0.000000
   27  AS 1 YZ   -0.000079  -0.000000  -0.000023   0.967340   0.000000
   28  AS 1 XX    0.074681  -0.041929   0.000264   0.000000   0.008367
   29  AS 1 YY   -0.074681  -0.041929  -0.000264  -0.000000   0.008367
   30  AS 1 ZZ   -0.000000   0.083857  -0.000000   0.000000  -0.016735
   31  AS 1 XY   -0.001986   0.000000   0.000000  -0.000305  -0.000000
   32  AS 1 XZ   -0.000304   0.000000   0.084092   0.000002  -0.000000
   33  AS 1 YZ   -0.000007  -0.000000  -0.000002   0.084092   0.000000
   34  AS 1 XX    0.000541  -0.000826   0.000028   0.000000   0.004258
   35  AS 1 YY   -0.000541  -0.000826  -0.000028  -0.000000   0.004258
   36  AS 1 ZZ   -0.000000   0.001652   0.000000   0.000000  -0.008515
   37  AS 1 XY   -0.000014  -0.000000   0.000000  -0.000032   0.000000
   38  AS 1 XZ   -0.000011  -0.000000   0.001515   0.000000   0.000000
   39  AS 1 YZ   -0.000000  -0.000000  -0.000000   0.001515   0.000000
   40  AS 1 XXX   0.000324  -0.000758   0.000019   0.000000   0.013371
   41  AS 1 YYY   0.000007  -0.000000  -0.000000   0.000019   0.000000
   42  AS 1 ZZZ  -0.000000  -0.000031  -0.000000  -0.000000   0.000079
   43  AS 1 XXY   0.000003  -0.000000  -0.000000   0.000008   0.000000
   44  AS 1 XXZ  -0.000027   0.000021   0.000226   0.000000  -0.000053
   45  AS 1 YYX   0.000145   0.001016   0.000008   0.000000  -0.017938
   46  AS 1 YYZ   0.000027   0.000021  -0.000226  -0.000000  -0.000053
   47  AS 1 ZZX  -0.000580  -0.000000  -0.000034  -0.000000   0.000000
   48  AS 1 ZZY  -0.000013  -0.000000   0.000000  -0.000034   0.000000
   49  AS 1 XYZ   0.000001  -0.000000   0.000000  -0.000261   0.000000
   50  H  2  S   -0.002739  -0.002785   0.000013  -0.000023   0.072750
   51  H  2  S   -0.001877  -0.001359   0.000036  -0.000062   0.103708
   52  H  2  S   -0.000797  -0.000350   0.000010  -0.000018   0.008759
   53  H  2  X   -0.000768  -0.000470  -0.000001  -0.000006   0.003447
   54  H  2  Y    0.000498   0.000813  -0.000006   0.000006  -0.005971
   55  H  2  Z   -0.000003  -0.000006  -0.000238   0.000413   0.000024
   56  H  2  X   -0.000968  -0.000121  -0.000000  -0.000015   0.006062
   57  H  2  Y   -0.000256   0.000209  -0.000015   0.000018  -0.010500
   58  H  2  Z   -0.000005  -0.000013  -0.000606   0.001049   0.000041
   59  H  2 XX   -0.000167  -0.000004  -0.000002  -0.000003   0.000026
   60  H  2 YY   -0.000100  -0.000448   0.000005  -0.000003   0.001480
   61  H  2 ZZ    0.000267   0.000453  -0.000003   0.000006  -0.001506
   62  H  2 XY    0.000602   0.000444  -0.000000   0.000004  -0.001454
   63  H  2 XZ   -0.000006  -0.000005  -0.000042   0.000264   0.000006
   64  H  2 YZ    0.000002   0.000008   0.000264  -0.000346  -0.000010
   65  H  3  S   -0.002967  -0.002785   0.000013   0.000023   0.072750
   66  H  3  S   -0.002032  -0.001359   0.000036   0.000062   0.103708
   67  H  3  S   -0.000863  -0.000350   0.000010   0.000018   0.008759
   68  H  3  X   -0.000793  -0.000470  -0.000001   0.000006   0.003447
   69  H  3  Y   -0.000562  -0.000813   0.000006   0.000006   0.005971
   70  H  3  Z   -0.000003  -0.000006  -0.000238  -0.000413   0.000024
   71  H  3  X   -0.000957  -0.000121  -0.000000   0.000015   0.006062
   72  H  3  Y    0.000224  -0.000209   0.000015   0.000018   0.010500
   73  H  3  Z   -0.000006  -0.000013  -0.000605  -0.001049   0.000041
   74  H  3 XX   -0.000153  -0.000004  -0.000002   0.000003   0.000026
   75  H  3 YY   -0.000136  -0.000448   0.000005   0.000003   0.001480
   76  H  3 ZZ    0.000289   0.000453  -0.000003  -0.000006  -0.001506
   77  H  3 XY   -0.000634  -0.000444   0.000000   0.000004   0.001454
   78  H  3 XZ   -0.000006  -0.000005  -0.000042  -0.000264   0.000006
   79  H  3 YZ   -0.000003  -0.000008  -0.000264  -0.000346   0.000010
   80  H  4  S    0.005706  -0.002785  -0.000027  -0.000000   0.072750
   81  H  4  S    0.003909  -0.001359  -0.000072  -0.000000   0.103708
   82  H  4  S    0.001661  -0.000350  -0.000020  -0.000000   0.008759
   83  H  4  X   -0.001698   0.000939   0.000010   0.000000  -0.006895
   84  H  4  Y   -0.000011  -0.000000  -0.000000  -0.000004   0.000000
   85  H  4  Z    0.000005  -0.000006   0.000476   0.000000   0.000024
   86  H  4  X   -0.000547   0.000242   0.000027   0.000000  -0.012124
   87  H  4  Y   -0.000025  -0.000000   0.000000  -0.000009  -0.000000
   88  H  4  Z    0.000011  -0.000013   0.001211   0.000000   0.000041
   89  H  4 XX    0.001184  -0.000670  -0.000007  -0.000000   0.002207
   90  H  4 YY   -0.000628   0.000217   0.000000  -0.000000  -0.000701
   91  H  4 ZZ   -0.000556   0.000453   0.000007   0.000000  -0.001506
   92  H  4 XY    0.000009  -0.000000  -0.000000   0.000004   0.000000
   93  H  4 XZ   -0.000010   0.000010  -0.000498  -0.000000  -0.000011
   94  H  4 YZ   -0.000000  -0.000000  -0.000000   0.000111   0.000000

                     16         17         18         19         20
                    1.7191     1.7191     1.2367     0.2923     0.0295
                     A          A          A          A          A   
    1  AS 1  S   -0.000000   0.000000   0.000009   0.001429  -0.000000
    2  AS 1  S   -0.000000   0.000000   0.000067   0.010683  -0.000000
    3  AS 1  S    0.000000   0.000000   0.000413   0.067536  -0.000000
    4  AS 1  S   -0.000000  -0.000000   0.003153   0.493035  -0.000000
    5  AS 1  S   -0.000000  -0.000000   0.001758   0.282143   0.000000
    6  AS 1  S   -0.000000   0.000000   0.002748   0.620117   0.000000
    7  AS 1  X   -0.003986   0.000073   0.000000  -0.000000   0.008250
    8  AS 1  Y   -0.000073  -0.003986   0.000000  -0.000000   0.010877
    9  AS 1  Z   -0.000000   0.000000  -0.000279  -0.000034   0.000000
   10  AS 1  X   -0.053180   0.000977   0.000000   0.000000   0.112693
   11  AS 1  Y   -0.000977  -0.053180   0.000000  -0.000000   0.148575
   12  AS 1  Z    0.000000   0.000000  -0.001552  -0.000473   0.000000
   13  AS 1  X    0.361993  -0.006647  -0.000000   0.000000   0.587690
   14  AS 1  Y    0.006647   0.361993   0.000000  -0.000000   0.774815
   15  AS 1  Z   -0.000000  -0.000000   0.609941  -0.004854   0.000000
   16  AS 1  X    0.170609  -0.003133  -0.000000  -0.000000   0.166304
   17  AS 1  Y    0.003133   0.170609   0.000000  -0.000000   0.219257
   18  AS 1  Z   -0.000000  -0.000000   0.231754  -0.001549  -0.000000
   19  AS 1  X    0.065495  -0.001203  -0.000000   0.000000   0.123924
   20  AS 1  Y    0.001203   0.065495   0.000000   0.000000   0.163382
   21  AS 1  Z    0.000000  -0.000000   0.294095  -0.003513   0.000000
   22  AS 1 XX   -0.054307   0.000997   0.000117   0.057052   0.063187
   23  AS 1 YY    0.054307  -0.000997   0.000117   0.057052  -0.063187
   24  AS 1 ZZ    0.000000   0.000000  -0.000235  -0.114104  -0.000000
   25  AS 1 XY    0.001152   0.062708  -0.000000   0.000000  -0.096193
   26  AS 1 XZ    0.000508  -0.000009  -0.000000  -0.000000  -0.001217
   27  AS 1 YZ    0.000009   0.000508  -0.000000  -0.000000  -0.001605
   28  AS 1 XX    0.027562  -0.000506   0.000034  -0.045531  -0.035520
   29  AS 1 YY   -0.027562   0.000506   0.000034  -0.045531   0.035520
   30  AS 1 ZZ   -0.000000  -0.000000  -0.000068   0.091062   0.000000
   31  AS 1 XY   -0.000584  -0.031826  -0.000000  -0.000000   0.054074
   32  AS 1 XZ   -0.000204   0.000004   0.000000  -0.000000   0.001334
   33  AS 1 YZ   -0.000004  -0.000204  -0.000000  -0.000000   0.001759
   34  AS 1 XX    0.020699  -0.000380   0.000204  -0.086574   0.024615
   35  AS 1 YY   -0.020699   0.000380   0.000204  -0.086574  -0.024615
   36  AS 1 ZZ   -0.000000  -0.000000  -0.000408   0.173149   0.000000
   37  AS 1 XY   -0.000439  -0.023901  -0.000000  -0.000000  -0.037473
   38  AS 1 XZ   -0.000156   0.000003  -0.000000  -0.000000   0.001323
   39  AS 1 YZ   -0.000003  -0.000156  -0.000000  -0.000000   0.001744
   40  AS 1 XXX   0.007718  -0.000142  -0.000184  -0.043239  -0.003654
   41  AS 1 YYY   0.000142   0.007718   0.000000  -0.000000  -0.004817
   42  AS 1 ZZZ  -0.000000  -0.000000  -0.014736  -0.000510   0.000000
   43  AS 1 XXY   0.000063   0.003451   0.000000   0.000000  -0.002154
   44  AS 1 XXZ  -0.000102   0.000002   0.009885   0.000342   0.000183
   45  AS 1 YYX   0.003451  -0.000063   0.000247   0.058011  -0.001634
   46  AS 1 YYZ   0.000102  -0.000002   0.009885   0.000342  -0.000183
   47  AS 1 ZZX  -0.013806   0.000254  -0.000000   0.000000   0.006536
   48  AS 1 ZZY  -0.000254  -0.013806  -0.000000  -0.000000   0.008617
   49  AS 1 XYZ   0.000002   0.000118  -0.000000  -0.000000  -0.000278
   50  H  2  S   -0.078572   0.142052  -0.000967  -0.140776  -0.103102
   51  H  2  S   -0.137872   0.249260  -0.002059  -0.328316  -0.295188
   52  H  2  S   -0.039461   0.071341  -0.001035  -0.298811  -0.027804
   53  H  2  X   -0.001266   0.005791  -0.000019   0.000601   0.003655
   54  H  2  Y    0.005618  -0.008135   0.000034  -0.001041   0.006655
   55  H  2  Z   -0.000019   0.000035   0.004511  -0.000032   0.000048
   56  H  2  X   -0.002197   0.014184  -0.000040  -0.000350   0.004369
   57  H  2  Y    0.013794  -0.019043   0.000070   0.000607   0.060978
   58  H  2  Z   -0.000038   0.000069   0.023409   0.000056   0.000190
   59  H  2 XX    0.001451   0.000199  -0.000009  -0.000452   0.004378
   60  H  2 YY   -0.002505   0.001706  -0.000022  -0.000048  -0.007312
   61  H  2 ZZ    0.001054  -0.001905   0.000030   0.000499   0.002934
   62  H  2 XY    0.000768  -0.003271   0.000013  -0.000404   0.000564
   63  H  2 XZ   -0.000006   0.000012   0.001335   0.000002   0.000077
   64  H  2 YZ    0.000011  -0.000020  -0.002312  -0.000003   0.000001
   65  H  3  S   -0.083734  -0.139071  -0.000967  -0.140776   0.263754
   66  H  3  S   -0.146930  -0.244030  -0.002059  -0.328316   0.755145
   67  H  3  S   -0.042053  -0.069845  -0.001035  -0.298811   0.071127
   68  H  3  X   -0.001478  -0.005740  -0.000019   0.000601   0.005796
   69  H  3  Y   -0.005913  -0.007923  -0.000034   0.001041   0.008279
   70  H  3  Z   -0.000021  -0.000034   0.004511  -0.000032  -0.000123
   71  H  3  X   -0.002716  -0.014094  -0.000040  -0.000350   0.068777
   72  H  3  Y   -0.014484  -0.018524  -0.000070  -0.000607   0.109831
   73  H  3  Z   -0.000041  -0.000068   0.023409   0.000056  -0.000486
   74  H  3 XX    0.001443  -0.000252  -0.000009  -0.000452   0.000040
   75  H  3 YY   -0.002566  -0.001613  -0.000022  -0.000048   0.007466
   76  H  3 ZZ    0.001123   0.001865   0.000030   0.000499  -0.007506
   77  H  3 XY   -0.000888  -0.003240  -0.000013   0.000404   0.008935
   78  H  3 XZ   -0.000007  -0.000011   0.001335   0.000002  -0.000041
   79  H  3 YZ   -0.000012  -0.000019   0.002312   0.000003  -0.000088
   80  H  4  S    0.162306  -0.002980  -0.000967  -0.140776  -0.160652
   81  H  4  S    0.284801  -0.005230  -0.002059  -0.328316  -0.459957
   82  H  4  S    0.081514  -0.001497  -0.001035  -0.298811  -0.043323
   83  H  4  X   -0.011358   0.000209   0.000039  -0.001203   0.006132
   84  H  4  Y    0.000036   0.001957  -0.000000   0.000000   0.005612
   85  H  4  Z    0.000040  -0.000001   0.004511  -0.000032   0.000075
   86  H  4  X   -0.026946   0.000495   0.000081   0.000701   0.078881
   87  H  4  Y    0.000105   0.005707   0.000000  -0.000000   0.029625
   88  H  4  Z    0.000079  -0.000001   0.023409   0.000056   0.000296
   89  H  4 XX    0.004322  -0.000079  -0.000028   0.000155  -0.007499
   90  H  4 YY   -0.002145   0.000039  -0.000002  -0.000654   0.002926
   91  H  4 ZZ   -0.002176   0.000040   0.000030   0.000499   0.004572
   92  H  4 XY   -0.000033  -0.001821  -0.000000  -0.000000  -0.004809
   93  H  4 XZ   -0.000026   0.000000  -0.002670  -0.000003  -0.000059
   94  H  4 YZ    0.000000   0.000000  -0.000000  -0.000000   0.000058

                     21
                    0.0295
                     A   
    1  AS 1  S   -0.000000
    2  AS 1  S   -0.000000
    3  AS 1  S   -0.000000
    4  AS 1  S   -0.000000
    5  AS 1  S    0.000000
    6  AS 1  S    0.000000
    7  AS 1  X    0.010877
    8  AS 1  Y   -0.008250
    9  AS 1  Z   -0.000000
   10  AS 1  X    0.148575
   11  AS 1  Y   -0.112693
   12  AS 1  Z   -0.000000
   13  AS 1  X    0.774815
   14  AS 1  Y   -0.587690
   15  AS 1  Z    0.000000
   16  AS 1  X    0.219257
   17  AS 1  Y   -0.166304
   18  AS 1  Z    0.000000
   19  AS 1  X    0.163382
   20  AS 1  Y   -0.123924
   21  AS 1  Z   -0.000000
   22  AS 1 XX    0.083306
   23  AS 1 YY   -0.083306
   24  AS 1 ZZ    0.000000
   25  AS 1 XY    0.072962
   26  AS 1 XZ   -0.001605
   27  AS 1 YZ    0.001217
   28  AS 1 XX   -0.046829
   29  AS 1 YY    0.046829
   30  AS 1 ZZ    0.000000
   31  AS 1 XY   -0.041015
   32  AS 1 XZ    0.001759
   33  AS 1 YZ   -0.001334
   34  AS 1 XX    0.032452
   35  AS 1 YY   -0.032452
   36  AS 1 ZZ    0.000000
   37  AS 1 XY    0.028423
   38  AS 1 XZ    0.001744
   39  AS 1 YZ   -0.001323
   40  AS 1 XXX  -0.004817
   41  AS 1 YYY   0.003654
   42  AS 1 ZZZ  -0.000000
   43  AS 1 XXY   0.001634
   44  AS 1 XXZ   0.000241
   45  AS 1 YYX  -0.002154
   46  AS 1 YYZ  -0.000241
   47  AS 1 ZZX   0.008617
   48  AS 1 ZZY  -0.006536
   49  AS 1 XYZ   0.000211
   50  H  2  S    0.245031
   51  H  2  S    0.701540
   52  H  2  S    0.066078
   53  H  2  X    0.007043
   54  H  2  Y   -0.006734
   55  H  2  Z   -0.000114
   56  H  2  X    0.072645
   57  H  2  Y   -0.096983
   58  H  2  Z   -0.000452
   59  H  2 XX    0.001267
   60  H  2 YY    0.005706
   61  H  2 ZZ   -0.006974
   62  H  2 XY   -0.009121
   63  H  2 XZ   -0.000021
   64  H  2 YZ    0.000092
   65  H  3  S   -0.033226
   66  H  3  S   -0.095129
   67  H  3  S   -0.008960
   68  H  3  X    0.005418
   69  H  3  Y   -0.004593
   70  H  3  Z    0.000015
   71  H  3  X    0.023792
   72  H  3  Y   -0.032574
   73  H  3  Z    0.000061
   74  H  3 XX    0.004557
   75  H  3 YY   -0.005503
   76  H  3 ZZ    0.000946
   77  H  3 XY    0.001916
   78  H  3 XZ    0.000068
   79  H  3 YZ   -0.000025
   80  H  4  S   -0.211804
   81  H  4  S   -0.606410
   82  H  4  S   -0.057118
   83  H  4  X    0.008085
   84  H  4  Y   -0.004257
   85  H  4  Z    0.000099
   86  H  4  X    0.103997
   87  H  4  Y   -0.022470
   88  H  4  Z    0.000390
   89  H  4 XX   -0.009886
   90  H  4 YY    0.003858
   91  H  4 ZZ    0.006028
   92  H  4 XY    0.003647
   93  H  4 XZ   -0.000078
   94  H  4 YZ   -0.000044

          ------------------------
          MCSCF OPTIMIZED ORBITALS
          ------------------------

                      1          2          3          4          5
                 -439.2723   -58.0908   -50.8008   -50.8006   -50.8006
                     A          A          A          A          A   
    1  AS 1  S    1.000007   0.000041  -0.000000  -0.000000  -0.000000
    2  AS 1  S   -0.000007   0.999990   0.000012  -0.000000   0.000000
    3  AS 1  S    0.000185  -0.000316  -0.000003   0.000000  -0.000000
    4  AS 1  S    0.000180  -0.000285  -0.000002   0.000000  -0.000000
    5  AS 1  S   -0.000081  -0.000190   0.000002   0.000000  -0.000000
    6  AS 1  S   -0.000023  -0.000071   0.000001  -0.000000   0.000000
    7  AS 1  X    0.000000   0.000000  -0.000001   0.821684  -0.569984
    8  AS 1  Y    0.000000   0.000000  -0.000000   0.569984   0.821684
    9  AS 1  Z   -0.000000  -0.000013   1.000024   0.000001  -0.000000
   10  AS 1  X    0.000000  -0.000000  -0.000000  -0.000005   0.000003
   11  AS 1  Y    0.000000   0.000000  -0.000000  -0.000003  -0.000005
   12  AS 1  Z   -0.000000  -0.000001  -0.000004   0.000000  -0.000000
   13  AS 1  X    0.000000   0.000000   0.000000  -0.000070   0.000048
   14  AS 1  Y    0.000000   0.000000   0.000000  -0.000048  -0.000070
   15  AS 1  Z   -0.000000   0.000000  -0.000005  -0.000000   0.000000
   16  AS 1  X    0.000000   0.000000   0.000000  -0.000386   0.000268
   17  AS 1  Y    0.000000   0.000000   0.000000  -0.000268  -0.000386
   18  AS 1  Z    0.000000   0.000000  -0.000418  -0.000000   0.000000
   19  AS 1  X    0.000000  -0.000000   0.000000  -0.000069   0.000048
   20  AS 1  Y   -0.000000   0.000000   0.000000  -0.000048  -0.000069
   21  AS 1  Z    0.000000   0.000000  -0.000065  -0.000000   0.000000
   22  AS 1 XX   -0.000001   0.000002   0.000001   0.000001  -0.000001
   23  AS 1 YY   -0.000001   0.000002   0.000001  -0.000001   0.000001
   24  AS 1 ZZ    0.000002  -0.000004  -0.000001  -0.000000  -0.000000
   25  AS 1 XY    0.000000   0.000000   0.000000  -0.000001  -0.000001
   26  AS 1 XZ    0.000000  -0.000000   0.000000  -0.000001   0.000001
   27  AS 1 YZ    0.000000   0.000000   0.000000  -0.000001  -0.000001
   28  AS 1 XX    0.000009  -0.000021  -0.000000  -0.000043   0.000030
   29  AS 1 YY    0.000009  -0.000021  -0.000000   0.000043  -0.000030
   30  AS 1 ZZ   -0.000017   0.000043   0.000001  -0.000000   0.000000
   31  AS 1 XY    0.000000  -0.000000  -0.000000   0.000035   0.000050
   32  AS 1 XZ    0.000000   0.000000  -0.000000   0.000001  -0.000000
   33  AS 1 YZ    0.000000   0.000000   0.000000   0.000000   0.000001
   34  AS 1 XX    0.000010  -0.000024   0.000000  -0.000012   0.000008
   35  AS 1 YY    0.000010  -0.000024   0.000000   0.000012  -0.000008
   36  AS 1 ZZ   -0.000020   0.000049  -0.000000   0.000000  -0.000000
   37  AS 1 XY    0.000000  -0.000000  -0.000000   0.000010   0.000014
   38  AS 1 XZ    0.000000   0.000000   0.000000  -0.000000   0.000000
   39  AS 1 YZ    0.000000   0.000000   0.000000  -0.000000  -0.000000
   40  AS 1 XXX   0.000020  -0.000050  -0.000000  -0.000010   0.000007
   41  AS 1 YYY   0.000000   0.000000   0.000000  -0.000007  -0.000010
   42  AS 1 ZZZ   0.000000  -0.000000  -0.000000   0.000000  -0.000000
   43  AS 1 XXY   0.000000   0.000000   0.000000  -0.000003  -0.000005
   44  AS 1 XXZ  -0.000000   0.000000   0.000000   0.000000  -0.000000
   45  AS 1 YYX  -0.000027   0.000068   0.000000  -0.000005   0.000003
   46  AS 1 YYZ  -0.000000   0.000000   0.000000  -0.000000   0.000000
   47  AS 1 ZZX   0.000000   0.000000  -0.000000   0.000018  -0.000013
   48  AS 1 ZZY   0.000000  -0.000000  -0.000000   0.000013   0.000018
   49  AS 1 XYZ   0.000000   0.000000   0.000000  -0.000000  -0.000000
   50  H  2  S    0.000003  -0.000002   0.000000  -0.000001  -0.000013
   51  H  2  S   -0.000046   0.000114   0.000001   0.000005   0.000065
   52  H  2  S    0.000001   0.000023  -0.000000   0.000004   0.000044
   53  H  2  X   -0.000000   0.000002  -0.000000   0.000000   0.000008
   54  H  2  Y    0.000001  -0.000004   0.000000  -0.000001  -0.000014
   55  H  2  Z    0.000000   0.000000   0.000001   0.000000   0.000000
   56  H  2  X   -0.000013   0.000034   0.000000   0.000001   0.000034
   57  H  2  Y    0.000023  -0.000059  -0.000000  -0.000006  -0.000058
   58  H  2  Z   -0.000000   0.000000  -0.000004   0.000000   0.000000
   59  H  2 XX    0.000001  -0.000003  -0.000000   0.000002  -0.000004
   60  H  2 YY   -0.000003   0.000011  -0.000000  -0.000001   0.000025
   61  H  2 ZZ    0.000002  -0.000008   0.000000  -0.000002  -0.000020
   62  H  2 XY    0.000004  -0.000014   0.000000  -0.000004  -0.000029
   63  H  2 XZ   -0.000000   0.000000   0.000003   0.000000   0.000000
   64  H  2 YZ    0.000000  -0.000000  -0.000005   0.000000  -0.000000
   65  H  3  S    0.000003  -0.000002   0.000000   0.000012   0.000006
   66  H  3  S   -0.000046   0.000114   0.000001  -0.000059  -0.000028
   67  H  3  S    0.000001   0.000023  -0.000000  -0.000040  -0.000019
   68  H  3  X   -0.000000   0.000002  -0.000000  -0.000007  -0.000003
   69  H  3  Y   -0.000001   0.000004  -0.000000  -0.000012  -0.000006
   70  H  3  Z    0.000000   0.000000   0.000001  -0.000000  -0.000000
   71  H  3  X   -0.000013   0.000034   0.000000  -0.000031  -0.000013
   72  H  3  Y   -0.000023   0.000059   0.000000  -0.000052  -0.000026
   73  H  3  Z   -0.000000   0.000000  -0.000004  -0.000000  -0.000000
   74  H  3 XX    0.000001  -0.000003  -0.000000   0.000005  -0.000001
   75  H  3 YY   -0.000003   0.000011  -0.000000  -0.000024  -0.000008
   76  H  3 ZZ    0.000002  -0.000008   0.000000   0.000019   0.000009
   77  H  3 XY   -0.000004   0.000014  -0.000000  -0.000025  -0.000014
   78  H  3 XZ   -0.000000   0.000000   0.000003  -0.000000  -0.000000
   79  H  3 YZ   -0.000000   0.000000   0.000005  -0.000000  -0.000000
   80  H  4  S    0.000003  -0.000002   0.000000  -0.000011   0.000008
   81  H  4  S   -0.000046   0.000114   0.000001   0.000054  -0.000037
   82  H  4  S    0.000001   0.000023  -0.000000   0.000036  -0.000025
   83  H  4  X    0.000001  -0.000005   0.000000  -0.000013   0.000009
   84  H  4  Y    0.000000   0.000000  -0.000000  -0.000000  -0.000000
   85  H  4  Z    0.000000   0.000000   0.000001   0.000000  -0.000000
   86  H  4  X    0.000027  -0.000068  -0.000000  -0.000055   0.000038
   87  H  4  Y    0.000000   0.000000   0.000000  -0.000001  -0.000001
   88  H  4  Z   -0.000000   0.000000  -0.000004   0.000000  -0.000000
   89  H  4 XX   -0.000005   0.000018  -0.000000   0.000032  -0.000022
   90  H  4 YY    0.000003  -0.000010   0.000000  -0.000015   0.000011
   91  H  4 ZZ    0.000002  -0.000008   0.000000  -0.000017   0.000012
   92  H  4 XY    0.000000   0.000000   0.000000  -0.000002  -0.000003
   93  H  4 XZ    0.000000  -0.000000  -0.000006  -0.000000   0.000000
   94  H  4 YZ    0.000000   0.000000   0.000000   0.000000   0.000000

                      6          7          8          9         10
                   -8.5921    -6.2545    -6.2545    -6.2511    -2.3907
                     A          A          A          A          A   
    1  AS 1  S   -0.000068   0.000000  -0.000000   0.000003   0.000000
    2  AS 1  S   -0.000319  -0.000000  -0.000000   0.000020   0.000000
    3  AS 1  S    0.980078  -0.000000   0.000000   0.000153   0.000000
    4  AS 1  S   -0.000986   0.000000  -0.000000   0.000066   0.000000
    5  AS 1  S    0.029990   0.000000  -0.000000  -0.000045  -0.000000
    6  AS 1  S    0.003077   0.000000  -0.000000  -0.000019   0.000000
    7  AS 1  X   -0.000000  -0.000098   0.000005  -0.000000   0.000004
    8  AS 1  Y   -0.000000  -0.000005  -0.000098  -0.000000  -0.000160
    9  AS 1  Z    0.000001   0.000000  -0.000000   0.000038   0.000000
   10  AS 1  X   -0.000000   0.974060  -0.054388  -0.000000   0.000009
   11  AS 1  Y   -0.000000   0.054388   0.974060   0.000000  -0.000412
   12  AS 1  Z   -0.000078   0.000000  -0.000000   0.976861   0.000000
   13  AS 1  X   -0.000000  -0.001001   0.000056   0.000000   0.000077
   14  AS 1  Y   -0.000000  -0.000056  -0.001001  -0.000000  -0.003359
   15  AS 1  Z    0.000009   0.000000  -0.000000   0.000471   0.000000
   16  AS 1  X    0.000000   0.045820  -0.002558  -0.000000  -0.000042
   17  AS 1  Y    0.000000   0.002558   0.045820   0.000000   0.001805
   18  AS 1  Z   -0.000014   0.000000  -0.000000   0.044775   0.000000
   19  AS 1  X    0.000000   0.001935  -0.000108  -0.000000  -0.000055
   20  AS 1  Y    0.000000   0.000108   0.001935  -0.000000   0.002401
   21  AS 1  Z   -0.000004  -0.000000  -0.000000   0.001551   0.000000
   22  AS 1 XX    0.000307   0.000611  -0.000034   0.000024   0.019252
   23  AS 1 YY    0.000307  -0.000611   0.000034   0.000024  -0.019252
   24  AS 1 ZZ   -0.000614   0.000000  -0.000000  -0.000048  -0.000000
   25  AS 1 XY   -0.000000  -0.000039  -0.000706   0.000000   0.965350
   26  AS 1 XZ   -0.000000  -0.000047   0.000003   0.000000  -0.000079
   27  AS 1 YZ   -0.000000  -0.000003  -0.000047   0.000000   0.003433
   28  AS 1 XX    0.000052  -0.000361   0.000020   0.000004   0.001720
   29  AS 1 YY    0.000052   0.000361  -0.000020   0.000004  -0.001720
   30  AS 1 ZZ   -0.000105   0.000000  -0.000000  -0.000008  -0.000000
   31  AS 1 XY    0.000000   0.000023   0.000417   0.000000   0.086235
   32  AS 1 XZ    0.000000  -0.000003   0.000000  -0.000000  -0.000007
   33  AS 1 YZ   -0.000000  -0.000000  -0.000003   0.000000   0.000304
   34  AS 1 XX   -0.000001  -0.000210   0.000012  -0.000000   0.000012
   35  AS 1 YY   -0.000001   0.000210  -0.000012  -0.000000  -0.000012
   36  AS 1 ZZ    0.000002   0.000000  -0.000000   0.000000   0.000000
   37  AS 1 XY   -0.000000   0.000014   0.000243   0.000000   0.000625
   38  AS 1 XZ   -0.000000   0.000006  -0.000000   0.000000  -0.000000
   39  AS 1 YZ   -0.000000   0.000000   0.000006   0.000000   0.000011
   40  AS 1 XXX   0.000071   0.000047  -0.000003   0.000003   0.000007
   41  AS 1 YYY  -0.000000   0.000003   0.000047  -0.000000  -0.000324
   42  AS 1 ZZZ   0.000000   0.000000  -0.000000  -0.000215   0.000000
   43  AS 1 XXY  -0.000000   0.000001   0.000021  -0.000000  -0.000145
   44  AS 1 XXZ  -0.000000   0.000001  -0.000000   0.000144  -0.000001
   45  AS 1 YYX  -0.000095   0.000021  -0.000001  -0.000004   0.000003
   46  AS 1 YYZ  -0.000000  -0.000001   0.000000   0.000144   0.000001
   47  AS 1 ZZX   0.000000  -0.000084   0.000005   0.000000  -0.000013
   48  AS 1 ZZY  -0.000000  -0.000005  -0.000084   0.000000   0.000580
   49  AS 1 XYZ  -0.000000  -0.000000  -0.000002   0.000000  -0.000031
   50  H  2  S    0.000026  -0.000190   0.000376  -0.000001  -0.005007
   51  H  2  S    0.000225  -0.000896   0.001774  -0.000011  -0.003430
   52  H  2  S   -0.000496   0.000287  -0.000568   0.000004  -0.001457
   53  H  2  X    0.000004   0.000007   0.000032  -0.000000  -0.000548
   54  H  2  Y   -0.000007   0.000030  -0.000033   0.000000   0.001405
   55  H  2  Z   -0.000000  -0.000000   0.000000   0.000012  -0.000005
   56  H  2  X   -0.000009  -0.000039   0.000280  -0.000003   0.000218
   57  H  2  Y    0.000015   0.000256  -0.000391   0.000005   0.000680
   58  H  2  Z   -0.000000  -0.000000   0.000001   0.000117  -0.000010
   59  H  2 XX   -0.000005   0.000001  -0.000052   0.000000   0.000291
   60  H  2 YY    0.000032  -0.000048   0.000145  -0.000001  -0.000779
   61  H  2 ZZ   -0.000027   0.000047  -0.000093   0.000000   0.000488
   62  H  2 XY   -0.000037   0.000103  -0.000170   0.000001   0.000703
   63  H  2 XZ    0.000000  -0.000001   0.000001  -0.000014  -0.000003
   64  H  2 YZ   -0.000000   0.000000  -0.000001   0.000025   0.000008
   65  H  3  S    0.000026  -0.000231  -0.000353  -0.000001   0.004876
   66  H  3  S    0.000225  -0.001088  -0.001664  -0.000011   0.003340
   67  H  3  S   -0.000496   0.000348   0.000532   0.000004   0.001419
   68  H  3  X    0.000004   0.000004  -0.000032  -0.000000   0.000512
   69  H  3  Y    0.000007  -0.000034  -0.000030  -0.000000   0.001380
   70  H  3  Z   -0.000000  -0.000000  -0.000000   0.000012   0.000005
   71  H  3  X   -0.000009  -0.000070  -0.000274  -0.000003  -0.000262
   72  H  3  Y   -0.000015  -0.000298  -0.000360  -0.000005   0.000691
   73  H  3  Z   -0.000000  -0.000001  -0.000001   0.000117   0.000010
   74  H  3 XX   -0.000005   0.000007   0.000052   0.000000  -0.000298
   75  H  3 YY    0.000032  -0.000064  -0.000139  -0.000001   0.000773
   76  H  3 ZZ   -0.000027   0.000057   0.000087   0.000000  -0.000475
   77  H  3 XY    0.000037  -0.000121  -0.000158  -0.000001   0.000675
   78  H  3 XZ    0.000000  -0.000001  -0.000001  -0.000014   0.000002
   79  H  3 YZ    0.000000  -0.000001  -0.000001  -0.000025   0.000008
   80  H  4  S    0.000026   0.000421  -0.000023  -0.000001   0.000131
   81  H  4  S    0.000225   0.001985  -0.000111  -0.000011   0.000090
   82  H  4  S   -0.000496  -0.000635   0.000035   0.000004   0.000038
   83  H  4  X   -0.000008  -0.000050   0.000003   0.000000  -0.000039
   84  H  4  Y   -0.000000   0.000001   0.000024   0.000000   0.000474
[...]
       71   -0.946209    0.946209  2+22000
        6   -0.116063    0.116063  22200+0
      177    0.115267   -0.115267  2+20200
       74    0.103850   -0.103850  2022+00
       38   -0.103841    0.103841  2202+00
       78    0.092317   -0.092317  20220+0
       36    0.087276    0.087276  22+2000
      248    0.072888   -0.072888  2+02200
      109   -0.054959    0.054959  +-22+00
      822    0.052204   -0.052204  2+02002
      113   -0.049460    0.049460  +-220+0
      122    0.049459    0.049459  +2-200+
       42    0.042855   -0.042855  22020+0
      810   -0.039627   -0.039627  -++2+0-
       75    0.039190    0.039190  -+22+00
       53    0.035817    0.035817  2-+200+
      332   -0.032319    0.032319  ++-2-0+
      841   -0.028695    0.028695  +2+200-
      526    0.028694    0.028694  ++220-0
      878    0.028482    0.028482  ++-2+0-
      458   -0.028066    0.028066  2+02+-0
      809    0.028066   -0.028066  20+2+0-
      323    0.025729   -0.025729  +022-+0
      320    0.025280    0.025280  0+22200
      264    0.025043   -0.025043  -++2-0+
      534    0.025034    0.025034  0+22020
      894    0.024920    0.024920  0+22002
      252    0.024566    0.024566  2+02-+0
      263   -0.024566   -0.024566  20+2-0+
      462    0.022447   -0.022447  2+02020
      806   -0.022180   -0.022180  2++200-
      529   -0.021324   -0.021324  +022+-0
       79    0.020766    0.020766  -+220+0
       54   -0.020764    0.020764  -2+200+

 ---------------------------------------
      - DIABATIC STATES IN CMO -        
 ---------------------------------------

 State #    1  Energy =   -2260.772959003

      Det      Coef        Coefp    Occupancy (Ignoring core)
      ---      ----        ----    --------- --------- -----
        1   -0.976445    0.976445  222+000
      107    0.071039   -0.071039  +22-+00
      143    0.063618    0.063618  220+200
      179    0.063618    0.063618  202+200
      393    0.058895    0.058895  202+020
      717    0.058895    0.058895  220+002
      211   -0.037993   -0.037993  +22+-00
       76    0.033054    0.033054  2+2-0+0
       51    0.033054   -0.033054  22+-00+
        5   -0.033046   -0.033046  -22++00
      218    0.032694   -0.032694  +-2+-+0
      227    0.032694    0.032694  +2-+-0+
      389    0.031793    0.031793  202++-0
      704   -0.031793    0.031793  2-+++0-
      353   -0.031793   -0.031793  220++-0
      738    0.031793    0.031793  2+-++0-
      158    0.029948    0.029948  2-++-0+
      147    0.029948   -0.029948  220+-+0
      183   -0.029948    0.029948  202+-+0
      192   -0.029948    0.029948  2+-+-0+
      215    0.028928    0.028928  022+200
      705    0.028455    0.028455  -2+++0-
      390    0.028455   -0.028455  -+2++-0
      368   -0.026091   -0.026091  2-++0-+
      742   -0.026091   -0.026091  2+-+0+-
        8   -0.025235    0.025235  2-2+0+0
       17   -0.025235   -0.025235  22-+00+
      773   -0.025203    0.025203  +2-++0-
      424   -0.025203   -0.025203  +-2++-0
      184   -0.023828   -0.023828  -+2+-+0
      159   -0.023828    0.023828  -2++-0+
      357    0.022194    0.022194  220+020
      753    0.022194    0.022194  202+002
      789    0.021320    0.021320  022+002
      429    0.021320    0.021320  022+020

 State #    2  Energy =   -2260.585461077

      Det      Coef        Coefp    Occupancy (Ignoring core)
      ---      ----        ----    --------- --------- -----
        2   -0.953706    0.953706  2220+00
      106   -0.158034   -0.158034  +222000
      156   -0.082805    0.082805  22+0-0+
      181   -0.082800   -0.082800  2+20-+0
      702    0.079063    0.079063  22+0+0-
      387    0.079060   -0.079060  2+20+-0
      212    0.063695    0.063695  +220200
      396    0.061495    0.061495  2020+20
      720    0.061494    0.061494  2200+02
      110    0.056925   -0.056925  0222+00
      751   -0.049207    0.049207  2+20002
      706   -0.049207   -0.049207  22+00+-
      366    0.049206   -0.049206  22+00-+
      391    0.049204   -0.049204  2+20020
       38    0.030342   -0.030342  2202+00
       74    0.030310   -0.030310  2022+00
      186   -0.027526    0.027526  20202+0
      161    0.027526    0.027526  2-+020+
      150    0.027525   -0.027525  22002+0
      195   -0.027525    0.027525  2+-020+
      756    0.026037    0.026037  2020+02
      360    0.026037    0.026037  2200+20
      371   -0.025927   -0.025927  2-+0+-+
      745   -0.025926   -0.025926  2+-0++-
      230    0.021910    0.021910  +2-020+
      221    0.021908   -0.021908  +-202+0
      162   -0.020681    0.020681  -2+020+
      187   -0.020680   -0.020680  -+202+0

 State #    3  Energy =   -2260.544263922

      Det      Coef        Coefp    Occupancy (Ignoring core)
      ---      ----        ----    --------- --------- -----
       36   -0.923181   -0.923181  22+2000
       71   -0.225280    0.225280  2+22000
       16   -0.116083    0.116083  222000+
      142    0.112499    0.112499  22+0200
       73    0.104925   -0.104925  2+-2+00
       39   -0.104925   -0.104925  2-+2+00
       52    0.090930   -0.090930  220200+
      249    0.071111   -0.071111  20+2200
      108   -0.053622   -0.053622  +2-2+00
      463    0.051548   -0.051548  20+2020
      123    0.049913   -0.049913  +-2200+
      112    0.049913    0.049913  +2-20+0
       88    0.044269   -0.044269  202200+
      460    0.039634    0.039634  -++2+-0
       40    0.038243   -0.038243  -2+2+00
       77   -0.034423    0.034423  2+-20+0
      288    0.031414    0.031414  +-+2-+0
      876   -0.028957   -0.028957  ++2200-
      491   -0.028957    0.028957  +2+20-0
      808    0.028324   -0.028324  2+02+0-
      459    0.028324   -0.028324  20+2+-0
      494   -0.027782    0.027782  +-+2+-0
      177    0.027453   -0.027453  2+20200
      254   -0.025049    0.025049  -++2-+0
      297    0.024825   -0.024825  +202-0+
      262   -0.024793   -0.024793  2+02-0+
      253   -0.024793   -0.024793  20+2-+0
      285    0.024665   -0.024665  02+2200
      859    0.024428   -0.024428  02+2002
      499    0.024310   -0.024310  02+2020
      456    0.022185    0.022185  2++20-0
      823    0.021287   -0.021287  20+2002
       89   -0.020956   -0.020956  -+2200+
       44   -0.020956    0.020956  -2+20+0
      843   -0.020624   -0.020624  +202+0-

 State #    4  Energy =   -2260.544263923

      Det      Coef        Coefp    Occupancy (Ignoring core)
      ---      ----        ----    --------- --------- -----
       71   -0.923181    0.923181  2+22000
       36    0.225280    0.225280  22+2000
        6   -0.116083    0.116083  22200+0
      177    0.112499   -0.112499  2+20200
       74    0.104930   -0.104930  2022+00
       38   -0.104921    0.104921  2202+00
       78    0.090933   -0.090933  20220+0
      248    0.071111   -0.071111  2+02200
      109   -0.053622    0.053622  +-22+00
      822    0.051548   -0.051548  2+02002
      113   -0.049913    0.049913  +-220+0
      122    0.049912    0.049912  +2-200+
       42    0.044267   -0.044267  22020+0
      810   -0.039634   -0.039634  -++2+0-
       75    0.038243    0.038243  -+22+00
       53    0.034421    0.034421  2-+200+
      332   -0.031415    0.031415  ++-2-0+
      841   -0.028957    0.028957  +2+200-
      526    0.028956    0.028956  ++220-0
      458   -0.028324    0.028324  2+02+-0
      809    0.028323   -0.028323  20+2+0-
      878    0.027782    0.027782  ++-2+0-
      142   -0.027453   -0.027453  22+0200
      264    0.025049   -0.025049  -++2-0+
      323    0.024824   -0.024824  +022-+0
      252    0.024793    0.024793  2+02-+0
      263   -0.024793   -0.024793  20+2-0+
      320    0.024665    0.024665  0+22200
      534    0.024427    0.024427  0+22020
      894    0.024311    0.024311  0+22002
      806   -0.022185   -0.022185  2++200-
      462    0.021287   -0.021287  2+02020
       79    0.020957    0.020957  -+220+0
       54   -0.020955    0.020955  -2+200+
      529   -0.020623   -0.020623  +022+-0

 ---------------------------------------
    -DIABATIC STATES IN PROTOTYPES-     
 ---------------------------------------

     STATE:    1
 Group Ref#    Coefficients
     1    1    0.998876
     2    2    0.000009
     3    3    0.000000
     4    4    0.000000

WEIGHT OF LISTED PROTOTYPES:   99.78%

     STATE:    2
 Group Ref#    Coefficients
     1    1    0.000009
     2    2    0.997634
     3    3   -0.000008
     4    4    0.000082

WEIGHT OF LISTED PROTOTYPES:   99.53%

     STATE:    3
 Group Ref#    Coefficients
     1    1    0.000000
     2    2   -0.000008
     3    3    0.996747
     4    4   -0.000000

WEIGHT OF LISTED PROTOTYPES:   99.35%

     STATE:    4
 Group Ref#    Coefficients
     1    1    0.000000
     2    2    0.000082
     3    3   -0.000000
     4    4    0.996747

WEIGHT OF LISTED PROTOTYPES:   99.35%

     DIRECT MAX. DIABATIZATION FINISHED    
 CPU     0: STEP CPU TIME=     0.57 TOTAL CPU TIME=        268.7 (      4.5 MIN)
 TOTAL WALL CLOCK TIME=        285.4 SECONDS, CPU UTILIZATION IS    94.14%

DIABATS FOR SPIN-ORBIT CALCULATION ARE READY

TRANSITION DIPOLES BETWEEN ADIABATS (in A.U.):

STATE PAIR      X         Y         Z
    1    1  0.000000  0.000000 -0.023142
    2    1  0.000000  0.000000  0.432550
    2    2  0.000000 -0.000000 -0.034402
    3    1 -0.000238  0.001872 -0.000000
    3    2  0.018597 -0.146132 -0.000000
    3    3  0.392859 -0.101640 -0.011182
    4    1  0.001872  0.000238  0.000000
    4    2 -0.146132 -0.018597 -0.000000
    4    3  0.101640  0.392859 -0.000000
    4    4 -0.392859  0.101640 -0.011182


TRANSITION DIPOLES BETWEEN DIABATS (in A.U.):

STATE PAIR      X         Y         Z
    1    1  0.000000 -0.000000 -0.028399
    2    1 -0.000001  0.000000  0.432586
    2    2  0.000045 -0.000006 -0.029145
    3    1  0.000338  0.002763 -0.000000
    3    2 -0.017914 -0.146261 -0.000000
    3    3  0.393770  0.098053 -0.011182
    4    1  0.002761 -0.000339  0.000066
    4    2 -0.146141  0.017944 -0.000004
    4    3 -0.098055  0.393748 -0.000000
    4    4 -0.393815 -0.098047 -0.011182

TRANSITION DIPOLES BETWEEN DIRECT MAX. DIABATS (in A.U.):

STATE PAIR      X         Y         Z
    1    1  0.000000 -0.000000 -0.028399
    2    1 -0.000001  0.000000  0.432586
    2    2  0.000045 -0.000006 -0.029145
    3    1  0.000338  0.002763 -0.000000
    3    2 -0.017914 -0.146261 -0.000000
    3    3  0.393770  0.098053 -0.011182
    4    1  0.002761 -0.000339  0.000066
    4    2 -0.146141  0.017944 -0.000004
    4    3 -0.098055  0.393748 -0.000000
    4    4 -0.393815 -0.098047 -0.011182
 No $TRANST Group Found.
 Quit without doing spin-orbit coupling
 ..... DONE WITH MP2 ENERGY .....
 CPU     0: STEP CPU TIME=     0.01 TOTAL CPU TIME=        268.7 (      4.5 MIN)
 TOTAL WALL CLOCK TIME=        285.4 SECONDS, CPU UTILIZATION IS    94.14%
            250000000  WORDS OF DYNAMIC MEMORY USED
 EXECUTION OF GAMESS TERMINATED NORMALLY Sat Dec  9 01:32:42 2023
 DDI: 14063448 bytes (13.4 MB / 1 MWords) used by master data server.

 ----------------------------------------
 CPU timing information for all processes
 ========================================
 0: 268.174 + 0.524 = 268.698
 1: 267.67 + 0.476 = 267.543
 ----------------------------------------
Note: The following floating-point exceptions are signalling: IEEE_DENORMAL
Note: The following floating-point exceptions are signalling: IEEE_DENORMAL
 ddikick.x: exited gracefully.
unset echo
----- accounting info -----
Files used on the master node io001 were:
-rw-r--r-- 1 bjb2chen nooijen   145186 Dec  9 01:27 /home/bjb2chen/gmsscr//AsH3cat_cct_gmcpt_C1_3st_diab_mode1_-0.05.F05
-rw-r--r-- 1 bjb2chen nooijen  3986280 Dec  9 01:31 /home/bjb2chen/gmsscr//AsH3cat_cct_gmcpt_C1_3st_diab_mode1_-0.05.F09
-rw-r--r-- 1 bjb2chen nooijen  6120544 Dec  9 01:31 /home/bjb2chen/gmsscr//AsH3cat_cct_gmcpt_C1_3st_diab_mode1_-0.05.F09.001
-rw-r--r-- 1 bjb2chen nooijen  6478560 Dec  9 01:32 /home/bjb2chen/gmsscr//AsH3cat_cct_gmcpt_C1_3st_diab_mode1_-0.05.F10
-rw-r--r-- 1 bjb2chen nooijen  1148152 Dec  9 01:31 /home/bjb2chen/gmsscr//AsH3cat_cct_gmcpt_C1_3st_diab_mode1_-0.05.F13
-rw-r--r-- 1 bjb2chen nooijen  1148152 Dec  9 01:31 /home/bjb2chen/gmsscr//AsH3cat_cct_gmcpt_C1_3st_diab_mode1_-0.05.F13.001
-rw-r--r-- 1 bjb2chen nooijen   181872 Dec  9 01:32 /home/bjb2chen/gmsscr//AsH3cat_cct_gmcpt_C1_3st_diab_mode1_-0.05.F15
-rw-r--r-- 1 bjb2chen nooijen        0 Dec  9 01:27 /home/bjb2chen/gmsscr//AsH3cat_cct_gmcpt_C1_3st_diab_mode1_-0.05.F16
-rw-r--r-- 1 bjb2chen nooijen     9808 Dec  9 01:31 /home/bjb2chen/gmsscr//AsH3cat_cct_gmcpt_C1_3st_diab_mode1_-0.05.F70
-rw-r--r-- 1 bjb2chen nooijen     9808 Dec  9 01:31 /home/bjb2chen/gmsscr//AsH3cat_cct_gmcpt_C1_3st_diab_mode1_-0.05.F70.001
-rw-r--r-- 1 bjb2chen nooijen     9808 Dec  9 01:31 /home/bjb2chen/gmsscr//AsH3cat_cct_gmcpt_C1_3st_diab_mode1_-0.05.F71
-rw-r--r-- 1 bjb2chen nooijen     9808 Dec  9 01:31 /home/bjb2chen/gmsscr//AsH3cat_cct_gmcpt_C1_3st_diab_mode1_-0.05.F71.001
-rw-r--r-- 1 bjb2chen nooijen    19608 Dec  9 01:31 /home/bjb2chen/gmsscr//AsH3cat_cct_gmcpt_C1_3st_diab_mode1_-0.05.F72
-rw-r--r-- 1 bjb2chen nooijen    19608 Dec  9 01:31 /home/bjb2chen/gmsscr//AsH3cat_cct_gmcpt_C1_3st_diab_mode1_-0.05.F72.001
-rw-r--r-- 1 bjb2chen nooijen    19608 Dec  9 01:31 /home/bjb2chen/gmsscr//AsH3cat_cct_gmcpt_C1_3st_diab_mode1_-0.05.F73
-rw-r--r-- 1 bjb2chen nooijen    19608 Dec  9 01:31 /home/bjb2chen/gmsscr//AsH3cat_cct_gmcpt_C1_3st_diab_mode1_-0.05.F73.001
-rw-r--r-- 1 bjb2chen nooijen   961208 Dec  9 01:31 /home/bjb2chen/gmsscr//AsH3cat_cct_gmcpt_C1_3st_diab_mode1_-0.05.F74
-rw-r--r-- 1 bjb2chen nooijen   959640 Dec  9 01:31 /home/bjb2chen/gmsscr//AsH3cat_cct_gmcpt_C1_3st_diab_mode1_-0.05.F74.001
-rw-r--r-- 1 bjb2chen nooijen        0 Dec  9 01:27 /home/bjb2chen/gmsscr//AsH3cat_cct_gmcpt_C1_3st_diab_mode1_-0.05.F75
-rw-r--r-- 1 bjb2chen nooijen        0 Dec  9 01:27 /home/bjb2chen/gmsscr//AsH3cat_cct_gmcpt_C1_3st_diab_mode1_-0.05.F75.001
-rw-r--r-- 1 bjb2chen nooijen    78456 Dec  9 01:31 /home/bjb2chen/gmsscr//AsH3cat_cct_gmcpt_C1_3st_diab_mode1_-0.05.F76
-rw-r--r-- 1 bjb2chen nooijen    78456 Dec  9 01:31 /home/bjb2chen/gmsscr//AsH3cat_cct_gmcpt_C1_3st_diab_mode1_-0.05.F76.001
-rw-r--r-- 1 bjb2chen nooijen        0 Dec  9 01:27 /home/bjb2chen/gmsscr//AsH3cat_cct_gmcpt_C1_3st_diab_mode1_-0.05.F77
-rw-r--r-- 1 bjb2chen nooijen        0 Dec  9 01:27 /home/bjb2chen/gmsscr//AsH3cat_cct_gmcpt_C1_3st_diab_mode1_-0.05.F77.001
-rw-r--r-- 1 bjb2chen nooijen     6408 Dec  9 01:31 /home/bjb2chen/gmsscr//AsH3cat_cct_gmcpt_C1_3st_diab_mode1_-0.05.F78
-rw-r--r-- 1 bjb2chen nooijen     6408 Dec  9 01:31 /home/bjb2chen/gmsscr//AsH3cat_cct_gmcpt_C1_3st_diab_mode1_-0.05.F78.001
-rw-r--r-- 1 bjb2chen nooijen    49008 Dec  9 01:31 /home/bjb2chen/gmsscr//AsH3cat_cct_gmcpt_C1_3st_diab_mode1_-0.05.F79
-rw-r--r-- 1 bjb2chen nooijen    49008 Dec  9 01:31 /home/bjb2chen/gmsscr//AsH3cat_cct_gmcpt_C1_3st_diab_mode1_-0.05.F79.001
-rw-r--r-- 1 bjb2chen nooijen      168 Dec  9 01:31 /home/bjb2chen/gmsscr//AsH3cat_cct_gmcpt_C1_3st_diab_mode1_-0.05.F80
-rw-r--r-- 1 bjb2chen nooijen      168 Dec  9 01:31 /home/bjb2chen/gmsscr//AsH3cat_cct_gmcpt_C1_3st_diab_mode1_-0.05.F80.001
-rw-r--r-- 1 bjb2chen nooijen   102416 Dec  9 01:31 /home/bjb2chen/gmsscr//AsH3cat_cct_gmcpt_C1_3st_diab_mode1_-0.05.F81
-rw-r--r-- 1 bjb2chen nooijen   102416 Dec  9 01:31 /home/bjb2chen/gmsscr//AsH3cat_cct_gmcpt_C1_3st_diab_mode1_-0.05.F81.001
-rw-r--r-- 1 bjb2chen nooijen      656 Dec  9 01:31 /home/bjb2chen/gmsscr//AsH3cat_cct_gmcpt_C1_3st_diab_mode1_-0.05.F82
-rw-r--r-- 1 bjb2chen nooijen      656 Dec  9 01:31 /home/bjb2chen/gmsscr//AsH3cat_cct_gmcpt_C1_3st_diab_mode1_-0.05.F82.001
-rw-r--r-- 1 bjb2chen nooijen    19216 Dec  9 01:31 /home/bjb2chen/gmsscr//AsH3cat_cct_gmcpt_C1_3st_diab_mode1_-0.05.F83
-rw-r--r-- 1 bjb2chen nooijen    19216 Dec  9 01:31 /home/bjb2chen/gmsscr//AsH3cat_cct_gmcpt_C1_3st_diab_mode1_-0.05.F83.001
-rw-r--r-- 1 bjb2chen nooijen   327696 Dec  9 01:31 /home/bjb2chen/gmsscr//AsH3cat_cct_gmcpt_C1_3st_diab_mode1_-0.05.F84
-rw-r--r-- 1 bjb2chen nooijen   327696 Dec  9 01:31 /home/bjb2chen/gmsscr//AsH3cat_cct_gmcpt_C1_3st_diab_mode1_-0.05.F84.001
-rw-r--r-- 1 bjb2chen nooijen  3418504 Dec  9 01:31 /home/bjb2chen/gmsscr//AsH3cat_cct_gmcpt_C1_3st_diab_mode1_-0.05.F85
-rw-r--r-- 1 bjb2chen nooijen  3418504 Dec  9 01:31 /home/bjb2chen/gmsscr//AsH3cat_cct_gmcpt_C1_3st_diab_mode1_-0.05.F85.001
-rw-r--r-- 1 bjb2chen nooijen 14716576 Dec  9 01:31 /home/bjb2chen/gmsscr//AsH3cat_cct_gmcpt_C1_3st_diab_mode1_-0.05.F86
-rw-r--r-- 1 bjb2chen nooijen 14419040 Dec  9 01:31 /home/bjb2chen/gmsscr//AsH3cat_cct_gmcpt_C1_3st_diab_mode1_-0.05.F86.001
-rw-r--r-- 1 bjb2chen nooijen     1160 Dec  9 01:32 /home/bjb2chen/gmsscr//AsH3cat_cct_gmcpt_C1_3st_diab_mode1_-0.05.F87
-rw-r--r-- 1 bjb2chen nooijen     1160 Dec  9 01:32 /home/bjb2chen/gmsscr//AsH3cat_cct_gmcpt_C1_3st_diab_mode1_-0.05.F87.001
-rw-r--r-- 1 bjb2chen nooijen    27936 Dec  9 01:32 /home/bjb2chen/gmsscr//AsH3cat_cct_gmcpt_C1_3st_diab_mode1_-0.05.F88
-rw-r--r-- 1 bjb2chen nooijen    27936 Dec  9 01:32 /home/bjb2chen/gmsscr//AsH3cat_cct_gmcpt_C1_3st_diab_mode1_-0.05.F88.001
-rw-r--r-- 1 bjb2chen nooijen      648 Dec  9 01:31 /home/bjb2chen/gmsscr//AsH3cat_cct_gmcpt_C1_3st_diab_mode1_-0.05.F89
-rw-r--r-- 1 bjb2chen nooijen      648 Dec  9 01:31 /home/bjb2chen/gmsscr//AsH3cat_cct_gmcpt_C1_3st_diab_mode1_-0.05.F89.001
-rw-r--r-- 1 bjb2chen nooijen        0 Dec  9 01:27 /home/bjb2chen/gmsscr//AsH3cat_cct_gmcpt_C1_3st_diab_mode1_-0.05.F90
-rw-r--r-- 1 bjb2chen nooijen        0 Dec  9 01:27 /home/bjb2chen/gmsscr//AsH3cat_cct_gmcpt_C1_3st_diab_mode1_-0.05.F90.001
-rw-r--r-- 1 bjb2chen nooijen    13760 Dec  9 01:32 /home/bjb2chen/gmsscr//AsH3cat_cct_gmcpt_C1_3st_diab_mode1_-0.05.F91
-rw-r--r-- 1 bjb2chen nooijen    13760 Dec  9 01:32 /home/bjb2chen/gmsscr//AsH3cat_cct_gmcpt_C1_3st_diab_mode1_-0.05.F91.001
-rw-r--r-- 1 bjb2chen nooijen    22776 Dec  9 01:31 /home/bjb2chen/gmsscr//AsH3cat_cct_gmcpt_C1_3st_diab_mode1_-0.05.F92
-rw-r--r-- 1 bjb2chen nooijen    22776 Dec  9 01:31 /home/bjb2chen/gmsscr//AsH3cat_cct_gmcpt_C1_3st_diab_mode1_-0.05.F92.001
-rw-r--r-- 1 bjb2chen nooijen    23168 Dec  9 01:31 /home/bjb2chen/gmsscr//AsH3cat_cct_gmcpt_C1_3st_diab_mode1_-0.05.F93
-rw-r--r-- 1 bjb2chen nooijen    23168 Dec  9 01:31 /home/bjb2chen/gmsscr//AsH3cat_cct_gmcpt_C1_3st_diab_mode1_-0.05.F93.001
-rw-r--r-- 1 bjb2chen nooijen    22776 Dec  9 01:31 /home/bjb2chen/gmsscr//AsH3cat_cct_gmcpt_C1_3st_diab_mode1_-0.05.F94
-rw-r--r-- 1 bjb2chen nooijen    22776 Dec  9 01:31 /home/bjb2chen/gmsscr//AsH3cat_cct_gmcpt_C1_3st_diab_mode1_-0.05.F94.001
-rw-r--r-- 1 bjb2chen nooijen    13760 Dec  9 01:31 /home/bjb2chen/gmsscr//AsH3cat_cct_gmcpt_C1_3st_diab_mode1_-0.05.F95
-rw-r--r-- 1 bjb2chen nooijen    13760 Dec  9 01:31 /home/bjb2chen/gmsscr//AsH3cat_cct_gmcpt_C1_3st_diab_mode1_-0.05.F95.001
-rw-r--r-- 1 bjb2chen nooijen    39248 Dec  9 01:32 /home/bjb2chen/gmsscr//AsH3cat_cct_gmcpt_C1_3st_diab_mode1_-0.05.F96
-rw-r--r-- 1 bjb2chen nooijen    39248 Dec  9 01:32 /home/bjb2chen/gmsscr//AsH3cat_cct_gmcpt_C1_3st_diab_mode1_-0.05.F96.001
-rw-r--r-- 1 bjb2chen nooijen     1184 Dec  9 01:31 /home/bjb2chen/gmsscr//AsH3cat_cct_gmcpt_C1_3st_diab_mode1_-0.05.F97
-rw-r--r-- 1 bjb2chen nooijen     1184 Dec  9 01:31 /home/bjb2chen/gmsscr//AsH3cat_cct_gmcpt_C1_3st_diab_mode1_-0.05.F97.001
-rw-r--r-- 1 bjb2chen nooijen     9808 Dec  9 01:31 /home/bjb2chen/gmsscr//AsH3cat_cct_gmcpt_C1_3st_diab_mode1_-0.05.F98
-rw-r--r-- 1 bjb2chen nooijen     9808 Dec  9 01:31 /home/bjb2chen/gmsscr//AsH3cat_cct_gmcpt_C1_3st_diab_mode1_-0.05.F98.001
-rw-r--r-- 1 bjb2chen nooijen    30264 Dec  9 01:31 /home/bjb2chen/gmsscr//AsH3cat_cct_gmcpt_C1_3st_diab_mode1_-0.05.F99
-rw-r--r-- 1 bjb2chen nooijen    30264 Dec  9 01:31 /home/bjb2chen/gmsscr//AsH3cat_cct_gmcpt_C1_3st_diab_mode1_-0.05.F99.001
ls: No match.
ls: No match.
ls: No match.
Sat 09 Dec 2023 01:32:45 AM EST
0.300u 0.047s 4:48.97 0.1%	0+0k 288+496io 0pf+0w
