----- GAMESS execution script 'rungms' -----
This job is running on host io001
under operating system Linux at Wed 29 Nov 2023 10:18:37 PM EST
Available scratch disk space (Kbyte units) at beginning of the job is
Filesystem             1K-blocks       Used Available Use% Mounted on
helmholtz.nlogn:/home 6391504896 5221498880 847866880  87% /home
GAMESS temporary binary files will be written to /home/bjb2chen/gmsscr/
GAMESS supplementary output files will be written to /home/bjb2chen/gamess/vibronics/ash3
Copying input file ash3cat_cct_gmcpt_7o7e_C1_3st_dmo.inp to your run's scratch directory...
cp ash3cat_cct_gmcpt_7o7e_C1_3st_dmo.inp /home/bjb2chen/gmsscr//ash3cat_cct_gmcpt_7o7e_C1_3st_dmo.F05
unset echo
 
Assuming a single but multicore node.
 
/home/bjb2chen/gamess/ddikick.x /home/bjb2chen/gamess/gamess.00.x ash3cat_cct_gmcpt_7o7e_C1_3st_dmo -ddi 1 4 io001:cpus=4 -scr /home/bjb2chen/gmsscr/

 Distributed Data Interface kickoff program.
 Initiating 4 compute processes on 1 nodes to run the following command:
 /home/bjb2chen/gamess/gamess.00.x ash3cat_cct_gmcpt_7o7e_C1_3st_dmo 

          ******************************************************
          *         GAMESS VERSION = 02 AUG 2018 (R2)         *
          *             FROM IOWA STATE UNIVERSITY             *
          * M.W.SCHMIDT, K.K.BALDRIDGE, J.A.BOATZ, S.T.ELBERT, *
          *   M.S.GORDON, J.H.JENSEN, S.KOSEKI, N.MATSUNAGA,   *
          *          K.A.NGUYEN, S.J.SU, T.L.WINDUS,           *
          *       TOGETHER WITH M.DUPUIS, J.A.MONTGOMERY       *
          *         J.COMPUT.CHEM.  14, 1347-1363(1993)        *
          **************** 64 BIT LINUX VERSION ****************

  SINCE 1993, STUDENTS AND POSTDOCS WORKING AT IOWA STATE UNIVERSITY
  AND ALSO IN THEIR VARIOUS JOBS AFTER LEAVING ISU HAVE MADE IMPORTANT
  CONTRIBUTIONS TO THE CODE:
     IVANA ADAMOVIC, CHRISTINE AIKENS, YURI ALEXEEV, POOJA ARORA,
     ANDREY ASADCHEV, ROB BELL, PRADIPTA BANDYOPADHYAY, JONATHAN BENTZ,
     BRETT BODE, KURT BRORSEN, CALEB CARLIN, GALINA CHABAN, WEI CHEN,
     CHEOL HO CHOI, PAUL DAY, ALBERT DEFUSCO, NUWAN DESILVA, TIM DUDLEY,
     DMITRI FEDOROV, ALEX FINDLATER, GRAHAM FLETCHER, MARK FREITAG,
     KURT GLAESEMANN, ANASTASIA GUININA,
     DAN KEMP, GRANT MERRILL, NORIYUKI MINEZAWA, JONATHAN MULLIN,
     TAKESHI NAGATA, SEAN NEDD, HEATHER NETZLOFF, BOSILJKA NJEGIC, RYAN OLSON,
     MIKE PAK, BUU PHAM,
     SPENCER PRUITT, LUKE ROSKOP, JIM SHOEMAKER, LYUDMILA SLIPCHENKO,
     TONY SMITH, SAROM SOK LEANG, JIE SONG, TETSUYA TAKETSUGU, SIMON WEBB,
     PENG XU, SOOHAENG YOO, FEDERICO ZAHARIEV

  ADDITIONAL CODE HAS BEEN PROVIDED BY COLLABORATORS IN OTHER GROUPS:
     IOWA STATE UNIVERSITY:
          JOE IVANIC, AARON WEST, LAIMUTIS BYTAUTAS, KLAUS RUEDENBERG
     UNIVERSITY OF TOKYO: KIMIHIKO HIRAO, TAKAHITO NAKAJIMA,
          TAKAO TSUNEDA, MUNEAKI KAMIYA, SUSUMU YANAGISAWA,
          KIYOSHI YAGI, MAHITO CHIBA, SEIKEN TOKURA, NAOAKI KAWAKAMI
     UNIVERSITY OF AARHUS: FRANK JENSEN
     UNIVERSITY OF IOWA: VISVALDAS KAIRYS, HUI LI
     NATIONAL INST. OF STANDARDS AND TECHNOLOGY: WALT STEVENS, DAVID GARMER
     UNIVERSITY OF PISA: BENEDETTA MENNUCCI, JACOPO TOMASI
     UNIVERSITY OF MEMPHIS: HENRY KURTZ, PRAKASHAN KORAMBATH
     UNIVERSITY OF ALBERTA: TOBY ZENG, MARIUSZ KLOBUKOWSKI
     UNIVERSITY OF NEW ENGLAND: MARK SPACKMAN
     MIE UNIVERSITY: HIROAKI UMEDA
     NAT. INST. OF ADVANCED INDUSTRIAL SCIENCE AND TECHNOLOGY: KAZUO KITAURA
     MICHIGAN STATE UNIVERSITY:
          KAROL KOWALSKI, MARTA WLOCH, JEFFREY GOUR, JESSE LUTZ,
          WEI LI, JUN SHEN, J. EMILIANO DEUSTUA, PIOTR PIECUCH
     UNIVERSITY OF MINNESOTA:
          YINAN SHU
     UNIVERSITY OF SILESIA: MONIKA MUSIAL, STANISLAW KUCHARSKI
     FACULTES UNIVERSITAIRES NOTRE-DAME DE LA PAIX:
          OLIVIER QUINET, BENOIT CHAMPAGNE
     UNIVERSITY OF CALIFORNIA - SANTA BARBARA: BERNARD KIRTMAN
     INSTITUTE FOR MOLECULAR SCIENCE:
          KAZUYA ISHIMURA, MICHIO KATOUDA, AND SHIGERU NAGASE
     UNIVERSITY OF NOTRE DAME: ANNA POMOGAEVA, DAN CHIPMAN
     KYUSHU UNIVERSITY:
          HARUYUKI NAKANO,
          FENG LONG GU, JACEK KORCHOWIEC, MARCIN MAKOWSKI, AND YURIKO AOKI,
          HIROTOSHI MORI AND EISAKU MIYOSHI
     PENNSYLVANIA STATE UNIVERSITY:
          TZVETELIN IORDANOV, CHET SWALINA, JONATHAN SKONE,
          SHARON HAMMES-SCHIFFER
     WASEDA UNIVERSITY:
          MASATO KOBAYASHI, TOMOKO AKAMA, TSUGUKI TOUMA,
          TAKESHI YOSHIKAWA, YASUHIRO IKABATA, JUNJI SEINO,
          YUYA NAKAJIMA, HIROMI NAKAI
     NANJING UNIVERSITY: SHUHUA LI
     UNIVERSITY OF NEBRASKA:
          PEIFENG SU, DEJUN SI, NANDUN THELLAMUREGE, YALI WANG, HUI LI
     UNIVERSITY OF ZURICH: ROBERTO PEVERATI, KIM BALDRIDGE
     N. COPERNICUS UNIVERSITY AND JACKSON STATE UNIVERSITY:
          MARIA BARYSZ
     UNIVERSITY OF COPENHAGEN: Jimmy Kromann, CASPER STEINMANN
     TOKYO INSTITUTE OF TECHNOLOGY: HIROYA NAKATA
     NAGOYA UNIVERSITY: YOSHIO NISHIMOTO, STEPHAN IRLE
     MOSCOW STATE UNIVERSITY: VLADIMIR MIRONOV


 PARALLEL VERSION RUNNING ON        4 PROCESSORS IN        1 NODES.

 EXECUTION OF GAMESS BEGUN Wed Nov 29 22:18:37 2023

            ECHO OF THE FIRST FEW INPUT CARDS -
 INPUT CARD> !Step 2: single point gmcpt calculation averaging 3 states                     
 INPUT CARD> !        for AsH3+ at AsH3 structure. The RHF orbitals at                      
 INPUT CARD> !        the MP2 optimized structure is taken as the initial                   
 INPUT CARD> !        guess of orbitals in the $VEC group.                                  
 INPUT CARD> $system kdiag=3 mwords=250 memddi=8000 parall=.t. $end                         
 INPUT CARD> $contrl runtyp=energy ispher=1 $end                                            
 INPUT CARD> $contrl icut=9 itol=20 inttyp=rysquad qmttol=1.0d-05 nosym=1 $end              
 INPUT CARD> $scf    npunch=2 conv=1.0d-06 dirscf=.t. diis=.t. soscf=.f. ethrsh=10.0 $end   
 INPUT CARD> $contrl scftyp=mcscf  mult=2 maxit=200 icharg=1 mplevl=2 $end                  
 INPUT CARD> $guess  guess=moread norb=85 purify=.t. $end                                   
 INPUT CARD> $basis  gbasis=cct $end                                                        
 INPUT CARD> $mcscf  cistep=gmcci fullnr=.t. finci=mos                                      
 INPUT CARD>         acurcy=1.d-6 maxit=200 $end                                            
 INPUT CARD> $trans  dirtrf=.t. $end                                                        
 INPUT CARD> $mrmp   mrpt=gmcpt rdvecs=.f. $end                                             
 INPUT CARD> $gmcpt  nmofzc=5 nmodoc=9 nmoact=7 nelact=7 stsym(1)=A                         
 INPUT CARD>         reftyp=ormas nspace=1 mstart(1)=15 mine(1)=7 maxe(1)=7                 
 INPUT CARD>         kstate(1)=1,1,1                                                        
 INPUT CARD>         wstate(1)=1,1,1                                                        
 INPUT CARD>         iwgt=0 thrwgt=-1.0 krot=.f. kszdoe=.f. knospn=.f.                      
 INPUT CARD>         thrde=-1.0 edshft=0.02 $end                                            
 INPUT CARD> $statpt hssend=.t. $end                                                        
 INPUT CARD> $data                                                                          
 INPUT CARD> AsH3+ 3 states calculation at AsH3 structure.                                  
 INPUT CARD> C1                                                                             
 INPUT CARD> AS         33.0   0.0000000000  -0.0000000000   0.0000000000                   
 INPUT CARD> H           1.0  -0.7325148757   1.2687529821   0.0000000000                   
 INPUT CARD> H           1.0  -0.7325148757  -1.2687529821   0.0000000000                   
 INPUT CARD> H           1.0   1.4650297515   0.0000000000   0.0000000000                   
 INPUT CARD> $end                                                                           
 INPUT CARD>--- OPTIMIZED RHF      MO-S --- GENERATED AT Wed Nov 29 20:57:58 2023           
 INPUT CARD>E=    -2236.0689661155, E(NUC)=   36.3850013982                                 
 INPUT CARD> $VEC                                                                           
 INPUT CARD> 1  1-9.99999247E-01-8.13374982E-07 8.72437716E-06 6.72940304E-06-1.98975659E-05
 INPUT CARD> 1  2-6.75729466E-06 0.00000000E+00 0.00000000E+00 0.00000000E+00 0.00000000E+00
 INPUT CARD> 1  3 0.00000000E+00 0.00000000E+00 0.00000000E+00 0.00000000E+00 0.00000000E+00
 INPUT CARD> 1  4 0.00000000E+00 0.00000000E+00 0.00000000E+00 0.00000000E+00 0.00000000E+00
 INPUT CARD> 1  5 0.00000000E+00-2.01855076E-07-2.01855076E-07 4.03710151E-07 0.00000000E+00
 INPUT CARD> 1  6 0.00000000E+00 0.00000000E+00 1.79125879E-07 1.79125879E-07-3.58251758E-07
 INPUT CARD> 1  7 0.00000000E+00 0.00000000E+00 0.00000000E+00 8.50976434E-08 8.50976434E-08
 INPUT CARD> 1  8-1.70195287E-07 0.00000000E+00 0.00000000E+00 0.00000000E+00 2.07637978E-07
 INPUT CARD> 1  9 0.00000000E+00 0.00000000E+00 0.00000000E+00 0.00000000E+00-2.78575580E-07
 INPUT CARD> 1 10 0.00000000E+00 0.00000000E+00 0.00000000E+00 0.00000000E+00-2.07617827E-08
 INPUT CARD> 1 11-9.82951272E-07 1.17007958E-06 3.67150076E-08-6.35922585E-08 0.00000000E+00
 INPUT CARD> 1 12-1.15589499E-07 2.00206885E-07 0.00000000E+00-2.59789600E-08 1.48958753E-07
 INPUT CARD> 1 13-1.22979793E-07-1.74937713E-07 0.00000000E+00 0.00000000E+00-2.07617827E-08
 INPUT CARD> 1 14-9.82951272E-07 1.17007958E-06 3.67150076E-08 6.35922585E-08 0.00000000E+00
 INPUT CARD> 1 15-1.15589499E-07-2.00206885E-07 0.00000000E+00-2.59789600E-08 1.48958753E-07
 INPUT CARD> 1 16-1.22979793E-07 1.74937713E-07 0.00000000E+00 0.00000000E+00-2.07617827E-08
 INPUT CARD> 1 17-9.82951272E-07 1.17007958E-06-7.34300151E-08 0.00000000E+00 0.00000000E+00
  250000000 WORDS OF MEMORY AVAILABLE

     BASIS OPTIONS
     -------------
     GBASIS=CCT          IGAUSS=       0      POLAR=NONE    
     NDFUNC=       0     NFFUNC=       0     DIFFSP=       F
     NPFUNC=       0      DIFFS=       F     BASNAM=        


     RUN TITLE
     ---------
  AsH3+ 3 states calculation at AsH3 structure.                                  

 THE POINT GROUP OF THE MOLECULE IS C1      
 THE ORDER OF THE PRINCIPAL AXIS IS     0

 ATOM      ATOMIC                      COORDINATES (BOHR)
           CHARGE         X                   Y                   Z
 AS         33.0     0.0000000000       -0.0000000000        0.0000000000
 H           1.0    -1.3842523970        2.3975954823        0.0000000000
 H           1.0    -1.3842523970       -2.3975954823        0.0000000000
 H           1.0     2.7685047942        0.0000000000        0.0000000000

          INTERNUCLEAR DISTANCES (ANGS.)
          ------------------------------

                1 AS         2 H          3 H          4 H     

   1 AS      0.0000000    1.4650298 *  1.4650298 *  1.4650298 *
   2 H       1.4650298 *  0.0000000    2.5375060 *  2.5375060 *
   3 H       1.4650298 *  2.5375060 *  0.0000000    2.5375060 *
   4 H       1.4650298 *  2.5375060 *  2.5375060 *  0.0000000  

  * ... LESS THAN  3.000


     ATOMIC BASIS SET
     ----------------
 THE CONTRACTED PRIMITIVE FUNCTIONS HAVE BEEN UNNORMALIZED
 THE CONTRACTED BASIS FUNCTIONS ARE NOW NORMALIZED TO UNITY

  SHELL TYPE  PRIMITIVE        EXPONENT          CONTRACTION COEFFICIENT(S)

 AS        

      1   S       1       8482340.0000000    0.000006800003
      1   S       2       1270151.0000000    0.000052800023
      1   S       3        289057.0000000    0.000277400122
      1   S       4         81879.8500000    0.001170200514
      1   S       5         26716.5600000    0.004242101862
      1   S       6          9647.5840000    0.013655705995
      1   S       7          3764.1190000    0.039339917271
      1   S       8          1561.5660000    0.099929243872
      1   S       9           680.8147000    0.212155593142
      1   S      10           309.2412000    0.336386747683
      1   S      11           145.2574000    0.315512638518
      1   S      12            69.7390500    0.118131251863
      1   S      13            31.7703200    0.008007603516
      1   S      14            15.3917600    0.000329300145
      1   S      15             7.3415260   -0.000152300067
      1   S      16             3.3237160    0.000024700011
      1   S      17             1.4858670   -0.000036600016
      1   S      18             0.2115000   -0.000009400004

      2   S      19       8482340.0000000   -0.000002099844
      2   S      20       1270151.0000000   -0.000016498771
      2   S      21        289057.0000000   -0.000086593551
      2   S      22         81879.8500000   -0.000365272798
      2   S      23         26716.5600000   -0.001330800894
      2   S      24          9647.5840000   -0.004308979105
      2   S      25          3764.1190000   -0.012696354487
      2   S      26          1561.5660000   -0.033613496762
      2   S      27           680.8147000   -0.078941121158
      2   S      28           309.2412000   -0.151434522485
      2   S      29           145.2574000   -0.204186194004
      2   S      30            69.7390500   -0.055732549529
      2   S      31            31.7703200    0.418729516699
      2   S      32            15.3917600    0.575833316987
      2   S      33             7.3415260    0.169671564351
      2   S      34             3.3237160    0.006065748276
      2   S      35             1.4858670    0.001760368903
      2   S      36             0.2115000    0.000231582754

      3   S      37       8482340.0000000    0.000000818623
      3   S      38       1270151.0000000    0.000006548987
      3   S      39        289057.0000000    0.000034484509
      3   S      40         81879.8500000    0.000145612630
      3   S      41         26716.5600000    0.000530877249
      3   S      42          9647.5840000    0.001719313712
      3   S      43          3764.1190000    0.005083344082
      3   S      44          1561.5660000    0.013519053150
      3   S      45           680.8147000    0.032188884481
      3   S      46           309.2412000    0.063284292808
      3   S      47           145.2574000    0.090004159277
      3   S      48            69.7390500    0.026354351138
      3   S      49            31.7703200   -0.251262012099
      3   S      50            15.3917600   -0.520907644337
      3   S      51             7.3415260   -0.056868639208
      3   S      52             3.3237160    0.724870110338
      3   S      53             1.4858670    0.535280112340
      3   S      54             0.2115000   -0.011376408833

      4   S      55       8482340.0000000   -0.000000322182
      4   S      56       1270151.0000000   -0.000002899636
      4   S      57        289057.0000000   -0.000014981451
      4   S      58         81879.8500000   -0.000063147623
      4   S      59         26716.5600000   -0.000230198862
      4   S      60          9647.5840000   -0.000745689664
      4   S      61          3764.1190000   -0.002204850817
      4   S      62          1561.5660000   -0.005870151514
      4   S      63           680.8147000   -0.013996219653
      4   S      64           309.2412000   -0.027636106289
      4   S      65           145.2574000   -0.039550065282
      4   S      66            69.7390500   -0.011844045553
      4   S      67            31.7703200    0.115999445484
      4   S      68            15.3917600    0.253920137348
      4   S      69             7.3415260    0.022886825089
      4   S      70             3.3237160   -0.459365613804
      4   S      71             1.4858670   -0.625893951029
      4   S      72             0.2115000    1.046339525967

      5   S      73             0.4210860    1.000000000000

      6   S      74             0.0889740    1.000000000000

      7   P      75          7423.8610000    0.000459888095
      7   P      76          1759.5170000    0.003982196918
      7   P      77           570.2292000    0.021463244409
      7   P      78           216.5800000    0.082459565479
      7   P      79            90.7342500    0.223884404601
      7   P      80            40.3087900    0.392060251256
      7   P      81            18.5555000    0.354214630915
      7   P      82             8.3965430    0.104861385592
      7   P      83             3.7673670    0.003366312861
      7   P      84             1.6297010    0.001849452126
      7   P      85             0.2225030    0.000229694054

      8   P      86          7423.8610000   -0.000183933273
      8   P      87          1759.5170000   -0.001603623364
      8   P      88           570.2292000   -0.008714684634
      8   P      89           216.5800000   -0.034482567311
      8   P      90            90.7342500   -0.097731519242
      8   P      91            40.3087900   -0.183894927481
      8   P      92            18.5555000   -0.150374370146
      8   P      93             8.3965430    0.201569541112
      8   P      94             3.7673670    0.550783570924
      8   P      95             1.6297010    0.395483295494
      8   P      96             0.2225030   -0.005537068181

      9   P      97          7423.8610000    0.000067575484
      9   P      98          1759.5170000    0.000590735054
      9   P      99           570.2292000    0.003209920148
      9   P     100           216.5800000    0.012757201241
      9   P     101            90.7342500    0.036296841475
      9   P     102            40.3087900    0.069067055648
      9   P     103            18.5555000    0.055084858236
      9   P     104             8.3965430   -0.092951347783
      9   P     105             3.7673670   -0.256062306212
      9   P     106             1.6297010   -0.211535143443
      9   P     107             0.2225030    0.991664800915

     10   P     108             0.5682630    1.000000000000

     11   P     109             0.0804050    1.000000000000

     12   D     110           321.0196000    0.001738948853
     12   D     111            96.2493100    0.014620594557
     12   D     112            36.6449600    0.064875906626
     12   D     113            15.4939600    0.184323725081
     12   D     114             6.8911380    0.331417629149
     12   D     115             3.0548310    0.389664464481
     12   D     116             1.3142410    0.283997092847

     13   D     117             0.5134300    1.000000000000

     14   D     118             0.1877000    1.000000000000

     15   F     119             0.4158000    1.000000000000

 H         

     16   S     120            33.8700000    0.025494863235
     16   S     121             5.0950000    0.190362765893
     16   S     122             1.1590000    0.852162022245

     17   S     123             0.3258000    1.000000000000

     18   S     124             0.1027000    1.000000000000

     19   P     125             1.4070000    1.000000000000

     20   P     126             0.3880000    1.000000000000

     21   D     127             1.0570000    1.000000000000

 H         

     22   S     128            33.8700000    0.025494863235
     22   S     129             5.0950000    0.190362765893
     22   S     130             1.1590000    0.852162022245

     23   S     131             0.3258000    1.000000000000

     24   S     132             0.1027000    1.000000000000

     25   P     133             1.4070000    1.000000000000

     26   P     134             0.3880000    1.000000000000

     27   D     135             1.0570000    1.000000000000

 H         

     28   S     136            33.8700000    0.025494863235
     28   S     137             5.0950000    0.190362765893
     28   S     138             1.1590000    0.852162022245

     29   S     139             0.3258000    1.000000000000

     30   S     140             0.1027000    1.000000000000

     31   P     141             1.4070000    1.000000000000

     32   P     142             0.3880000    1.000000000000

     33   D     143             1.0570000    1.000000000000

 TOTAL NUMBER OF BASIS SET SHELLS             =   33
 NUMBER OF CARTESIAN GAUSSIAN BASIS FUNCTIONS =   94
 NOTE: THIS RUN WILL RESTRICT THE MO VARIATION SPACE TO SPHERICAL HARMONICS.
 THE NUMBER OF ORBITALS KEPT IN THE VARIATIONAL SPACE WILL BE PRINTED LATER.
 NUMBER OF ELECTRONS                          =   35
 CHARGE OF MOLECULE                           =    1
 SPIN MULTIPLICITY                            =    2
 NUMBER OF OCCUPIED ORBITALS (ALPHA)          =   18
 NUMBER OF OCCUPIED ORBITALS (BETA )          =   17
 TOTAL NUMBER OF ATOMS                        =    4
 THE NUCLEAR REPULSION ENERGY IS       36.3850013985

     $CONTRL OPTIONS
     ---------------
 SCFTYP=MCSCF        RUNTYP=ENERGY       EXETYP=RUN     
 MPLEVL=       2     CITYP =NONE         CCTYP =NONE         VBTYP =NONE    
 DFTTYP=NONE         TDDFT =NONE    
 MULT  =       2     ICHARG=       1     NZVAR =       0     COORD =UNIQUE  
 PP    =NONE         RELWFN=NONE         LOCAL =NONE         NUMGRD=       F
 ISPHER=       1     NOSYM =       1     MAXIT =     200     UNITS =ANGS    
 PLTORB=       F     MOLPLT=       F     AIMPAC=       F     FRIEND=        
 NPRINT=       7     IREST =       0     GEOM  =INPUT   
 NORMF =       0     NORMP =       0     ITOL  =      20     ICUT  =       9
 INTTYP=RYSQUAD      GRDTYP=BEST         QMTTOL= 1.0E-05

     $SYSTEM OPTIONS
     ---------------
  REPLICATED MEMORY=   250000000 WORDS (ON EVERY NODE).
 DISTRIBUTED MEMDDI=        8000 MILLION WORDS IN AGGREGATE,
 MEMDDI DISTRIBUTED OVER   4 PROCESSORS IS  2000000000 WORDS/PROCESSOR.
 TOTAL MEMORY REQUESTED ON EACH PROCESSOR=  2250000000 WORDS.
 TIMLIM=      525600.00 MINUTES, OR     365.0 DAYS.
 PARALL= T  BALTYP=  DLB     KDIAG=    3  COREFL= F
 MXSEQ2=     300 MXSEQ3=     150  mem10=         0

          ----------------
          PROPERTIES INPUT
          ----------------

     MOMENTS            FIELD           POTENTIAL          DENSITY
 IEMOM =       1   IEFLD =       0   IEPOT =       0   IEDEN =       0
 WHERE =COMASS     WHERE =NUCLEI     WHERE =NUCLEI     WHERE =NUCLEI  
 OUTPUT=BOTH       OUTPUT=BOTH       OUTPUT=BOTH       OUTPUT=BOTH    
 IEMINT=       0   IEFINT=       0                     IEDINT=       0
                                                       MORB  =       0

     -------------------------------
     INTEGRAL TRANSFORMATION OPTIONS
     -------------------------------
     NWORD  =            0
     CUTOFF = 1.0E-09     MPTRAN =       0
     DIRTRF =       T     AOINTS =DUP     

          ----------------------
          MCSCF INPUT PARAMETERS
          ----------------------
 CONVERGER SELECTION: FOCAS = F  SOSCF = F  FULLNR = T  QUD = F  JACOBI = F
 SECULAR EQUATION METHOD CISTEP = GMCCI   
 --- GENERAL INPUT OPTIONS:
 MAXIT =     200  MICIT =       1  ACURCY= 1.000E-06
 DAMP  =   0.000  CANONC=       T  ENGTOL= 1.000E-10
 EKT   =       F  NPUNCH=       2  NWORD =         0
 REGENERATE CI AFTER CONVERGENCE = NONE    
 DIABATIZATION AFTER CONVERGENCE =        F
 --- INPUT FOR FULLNR CONVERGER:
 METHOD=DM2       FORS  =       F  DROPC =       T
 LINSER=       F  FCORE =       F  NORB  =      94

          ----------------------
          INTEGRAL INPUT OPTIONS
          ----------------------
 NOPK  =       1 NORDER=       0 SCHWRZ=       T

 ------------------------------------------
 MULTIREFERENCE PERTURBATION THEORY CONTROL
 ------------------------------------------
 MRPT=GMCPT    READ CONVERGED MCSCF VECTORS= F


     ------------------------------------------
     THE POINT GROUP IS C1 , NAXIS= 1, ORDER= 1
     ------------------------------------------

 -- VARIATIONAL SPACE WILL BE RESTRICTED TO PURE SPHERICAL HARMONICS ONLY --
 AFTER EXCLUDING CONTAMINANT COMBINATIONS FROM THE CARTESIAN GAUSSIAN BASIS
 SET, THE NUMBER OF SPHERICAL HARMONICS KEPT IN THE VARIATION SPACE IS   85

     DIMENSIONS OF THE SYMMETRY SUBSPACES ARE
 A   =   85

 ..... DONE SETTING UP THE RUN .....
 CPU     0: STEP CPU TIME=     0.14 TOTAL CPU TIME=          0.1 (      0.0 MIN)
 TOTAL WALL CLOCK TIME=          0.2 SECONDS, CPU UTILIZATION IS    56.00%

          ********************
          1 ELECTRON INTEGRALS
          ********************
 TIME TO DO   DIPOLE INTEGRALS=      0.01
 ...... END OF ONE-ELECTRON INTEGRALS ......
 CPU     0: STEP CPU TIME=     0.01 TOTAL CPU TIME=          0.2 (      0.0 MIN)
 TOTAL WALL CLOCK TIME=          0.3 SECONDS, CPU UTILIZATION IS    57.69%

          -------------
          GUESS OPTIONS
          -------------
          GUESS =MOREAD            NORB  =      85          NORDER=       0
          MIX   =       F          PRTMO =       F          PUNMO =       F
          TOLZ  = 1.0E-08          TOLE  = 1.0E-05
          SYMDEN=       F          PURIFY=       T

 INITIAL GUESS ORBITALS GENERATED BY MOREAD   ROUTINE.

 STATISTICS FOR GENERATION OF SYMMETRY ORBITAL -Q- MATRIX
 NUMBER OF CARTESIAN ATOMIC ORBITALS=         94
 NUMBER OF SPHERICAL CONTAMINANTS DROPPED=     9
 NUMBER OF LINEARLY DEPENDENT MOS DROPPED=     0
 TOTAL NUMBER OF MOS IN VARIATION SPACE=      85
 ORBITAL PURIFICATION WILL OCCUR

 SYMMETRIES FOR INITIAL GUESS ORBITALS FOLLOW.   BOTH SET(S).
    18 ORBITALS ARE OCCUPIED (   14 CORE ORBITALS).
     1=A        2=A        3=A        4=A        5=A        6=A        7=A   
     8=A        9=A       10=A       11=A       12=A       13=A       14=A   
    15=A       16=A       17=A       18=A       19=A       20=A       21=A   
    22=A       23=A       24=A       25=A       26=A       27=A       28=A   
    29=A       30=A       31=A       32=A       33=A       34=A       35=A   
    36=A       37=A       38=A       39=A       40=A       41=A       42=A   
    43=A       44=A       45=A       46=A       47=A       48=A       49=A   
    50=A       51=A       52=A       53=A       54=A       55=A       56=A   
    57=A       58=A       59=A       60=A       61=A       62=A       63=A   
    64=A       65=A       66=A       67=A       68=A       69=A       70=A   
    71=A       72=A       73=A       74=A       75=A       76=A       77=A   
    78=A       79=A       80=A       81=A       82=A       83=A       84=A   
    85=A   
 ...... END OF INITIAL ORBITAL SELECTION ......
 CPU     0: STEP CPU TIME=     0.07 TOTAL CPU TIME=          0.2 (      0.0 MIN)
 TOTAL WALL CLOCK TIME=          0.3 SECONDS, CPU UTILIZATION IS    64.71%

                    ----------------------
                    AO INTEGRAL TECHNOLOGY
                    ----------------------
     S,P,L SHELL ROTATED AXIS INTEGRALS, REPROGRAMMED BY
        KAZUYA ISHIMURA (IMS) AND JOSE SIERRA (SYNSTAR).
     S,P,D,L SHELL ROTATED AXIS INTEGRALS PROGRAMMED BY
        KAZUYA ISHIMURA (INSTITUTE FOR MOLECULAR SCIENCE).
     S,P,D,F,G SHELL TO TOTAL QUARTET ANGULAR MOMENTUM SUM 5,
        ERIC PROGRAM BY GRAHAM FLETCHER (ELORET AND NASA ADVANCED
        SUPERCOMPUTING DIVISION, AMES RESEARCH CENTER).
     S,P,D,F,G,L SHELL GENERAL RYS QUADRATURE PROGRAMMED BY
        MICHEL DUPUIS (PACIFIC NORTHWEST NATIONAL LABORATORY).

          --------------------
          2 ELECTRON INTEGRALS
          --------------------

 DIRECT SCF METHOD SKIPS INTEGRAL STORAGE ON DISK.
 DIRECT TRANSFORMATION SKIPS AO INTEGRAL STORAGE ON DISK.
  ...... END OF TWO-ELECTRON INTEGRALS .....
 STEP CPU TIME =     0.03 TOTAL CPU TIME =          0.2 (      0.0 MIN)
 TOTAL WALL CLOCK TIME=          0.4 SECONDS, CPU UTILIZATION IS    69.44%
 DDI: Creating Array [0] - 8836 x 231 = 2041116 words.
 DDI: Creating Array [1] - 64 x 4851 = 310464 words.
 DDI: Creating Array [2] - 231 x 231 = 53361 words.
 DDI: Creating Array [3] - 4465 x 231 = 1031415 words.

          -----------------
          MCSCF CALCULATION
          -----------------

 ----- NUCLEAR ENERGY ----- =        36.3850013985

     -------------------------------------------------
     GMC-PT/GMC-QDPT or general MCSCF input parameters
     -------------------------------------------------
 # of frozen core orbs. =         5 ->         0
 # of doubly occ. orbs. =         9
 # of active      orbs. =         7
 # of virtual     orbs. =        64
 # of active electrons  =         7
 # of states in CI      =         3
 Highest state in CI    =         3
 kstate =  1 1 1
 avecoe =  0.333 0.333 0.333
 State symmetry           = A           
 Assigned symmetry number = 1

 <<<Act. MO sym.: 1111111

 <<<Division of 1-ext.:  0 0 0 0
 <<<Division of 2-ext.:  0 1 2 3

 *** Reference space

 Reference type: ORMAS (= Occupation restricted multiple active space)
 # of orbitals          =  7
 # of minimum electrons =  7
 # of maximum electrons =  7
 State symmetry    =    1 (input)
 2*Sz              =    1 (input)
 Spin multiplicity =    2 (input)
 Dimension of reference space =      1225  (from      3432 walks)

 Dimension of reference space =      1225  (from      1225 walks)

 <<<Ionized spaces for Ref-CI:
      0:         1225 /   -1-0:         1960 /  0-1-0:         2891

 EVALUATING EXCHANGE INTEGRALS FOR DIRECT INTEGRAL TRANSFORMATION
 SCHWARZ INEQUALITY OVERHEAD:      4465 INTEGRALS, T=        0.09

     --------------------------------------------
     PARTIAL TWO ELECTRON INTEGRAL TRANSFORMATION
     --------------------------------------------

 NUMBER OF CORE MOLECULAR ORBITALS     =   14
 NUMBER OF OCCUPIED MOLECULAR ORBITALS =   21
 TOTAL NUMBER OF MOLECULAR ORBITALS    =   85
 TOTAL NUMBER OF ATOMIC ORBITALS       =   94
 THRESHOLD FOR KEEPING TRANSFORMED 2E- INTEGRALS = 1.000E-09

 -------------------------------     ------------------------------
 DISTRIBUTED DATA TRANSFORMATION     PROGRAM WRITTEN BY G. FLETCHER
 -------------------------------     ------------------------------

 THE DISTRIBUTED MEMORY REQUIRED FOR THIS STEP IS MEMDDI=         4 MWORDS
 CREATING DISTRIBUTED STORAGE FOR [VIR OCC|VIR OCC] INTEGRALS
 CREATING DISTRIBUTED STORAGE FOR [VIR OCC|OCC OCC] INTEGRALS
 CREATING DISTRIBUTED STORAGE FOR [OCC OCC|OCC OCC] INTEGRALS
 CREATING DISTRIBUTED STORAGE FOR [VIR VIR|OCC OCC] INTEGRALS
 FOR    4 PROCESSORS, THE REPLICATED MEMORY NEEDED IS      541469 WORDS.
 SCHWARZ INEQUALITY OVERHEAD:      4465 INTEGRALS, T=        0.09

      DIRECT 4-INDEX TRANSFORMATION 
      SCHWARZ INEQUALITY TEST SKIPPED       1074 INTEGRAL BLOCKS
 ----- FROZEN CORE ENERGY =     -2258.5556219176
 ... END OF INTEGRAL TRANSFORMATION ...
 CPU     0: STEP CPU TIME=     7.17 TOTAL CPU TIME=          7.4 (      0.1 MIN)
 TOTAL WALL CLOCK TIME=          7.6 SECONDS, CPU UTILIZATION IS    96.99%

     --------------------------------     -----------------------------
     MCHF NEWTON-RAPHSON OPTIMIZATION     CODE WRITTEN BY MICHEL DUPUIS
     --------------------------------     -----------------------------
     PARALLEL VERSION WRITTEN BY G. FLETCHER (ELORET)
     NASA ADVANCED SUPERCOMPUTING DIVISION, AMES RESEARCH CENTER

 NUMBER OF INDEPENDENT ORBITAL ROTATION PARAMETERS =   830
 ..... DONE SOLVING NEWTON-RAPHSON EQUATIONS .....
 CPU     0: STEP CPU TIME=     0.73 TOTAL CPU TIME=          8.1 (      0.1 MIN)
 TOTAL WALL CLOCK TIME=          9.0 SECONDS, CPU UTILIZATION IS    90.25%
 ..... DONE WITH NTN-RPH ORBITAL ROTATIONS ..... 
 CPU     0: STEP CPU TIME=     0.00 TOTAL CPU TIME=          8.1 (      0.1 MIN)
 TOTAL WALL CLOCK TIME=          9.0 SECONDS, CPU UTILIZATION IS    90.15%
 MAXIMUM MEMORY USED BY NTN-RPH CODE WAS    197978 WORDS.

 ITER     TOTAL ENERGY      DEL(E)  LAGRANGIAN ASYMMETRY   SQCDF  MICIT   DAMP
   1    -2235.469049819 -0.469049819  0.080812   22   16 1.736E-01  1   0.0000
   2    -2235.518514536 -0.049464716  0.013822   25   18 2.697E-01  1   0.0000
   3    -2235.536394254 -0.017879718  0.006108   28   20 8.169E-02  1   0.0046
   4    -2235.540725261 -0.004331007  0.002163   33   21 9.671E-03  1   0.0000
   5    -2235.541282259 -0.000556998  0.000964   33   21 1.735E-03  1   0.0000
   6    -2235.541387362 -0.000105102  0.000452   32   16 3.441E-04  1   0.0000
   7    -2235.541408465 -0.000021103  0.000253   32   16 7.435E-05  1   0.0000
   8    -2235.541413249 -0.000004784  0.000134   32   16 1.939E-05  1   0.0000
   9    -2235.541414636 -0.000001387  0.000102   59   19 6.787E-06  1   0.0000
  10    -2235.541415192 -0.000000555  0.000080   59   19 3.142E-06  1   0.0000
  11    -2235.541415478 -0.000000286  0.000062   59   19 1.720E-06  1   0.0000
  12    -2235.541415646 -0.000000168  0.000048   59   19 1.019E-06  1   0.0000
  13    -2235.541415752 -0.000000106  0.000040   26   18 6.312E-07  1   0.0000
  14    -2235.541415823 -0.000000071  0.000041   26   18 4.054E-07  1   0.0000
  15    -2235.541415872 -0.000000049  0.000040   26   18 2.712E-07  1   0.0000
  16    -2235.541415908 -0.000000036  0.000040   26   18 1.903E-07  1   0.0000
  17    -2235.541415937 -0.000000028  0.000039   26   18 1.408E-07  1   0.0000
  18    -2235.541415960 -0.000000023  0.000039   26   18 1.099E-07  1   0.0000
  19    -2235.541415980 -0.000000020  0.000038   26   18 9.023E-08  1   0.0000
  20    -2235.541415998 -0.000000018  0.000037   26   18 7.698E-08  1   0.0000
  21    -2235.541416013 -0.000000016  0.000036   26   18 6.807E-08  1   0.0000
  22    -2235.541416028 -0.000000015  0.000035   26   18 6.152E-08  1   0.0000
  23    -2235.541416041 -0.000000014  0.000034   26   18 5.645E-08  1   0.0000
  24    -2235.541416054 -0.000000013  0.000034   26   18 5.240E-08  1   0.0000
  25    -2235.541416066 -0.000000012  0.000033   26   18 4.897E-08  1   0.0000
  26    -2235.541416077 -0.000000011  0.000032   26   18 4.597E-08  1   0.0000
  27    -2235.541416088 -0.000000011  0.000031   26   18 4.328E-08  1   0.0000
  28    -2235.541416098 -0.000000010  0.000030   26   18 4.081E-08  1   0.0000
  29    -2235.541416107 -0.000000009  0.000029   26   18 3.853E-08  1   0.0000
  30    -2235.541416116 -0.000000009  0.000029   26   18 3.640E-08  1   0.0000
  31    -2235.541416124 -0.000000008  0.000028   26   18 3.440E-08  1   0.0000
  32    -2235.541416132 -0.000000008  0.000027   26   18 3.252E-08  1   0.0000
  33    -2235.541416140 -0.000000008  0.000026   26   18 3.074E-08  1   0.0000
  34    -2235.541416147 -0.000000007  0.000026   26   18 2.906E-08  1   0.0000
  35    -2235.541416154 -0.000000007  0.000025   26   18 2.747E-08  1   0.0000
  36    -2235.541416160 -0.000000006  0.000024   26   18 2.597E-08  1   0.0000
  37    -2235.541416166 -0.000000006  0.000024   26   18 2.455E-08  1   0.0000
  38    -2235.541416172 -0.000000006  0.000023   26   18 2.320E-08  1   0.0000
  39    -2235.541416177 -0.000000005  0.000022   26   18 2.193E-08  1   0.0000
  40    -2235.541416182 -0.000000005  0.000022   26   18 2.072E-08  1   0.0000
  41    -2235.541416187 -0.000000005  0.000021   26   18 1.958E-08  1   0.0000
  42    -2235.541416192 -0.000000005  0.000020   26   18 1.850E-08  1   0.0000
  43    -2235.541416196 -0.000000004  0.000020   26   18 1.748E-08  1   0.0000
  44    -2235.541416200 -0.000000004  0.000019   26   18 1.652E-08  1   0.0000
  45    -2235.541416204 -0.000000004  0.000019   26   18 1.561E-08  1   0.0000
  46    -2235.541416207 -0.000000004  0.000018   26   18 1.474E-08  1   0.0000
  47    -2235.541416211 -0.000000003  0.000018   26   18 1.393E-08  1   0.0000
  48    -2235.541416214 -0.000000003  0.000017   26   18 1.316E-08  1   0.0000
  49    -2235.541416217 -0.000000003  0.000017   26   18 1.243E-08  1   0.0000
  50    -2235.541416220 -0.000000003  0.000016   26   18 1.174E-08  1   0.0000
  51    -2235.541416223 -0.000000003  0.000016   26   18 1.108E-08  1   0.0000
  52    -2235.541416225 -0.000000003  0.000015   26   18 1.047E-08  1   0.0000
  53    -2235.541416228 -0.000000002  0.000015   26   18 9.887E-09  1   0.0000
  54    -2235.541416230 -0.000000002  0.000015   26   18 9.337E-09  1   0.0000
  55    -2235.541416232 -0.000000002  0.000014   26   18 8.817E-09  1   0.0000
  56    -2235.541416234 -0.000000002  0.000014   26   18 8.326E-09  1   0.0000
  57    -2235.541416236 -0.000000002  0.000013   26   18 7.862E-09  1   0.0000
  58    -2235.541416238 -0.000000002  0.000013   26   18 7.424E-09  1   0.0000
  59    -2235.541416240 -0.000000002  0.000013   26   18 7.009E-09  1   0.0000
  60    -2235.541416241 -0.000000002  0.000012   26   18 6.618E-09  1   0.0000
  61    -2235.541416243 -0.000000002  0.000012   26   18 6.249E-09  1   0.0000
  62    -2235.541416244 -0.000000001  0.000012   26   18 5.900E-09  1   0.0000
  63    -2235.541416246 -0.000000001  0.000011   26   18 5.570E-09  1   0.0000
  64    -2235.541416247 -0.000000001  0.000011   26   18 5.259E-09  1   0.0000
  65    -2235.541416248 -0.000000001  0.000011   26   18 4.965E-09  1   0.0000
  66    -2235.541416249 -0.000000001  0.000010   26   18 4.687E-09  1   0.0000
  67    -2235.541416250 -0.000000001  0.000010   26   18 4.415E-09  1   0.0000
  68    -2235.541416251 -0.000000001  0.000010   26   18 4.176E-09  1   0.0000
  69    -2235.541416252 -0.000000001  0.000009   26   18 3.952E-09  1   0.0000
  70    -2235.541416253 -0.000000001  0.000009   26   18 3.716E-09  1   0.0000
  71    -2235.541416254 -0.000000001  0.000009   26   18 3.513E-09  1   0.0000
  72    -2235.541416255 -0.000000001  0.000009   26   18 3.317E-09  1   0.0000
  73    -2235.541416256 -0.000000001  0.000008   26   18 3.131E-09  1   0.0000
  74    -2235.541416256 -0.000000001  0.000008   26   18 2.963E-09  1   0.0000
  75    -2235.541416257 -0.000000001  0.000008   26   18 2.785E-09  1   0.0000
  76    -2235.541416258 -0.000000001  0.000008   26   18 2.633E-09  1   0.0000
  77    -2235.541416258 -0.000000001  0.000008   26   18 2.492E-09  1   0.0000
  78    -2235.541416259 -0.000000001  0.000007   26   18 2.348E-09  1   0.0000
  79    -2235.541416259 -0.000000001  0.000007   26   18 2.216E-09  1   0.0000
  80    -2235.541416260 -0.000000001  0.000007   26   18 2.091E-09  1   0.0000
  81    -2235.541416260 -0.000000000  0.000007   26   18 1.969E-09  1   0.0000
  82    -2235.541416261 -0.000000000  0.000007   26   18 1.867E-09  1   0.0000
  83    -2235.541416261 -0.000000000  0.000006   26   18 1.759E-09  1   0.0000
  84    -2235.541416262 -0.000000000  0.000006   26   18 1.660E-09  1   0.0000
  85    -2235.541416262 -0.000000000  0.000006   26   18 1.567E-09  1   0.0000
  86    -2235.541416263 -0.000000000  0.000006   26   18 1.475E-09  1   0.0000
  87    -2235.541416263 -0.000000000  0.000006   26   18 1.399E-09  1   0.0000
  88    -2235.541416263 -0.000000000  0.000005   26   18 1.315E-09  1   0.0000
  89    -2235.541416263 -0.000000000  0.000005   26   18 1.246E-09  1   0.0000
  90    -2235.541416264 -0.000000000  0.000005   26   18 1.171E-09  1   0.0000
  91    -2235.541416264 -0.000000000  0.000005   26   18 1.110E-09  1   0.0000
  92    -2235.541416264 -0.000000000  0.000005   26   18 1.043E-09  1   0.0000
  93    -2235.541416265 -0.000000000  0.000005   26   18 9.888E-10  1   0.0000
  94    -2235.541416265 -0.000000000  0.000005   26   18 9.295E-10  1   0.0000
  95    -2235.541416265 -0.000000000  0.000004   26   18 8.809E-10  1   0.0000
  96    -2235.541416265 -0.000000000  0.000004   26   18 8.280E-10  1   0.0000
  97    -2235.541416265 -0.000000000  0.000004   26   18 7.847E-10  1   0.0000
  98    -2235.541416266 -0.000000000  0.000004   26   18 7.376E-10  1   0.0000
  99    -2235.541416266 -0.000000000  0.000004   26   18 6.990E-10  1   0.0000
 100    -2235.541416266 -0.000000000  0.000004   26   18 6.571E-10  1   0.0000
 101    -2235.541416266 -0.000000000  0.000004   26   18 6.227E-10  1   0.0000
 102    -2235.541416266 -0.000000000  0.000004   26   18 5.853E-10  1   0.0000
 103    -2235.541416266 -0.000000000  0.000004   26   18 5.547E-10  1   0.0000
 104    -2235.541416266 -0.000000000  0.000003   26   18 5.214E-10  1   0.0000
 105    -2235.541416267 -0.000000000  0.000003   26   18 4.941E-10  1   0.0000
 106    -2235.541416267 -0.000000000  0.000003   26   18 4.644E-10  1   0.0000
 107    -2235.541416267 -0.000000000  0.000003   26   18 4.401E-10  1   0.0000
 108    -2235.541416267 -0.000000000  0.000003   26   18 4.137E-10  1   0.0000
 109    -2235.541416267 -0.000000000  0.000003   26   18 3.921E-10  1   0.0000
 110    -2235.541416267 -0.000000000  0.000003   26   18 3.685E-10  1   0.0000
 111    -2235.541416267 -0.000000000  0.000003   26   18 3.479E-10  1   0.0000
 112    -2235.541416267 -0.000000000  0.000003   26   18 3.290E-10  1   0.0000
 113    -2235.541416267 -0.000000000  0.000003   26   18 3.115E-10  1   0.0000
 114    -2235.541416267 -0.000000000  0.000003   26   18 2.925E-10  1   0.0000
 115    -2235.541416267 -0.000000000  0.000003   26   18 2.764E-10  1   0.0000
 116    -2235.541416268 -0.000000000  0.000002   26   18 2.607E-10  1   0.0000
 117    -2235.541416268 -0.000000000  0.000002   26   18 2.471E-10  1   0.0000
 118    -2235.541416268 -0.000000000  0.000002   26   18 2.321E-10  1   0.0000
 119    -2235.541416268 -0.000000000  0.000002   26   18 2.193E-10  1   0.0000
 120    -2235.541416268 -0.000000000  0.000002   26   18 2.069E-10  1   0.0000
 121    -2235.541416268 -0.000000000  0.000002   26   18 1.955E-10  1   0.0000
 122    -2235.541416268 -0.000000000  0.000002   26   18 1.846E-10  1   0.0000
 123    -2235.541416268 -0.000000000  0.000002   26   18 1.741E-10  1   0.0000

          ----------------
          ENERGY CONVERGED
          ----------------

 FINAL MCSCF ENERGY IS    -2235.5414162679 AFTER 123 ITERATIONS

 -MCCI- BASED ON OPTIMIZED ORBITALS
 ----------------------------------

 PLEASE NOTE: IF THE ACTIVE ORBITALS ARE CANONICALIZED BELOW,
 THE FOLLOWING CI EXPANSION COEFFICIENTS AND THE DENSITY DO NOT
 CORRESPOND TO THE PRINTED ORBITALS.  THE PRINTED EXPANSIONS MATCH
 THE ORBITALS USED DURING THE LAST ITERATION.  IF YOU WISH TO SEE
 CI EXPANSIONS BASED ON THE CANONICAL (OR NATURAL) ORBITALS, YOU
 MUST RUN A CI CALCULATION WITH THAT ORBITAL CHOICE READ IN $VEC.

 Averaged energy =   -2235.541416268

 State #    1  Energy =   -2235.693050240  S =  0.500

      Det      Coef    Occupancy (Ignoring core)
      ---      ----    --------- --------- -----
        1   -0.972953  11110001110000
        5    0.078851  01111001110000
        8   -0.050934  10110101110000
       17    0.057011  11010011110000
      107    0.073498  11101000111000
      143   -0.059662  11011001100100
      179   -0.059899  10111001010100
      393   -0.056674  10110101010010
      717   -0.057250  11010011100001

 State #    2  Energy =   -2235.485362951  S =  0.500

      Det      Coef    Occupancy (Ignoring core)
      ---      ----    --------- --------- -----
        2    0.943470  11101001110000
       71   -0.051465  11110001011000
      106   -0.170801  11110000111000
      110   -0.050237  01111000111000
      156    0.079502  11100011100100
      181   -0.077166  11100101010100
      212    0.104826  11101000110100
      387   -0.100649  11101001010010
      396    0.056844  10101101010010
      702    0.104609  11101001100001
      720    0.056934  11001011100001

 State #    3  Energy =   -2235.445835612  S =  0.500

      Det      Coef    Occupancy (Ignoring core)
      ---      ----    --------- --------- -----
       16    0.122984  11100011110000
       36   -0.951509  11110001101000
       39   -0.093472  10111001101000
       52   -0.063542  11010011101000
       73   -0.101134  11011001011000
      108   -0.055857  11011000111000
      123   -0.050264  10110010111000
      142    0.122333  11101001100100
      249   -0.069245  10111001001100
      281   -0.058091  11110000101100
      463   -0.051100  10110101001010

 DENSITY MATRIX OVER ACTIVE MO-S

             1           2           3           4           5

    1    1.9674373
    2    0.0073828   1.9562745
    3   -0.0000932   0.0009556   1.6465741
    4   -0.0000000   0.0000000   0.0000000   1.0034984
    5    0.0773377   0.0181870   0.0002864  -0.0000000   0.3646782
    6   -0.0043066   0.0768729   0.0000740   0.0000000  -0.0066237
    7    0.0001212  -0.0001614   0.0415970   0.0000000  -0.0000253

             6           7

    6    0.0282558
    7   -0.0000143   0.0332817

 FORMING THE "STANDARD FOCK OPERATOR" IN DIRECT AO INTEGRAL MODE...
 ONLY THE   14 CORE AND   64 VIRTUAL ORBITALS WILL BE CANONICALIZED

          ----------------------
          MCSCF NATURAL ORBITALS
          ----------------------

                      1          2          3          4          5
                 -432.9005   -56.6257   -50.4705   -50.4702   -50.4696
                     A          A          A          A          A   
    1  AS 1  S    0.999999   0.000003  -0.000000  -0.000000   0.000001
    2  AS 1  S    0.000001   1.000103  -0.000000  -0.000003   0.000270
    3  AS 1  S   -0.000003   0.000133  -0.000000   0.000000  -0.000007
    4  AS 1  S   -0.000004   0.000160  -0.000000   0.000000  -0.000002
    5  AS 1  S    0.000015  -0.000416  -0.000000  -0.000000   0.000004
    6  AS 1  S    0.000005  -0.000135  -0.000000  -0.000000   0.000003
    7  AS 1  X   -0.000001  -0.000272  -0.000000  -0.002979   1.000020
    8  AS 1  Y    0.000000   0.000002  -0.000000   1.000020   0.002979
    9  AS 1  Z   -0.000000  -0.000000   1.000027  -0.000000   0.000000
   10  AS 1  X    0.000001  -0.000014  -0.000000   0.000000  -0.000017
   11  AS 1  Y   -0.000000   0.000000  -0.000000  -0.000010  -0.000000
   12  AS 1  Z   -0.000000  -0.000000   0.000023  -0.000000   0.000000
   13  AS 1  X   -0.000000   0.000016  -0.000000   0.000000  -0.000079
   14  AS 1  Y   -0.000000   0.000000  -0.000000  -0.000110  -0.000000
   15  AS 1  Z   -0.000000  -0.000000   0.000006  -0.000000   0.000000
   16  AS 1  X   -0.000001   0.000016  -0.000000   0.000001  -0.000488
   17  AS 1  Y    0.000000  -0.000000  -0.000000  -0.000501  -0.000001
   18  AS 1  Z   -0.000000  -0.000000  -0.000458  -0.000000   0.000000
   19  AS 1  X   -0.000000   0.000004  -0.000000   0.000000  -0.000089
   20  AS 1  Y    0.000000  -0.000000  -0.000000  -0.000088  -0.000000
   21  AS 1  Z   -0.000000  -0.000000  -0.000071  -0.000000   0.000000
   22  AS 1 XX    0.000000  -0.000020  -0.000000  -0.000000  -0.000022
   23  AS 1 YY    0.000000   0.000004  -0.000000   0.000000   0.000012
   24  AS 1 ZZ   -0.000000   0.000015  -0.000000  -0.000000   0.000010
   25  AS 1 XY   -0.000000  -0.000000  -0.000000  -0.000022   0.000000
   26  AS 1 XZ   -0.000000  -0.000000  -0.000017  -0.000000   0.000000
   27  AS 1 YZ   -0.000000  -0.000000   0.000000  -0.000000   0.000000
   28  AS 1 XX    0.000000   0.000006  -0.000000   0.000000  -0.000040
   29  AS 1 YY    0.000000  -0.000007  -0.000000  -0.000000   0.000045
   30  AS 1 ZZ   -0.000000   0.000001  -0.000000   0.000000  -0.000004
   31  AS 1 XY    0.000000   0.000000  -0.000000   0.000079   0.000000
   32  AS 1 XZ   -0.000000  -0.000000   0.000008  -0.000000   0.000000
   33  AS 1 YZ   -0.000000  -0.000000  -0.000000  -0.000000   0.000000
   34  AS 1 XX    0.000000  -0.000001  -0.000000   0.000000  -0.000016
   35  AS 1 YY    0.000000  -0.000003  -0.000000  -0.000000   0.000015
   36  AS 1 ZZ   -0.000000   0.000004  -0.000000  -0.000000   0.000001
   37  AS 1 XY    0.000000  -0.000000  -0.000000   0.000022   0.000000
   38  AS 1 XZ   -0.000000  -0.000000  -0.000003  -0.000000   0.000000
   39  AS 1 YZ   -0.000000  -0.000000   0.000000  -0.000000   0.000000
   40  AS 1 XXX   0.000000  -0.000003  -0.000000   0.000000  -0.000011
   41  AS 1 YYY  -0.000000  -0.000000  -0.000000  -0.000015  -0.000000
   42  AS 1 ZZZ  -0.000000  -0.000000  -0.000000  -0.000000   0.000000
   43  AS 1 XXY  -0.000000  -0.000000  -0.000000  -0.000008  -0.000000
   44  AS 1 XXZ  -0.000000  -0.000000   0.000000  -0.000000   0.000000
   45  AS 1 YYX  -0.000000   0.000006  -0.000000   0.000000  -0.000006
   46  AS 1 YYZ  -0.000000  -0.000000  -0.000000  -0.000000   0.000000
   47  AS 1 ZZX  -0.000000  -0.000002  -0.000000  -0.000000   0.000021
   48  AS 1 ZZY   0.000000   0.000000  -0.000000   0.000028   0.000000
   49  AS 1 XYZ  -0.000000  -0.000000   0.000000  -0.000000   0.000000
   50  H  2  S   -0.000000   0.000005  -0.000000  -0.000014   0.000006
   51  H  2  S   -0.000001   0.000009  -0.000000   0.000076  -0.000029
   52  H  2  S   -0.000001   0.000028  -0.000000   0.000041  -0.000024
   53  H  2  X   -0.000000   0.000002  -0.000000   0.000007  -0.000004
   54  H  2  Y    0.000000  -0.000003  -0.000000  -0.000013   0.000007
   55  H  2  Z   -0.000000  -0.000000   0.000001  -0.000000   0.000000
   56  H  2  X   -0.000000   0.000005  -0.000000   0.000035  -0.000017
   57  H  2  Y    0.000000  -0.000007  -0.000000  -0.000063   0.000027
   58  H  2  Z   -0.000000  -0.000000  -0.000005  -0.000000   0.000000
   59  H  2 XX    0.000000  -0.000001  -0.000000  -0.000003   0.000005
   60  H  2 YY   -0.000000   0.000005  -0.000000   0.000023  -0.000016
   61  H  2 ZZ    0.000000  -0.000004  -0.000000  -0.000020   0.000010
   62  H  2 XY    0.000000  -0.000006  -0.000000  -0.000029   0.000012
   63  H  2 XZ   -0.000000  -0.000000   0.000003  -0.000000   0.000000
   64  H  2 YZ   -0.000000  -0.000000  -0.000006  -0.000000   0.000000
   65  H  3  S   -0.000000   0.000005  -0.000000   0.000014   0.000006
   66  H  3  S   -0.000001   0.000009  -0.000000  -0.000076  -0.000030
   67  H  3  S   -0.000001   0.000028  -0.000000  -0.000041  -0.000024
   68  H  3  X   -0.000000   0.000002  -0.000000  -0.000007  -0.000004
   69  H  3  Y   -0.000000   0.000003  -0.000000  -0.000013  -0.000007
   70  H  3  Z   -0.000000  -0.000000   0.000001  -0.000000   0.000000
   71  H  3  X   -0.000000   0.000005  -0.000000  -0.000034  -0.000017
   72  H  3  Y   -0.000000   0.000007  -0.000000  -0.000062  -0.000027
   73  H  3  Z   -0.000000  -0.000000  -0.000005  -0.000000   0.000000
   74  H  3 XX    0.000000  -0.000001  -0.000000   0.000003   0.000005
   75  H  3 YY   -0.000000   0.000005  -0.000000  -0.000023  -0.000016
   76  H  3 ZZ    0.000000  -0.000004  -0.000000   0.000020   0.000010
   77  H  3 XY   -0.000000   0.000006  -0.000000  -0.000029  -0.000012
   78  H  3 XZ   -0.000000  -0.000000   0.000003  -0.000000   0.000000
   79  H  3 YZ   -0.000000  -0.000000   0.000006  -0.000000   0.000000
   80  H  4  S   -0.000001   0.000014  -0.000000   0.000000  -0.000012
   81  H  4  S   -0.000002   0.000012  -0.000000  -0.000000   0.000053
   82  H  4  S   -0.000001   0.000032  -0.000000  -0.000000   0.000046
   83  H  4  X    0.000000  -0.000003  -0.000000   0.000000  -0.000016
   84  H  4  Y    0.000000  -0.000000  -0.000000  -0.000001  -0.000000
   85  H  4  Z   -0.000000  -0.000000   0.000001  -0.000000   0.000000
   86  H  4  X    0.000001  -0.000002  -0.000000   0.000000  -0.000059
   87  H  4  Y   -0.000000  -0.000000  -0.000000  -0.000002  -0.000000
   88  H  4  Z   -0.000000  -0.000000  -0.000005  -0.000000   0.000000
   89  H  4 XX   -0.000000   0.000005  -0.000000  -0.000000   0.000037
   90  H  4 YY    0.000000  -0.000003  -0.000000   0.000000  -0.000018
   91  H  4 ZZ    0.000000  -0.000002  -0.000000   0.000000  -0.000019
   92  H  4 XY    0.000000   0.000000  -0.000000  -0.000003  -0.000000
   93  H  4 XZ   -0.000000  -0.000000  -0.000005  -0.000000   0.000000
   94  H  4 YZ   -0.000000  -0.000000   0.000000  -0.000000   0.000000

                      6          7          8          9         10
                   -8.3499    -6.2048    -6.2025    -6.2024    -2.4382
                     A          A          A          A          A   
    1  AS 1  S   -0.000095  -0.000000  -0.000000   0.000011   0.000123
    2  AS 1  S   -0.000677  -0.000001  -0.000000   0.000082   0.000825
    3  AS 1  S    0.974988  -0.000019  -0.000000   0.001778   0.002496
    4  AS 1  S   -0.002249  -0.000004  -0.000000   0.000597   0.007225
    5  AS 1  S    0.036355   0.000002  -0.000000  -0.000055   0.000434
    6  AS 1  S    0.004110   0.000002  -0.000000  -0.000159  -0.001023
    7  AS 1  X    0.000004   0.000000  -0.000000  -0.000064  -0.000231
    8  AS 1  Y   -0.000000  -0.000124  -0.000000  -0.000000   0.000000
    9  AS 1  Z   -0.000000  -0.000000  -0.000038  -0.000000   0.000000
   10  AS 1  X   -0.001582  -0.002915  -0.000000   0.974580  -0.001656
   11  AS 1  Y    0.000011   0.974227  -0.000000   0.002916  -0.000009
   12  AS 1  Z   -0.000000  -0.000000   0.975150  -0.000000   0.000000
   13  AS 1  X   -0.000185   0.000004  -0.000000  -0.000338  -0.002973
   14  AS 1  Y    0.000001  -0.001164  -0.000000  -0.000001   0.000018
   15  AS 1  Z   -0.000000  -0.000000  -0.000086  -0.000000   0.000000
   16  AS 1  X   -0.000208  -0.000144  -0.000000   0.047405   0.002390
   17  AS 1  Y    0.000002   0.048026  -0.000000   0.000142  -0.000000
   18  AS 1  Z   -0.000000  -0.000000   0.047378  -0.000000   0.000000
   19  AS 1  X   -0.000010  -0.000006  -0.000000   0.002051   0.001950
   20  AS 1  Y    0.000000   0.002039  -0.000000   0.000006  -0.000010
   21  AS 1  Z   -0.000000  -0.000000   0.001695  -0.000000   0.000000
   22  AS 1 XX   -0.000175  -0.000002  -0.000000  -0.000189  -0.247317
   23  AS 1 YY    0.000368   0.000006  -0.000000  -0.000260   0.933582
   24  AS 1 ZZ   -0.000194  -0.000005  -0.000000   0.000449  -0.686264
   25  AS 1 XY   -0.000002  -0.001351  -0.000000   0.000001  -0.004070
   26  AS 1 XZ   -0.000000  -0.000000  -0.000718  -0.000000   0.000000
   27  AS 1 YZ   -0.000000  -0.000000   0.000005  -0.000000   0.000000
   28  AS 1 XX   -0.000178   0.000001  -0.000000  -0.000592  -0.022156
   29  AS 1 YY    0.000131  -0.000000  -0.000000   0.000483   0.081042
   30  AS 1 ZZ    0.000047  -0.000001  -0.000000   0.000109  -0.058886
   31  AS 1 XY   -0.000001   0.000290  -0.000000   0.000002  -0.000355
   32  AS 1 XZ   -0.000000  -0.000000  -0.000041  -0.000000   0.000000
   33  AS 1 YZ   -0.000000  -0.000000   0.000000  -0.000000   0.000000
   34  AS 1 XX   -0.000043   0.000001  -0.000000  -0.000303   0.000038
   35  AS 1 YY    0.000007  -0.000001  -0.000000   0.000227   0.001044
   36  AS 1 ZZ    0.000035  -0.000001  -0.000000   0.000077  -0.001082
   37  AS 1 XY   -0.000000   0.000338  -0.000000   0.000001  -0.000002
   38  AS 1 XZ   -0.000000  -0.000000  -0.000025  -0.000000   0.000000
   39  AS 1 YZ   -0.000000  -0.000000   0.000000  -0.000000   0.000000
   40  AS 1 XXX  -0.000061   0.000001  -0.000000  -0.000178   0.000865
   41  AS 1 YYY   0.000000   0.000124  -0.000000   0.000001   0.000003
   42  AS 1 ZZZ  -0.000000  -0.000000  -0.000087  -0.000000   0.000000
   43  AS 1 XXY   0.000000  -0.000154  -0.000000  -0.000002   0.000001
   44  AS 1 XXZ  -0.000000  -0.000000  -0.000006  -0.000000   0.000000
   45  AS 1 YYX   0.000027  -0.000002  -0.000000   0.000162  -0.001972
   46  AS 1 YYZ  -0.000000  -0.000000   0.000122  -0.000000   0.000000
   47  AS 1 ZZX   0.000055   0.000000  -0.000000   0.000076   0.000811
   48  AS 1 ZZY  -0.000000  -0.000013  -0.000000   0.000000  -0.000005
   49  AS 1 XYZ  -0.000000  -0.000000  -0.000000  -0.000000   0.000000
   50  H  2  S    0.000013   0.000370  -0.000000  -0.000261   0.004068
   51  H  2  S    0.000380   0.001758  -0.000000  -0.001154   0.000636
   52  H  2  S   -0.000679  -0.000584  -0.000000   0.000284   0.000553
   53  H  2  X   -0.000002   0.000023  -0.000000   0.000016   0.000814
   54  H  2  Y   -0.000000  -0.000021  -0.000000   0.000022  -0.000852
   55  H  2  Z   -0.000000  -0.000000   0.000009  -0.000000   0.000000
   56  H  2  X    0.000009   0.000205  -0.000000  -0.000069   0.000222
   57  H  2  Y   -0.000034  -0.000369  -0.000000   0.000297   0.000899
   58  H  2  Z   -0.000000  -0.000000   0.000145  -0.000000   0.000000
   59  H  2 XX   -0.000014  -0.000066  -0.000000  -0.000010   0.000137
   60  H  2 YY    0.000034   0.000136  -0.000000  -0.000058   0.000272
   61  H  2 ZZ   -0.000020  -0.000070  -0.000000   0.000068  -0.000410
   62  H  2 XY   -0.000027  -0.000114  -0.000000   0.000119  -0.000580
   63  H  2 XZ   -0.000000  -0.000000  -0.000023  -0.000000   0.000000
   64  H  2 YZ   -0.000000  -0.000000   0.000027  -0.000000   0.000000
   65  H  3  S    0.000012  -0.000370  -0.000000  -0.000264   0.004026
   66  H  3  S    0.000382  -0.001756  -0.000000  -0.001169   0.000613
   67  H  3  S   -0.000679   0.000581  -0.000000   0.000286   0.000541
   68  H  3  X   -0.000002  -0.000023  -0.000000   0.000016   0.000809
   69  H  3  Y    0.000000  -0.000021  -0.000000  -0.000022   0.000840
   70  H  3  Z   -0.000000  -0.000000   0.000009  -0.000000   0.000000
   71  H  3  X    0.000010  -0.000206  -0.000000  -0.000071   0.000224
   72  H  3  Y    0.000035  -0.000368  -0.000000  -0.000301  -0.000902
   73  H  3  Z   -0.000000  -0.000000   0.000145  -0.000000   0.000000
   74  H  3 XX   -0.000014   0.000066  -0.000000  -0.000009   0.000139
   75  H  3 YY    0.000034  -0.000136  -0.000000  -0.000059   0.000266
   76  H  3 ZZ   -0.000020   0.000070  -0.000000   0.000068  -0.000406
   77  H  3 XY    0.000028  -0.000113  -0.000000  -0.000120   0.000573
   78  H  3 XZ   -0.000000  -0.000000  -0.000023  -0.000000   0.000000
   79  H  3 YZ   -0.000000  -0.000000  -0.000027  -0.000000   0.000000
   80  H  4  S   -0.000008  -0.000002  -0.000000   0.000784  -0.001062
   81  H  4  S    0.000716  -0.000008  -0.000000   0.003123  -0.000002
   82  H  4  S   -0.000656   0.000001  -0.000000  -0.000354  -0.000739
   83  H  4  X   -0.000017   0.000000  -0.000000  -0.000108   0.000459
   84  H  4  Y    0.000000   0.000031  -0.000000   0.000000  -0.000002
   85  H  4  Z   -0.000000  -0.000000   0.000009  -0.000000   0.000000
   86  H  4  X   -0.000246   0.000002  -0.000000  -0.000862  -0.000055
   87  H  4  Y    0.000000   0.000156  -0.000000   0.000001  -0.000003
   88  H  4  Z   -0.000000  -0.000000   0.000197  -0.000000   0.000000
   89  H  4 XX    0.000101  -0.000001  -0.000000   0.000308  -0.000319
   90  H  4 YY   -0.000049   0.000000  -0.000000  -0.000172   0.000265
   91  H  4 ZZ   -0.000052   0.000000  -0.000000  -0.000136   0.000054
   92  H  4 XY   -0.000000   0.000007  -0.000000  -0.000000   0.000001
   93  H  4 XZ   -0.000000  -0.000000   0.000017  -0.000000   0.000000
   94  H  4 YZ   -0.000000  -0.000000   0.000000  -0.000000   0.000000

                     11         12         13         14         15
                   -2.4364    -2.4359    -2.4347    -2.4330     1.9753
                     A          A          A          A          A   
    1  AS 1  S   -0.000000   0.000000   0.000180   0.000000   0.000453
    2  AS 1  S   -0.000000   0.000000   0.001214   0.000000   0.002736
    3  AS 1  S   -0.000001   0.000000   0.004101   0.000000   0.005856
    4  AS 1  S    0.000005   0.000000   0.009274   0.000000   0.503538
    5  AS 1  S    0.000004   0.000000  -0.000762   0.000000   0.213881
    6  AS 1  S    0.000002   0.000000  -0.001727   0.000000   0.115139
    7  AS 1  X   -0.000003   0.000000   0.000262   0.000000  -0.001668
    8  AS 1  Y   -0.000153   0.000000  -0.000000   0.000000  -0.000004
    9  AS 1  Z    0.000000  -0.000000  -0.000000   0.000030  -0.000000
   10  AS 1  X   -0.000028   0.000000   0.002410   0.000000  -0.023906
   11  AS 1  Y    0.000086   0.000000   0.000006   0.000000  -0.000059
   12  AS 1  Z    0.000000  -0.000009  -0.000000   0.000857  -0.000000
   13  AS 1  X   -0.000023   0.000000   0.002382   0.000000   0.171960
   14  AS 1  Y   -0.004133   0.000000  -0.000019   0.000000   0.000438
   15  AS 1  Z    0.000000  -0.000003  -0.000000   0.000384  -0.000000
   16  AS 1  X    0.000031   0.000000  -0.003019   0.000000   0.076971
   17  AS 1  Y    0.001429   0.000000   0.000001   0.000000   0.000198
   18  AS 1  Z    0.000000   0.000002  -0.000000  -0.000087  -0.000000
   19  AS 1  X    0.000018   0.000000  -0.002035   0.000000   0.031483
   20  AS 1  Y    0.002419   0.000000   0.000010   0.000000   0.000084
   21  AS 1  Z    0.000000  -0.000001  -0.000000   0.000195  -0.000000
   22  AS 1 XX   -0.005151   0.000000   0.935009   0.000000  -0.041203
   23  AS 1 YY    0.005042   0.000000  -0.252810   0.000000   0.007449
   24  AS 1 ZZ    0.000110   0.000000  -0.682198   0.000000   0.033754
   25  AS 1 XY    0.966771   0.000000   0.004248   0.000000   0.000035
   26  AS 1 XZ    0.000000  -0.002958  -0.000000   0.968442  -0.000000
   27  AS 1 YZ    0.000000   0.968306  -0.000000   0.002958  -0.000000
   28  AS 1 XX   -0.000449   0.000000   0.080761   0.000000   0.020450
   29  AS 1 YY    0.000440   0.000000  -0.022520   0.000000  -0.006688
   30  AS 1 ZZ    0.000009   0.000000  -0.058242   0.000000  -0.013762
   31  AS 1 XY    0.084256   0.000000   0.000369   0.000000  -0.000037
   32  AS 1 XZ    0.000000  -0.000252  -0.000000   0.082112  -0.000000
   33  AS 1 YZ    0.000000   0.082531  -0.000000   0.000251  -0.000000
   34  AS 1 XX   -0.000005   0.000000   0.001067   0.000000   0.016826
   35  AS 1 YY    0.000005   0.000000  -0.000162   0.000000  -0.008000
   36  AS 1 ZZ    0.000000   0.000000  -0.000905   0.000000  -0.008827
   37  AS 1 XY    0.000738   0.000000   0.000003   0.000000  -0.000023
   38  AS 1 XZ    0.000000  -0.000002  -0.000000   0.000882  -0.000000
   39  AS 1 YZ    0.000000   0.000721  -0.000000   0.000003  -0.000000
   40  AS 1 XXX  -0.000003   0.000000   0.000799   0.000000   0.015321
   41  AS 1 YYY  -0.000025   0.000000  -0.000001   0.000000   0.000010
   42  AS 1 ZZZ   0.000000  -0.000002  -0.000000   0.000209  -0.000000
   43  AS 1 XXY  -0.000776   0.000000  -0.000000   0.000000   0.000000
   44  AS 1 XXZ   0.000000  -0.000000  -0.000000  -0.000115  -0.000000
   45  AS 1 YYX  -0.000000   0.000000  -0.000806   0.000000  -0.013904
   46  AS 1 YYZ   0.000000   0.000003  -0.000000  -0.000165  -0.000000
   47  AS 1 ZZX   0.000004   0.000000  -0.000266   0.000000  -0.006652
   48  AS 1 ZZY   0.000810   0.000000   0.000002   0.000000  -0.000014
   49  AS 1 XYZ   0.000000  -0.000622  -0.000000   0.000000  -0.000000
   50  H  2  S   -0.004779   0.000000   0.001032   0.000000   0.028745
   51  H  2  S   -0.002557   0.000000   0.001391   0.000000   0.030486
   52  H  2  S   -0.001398   0.000000   0.000051   0.000000  -0.010490
   53  H  2  X   -0.000510   0.000000  -0.000177   0.000000   0.002506
   54  H  2  Y    0.001327   0.000000  -0.000273   0.000000  -0.002803
   55  H  2  Z    0.000000   0.000372  -0.000000  -0.000216  -0.000000
   56  H  2  X    0.000209   0.000000  -0.000476   0.000000   0.004747
   57  H  2  Y    0.000198   0.000000  -0.000449   0.000000  -0.003715
   58  H  2  Z    0.000000   0.000824  -0.000000  -0.000533  -0.000000
   59  H  2 XX    0.000194   0.000000  -0.000118   0.000000   0.000615
   60  H  2 YY   -0.000619   0.000000   0.000215   0.000000   0.000284
   61  H  2 ZZ    0.000425   0.000000  -0.000097   0.000000  -0.000899
   62  H  2 XY    0.000694   0.000000   0.000111   0.000000  -0.001051
   63  H  2 XZ    0.000000   0.000188  -0.000000  -0.000041  -0.000000
   64  H  2 YZ    0.000000  -0.000197  -0.000000   0.000202  -0.000000
   65  H  3  S    0.004807   0.000000   0.001079   0.000000   0.028433
   66  H  3  S    0.002559   0.000000   0.001428   0.000000   0.029957
   67  H  3  S    0.001405   0.000000   0.000066   0.000000  -0.010635
   68  H  3  X    0.000519   0.000000  -0.000172   0.000000   0.002492
   69  H  3  Y    0.001332   0.000000   0.000286   0.000000   0.002784
   70  H  3  Z    0.000000  -0.000371  -0.000000  -0.000218  -0.000000
   71  H  3  X   -0.000201   0.000000  -0.000477   0.000000   0.004714
   72  H  3  Y    0.000188   0.000000   0.000455   0.000000   0.003676
   73  H  3  Z    0.000000  -0.000821  -0.000000  -0.000539  -0.000000
   74  H  3 XX   -0.000191   0.000000  -0.000119   0.000000   0.000615
   75  H  3 YY    0.000619   0.000000   0.000221   0.000000   0.000281
   76  H  3 ZZ   -0.000427   0.000000  -0.000101   0.000000  -0.000895
   77  H  3 XY    0.000701   0.000000  -0.000105   0.000000   0.001043
   78  H  3 XZ    0.000000  -0.000188  -0.000000  -0.000042  -0.000000
   79  H  3 YZ    0.000000  -0.000196  -0.000000  -0.000203  -0.000000
   80  H  4  S   -0.000027   0.000000   0.006152   0.000000   0.136072
   81  H  4  S    0.000002   0.000000   0.002662   0.000000   0.213680
   82  H  4  S   -0.000006   0.000000   0.001404   0.000000   0.048978
   83  H  4  X    0.000009   0.000000  -0.001745   0.000000  -0.010875
   84  H  4  Y    0.000454   0.000000   0.000002   0.000000   0.000002
   85  H  4  Z    0.000000  -0.000001  -0.000000   0.000431  -0.000000
   86  H  4  X   -0.000005   0.000000   0.000283   0.000000  -0.020734
   87  H  4  Y    0.001025   0.000000   0.000003   0.000000   0.000005
   88  H  4  Z    0.000000  -0.000003  -0.000000   0.001079  -0.000000
   89  H  4 XX   -0.000005   0.000000   0.001007   0.000000   0.003639
   90  H  4 YY    0.000003   0.000000  -0.000455   0.000000  -0.001477
   91  H  4 ZZ    0.000002   0.000000  -0.000551   0.000000  -0.002162
   92  H  4 XY   -0.000282   0.000000  -0.000001   0.000000  -0.000002
   93  H  4 XZ    0.000000   0.000001  -0.000000  -0.000310  -0.000000
   94  H  4 YZ    0.000000   0.000088  -0.000000   0.000000  -0.000000

                     16         17         18         19         20
                    1.9554     1.6476     1.0035     0.3609     0.0322
                     A          A          A          A          A   
    1  AS 1  S   -0.000178  -0.000000   0.000000   0.001174   0.000000
    2  AS 1  S   -0.001067  -0.000002   0.000000   0.008981   0.000003
    3  AS 1  S   -0.001058  -0.000017   0.000000   0.060853   0.000006
    4  AS 1  S   -0.247870   0.000057   0.000000   0.488068  -0.000063
    5  AS 1  S   -0.105157   0.000020   0.000000   0.250865  -0.000084
    6  AS 1  S   -0.050495  -0.000074   0.000000   0.703292  -0.000099
    7  AS 1  X   -0.003308   0.000012   0.000000  -0.000289  -0.000044
    8  AS 1  Y   -0.000011  -0.003985   0.000000  -0.000000   0.014760
    9  AS 1  Z   -0.000000  -0.000000  -0.000037  -0.000000   0.000000
   10  AS 1  X   -0.045162   0.000163   0.000000  -0.003250  -0.000580
   11  AS 1  Y   -0.000147  -0.053020   0.000000  -0.000009   0.196530
   12  AS 1  Z   -0.000000  -0.000000   0.001327  -0.000000   0.000000
   13  AS 1  X    0.338384  -0.001118   0.000000  -0.019500  -0.002909
   14  AS 1  Y    0.001085   0.364947   0.000000   0.000001   0.989818
   15  AS 1  Z   -0.000000  -0.000000   0.623193  -0.000000   0.000000
   16  AS 1  X    0.152022  -0.000513   0.000000  -0.003824  -0.000749
   17  AS 1  Y    0.000487   0.167468   0.000000   0.000001   0.256160
   18  AS 1  Z   -0.000000  -0.000000   0.228548  -0.000000   0.000000
   19  AS 1  X    0.062828  -0.000195   0.000000  -0.013901  -0.000691
   20  AS 1  Y    0.000200   0.064171   0.000000  -0.000070   0.233919
   21  AS 1  Z   -0.000000  -0.000000   0.283737  -0.000000   0.000000
   22  AS 1 XX   -0.032879   0.000159   0.000000   0.053827  -0.000235
   23  AS 1 YY    0.051321  -0.000180   0.000000   0.058555   0.000332
   24  AS 1 ZZ   -0.018443   0.000021   0.000000  -0.112381  -0.000097
   25  AS 1 XY    0.000175   0.063817   0.000000   0.000016  -0.112073
   26  AS 1 XZ   -0.000000  -0.000000   0.004879  -0.000000   0.000000
   27  AS 1 YZ   -0.000000  -0.000000  -0.000028  -0.000000   0.000000
   28  AS 1 XX    0.022677  -0.000088   0.000000  -0.041593   0.000061
   29  AS 1 YY   -0.029484   0.000101   0.000000  -0.049495  -0.000230
   30  AS 1 ZZ    0.006807  -0.000013   0.000000   0.091088   0.000170
   31  AS 1 XY   -0.000096  -0.034948   0.000000   0.000004   0.058826
   32  AS 1 XZ   -0.000000  -0.000000  -0.006264  -0.000000   0.000000
   33  AS 1 YZ   -0.000000  -0.000000   0.000033  -0.000000   0.000000
   34  AS 1 XX    0.020146  -0.000078   0.000000  -0.090827  -0.000212
   35  AS 1 YY   -0.023170   0.000082   0.000000  -0.093202   0.000113
   36  AS 1 ZZ    0.003024  -0.000004   0.000000   0.184029   0.000099
   37  AS 1 XY   -0.000085  -0.029366   0.000000  -0.000024  -0.061657
   38  AS 1 XZ   -0.000000  -0.000000  -0.015455  -0.000000   0.000000
   39  AS 1 YZ   -0.000000  -0.000000   0.000088  -0.000000   0.000000
   40  AS 1 XXX  -0.000407  -0.000002   0.000000  -0.040082  -0.000025
   41  AS 1 YYY   0.000028   0.007708   0.000000  -0.000002  -0.019654
   42  AS 1 ZZZ  -0.000000  -0.000000  -0.010915  -0.000000   0.000000
   43  AS 1 XXY   0.000003   0.001953   0.000000  -0.000002   0.005224
   44  AS 1 XXZ  -0.000000  -0.000000   0.003196  -0.000000   0.000000
   45  AS 1 YYX   0.012683  -0.000035   0.000000   0.056844   0.000097
   46  AS 1 YYZ  -0.000000  -0.000000   0.011447  -0.000000   0.000000
   47  AS 1 ZZX  -0.012138   0.000038   0.000000  -0.003068  -0.000063
   48  AS 1 ZZY  -0.000040  -0.012295   0.000000   0.000005   0.021145
   49  AS 1 XYZ  -0.000000  -0.000000  -0.000030  -0.000000   0.000000
   50  H  2  S   -0.105906   0.141017   0.000000  -0.134794  -0.226957
   51  H  2  S   -0.173871   0.245834   0.000000  -0.314739  -0.667920
   52  H  2  S   -0.043223   0.070190   0.000000  -0.343845  -0.088808
   53  H  2  X   -0.002810   0.005907   0.000000   0.001002  -0.000640
   54  H  2  Y    0.007781  -0.008206   0.000000  -0.002011   0.006982
   55  H  2  Z   -0.000000  -0.000000   0.004611  -0.000000   0.000000
   56  H  2  X   -0.004456   0.014767   0.000000   0.000819  -0.039256
   57  H  2  Y    0.016554  -0.018840   0.000000  -0.002208   0.097451
   58  H  2  Z   -0.000000  -0.000000   0.022959  -0.000000   0.000000
   59  H  2 XX    0.001208   0.000177   0.000000  -0.000560   0.001957
   60  H  2 YY   -0.002854   0.001655   0.000000   0.000249  -0.008548
   61  H  2 ZZ    0.001646  -0.001832   0.000000   0.000311   0.006591
   62  H  2 XY    0.001418  -0.003432   0.000000  -0.000646   0.005317
   63  H  2 XZ   -0.000000  -0.000000   0.001419  -0.000000   0.000000
   64  H  2 YZ   -0.000000  -0.000000  -0.002332  -0.000000   0.000000
   65  H  3  S   -0.106687  -0.140403   0.000000  -0.134858   0.226104
   66  H  3  S   -0.175207  -0.244729   0.000000  -0.314860   0.665576
   67  H  3  S   -0.043649  -0.069872   0.000000  -0.344032   0.088947
   68  H  3  X   -0.002842  -0.005894   0.000000   0.001004   0.000578
   69  H  3  Y   -0.007824  -0.008164   0.000000   0.002012   0.006942
   70  H  3  Z   -0.000000  -0.000000   0.004610  -0.000000   0.000000
   71  H  3  X   -0.004532  -0.014741   0.000000   0.000828   0.038849
   72  H  3  Y   -0.016640  -0.018733   0.000000   0.002218   0.097121
   73  H  3  Z   -0.000000  -0.000000   0.022921  -0.000000   0.000000
   74  H  3 XX    0.001206  -0.000186   0.000000  -0.000560  -0.001978
   75  H  3 YY   -0.002862  -0.001637   0.000000   0.000250   0.008530
   76  H  3 ZZ    0.001655   0.001822   0.000000   0.000309  -0.006551
   77  H  3 XY   -0.001435  -0.003424   0.000000   0.000646   0.005263
   78  H  3 XZ   -0.000000  -0.000000   0.001418  -0.000000   0.000000
   79  H  3 YZ   -0.000000  -0.000000   0.002330  -0.000000   0.000000
   80  H  4  S    0.104718  -0.000443   0.000000  -0.133177   0.000726
   81  H  4  S    0.185380  -0.000752   0.000000  -0.301612   0.002225
   82  H  4  S    0.066378  -0.000210   0.000000  -0.336820   0.000509
   83  H  4  X   -0.006526   0.000032   0.000000  -0.002598  -0.000002
   84  H  4  Y    0.000005   0.001808   0.000000  -0.000001   0.007057
   85  H  4  Z   -0.000000  -0.000000   0.004417  -0.000000   0.000000
   86  H  4  X   -0.014915   0.000074   0.000000  -0.006655  -0.000294
   87  H  4  Y    0.000014   0.005517   0.000000  -0.000003   0.039707
   88  H  4  Z   -0.000000  -0.000000   0.018482  -0.000000   0.000000
   89  H  4 XX    0.002390  -0.000012   0.000000   0.000991   0.000022
   90  H  4 YY   -0.001430   0.000007   0.000000  -0.000960  -0.000007
   91  H  4 ZZ   -0.000960   0.000005   0.000000  -0.000031  -0.000014
   92  H  4 XY   -0.000005  -0.001835   0.000000  -0.000000  -0.006139
   93  H  4 XZ   -0.000000  -0.000000  -0.002513  -0.000000   0.000000
   94  H  4 YZ   -0.000000  -0.000000  -0.000000  -0.000000   0.000000

                     21
                    0.0250
                     A   
    1  AS 1  S    0.000150
    2  AS 1  S    0.001074
    3  AS 1  S    0.005652
    4  AS 1  S    0.027924
    5  AS 1  S    0.018233
    6  AS 1  S    0.002788
    7  AS 1  X    0.012751
    8  AS 1  Y    0.000037
    9  AS 1  Z   -0.000000
   10  AS 1  X    0.180648
   11  AS 1  Y    0.000529
   12  AS 1  Z   -0.000000
   13  AS 1  X    0.996892
   14  AS 1  Y    0.002926
   15  AS 1  Z   -0.000000
   16  AS 1  X    0.300250
   17  AS 1  Y    0.000883
   18  AS 1  Z   -0.000000
   19  AS 1  X    0.161362
   20  AS 1  Y    0.000458
   21  AS 1  Z   -0.000000
   22  AS 1 XX    0.083847
   23  AS 1 YY   -0.094052
   24  AS 1 ZZ    0.010205
   25  AS 1 XY   -0.000309
   26  AS 1 XZ   -0.000000
   27  AS 1 YZ   -0.000000
   28  AS 1 XX   -0.022726
   29  AS 1 YY    0.044563
   30  AS 1 ZZ   -0.021837
   31  AS 1 XY    0.000132
   32  AS 1 XZ   -0.000000
   33  AS 1 YZ   -0.000000
   34  AS 1 XX    0.077402
   35  AS 1 YY   -0.067095
   36  AS 1 ZZ   -0.010307
   37  AS 1 XY   -0.000236
   38  AS 1 XZ   -0.000000
   39  AS 1 YZ   -0.000000
   40  AS 1 XXX   0.015375
   41  AS 1 YYY  -0.000079
   42  AS 1 ZZZ  -0.000000
   43  AS 1 XXY   0.000140
   44  AS 1 XXZ  -0.000000
   45  AS 1 YYX  -0.008678
   46  AS 1 YYZ  -0.000000
   47  AS 1 ZZX  -0.011949
   48  AS 1 ZZY  -0.000034
   49  AS 1 XYZ  -0.000000
   50  H  2  S    0.142109
   51  H  2  S    0.383014
   52  H  2  S    0.007996
   53  H  2  X    0.007697
   54  H  2  Y   -0.002609
   55  H  2  Z   -0.000000
   56  H  2  X    0.058725
   57  H  2  Y   -0.044231
   58  H  2  Z   -0.000000
   59  H  2 XX    0.003468
   60  H  2 YY    0.000536
   61  H  2 ZZ   -0.004005
   62  H  2 XY   -0.007074
   63  H  2 XZ   -0.000000
   64  H  2 YZ   -0.000000
   65  H  3  S    0.143578
   66  H  3  S    0.387010
   67  H  3  S    0.008266
   68  H  3  X    0.007708
   69  H  3  Y    0.002644
   70  H  3  Z   -0.000000
   71  H  3  X    0.058997
   72  H  3  Y    0.044791
   73  H  3  Z   -0.000000
   74  H  3 XX    0.003458
   75  H  3 YY    0.000578
   76  H  3 ZZ   -0.004036
   77  H  3 XY    0.007103
   78  H  3 XZ   -0.000000
   79  H  3 YZ   -0.000000
   80  H  4  S   -0.292059
   81  H  4  S   -0.797457
   82  H  4  S   -0.073113
   83  H  4  X    0.004971
   84  H  4  Y    0.000024
   85  H  4  Z   -0.000000
   86  H  4  X    0.117544
   87  H  4  Y    0.000125
   88  H  4  Z   -0.000000
   89  H  4 XX   -0.008483
   90  H  4 YY    0.003206
   91  H  4 ZZ    0.005278
   92  H  4 XY   -0.000022
   93  H  4 XZ   -0.000000
   94  H  4 YZ   -0.000000

          ------------------------
          MCSCF OPTIMIZED ORBITALS
          ------------------------

                      1          2          3          4          5
                 -432.9005   -56.6257   -50.4705   -50.4702   -50.4696
                     A          A          A          A          A   
    1  AS 1  S    0.999999   0.000003  -0.000000  -0.000000   0.000001
    2  AS 1  S    0.000001   1.000103  -0.000000  -0.000003   0.000270
    3  AS 1  S   -0.000003   0.000133  -0.000000   0.000000  -0.000007
    4  AS 1  S   -0.000004   0.000160  -0.000000   0.000000  -0.000002
    5  AS 1  S    0.000015  -0.000416  -0.000000  -0.000000   0.000004
    6  AS 1  S    0.000005  -0.000135  -0.000000  -0.000000   0.000003
    7  AS 1  X   -0.000001  -0.000272  -0.000000  -0.002979   1.000020
    8  AS 1  Y    0.000000   0.000002  -0.000000   1.000020   0.002979
    9  AS 1  Z   -0.000000  -0.000000   1.000027  -0.000000   0.000000
   10  AS 1  X    0.000001  -0.000014  -0.000000   0.000000  -0.000017
   11  AS 1  Y   -0.000000   0.000000  -0.000000  -0.000010  -0.000000
   12  AS 1  Z   -0.000000  -0.000000   0.000023  -0.000000   0.000000
   13  AS 1  X   -0.000000   0.000016  -0.000000   0.000000  -0.000079
   14  AS 1  Y   -0.000000   0.000000  -0.000000  -0.000110  -0.000000
   15  AS 1  Z   -0.000000  -0.000000   0.000006  -0.000000   0.000000
   16  AS 1  X   -0.000001   0.000016  -0.000000   0.000001  -0.000488
   17  AS 1  Y    0.000000  -0.000000  -0.000000  -0.000501  -0.000001
   18  AS 1  Z   -0.000000  -0.000000  -0.000458  -0.000000   0.000000
   19  AS 1  X   -0.000000   0.000004  -0.000000   0.000000  -0.000089
   20  AS 1  Y    0.000000  -0.000000  -0.000000  -0.000088  -0.000000
   21  AS 1  Z   -0.000000  -0.000000  -0.000071  -0.000000   0.000000
   22  AS 1 XX    0.000000  -0.000020  -0.000000  -0.000000  -0.000022
   23  AS 1 YY    0.000000   0.000004  -0.000000   0.000000   0.000012
   24  AS 1 ZZ   -0.000000   0.000015  -0.000000  -0.000000   0.000010
   25  AS 1 XY   -0.000000  -0.000000  -0.000000  -0.000022   0.000000
   26  AS 1 XZ   -0.000000  -0.000000  -0.000017  -0.000000   0.000000
   27  AS 1 YZ   -0.000000  -0.000000   0.000000  -0.000000   0.000000
   28  AS 1 XX    0.000000   0.000006  -0.000000   0.000000  -0.000040
   29  AS 1 YY    0.000000  -0.000007  -0.000000  -0.000000   0.000045
   30  AS 1 ZZ   -0.000000   0.000001  -0.000000   0.000000  -0.000004
   31  AS 1 XY    0.000000   0.000000  -0.000000   0.000079   0.000000
   32  AS 1 XZ   -0.000000  -0.000000   0.000008  -0.000000   0.000000
   33  AS 1 YZ   -0.000000  -0.000000  -0.000000  -0.000000   0.000000
   34  AS 1 XX    0.000000  -0.000001  -0.000000   0.000000  -0.000016
   35  AS 1 YY    0.000000  -0.000003  -0.000000  -0.000000   0.000015
   36  AS 1 ZZ   -0.000000   0.000004  -0.000000  -0.000000   0.000001
   37  AS 1 XY    0.000000  -0.000000  -0.000000   0.000022   0.000000
   38  AS 1 XZ   -0.000000  -0.000000  -0.000003  -0.000000   0.000000
   39  AS 1 YZ   -0.000000  -0.000000   0.000000  -0.000000   0.000000
   40  AS 1 XXX   0.000000  -0.000003  -0.000000   0.000000  -0.000011
   41  AS 1 YYY  -0.000000  -0.000000  -0.000000  -0.000015  -0.000000
   42  AS 1 ZZZ  -0.000000  -0.000000  -0.000000  -0.000000   0.000000
   43  AS 1 XXY  -0.000000  -0.000000  -0.000000  -0.000008  -0.000000
   44  AS 1 XXZ  -0.000000  -0.000000   0.000000  -0.000000   0.000000
   45  AS 1 YYX  -0.000000   0.000006  -0.000000   0.000000  -0.000006
   46  AS 1 YYZ  -0.000000  -0.000000  -0.000000  -0.000000   0.000000
   47  AS 1 ZZX  -0.000000  -0.000002  -0.000000  -0.000000   0.000021
   48  AS 1 ZZY   0.000000   0.000000  -0.000000   0.000028   0.000000
   49  AS 1 XYZ  -0.000000  -0.000000   0.000000  -0.000000   0.000000
   50  H  2  S   -0.000000   0.000005  -0.000000  -0.000014   0.000006
   51  H  2  S   -0.000001   0.000009  -0.000000   0.000076  -0.000029
   52  H  2  S   -0.000001   0.000028  -0.000000   0.000041  -0.000024
   53  H  2  X   -0.000000   0.000002  -0.000000   0.000007  -0.000004
   54  H  2  Y    0.000000  -0.000003  -0.000000  -0.000013   0.000007
   55  H  2  Z   -0.000000  -0.000000   0.000001  -0.000000   0.000000
   56  H  2  X   -0.000000   0.000005  -0.000000   0.000035  -0.000017
   57  H  2  Y    0.000000  -0.000007  -0.000000  -0.000063   0.000027
   58  H  2  Z   -0.000000  -0.000000  -0.000005  -0.000000   0.000000
   59  H  2 XX    0.000000  -0.000001  -0.000000  -0.000003   0.000005
   60  H  2 YY   -0.000000   0.000005  -0.000000   0.000023  -0.000016
   61  H  2 ZZ    0.000000  -0.000004  -0.000000  -0.000020   0.000010
   62  H  2 XY    0.000000  -0.000006  -0.000000  -0.000029   0.000012
   63  H  2 XZ   -0.000000  -0.000000   0.000003  -0.000000   0.000000
   64  H  2 YZ   -0.000000  -0.000000  -0.000006  -0.000000   0.000000
   65  H  3  S   -0.000000   0.000005  -0.000000   0.000014   0.000006
   66  H  3  S   -0.000001   0.000009  -0.000000  -0.000076  -0.000030
   67  H  3  S   -0.000001   0.000028  -0.000000  -0.000041  -0.000024
   68  H  3  X   -0.000000   0.000002  -0.000000  -0.000007  -0.000004
   69  H  3  Y   -0.000000   0.000003  -0.000000  -0.000013  -0.000007
   70  H  3  Z   -0.000000  -0.000000   0.000001  -0.000000   0.000000
   71  H  3  X   -0.000000   0.000005  -0.000000  -0.000034  -0.000017
   72  H  3  Y   -0.000000   0.000007  -0.000000  -0.000062  -0.000027
   73  H  3  Z   -0.000000  -0.000000  -0.000005  -0.000000   0.000000
[...]
      366   -0.044873    0.044873  22+00-+
       38   -0.036140    0.036140  2202+00
      161   -0.029092   -0.029092  2-+020+
      150   -0.027811    0.027811  22002+0
      195    0.027286   -0.027286  2+-020+
      756   -0.025817   -0.025817  2020+02
      371    0.025688    0.025688  2-+0+-+
      745    0.025409    0.025409  2+-0++-
      186    0.025193   -0.025193  20202+0
       74   -0.023998    0.023998  2022+00
      221   -0.023443    0.023443  +-202+0
      360   -0.022998   -0.022998  2200+20
      230   -0.022625   -0.022625  +2-020+
      162    0.020890   -0.020890  -2+020+
      187    0.020396    0.020396  -+202+0

 State #    3  Energy =   -2235.693469037  S =  0.500

      Det      Coef        Coefp    Occupancy (Ignoring core)
      ---      ----        ----    --------- --------- -----
       36   -0.951509   -0.951509  22+2000
       16   -0.124669    0.124669  222000+
      142    0.123822    0.123822  22+0200
       73    0.100948   -0.100948  2+-2+00
       52    0.088177   -0.088177  220200+
       39   -0.084617   -0.084617  2-+2+00
      249    0.068160   -0.068160  20+2200
      108   -0.057859   -0.057859  +2-2+00
      463    0.052881   -0.052881  20+2020
      123    0.050475   -0.050475  +-2200+
      112    0.047686    0.047686  +2-20+0
       40    0.046098   -0.046098  -2+2+00
       88    0.042723   -0.042723  202200+
      460    0.038077    0.038077  -++2+-0
       77   -0.032152    0.032152  2+-20+0
      288    0.032121    0.032121  +-+2-+0
      459    0.029945   -0.029945  20+2+-0
       43    0.029239    0.029239  2-+20+0
      876   -0.028859   -0.028859  ++2200-
      808    0.026957   -0.026957  2+02+0-
      494   -0.026898    0.026898  +-+2+-0
      491   -0.026279    0.026279  +2+20-0
      297    0.026149   -0.026149  +202-0+
      262   -0.025755   -0.025755  2+02-0+
      859    0.025268   -0.025268  02+2002
      285    0.025265   -0.025265  02+2200
      254   -0.024964    0.024964  -++2-+0
      499    0.024767   -0.024767  02+2020
      253   -0.024625   -0.024625  20+2-+0
      843   -0.021952   -0.021952  +202+0-
      823    0.021857   -0.021857  20+2002
       89   -0.021617   -0.021617  -+2200+
       44   -0.021408    0.021408  -2+20+0
$REFDET GROUP NOT FOUND. LEAVING DIABATIZATION.
 CPU     0: STEP CPU TIME=     0.11 TOTAL CPU TIME=        973.7 (     16.2 MIN)
 TOTAL WALL CLOCK TIME=       1040.9 SECONDS, CPU UTILIZATION IS    93.55%

TRANSITION DIPOLES BETWEEN ADIABATS (in A.U.):

STATE PAIR      X         Y         Z
    1    1 -0.016860  0.000103  0.000000
    2    1 -0.000000  0.000000 -0.451341
    2    2  0.037263 -0.000179 -0.000000
    3    1 -0.000000 -0.000000 -0.000202
    3    2 -0.000306  0.185399 -0.000000
    3    3  0.371926 -0.002452  0.000000


TRANSITION DIPOLES BETWEEN DIABATS (in A.U.):

STATE PAIR      X         Y         Z
    1    1  0.000000  0.000000  0.000000
    2    1  0.000000  0.000000  0.000000
    2    2  0.000000  0.000000  0.000000
    3    1  0.000000  0.000000  0.000000
    3    2  0.000000  0.000000  0.000000
    3    3  0.000000  0.000000  0.000000

TRANSITION DIPOLES BETWEEN DIRECT MAX. DIABATS (in A.U.):

STATE PAIR      X         Y         Z
    1    1  0.000000  0.000000  0.000000
    2    1  0.000000  0.000000  0.000000
    2    2  0.000000  0.000000  0.000000
    3    1  0.000000  0.000000  0.000000
    3    2  0.000000  0.000000  0.000000
    3    3  0.000000  0.000000  0.000000
 No $TRANST Group Found.
 Quit without doing spin-orbit coupling
 ..... DONE WITH MP2 ENERGY .....
 CPU     0: STEP CPU TIME=     0.00 TOTAL CPU TIME=        973.7 (     16.2 MIN)
 TOTAL WALL CLOCK TIME=       1040.9 SECONDS, CPU UTILIZATION IS    93.54%
            250000000  WORDS OF DYNAMIC MEMORY USED
 EXECUTION OF GAMESS TERMINATED NORMALLY Wed Nov 29 22:35:58 2023
 DDI: 7163544 bytes (6.8 MB / 0 MWords) used by master data server.
Note: The following floating-point exceptions are signalling: IEEE_UNDERFLOW_FLAG IEEE_DENORMAL
Note: The following floating-point exceptions are signalling: IEEE_UNDERFLOW_FLAG IEEE_DENORMAL

 ----------------------------------------
 CPU timing information for all processes
 ========================================
 0: 966.572 + 7.156 = 973.728
 1: 965.499 + 6.417 = 971.917
 2: 971.347 + 7.53 = 978.401
 3: 968.554 + 6.181 = 974.736
 ----------------------------------------
Note: The following floating-point exceptions are signalling: IEEE_UNDERFLOW_FLAG IEEE_DENORMAL
Note: The following floating-point exceptions are signalling: IEEE_UNDERFLOW_FLAG IEEE_DENORMAL
 ddikick.x: exited gracefully.
unset echo
----- accounting info -----
Files used on the master node io001 were:
-rw-r--r-- 1 bjb2chen nooijen  141704 Nov 29 22:18 /home/bjb2chen/gmsscr//ash3cat_cct_gmcpt_7o7e_C1_3st_dmo.F05
-rw-r--r-- 1 bjb2chen nooijen 1106024 Nov 29 22:35 /home/bjb2chen/gmsscr//ash3cat_cct_gmcpt_7o7e_C1_3st_dmo.F09
-rw-r--r-- 1 bjb2chen nooijen 1800160 Nov 29 22:35 /home/bjb2chen/gmsscr//ash3cat_cct_gmcpt_7o7e_C1_3st_dmo.F09.001
-rw-r--r-- 1 bjb2chen nooijen 1440128 Nov 29 22:35 /home/bjb2chen/gmsscr//ash3cat_cct_gmcpt_7o7e_C1_3st_dmo.F09.002
-rw-r--r-- 1 bjb2chen nooijen 1980176 Nov 29 22:35 /home/bjb2chen/gmsscr//ash3cat_cct_gmcpt_7o7e_C1_3st_dmo.F09.003
-rw-r--r-- 1 bjb2chen nooijen 3010240 Nov 29 22:36 /home/bjb2chen/gmsscr//ash3cat_cct_gmcpt_7o7e_C1_3st_dmo.F10
-rw-r--r-- 1 bjb2chen nooijen  688104 Nov 29 22:35 /home/bjb2chen/gmsscr//ash3cat_cct_gmcpt_7o7e_C1_3st_dmo.F13
-rw-r--r-- 1 bjb2chen nooijen  688104 Nov 29 22:35 /home/bjb2chen/gmsscr//ash3cat_cct_gmcpt_7o7e_C1_3st_dmo.F13.001
-rw-r--r-- 1 bjb2chen nooijen  688104 Nov 29 22:35 /home/bjb2chen/gmsscr//ash3cat_cct_gmcpt_7o7e_C1_3st_dmo.F13.002
-rw-r--r-- 1 bjb2chen nooijen  688104 Nov 29 22:35 /home/bjb2chen/gmsscr//ash3cat_cct_gmcpt_7o7e_C1_3st_dmo.F13.003
-rw-r--r-- 1 bjb2chen nooijen  181872 Nov 29 22:36 /home/bjb2chen/gmsscr//ash3cat_cct_gmcpt_7o7e_C1_3st_dmo.F15
-rw-r--r-- 1 bjb2chen nooijen       0 Nov 29 22:18 /home/bjb2chen/gmsscr//ash3cat_cct_gmcpt_7o7e_C1_3st_dmo.F16
-rw-r--r-- 1 bjb2chen nooijen    9808 Nov 29 22:35 /home/bjb2chen/gmsscr//ash3cat_cct_gmcpt_7o7e_C1_3st_dmo.F70
-rw-r--r-- 1 bjb2chen nooijen    9808 Nov 29 22:35 /home/bjb2chen/gmsscr//ash3cat_cct_gmcpt_7o7e_C1_3st_dmo.F70.001
-rw-r--r-- 1 bjb2chen nooijen    9808 Nov 29 22:35 /home/bjb2chen/gmsscr//ash3cat_cct_gmcpt_7o7e_C1_3st_dmo.F70.002
-rw-r--r-- 1 bjb2chen nooijen    9808 Nov 29 22:35 /home/bjb2chen/gmsscr//ash3cat_cct_gmcpt_7o7e_C1_3st_dmo.F70.003
-rw-r--r-- 1 bjb2chen nooijen    9808 Nov 29 22:35 /home/bjb2chen/gmsscr//ash3cat_cct_gmcpt_7o7e_C1_3st_dmo.F71
-rw-r--r-- 1 bjb2chen nooijen    9808 Nov 29 22:35 /home/bjb2chen/gmsscr//ash3cat_cct_gmcpt_7o7e_C1_3st_dmo.F71.001
-rw-r--r-- 1 bjb2chen nooijen    9808 Nov 29 22:35 /home/bjb2chen/gmsscr//ash3cat_cct_gmcpt_7o7e_C1_3st_dmo.F71.002
-rw-r--r-- 1 bjb2chen nooijen    9808 Nov 29 22:35 /home/bjb2chen/gmsscr//ash3cat_cct_gmcpt_7o7e_C1_3st_dmo.F71.003
-rw-r--r-- 1 bjb2chen nooijen   19608 Nov 29 22:35 /home/bjb2chen/gmsscr//ash3cat_cct_gmcpt_7o7e_C1_3st_dmo.F72
-rw-r--r-- 1 bjb2chen nooijen   19608 Nov 29 22:35 /home/bjb2chen/gmsscr//ash3cat_cct_gmcpt_7o7e_C1_3st_dmo.F72.001
-rw-r--r-- 1 bjb2chen nooijen   19608 Nov 29 22:35 /home/bjb2chen/gmsscr//ash3cat_cct_gmcpt_7o7e_C1_3st_dmo.F72.002
-rw-r--r-- 1 bjb2chen nooijen   19608 Nov 29 22:35 /home/bjb2chen/gmsscr//ash3cat_cct_gmcpt_7o7e_C1_3st_dmo.F72.003
-rw-r--r-- 1 bjb2chen nooijen   19608 Nov 29 22:35 /home/bjb2chen/gmsscr//ash3cat_cct_gmcpt_7o7e_C1_3st_dmo.F73
-rw-r--r-- 1 bjb2chen nooijen   19608 Nov 29 22:35 /home/bjb2chen/gmsscr//ash3cat_cct_gmcpt_7o7e_C1_3st_dmo.F73.001
-rw-r--r-- 1 bjb2chen nooijen   19608 Nov 29 22:35 /home/bjb2chen/gmsscr//ash3cat_cct_gmcpt_7o7e_C1_3st_dmo.F73.002
-rw-r--r-- 1 bjb2chen nooijen   19608 Nov 29 22:35 /home/bjb2chen/gmsscr//ash3cat_cct_gmcpt_7o7e_C1_3st_dmo.F73.003
-rw-r--r-- 1 bjb2chen nooijen  481400 Nov 29 22:35 /home/bjb2chen/gmsscr//ash3cat_cct_gmcpt_7o7e_C1_3st_dmo.F74
-rw-r--r-- 1 bjb2chen nooijen  480616 Nov 29 22:35 /home/bjb2chen/gmsscr//ash3cat_cct_gmcpt_7o7e_C1_3st_dmo.F74.001
-rw-r--r-- 1 bjb2chen nooijen  479832 Nov 29 22:35 /home/bjb2chen/gmsscr//ash3cat_cct_gmcpt_7o7e_C1_3st_dmo.F74.002
-rw-r--r-- 1 bjb2chen nooijen  479048 Nov 29 22:35 /home/bjb2chen/gmsscr//ash3cat_cct_gmcpt_7o7e_C1_3st_dmo.F74.003
-rw-r--r-- 1 bjb2chen nooijen       0 Nov 29 22:18 /home/bjb2chen/gmsscr//ash3cat_cct_gmcpt_7o7e_C1_3st_dmo.F75
-rw-r--r-- 1 bjb2chen nooijen       0 Nov 29 22:18 /home/bjb2chen/gmsscr//ash3cat_cct_gmcpt_7o7e_C1_3st_dmo.F75.001
-rw-r--r-- 1 bjb2chen nooijen       0 Nov 29 22:18 /home/bjb2chen/gmsscr//ash3cat_cct_gmcpt_7o7e_C1_3st_dmo.F75.002
-rw-r--r-- 1 bjb2chen nooijen       0 Nov 29 22:18 /home/bjb2chen/gmsscr//ash3cat_cct_gmcpt_7o7e_C1_3st_dmo.F75.003
-rw-r--r-- 1 bjb2chen nooijen   58848 Nov 29 22:35 /home/bjb2chen/gmsscr//ash3cat_cct_gmcpt_7o7e_C1_3st_dmo.F76
-rw-r--r-- 1 bjb2chen nooijen   58848 Nov 29 22:35 /home/bjb2chen/gmsscr//ash3cat_cct_gmcpt_7o7e_C1_3st_dmo.F76.001
-rw-r--r-- 1 bjb2chen nooijen   58848 Nov 29 22:35 /home/bjb2chen/gmsscr//ash3cat_cct_gmcpt_7o7e_C1_3st_dmo.F76.002
-rw-r--r-- 1 bjb2chen nooijen   58848 Nov 29 22:35 /home/bjb2chen/gmsscr//ash3cat_cct_gmcpt_7o7e_C1_3st_dmo.F76.003
-rw-r--r-- 1 bjb2chen nooijen       0 Nov 29 22:18 /home/bjb2chen/gmsscr//ash3cat_cct_gmcpt_7o7e_C1_3st_dmo.F77
-rw-r--r-- 1 bjb2chen nooijen       0 Nov 29 22:18 /home/bjb2chen/gmsscr//ash3cat_cct_gmcpt_7o7e_C1_3st_dmo.F77.001
-rw-r--r-- 1 bjb2chen nooijen       0 Nov 29 22:18 /home/bjb2chen/gmsscr//ash3cat_cct_gmcpt_7o7e_C1_3st_dmo.F77.002
-rw-r--r-- 1 bjb2chen nooijen       0 Nov 29 22:18 /home/bjb2chen/gmsscr//ash3cat_cct_gmcpt_7o7e_C1_3st_dmo.F77.003
-rw-r--r-- 1 bjb2chen nooijen    5128 Nov 29 22:35 /home/bjb2chen/gmsscr//ash3cat_cct_gmcpt_7o7e_C1_3st_dmo.F78
-rw-r--r-- 1 bjb2chen nooijen    5128 Nov 29 22:35 /home/bjb2chen/gmsscr//ash3cat_cct_gmcpt_7o7e_C1_3st_dmo.F78.001
-rw-r--r-- 1 bjb2chen nooijen    5128 Nov 29 22:35 /home/bjb2chen/gmsscr//ash3cat_cct_gmcpt_7o7e_C1_3st_dmo.F78.002
-rw-r--r-- 1 bjb2chen nooijen    5128 Nov 29 22:35 /home/bjb2chen/gmsscr//ash3cat_cct_gmcpt_7o7e_C1_3st_dmo.F78.003
-rw-r--r-- 1 bjb2chen nooijen   39208 Nov 29 22:35 /home/bjb2chen/gmsscr//ash3cat_cct_gmcpt_7o7e_C1_3st_dmo.F79
-rw-r--r-- 1 bjb2chen nooijen   39208 Nov 29 22:35 /home/bjb2chen/gmsscr//ash3cat_cct_gmcpt_7o7e_C1_3st_dmo.F79.001
-rw-r--r-- 1 bjb2chen nooijen   39208 Nov 29 22:35 /home/bjb2chen/gmsscr//ash3cat_cct_gmcpt_7o7e_C1_3st_dmo.F79.002
-rw-r--r-- 1 bjb2chen nooijen   39208 Nov 29 22:35 /home/bjb2chen/gmsscr//ash3cat_cct_gmcpt_7o7e_C1_3st_dmo.F79.003
-rw-r--r-- 1 bjb2chen nooijen     104 Nov 29 22:35 /home/bjb2chen/gmsscr//ash3cat_cct_gmcpt_7o7e_C1_3st_dmo.F80
-rw-r--r-- 1 bjb2chen nooijen     104 Nov 29 22:35 /home/bjb2chen/gmsscr//ash3cat_cct_gmcpt_7o7e_C1_3st_dmo.F80.001
-rw-r--r-- 1 bjb2chen nooijen     104 Nov 29 22:35 /home/bjb2chen/gmsscr//ash3cat_cct_gmcpt_7o7e_C1_3st_dmo.F80.002
-rw-r--r-- 1 bjb2chen nooijen     104 Nov 29 22:35 /home/bjb2chen/gmsscr//ash3cat_cct_gmcpt_7o7e_C1_3st_dmo.F80.003
-rw-r--r-- 1 bjb2chen nooijen  102416 Nov 29 22:35 /home/bjb2chen/gmsscr//ash3cat_cct_gmcpt_7o7e_C1_3st_dmo.F81
-rw-r--r-- 1 bjb2chen nooijen  102416 Nov 29 22:35 /home/bjb2chen/gmsscr//ash3cat_cct_gmcpt_7o7e_C1_3st_dmo.F81.001
-rw-r--r-- 1 bjb2chen nooijen  102416 Nov 29 22:35 /home/bjb2chen/gmsscr//ash3cat_cct_gmcpt_7o7e_C1_3st_dmo.F81.002
-rw-r--r-- 1 bjb2chen nooijen  102416 Nov 29 22:35 /home/bjb2chen/gmsscr//ash3cat_cct_gmcpt_7o7e_C1_3st_dmo.F81.003
-rw-r--r-- 1 bjb2chen nooijen     656 Nov 29 22:35 /home/bjb2chen/gmsscr//ash3cat_cct_gmcpt_7o7e_C1_3st_dmo.F82
-rw-r--r-- 1 bjb2chen nooijen     656 Nov 29 22:35 /home/bjb2chen/gmsscr//ash3cat_cct_gmcpt_7o7e_C1_3st_dmo.F82.001
-rw-r--r-- 1 bjb2chen nooijen     656 Nov 29 22:35 /home/bjb2chen/gmsscr//ash3cat_cct_gmcpt_7o7e_C1_3st_dmo.F82.002
-rw-r--r-- 1 bjb2chen nooijen     656 Nov 29 22:35 /home/bjb2chen/gmsscr//ash3cat_cct_gmcpt_7o7e_C1_3st_dmo.F82.003
-rw-r--r-- 1 bjb2chen nooijen   19216 Nov 29 22:35 /home/bjb2chen/gmsscr//ash3cat_cct_gmcpt_7o7e_C1_3st_dmo.F83
-rw-r--r-- 1 bjb2chen nooijen   19216 Nov 29 22:35 /home/bjb2chen/gmsscr//ash3cat_cct_gmcpt_7o7e_C1_3st_dmo.F83.001
-rw-r--r-- 1 bjb2chen nooijen   19216 Nov 29 22:35 /home/bjb2chen/gmsscr//ash3cat_cct_gmcpt_7o7e_C1_3st_dmo.F83.002
-rw-r--r-- 1 bjb2chen nooijen   19216 Nov 29 22:35 /home/bjb2chen/gmsscr//ash3cat_cct_gmcpt_7o7e_C1_3st_dmo.F83.003
-rw-r--r-- 1 bjb2chen nooijen  327696 Nov 29 22:35 /home/bjb2chen/gmsscr//ash3cat_cct_gmcpt_7o7e_C1_3st_dmo.F84
-rw-r--r-- 1 bjb2chen nooijen  327696 Nov 29 22:35 /home/bjb2chen/gmsscr//ash3cat_cct_gmcpt_7o7e_C1_3st_dmo.F84.001
-rw-r--r-- 1 bjb2chen nooijen  327696 Nov 29 22:35 /home/bjb2chen/gmsscr//ash3cat_cct_gmcpt_7o7e_C1_3st_dmo.F84.002
-rw-r--r-- 1 bjb2chen nooijen  327696 Nov 29 22:35 /home/bjb2chen/gmsscr//ash3cat_cct_gmcpt_7o7e_C1_3st_dmo.F84.003
-rw-r--r-- 1 bjb2chen nooijen 2172168 Nov 29 22:35 /home/bjb2chen/gmsscr//ash3cat_cct_gmcpt_7o7e_C1_3st_dmo.F85
-rw-r--r-- 1 bjb2chen nooijen 2172168 Nov 29 22:35 /home/bjb2chen/gmsscr//ash3cat_cct_gmcpt_7o7e_C1_3st_dmo.F85.001
-rw-r--r-- 1 bjb2chen nooijen 2172168 Nov 29 22:35 /home/bjb2chen/gmsscr//ash3cat_cct_gmcpt_7o7e_C1_3st_dmo.F85.002
-rw-r--r-- 1 bjb2chen nooijen 2172168 Nov 29 22:35 /home/bjb2chen/gmsscr//ash3cat_cct_gmcpt_7o7e_C1_3st_dmo.F85.003
-rw-r--r-- 1 bjb2chen nooijen 4280768 Nov 29 22:35 /home/bjb2chen/gmsscr//ash3cat_cct_gmcpt_7o7e_C1_3st_dmo.F86
-rw-r--r-- 1 bjb2chen nooijen 4282240 Nov 29 22:35 /home/bjb2chen/gmsscr//ash3cat_cct_gmcpt_7o7e_C1_3st_dmo.F86.001
-rw-r--r-- 1 bjb2chen nooijen 4413888 Nov 29 22:35 /home/bjb2chen/gmsscr//ash3cat_cct_gmcpt_7o7e_C1_3st_dmo.F86.002
-rw-r--r-- 1 bjb2chen nooijen 4274240 Nov 29 22:35 /home/bjb2chen/gmsscr//ash3cat_cct_gmcpt_7o7e_C1_3st_dmo.F86.003
-rw-r--r-- 1 bjb2chen nooijen     656 Nov 29 22:36 /home/bjb2chen/gmsscr//ash3cat_cct_gmcpt_7o7e_C1_3st_dmo.F87
-rw-r--r-- 1 bjb2chen nooijen     656 Nov 29 22:36 /home/bjb2chen/gmsscr//ash3cat_cct_gmcpt_7o7e_C1_3st_dmo.F87.001
-rw-r--r-- 1 bjb2chen nooijen     656 Nov 29 22:36 /home/bjb2chen/gmsscr//ash3cat_cct_gmcpt_7o7e_C1_3st_dmo.F87.002
-rw-r--r-- 1 bjb2chen nooijen     656 Nov 29 22:36 /home/bjb2chen/gmsscr//ash3cat_cct_gmcpt_7o7e_C1_3st_dmo.F87.003
-rw-r--r-- 1 bjb2chen nooijen   17264 Nov 29 22:36 /home/bjb2chen/gmsscr//ash3cat_cct_gmcpt_7o7e_C1_3st_dmo.F88
-rw-r--r-- 1 bjb2chen nooijen   17264 Nov 29 22:36 /home/bjb2chen/gmsscr//ash3cat_cct_gmcpt_7o7e_C1_3st_dmo.F88.001
-rw-r--r-- 1 bjb2chen nooijen   17264 Nov 29 22:36 /home/bjb2chen/gmsscr//ash3cat_cct_gmcpt_7o7e_C1_3st_dmo.F88.002
-rw-r--r-- 1 bjb2chen nooijen   17264 Nov 29 22:36 /home/bjb2chen/gmsscr//ash3cat_cct_gmcpt_7o7e_C1_3st_dmo.F88.003
-rw-r--r-- 1 bjb2chen nooijen     648 Nov 29 22:35 /home/bjb2chen/gmsscr//ash3cat_cct_gmcpt_7o7e_C1_3st_dmo.F89
-rw-r--r-- 1 bjb2chen nooijen     648 Nov 29 22:35 /home/bjb2chen/gmsscr//ash3cat_cct_gmcpt_7o7e_C1_3st_dmo.F89.001
-rw-r--r-- 1 bjb2chen nooijen     648 Nov 29 22:35 /home/bjb2chen/gmsscr//ash3cat_cct_gmcpt_7o7e_C1_3st_dmo.F89.002
-rw-r--r-- 1 bjb2chen nooijen     648 Nov 29 22:35 /home/bjb2chen/gmsscr//ash3cat_cct_gmcpt_7o7e_C1_3st_dmo.F89.003
-rw-r--r-- 1 bjb2chen nooijen       0 Nov 29 22:18 /home/bjb2chen/gmsscr//ash3cat_cct_gmcpt_7o7e_C1_3st_dmo.F90
-rw-r--r-- 1 bjb2chen nooijen       0 Nov 29 22:18 /home/bjb2chen/gmsscr//ash3cat_cct_gmcpt_7o7e_C1_3st_dmo.F90.001
-rw-r--r-- 1 bjb2chen nooijen       0 Nov 29 22:18 /home/bjb2chen/gmsscr//ash3cat_cct_gmcpt_7o7e_C1_3st_dmo.F90.002
-rw-r--r-- 1 bjb2chen nooijen       0 Nov 29 22:18 /home/bjb2chen/gmsscr//ash3cat_cct_gmcpt_7o7e_C1_3st_dmo.F90.003
-rw-r--r-- 1 bjb2chen nooijen   13760 Nov 29 22:36 /home/bjb2chen/gmsscr//ash3cat_cct_gmcpt_7o7e_C1_3st_dmo.F91
-rw-r--r-- 1 bjb2chen nooijen   13760 Nov 29 22:36 /home/bjb2chen/gmsscr//ash3cat_cct_gmcpt_7o7e_C1_3st_dmo.F91.001
-rw-r--r-- 1 bjb2chen nooijen   13760 Nov 29 22:36 /home/bjb2chen/gmsscr//ash3cat_cct_gmcpt_7o7e_C1_3st_dmo.F91.002
-rw-r--r-- 1 bjb2chen nooijen   13760 Nov 29 22:36 /home/bjb2chen/gmsscr//ash3cat_cct_gmcpt_7o7e_C1_3st_dmo.F91.003
-rw-r--r-- 1 bjb2chen nooijen   22776 Nov 29 22:35 /home/bjb2chen/gmsscr//ash3cat_cct_gmcpt_7o7e_C1_3st_dmo.F92
-rw-r--r-- 1 bjb2chen nooijen   22776 Nov 29 22:35 /home/bjb2chen/gmsscr//ash3cat_cct_gmcpt_7o7e_C1_3st_dmo.F92.001
-rw-r--r-- 1 bjb2chen nooijen   22776 Nov 29 22:35 /home/bjb2chen/gmsscr//ash3cat_cct_gmcpt_7o7e_C1_3st_dmo.F92.002
-rw-r--r-- 1 bjb2chen nooijen   22776 Nov 29 22:35 /home/bjb2chen/gmsscr//ash3cat_cct_gmcpt_7o7e_C1_3st_dmo.F92.003
-rw-r--r-- 1 bjb2chen nooijen   23168 Nov 29 22:35 /home/bjb2chen/gmsscr//ash3cat_cct_gmcpt_7o7e_C1_3st_dmo.F93
-rw-r--r-- 1 bjb2chen nooijen   23168 Nov 29 22:35 /home/bjb2chen/gmsscr//ash3cat_cct_gmcpt_7o7e_C1_3st_dmo.F93.001
-rw-r--r-- 1 bjb2chen nooijen   23168 Nov 29 22:35 /home/bjb2chen/gmsscr//ash3cat_cct_gmcpt_7o7e_C1_3st_dmo.F93.002
-rw-r--r-- 1 bjb2chen nooijen   23168 Nov 29 22:35 /home/bjb2chen/gmsscr//ash3cat_cct_gmcpt_7o7e_C1_3st_dmo.F93.003
-rw-r--r-- 1 bjb2chen nooijen   22776 Nov 29 22:35 /home/bjb2chen/gmsscr//ash3cat_cct_gmcpt_7o7e_C1_3st_dmo.F94
-rw-r--r-- 1 bjb2chen nooijen   22776 Nov 29 22:35 /home/bjb2chen/gmsscr//ash3cat_cct_gmcpt_7o7e_C1_3st_dmo.F94.001
-rw-r--r-- 1 bjb2chen nooijen   22776 Nov 29 22:35 /home/bjb2chen/gmsscr//ash3cat_cct_gmcpt_7o7e_C1_3st_dmo.F94.002
-rw-r--r-- 1 bjb2chen nooijen   22776 Nov 29 22:35 /home/bjb2chen/gmsscr//ash3cat_cct_gmcpt_7o7e_C1_3st_dmo.F94.003
-rw-r--r-- 1 bjb2chen nooijen   13760 Nov 29 22:35 /home/bjb2chen/gmsscr//ash3cat_cct_gmcpt_7o7e_C1_3st_dmo.F95
-rw-r--r-- 1 bjb2chen nooijen   13760 Nov 29 22:35 /home/bjb2chen/gmsscr//ash3cat_cct_gmcpt_7o7e_C1_3st_dmo.F95.001
-rw-r--r-- 1 bjb2chen nooijen   13760 Nov 29 22:35 /home/bjb2chen/gmsscr//ash3cat_cct_gmcpt_7o7e_C1_3st_dmo.F95.002
-rw-r--r-- 1 bjb2chen nooijen   13760 Nov 29 22:35 /home/bjb2chen/gmsscr//ash3cat_cct_gmcpt_7o7e_C1_3st_dmo.F95.003
-rw-r--r-- 1 bjb2chen nooijen   29440 Nov 29 22:36 /home/bjb2chen/gmsscr//ash3cat_cct_gmcpt_7o7e_C1_3st_dmo.F96
-rw-r--r-- 1 bjb2chen nooijen   29440 Nov 29 22:36 /home/bjb2chen/gmsscr//ash3cat_cct_gmcpt_7o7e_C1_3st_dmo.F96.001
-rw-r--r-- 1 bjb2chen nooijen   29440 Nov 29 22:36 /home/bjb2chen/gmsscr//ash3cat_cct_gmcpt_7o7e_C1_3st_dmo.F96.002
-rw-r--r-- 1 bjb2chen nooijen   29440 Nov 29 22:36 /home/bjb2chen/gmsscr//ash3cat_cct_gmcpt_7o7e_C1_3st_dmo.F96.003
-rw-r--r-- 1 bjb2chen nooijen    1184 Nov 29 22:35 /home/bjb2chen/gmsscr//ash3cat_cct_gmcpt_7o7e_C1_3st_dmo.F97
-rw-r--r-- 1 bjb2chen nooijen    1184 Nov 29 22:35 /home/bjb2chen/gmsscr//ash3cat_cct_gmcpt_7o7e_C1_3st_dmo.F97.001
-rw-r--r-- 1 bjb2chen nooijen    1184 Nov 29 22:35 /home/bjb2chen/gmsscr//ash3cat_cct_gmcpt_7o7e_C1_3st_dmo.F97.002
-rw-r--r-- 1 bjb2chen nooijen    1184 Nov 29 22:35 /home/bjb2chen/gmsscr//ash3cat_cct_gmcpt_7o7e_C1_3st_dmo.F97.003
-rw-r--r-- 1 bjb2chen nooijen    9808 Nov 29 22:35 /home/bjb2chen/gmsscr//ash3cat_cct_gmcpt_7o7e_C1_3st_dmo.F98
-rw-r--r-- 1 bjb2chen nooijen    9808 Nov 29 22:35 /home/bjb2chen/gmsscr//ash3cat_cct_gmcpt_7o7e_C1_3st_dmo.F98.001
-rw-r--r-- 1 bjb2chen nooijen    9808 Nov 29 22:35 /home/bjb2chen/gmsscr//ash3cat_cct_gmcpt_7o7e_C1_3st_dmo.F98.002
-rw-r--r-- 1 bjb2chen nooijen    9808 Nov 29 22:35 /home/bjb2chen/gmsscr//ash3cat_cct_gmcpt_7o7e_C1_3st_dmo.F98.003
-rw-r--r-- 1 bjb2chen nooijen   30264 Nov 29 22:35 /home/bjb2chen/gmsscr//ash3cat_cct_gmcpt_7o7e_C1_3st_dmo.F99
-rw-r--r-- 1 bjb2chen nooijen   30264 Nov 29 22:35 /home/bjb2chen/gmsscr//ash3cat_cct_gmcpt_7o7e_C1_3st_dmo.F99.001
-rw-r--r-- 1 bjb2chen nooijen   30264 Nov 29 22:35 /home/bjb2chen/gmsscr//ash3cat_cct_gmcpt_7o7e_C1_3st_dmo.F99.002
-rw-r--r-- 1 bjb2chen nooijen   30264 Nov 29 22:35 /home/bjb2chen/gmsscr//ash3cat_cct_gmcpt_7o7e_C1_3st_dmo.F99.003
ls: No match.
ls: No match.
ls: No match.
Wed 29 Nov 2023 10:36:01 PM EST
0.302u 0.053s 17:24.42 0.0%	0+0k 280+504io 0pf+0w
