----- GAMESS execution script 'rungms' -----
This job is running on host io001
under operating system Linux at Mon 22 Jan 2024 04:20:44 PM EST
Available scratch disk space (Kbyte units) at beginning of the job is
Filesystem             1K-blocks       Used Available Use% Mounted on
helmholtz.nlogn:/home 6391504896 5247662080 821703680  87% /home
GAMESS temporary binary files will be written to /home/bjb2chen/gmsscr/
GAMESS supplementary output files will be written to /home/bjb2chen/gamess/vibronics/template_examples/NH3/C2v_jan22
Copying input file NH3cat_ccd_C2v_gmcpt_3st_diab_refG.inp to your run's scratch directory...
cp NH3cat_ccd_C2v_gmcpt_3st_diab_refG.inp /home/bjb2chen/gmsscr//NH3cat_ccd_C2v_gmcpt_3st_diab_refG.F05
unset echo
 
Assuming a single but multicore node.
 
/home/bjb2chen/gamess/ddikick.x /home/bjb2chen/gamess/gamess.00.x NH3cat_ccd_C2v_gmcpt_3st_diab_refG -ddi 1 2 io001:cpus=2 -scr /home/bjb2chen/gmsscr/

 Distributed Data Interface kickoff program.
 Initiating 2 compute processes on 1 nodes to run the following command:
 /home/bjb2chen/gamess/gamess.00.x NH3cat_ccd_C2v_gmcpt_3st_diab_refG 

          ******************************************************
          *         GAMESS VERSION = 02 AUG 2018 (R2)         *
          *             FROM IOWA STATE UNIVERSITY             *
          * M.W.SCHMIDT, K.K.BALDRIDGE, J.A.BOATZ, S.T.ELBERT, *
          *   M.S.GORDON, J.H.JENSEN, S.KOSEKI, N.MATSUNAGA,   *
          *          K.A.NGUYEN, S.J.SU, T.L.WINDUS,           *
          *       TOGETHER WITH M.DUPUIS, J.A.MONTGOMERY       *
          *         J.COMPUT.CHEM.  14, 1347-1363(1993)        *
          **************** 64 BIT LINUX VERSION ****************

  SINCE 1993, STUDENTS AND POSTDOCS WORKING AT IOWA STATE UNIVERSITY
  AND ALSO IN THEIR VARIOUS JOBS AFTER LEAVING ISU HAVE MADE IMPORTANT
  CONTRIBUTIONS TO THE CODE:
     IVANA ADAMOVIC, CHRISTINE AIKENS, YURI ALEXEEV, POOJA ARORA,
     ANDREY ASADCHEV, ROB BELL, PRADIPTA BANDYOPADHYAY, JONATHAN BENTZ,
     BRETT BODE, KURT BRORSEN, CALEB CARLIN, GALINA CHABAN, WEI CHEN,
     CHEOL HO CHOI, PAUL DAY, ALBERT DEFUSCO, NUWAN DESILVA, TIM DUDLEY,
     DMITRI FEDOROV, ALEX FINDLATER, GRAHAM FLETCHER, MARK FREITAG,
     KURT GLAESEMANN, ANASTASIA GUININA,
     DAN KEMP, GRANT MERRILL, NORIYUKI MINEZAWA, JONATHAN MULLIN,
     TAKESHI NAGATA, SEAN NEDD, HEATHER NETZLOFF, BOSILJKA NJEGIC, RYAN OLSON,
     MIKE PAK, BUU PHAM,
     SPENCER PRUITT, LUKE ROSKOP, JIM SHOEMAKER, LYUDMILA SLIPCHENKO,
     TONY SMITH, SAROM SOK LEANG, JIE SONG, TETSUYA TAKETSUGU, SIMON WEBB,
     PENG XU, SOOHAENG YOO, FEDERICO ZAHARIEV

  ADDITIONAL CODE HAS BEEN PROVIDED BY COLLABORATORS IN OTHER GROUPS:
     IOWA STATE UNIVERSITY:
          JOE IVANIC, AARON WEST, LAIMUTIS BYTAUTAS, KLAUS RUEDENBERG
     UNIVERSITY OF TOKYO: KIMIHIKO HIRAO, TAKAHITO NAKAJIMA,
          TAKAO TSUNEDA, MUNEAKI KAMIYA, SUSUMU YANAGISAWA,
          KIYOSHI YAGI, MAHITO CHIBA, SEIKEN TOKURA, NAOAKI KAWAKAMI
     UNIVERSITY OF AARHUS: FRANK JENSEN
     UNIVERSITY OF IOWA: VISVALDAS KAIRYS, HUI LI
     NATIONAL INST. OF STANDARDS AND TECHNOLOGY: WALT STEVENS, DAVID GARMER
     UNIVERSITY OF PISA: BENEDETTA MENNUCCI, JACOPO TOMASI
     UNIVERSITY OF MEMPHIS: HENRY KURTZ, PRAKASHAN KORAMBATH
     UNIVERSITY OF ALBERTA: TOBY ZENG, MARIUSZ KLOBUKOWSKI
     UNIVERSITY OF NEW ENGLAND: MARK SPACKMAN
     MIE UNIVERSITY: HIROAKI UMEDA
     NAT. INST. OF ADVANCED INDUSTRIAL SCIENCE AND TECHNOLOGY: KAZUO KITAURA
     MICHIGAN STATE UNIVERSITY:
          KAROL KOWALSKI, MARTA WLOCH, JEFFREY GOUR, JESSE LUTZ,
          WEI LI, JUN SHEN, J. EMILIANO DEUSTUA, PIOTR PIECUCH
     UNIVERSITY OF MINNESOTA:
          YINAN SHU
     UNIVERSITY OF SILESIA: MONIKA MUSIAL, STANISLAW KUCHARSKI
     FACULTES UNIVERSITAIRES NOTRE-DAME DE LA PAIX:
          OLIVIER QUINET, BENOIT CHAMPAGNE
     UNIVERSITY OF CALIFORNIA - SANTA BARBARA: BERNARD KIRTMAN
     INSTITUTE FOR MOLECULAR SCIENCE:
          KAZUYA ISHIMURA, MICHIO KATOUDA, AND SHIGERU NAGASE
     UNIVERSITY OF NOTRE DAME: ANNA POMOGAEVA, DAN CHIPMAN
     KYUSHU UNIVERSITY:
          HARUYUKI NAKANO,
          FENG LONG GU, JACEK KORCHOWIEC, MARCIN MAKOWSKI, AND YURIKO AOKI,
          HIROTOSHI MORI AND EISAKU MIYOSHI
     PENNSYLVANIA STATE UNIVERSITY:
          TZVETELIN IORDANOV, CHET SWALINA, JONATHAN SKONE,
          SHARON HAMMES-SCHIFFER
     WASEDA UNIVERSITY:
          MASATO KOBAYASHI, TOMOKO AKAMA, TSUGUKI TOUMA,
          TAKESHI YOSHIKAWA, YASUHIRO IKABATA, JUNJI SEINO,
          YUYA NAKAJIMA, HIROMI NAKAI
     NANJING UNIVERSITY: SHUHUA LI
     UNIVERSITY OF NEBRASKA:
          PEIFENG SU, DEJUN SI, NANDUN THELLAMUREGE, YALI WANG, HUI LI
     UNIVERSITY OF ZURICH: ROBERTO PEVERATI, KIM BALDRIDGE
     N. COPERNICUS UNIVERSITY AND JACKSON STATE UNIVERSITY:
          MARIA BARYSZ
     UNIVERSITY OF COPENHAGEN: Jimmy Kromann, CASPER STEINMANN
     TOKYO INSTITUTE OF TECHNOLOGY: HIROYA NAKATA
     NAGOYA UNIVERSITY: YOSHIO NISHIMOTO, STEPHAN IRLE
     MOSCOW STATE UNIVERSITY: VLADIMIR MIRONOV


 PARALLEL VERSION RUNNING ON        2 PROCESSORS IN        1 NODES.

 EXECUTION OF GAMESS BEGUN Mon Jan 22 16:20:44 2024

            ECHO OF THE FIRST FEW INPUT CARDS -
 INPUT CARD> !############################################################################# 
 INPUT CARD> !                   D_3h RHF GEOMETRY OPTIMIZATION AND HESSIAN TEMPLATE        
 INPUT CARD> ! ---------------------------------------------------------------------------  
 INPUT CARD> ! Replace the symmetry-correct coordinates, should only be two atoms.          
 INPUT CARD> ! The hydrogen or fluorine should have only one non-zero x,y,z coordinate.     
 INPUT CARD> !                                                                              
 INPUT CARD> ! Basis set?   gbasis=ccd for 2nd row,                                         
 INPUT CARD> !                         cct 3rd/4th,                                         
 INPUT CARD> !                   SPKrTZP for heavy,                                         
 INPUT CARD> !                   SPKrTZC beyond 4th                                         
 INPUT CARD> !                                                                              
 INPUT CARD> !############################################################################# 
 INPUT CARD> $system kdiag=3 mwords=250 memddi=8000 parall=.t. $end                         
 INPUT CARD> $contrl runtyp=energy ispher=1 $end                                            
 INPUT CARD> $contrl icut=9 itol=20 inttyp=rysquad qmttol=1.0d-05 nosym=1 $end              
 INPUT CARD> $contrl scftyp=mcscf  mult=2 maxit=200 icharg=1 mplevl=2 $end                  
 INPUT CARD> $scf    npunch=2 conv=1.0d-06 dirscf=.t. $end                                  
 INPUT CARD> $force  method=seminum $end                                                    
 INPUT CARD> $trans  dirtrf=.t. $end                                                        
 INPUT CARD> $statpt hssend=.t. $end                                                        
 INPUT CARD> $basis  gbasis=ccd $end                                                        
 INPUT CARD> !############################################################################# 
 INPUT CARD> !                                                                              
 INPUT CARD> !                       TURN ON THIS SECTION IF HEAVY ATOM                     
 INPUT CARD> !                                                                              
 INPUT CARD> !############################################################################# 
 INPUT CARD> !                                                                              
 INPUT CARD> -contrl relwfn=LUT-IOTC $end                                                   
 INPUT CARD> -scf  diis=.t. soscf=.f. ethrsh=10.0 $end                                      
 INPUT CARD> !                                                                              
 INPUT CARD> !############################################################################# 
 INPUT CARD> !                                                                              
 INPUT CARD> !       TURN ON THIS SECTION IF GMCPT, CHANGE runtyp=energy, scftyp=mcscf      
 INPUT CARD> !                                                                              
 INPUT CARD> !############################################################################# 
 INPUT CARD> $guess  guess=moread norb=29 purify=.t. $end                                   
 INPUT CARD> !       iorder(25)=27,25,26 $end                                               
 INPUT CARD> $mcscf  cistep=gmcci fullnr=.t. finci=mos                                      
 INPUT CARD>         acurcy=1.d-6 maxit=100 $end                                            
 INPUT CARD> $mrmp   mrpt=gmcpt rdvecs=.f. $end                                             
 INPUT CARD> $gmcpt  nmofzc=0 nmodoc=1 nmoact=7 nelact=7 stsym(1)=A                         
 INPUT CARD>         reftyp=ormas nspace=1 mstart(1)=2 mine(1)=7 maxe(1)=7                  
 INPUT CARD>         kstate(1)=1,1,1                                                        
 INPUT CARD>         wstate(1)=1,1,1                                                        
 INPUT CARD>         iwgt=0 thrwgt=-1.0 krot=.f. kszdoe=.f. knospn=.f.                      
 INPUT CARD>         thrde=-1.0 edshft=0.02 $end                                            
 INPUT CARD> !############################################################################# 
 INPUT CARD> !                                                                              
 INPUT CARD> !             TURN OFF THIS SECTION IF temp.inp, change nosym=1, add C1        
 INPUT CARD> !                                                                              
  250000000 WORDS OF MEMORY AVAILABLE

     BASIS OPTIONS
     -------------
     GBASIS=CCD          IGAUSS=       0      POLAR=NONE    
     NDFUNC=       0     NFFUNC=       0     DIFFSP=       F
     NPFUNC=       0      DIFFS=       F     BASNAM=        


     RUN TITLE
     ---------
  D3h NH3 cation diabatization                                                   

 THE POINT GROUP OF THE MOLECULE IS C1      
 THE ORDER OF THE PRINCIPAL AXIS IS     0

 ATOM      ATOMIC                      COORDINATES (BOHR)
           CHARGE         X                   Y                   Z
 N           7.0     0.0000000000        0.0000000000       -0.0000000450
 H           1.0    -1.6855180507        0.0000000000       -0.9731342877
 H           1.0     1.6855180507        0.0000000000       -0.9731342877
 H           1.0     0.0000000000        0.0000000000        1.9462686202

          INTERNUCLEAR DISTANCES (ANGS.)
          ------------------------------

                1 N          2 H          3 H          4 H     

   1 N       0.0000000    1.0299210 *  1.0299210 *  1.0299211 *
   2 H       1.0299210 *  0.0000000    1.7838756 *  1.7838756 *
   3 H       1.0299210 *  1.7838756 *  0.0000000    1.7838756 *
   4 H       1.0299211 *  1.7838756 *  1.7838756 *  0.0000000  

  * ... LESS THAN  3.000


     ATOMIC BASIS SET
     ----------------
 THE CONTRACTED PRIMITIVE FUNCTIONS HAVE BEEN UNNORMALIZED
 THE CONTRACTED BASIS FUNCTIONS ARE NOW NORMALIZED TO UNITY

  SHELL TYPE  PRIMITIVE        EXPONENT          CONTRACTION COEFFICIENT(S)

 N         

      1   S       1          9046.0000000    0.000699617413
      1   S       2          1357.0000000    0.005386054630
      1   S       3           309.3000000    0.027391021189
      1   S       4            87.7300000    0.103150591982
      1   S       5            28.5600000    0.278570663317
      1   S       6            10.2100000    0.448294849454
      1   S       7             3.8380000    0.278085928395
      1   S       8             0.7466000    0.015431561233

      2   S       9          9046.0000000   -0.000304990096
      2   S      10          1357.0000000   -0.002408026379
      2   S      11           309.3000000   -0.011944448725
      2   S      12            87.7300000   -0.048925992909
      2   S      13            28.5600000   -0.134472724725
      2   S      14            10.2100000   -0.315112577700
      2   S      15             3.8380000   -0.242857832550
      2   S      16             0.7466000    1.094382206854

      3   S      17             0.2248000    1.000000000000

      4   P      18            13.5500000    0.058905676772
      4   P      19             2.9170000    0.320461106714
      4   P      20             0.7973000    0.753042061792

      5   P      21             0.2185000    1.000000000000

      6   D      22             0.8170000    1.000000000000

 H         

      7   S      23            13.0100000    0.033498726390
      7   S      24             1.9620000    0.234800801174
      7   S      25             0.4446000    0.813682957883

      8   S      26             0.1220000    1.000000000000

      9   P      27             0.7270000    1.000000000000

 H         

     10   S      28            13.0100000    0.033498726390
     10   S      29             1.9620000    0.234800801174
     10   S      30             0.4446000    0.813682957883

     11   S      31             0.1220000    1.000000000000

     12   P      32             0.7270000    1.000000000000

 H         

     13   S      33            13.0100000    0.033498726390
     13   S      34             1.9620000    0.234800801174
     13   S      35             0.4446000    0.813682957883

     14   S      36             0.1220000    1.000000000000

     15   P      37             0.7270000    1.000000000000

 TOTAL NUMBER OF BASIS SET SHELLS             =   15
 NUMBER OF CARTESIAN GAUSSIAN BASIS FUNCTIONS =   30
 NOTE: THIS RUN WILL RESTRICT THE MO VARIATION SPACE TO SPHERICAL HARMONICS.
 THE NUMBER OF ORBITALS KEPT IN THE VARIATIONAL SPACE WILL BE PRINTED LATER.
 NUMBER OF ELECTRONS                          =    9
 CHARGE OF MOLECULE                           =    1
 SPIN MULTIPLICITY                            =    2
 NUMBER OF OCCUPIED ORBITALS (ALPHA)          =    5
 NUMBER OF OCCUPIED ORBITALS (BETA )          =    4
 TOTAL NUMBER OF ATOMS                        =    4
 THE NUCLEAR REPULSION ENERGY IS       11.6798117042

     $CONTRL OPTIONS
     ---------------
 SCFTYP=MCSCF        RUNTYP=ENERGY       EXETYP=RUN     
 MPLEVL=       2     CITYP =NONE         CCTYP =NONE         VBTYP =NONE    
 DFTTYP=NONE         TDDFT =NONE    
 MULT  =       2     ICHARG=       1     NZVAR =       0     COORD =UNIQUE  
 PP    =NONE         RELWFN=NONE         LOCAL =NONE         NUMGRD=       F
 ISPHER=       1     NOSYM =       1     MAXIT =     200     UNITS =ANGS    
 PLTORB=       F     MOLPLT=       F     AIMPAC=       F     FRIEND=        
 NPRINT=       7     IREST =       0     GEOM  =INPUT   
 NORMF =       0     NORMP =       0     ITOL  =      20     ICUT  =       9
 INTTYP=RYSQUAD      GRDTYP=BEST         QMTTOL= 1.0E-05

     $SYSTEM OPTIONS
     ---------------
  REPLICATED MEMORY=   250000000 WORDS (ON EVERY NODE).
 DISTRIBUTED MEMDDI=        8000 MILLION WORDS IN AGGREGATE,
 MEMDDI DISTRIBUTED OVER   2 PROCESSORS IS  4000000000 WORDS/PROCESSOR.
 TOTAL MEMORY REQUESTED ON EACH PROCESSOR=  4250000000 WORDS.
 TIMLIM=      525600.00 MINUTES, OR     365.0 DAYS.
 PARALL= T  BALTYP=  DLB     KDIAG=    3  COREFL= F
 MXSEQ2=     300 MXSEQ3=     150  mem10=         0

          ----------------
          PROPERTIES INPUT
          ----------------

     MOMENTS            FIELD           POTENTIAL          DENSITY
 IEMOM =       1   IEFLD =       0   IEPOT =       0   IEDEN =       0
 WHERE =COMASS     WHERE =NUCLEI     WHERE =NUCLEI     WHERE =NUCLEI  
 OUTPUT=BOTH       OUTPUT=BOTH       OUTPUT=BOTH       OUTPUT=BOTH    
 IEMINT=       0   IEFINT=       0                     IEDINT=       0
                                                       MORB  =       0

     -------------------------------
     INTEGRAL TRANSFORMATION OPTIONS
     -------------------------------
     NWORD  =            0
     CUTOFF = 1.0E-09     MPTRAN =       0
     DIRTRF =       T     AOINTS =DUP     

          ----------------------
          MCSCF INPUT PARAMETERS
          ----------------------
 CONVERGER SELECTION: FOCAS = F  SOSCF = F  FULLNR = T  QUD = F  JACOBI = F
 SECULAR EQUATION METHOD CISTEP = GMCCI   
 --- GENERAL INPUT OPTIONS:
 MAXIT =     100  MICIT =       1  ACURCY= 1.000E-06
 DAMP  =   0.000  CANONC=       T  ENGTOL= 1.000E-10
 EKT   =       F  NPUNCH=       2  NWORD =         0
 REGENERATE CI AFTER CONVERGENCE = NONE    
 DIABATIZATION AFTER CONVERGENCE =        F
 --- INPUT FOR FULLNR CONVERGER:
 METHOD=DM2       FORS  =       F  DROPC =       T
 LINSER=       F  FCORE =       F  NORB  =      30

          ----------------------
          INTEGRAL INPUT OPTIONS
          ----------------------
 NOPK  =       1 NORDER=       0 SCHWRZ=       T

 ------------------------------------------
 MULTIREFERENCE PERTURBATION THEORY CONTROL
 ------------------------------------------
 MRPT=GMCPT    READ CONVERGED MCSCF VECTORS= F


     ------------------------------------------
     THE POINT GROUP IS C1 , NAXIS= 1, ORDER= 1
     ------------------------------------------

 -- VARIATIONAL SPACE WILL BE RESTRICTED TO PURE SPHERICAL HARMONICS ONLY --
 AFTER EXCLUDING CONTAMINANT COMBINATIONS FROM THE CARTESIAN GAUSSIAN BASIS
 SET, THE NUMBER OF SPHERICAL HARMONICS KEPT IN THE VARIATION SPACE IS   29

     DIMENSIONS OF THE SYMMETRY SUBSPACES ARE
 A   =   29

 ..... DONE SETTING UP THE RUN .....
 CPU     0: STEP CPU TIME=     0.04 TOTAL CPU TIME=          0.0 (      0.0 MIN)
 TOTAL WALL CLOCK TIME=          0.1 SECONDS, CPU UTILIZATION IS    33.33%

          ********************
          1 ELECTRON INTEGRALS
          ********************
 TIME TO DO   DIPOLE INTEGRALS=      0.00
 ...... END OF ONE-ELECTRON INTEGRALS ......
 CPU     0: STEP CPU TIME=     0.00 TOTAL CPU TIME=          0.0 (      0.0 MIN)
 TOTAL WALL CLOCK TIME=          0.1 SECONDS, CPU UTILIZATION IS    33.33%

          -------------
          GUESS OPTIONS
          -------------
          GUESS =MOREAD            NORB  =      29          NORDER=       0
          MIX   =       F          PRTMO =       F          PUNMO =       F
          TOLZ  = 1.0E-08          TOLE  = 1.0E-05
          SYMDEN=       F          PURIFY=       T

 INITIAL GUESS ORBITALS GENERATED BY MOREAD   ROUTINE.

 STATISTICS FOR GENERATION OF SYMMETRY ORBITAL -Q- MATRIX
 NUMBER OF CARTESIAN ATOMIC ORBITALS=         30
 NUMBER OF SPHERICAL CONTAMINANTS DROPPED=     1
 NUMBER OF LINEARLY DEPENDENT MOS DROPPED=     0
 TOTAL NUMBER OF MOS IN VARIATION SPACE=      29
 ORBITAL PURIFICATION WILL OCCUR

 SYMMETRIES FOR INITIAL GUESS ORBITALS FOLLOW.   BOTH SET(S).
     5 ORBITALS ARE OCCUPIED (    1 CORE ORBITALS).
     1=A        2=A        3=A        4=A        5=A        6=A        7=A   
     8=A        9=A       10=A       11=A       12=A       13=A       14=A   
    15=A       16=A       17=A       18=A       19=A       20=A       21=A   
    22=A       23=A       24=A       25=A       26=A       27=A       28=A   
    29=A   
 ...... END OF INITIAL ORBITAL SELECTION ......
 CPU     0: STEP CPU TIME=     0.01 TOTAL CPU TIME=          0.0 (      0.0 MIN)
 TOTAL WALL CLOCK TIME=          0.1 SECONDS, CPU UTILIZATION IS    38.46%

                    ----------------------
                    AO INTEGRAL TECHNOLOGY
                    ----------------------
     S,P,L SHELL ROTATED AXIS INTEGRALS, REPROGRAMMED BY
        KAZUYA ISHIMURA (IMS) AND JOSE SIERRA (SYNSTAR).
     S,P,D,L SHELL ROTATED AXIS INTEGRALS PROGRAMMED BY
        KAZUYA ISHIMURA (INSTITUTE FOR MOLECULAR SCIENCE).
     S,P,D,F,G SHELL TO TOTAL QUARTET ANGULAR MOMENTUM SUM 5,
        ERIC PROGRAM BY GRAHAM FLETCHER (ELORET AND NASA ADVANCED
        SUPERCOMPUTING DIVISION, AMES RESEARCH CENTER).
     S,P,D,F,G,L SHELL GENERAL RYS QUADRATURE PROGRAMMED BY
        MICHEL DUPUIS (PACIFIC NORTHWEST NATIONAL LABORATORY).

          --------------------
          2 ELECTRON INTEGRALS
          --------------------

 DIRECT SCF METHOD SKIPS INTEGRAL STORAGE ON DISK.
 DIRECT TRANSFORMATION SKIPS AO INTEGRAL STORAGE ON DISK.
  ...... END OF TWO-ELECTRON INTEGRALS .....
 STEP CPU TIME =     0.02 TOTAL CPU TIME =          0.1 (      0.0 MIN)
 TOTAL WALL CLOCK TIME=          0.2 SECONDS, CPU UTILIZATION IS    46.67%
 DDI: Creating Array [0] - 900 x 36 = 32400 words.
 DDI: Creating Array [1] - 21 x 288 = 6048 words.
 DDI: Creating Array [2] - 36 x 36 = 1296 words.
 DDI: Creating Array [3] - 465 x 36 = 16740 words.

          -----------------
          MCSCF CALCULATION
          -----------------

 ----- NUCLEAR ENERGY ----- =        11.6798117042

     -------------------------------------------------
     GMC-PT/GMC-QDPT or general MCSCF input parameters
     -------------------------------------------------
 # of frozen core orbs. =         0 ->         0
 # of doubly occ. orbs. =         1
 # of active      orbs. =         7
 # of virtual     orbs. =        21
 # of active electrons  =         7
 # of states in CI      =         3
 Highest state in CI    =         3
 kstate =  1 1 1
 avecoe =  0.333 0.333 0.333
 State symmetry           = A           
 Assigned symmetry number = 1

 <<<Act. MO sym.: 1111111

 <<<Division of 1-ext.:  0 0
 <<<Division of 2-ext.:  0 1

 *** Reference space

 Reference type: ORMAS (= Occupation restricted multiple active space)
 # of orbitals          =  7
 # of minimum electrons =  7
 # of maximum electrons =  7
 State symmetry    =    1 (input)
 2*Sz              =    1 (input)
 Spin multiplicity =    2 (input)
 Dimension of reference space =      1225  (from      3432 walks)

 Dimension of reference space =      1225  (from      1225 walks)

 <<<Ionized spaces for Ref-CI:
      0:         1225 /   -1-0:         1960 /  0-1-0:         2891

 EVALUATING EXCHANGE INTEGRALS FOR DIRECT INTEGRAL TRANSFORMATION
 SCHWARZ INEQUALITY OVERHEAD:       465 INTEGRALS, T=        0.00

     --------------------------------------------
     PARTIAL TWO ELECTRON INTEGRAL TRANSFORMATION
     --------------------------------------------

 NUMBER OF CORE MOLECULAR ORBITALS     =    1
 NUMBER OF OCCUPIED MOLECULAR ORBITALS =    8
 TOTAL NUMBER OF MOLECULAR ORBITALS    =   29
 TOTAL NUMBER OF ATOMIC ORBITALS       =   30
 THRESHOLD FOR KEEPING TRANSFORMED 2E- INTEGRALS = 1.000E-09

 -------------------------------     ------------------------------
 DISTRIBUTED DATA TRANSFORMATION     PROGRAM WRITTEN BY G. FLETCHER
 -------------------------------     ------------------------------

 THE DISTRIBUTED MEMORY REQUIRED FOR THIS STEP IS MEMDDI=         1 MWORDS
 CREATING DISTRIBUTED STORAGE FOR [VIR OCC|VIR OCC] INTEGRALS
 CREATING DISTRIBUTED STORAGE FOR [VIR OCC|OCC OCC] INTEGRALS
 CREATING DISTRIBUTED STORAGE FOR [OCC OCC|OCC OCC] INTEGRALS
 CREATING DISTRIBUTED STORAGE FOR [VIR VIR|OCC OCC] INTEGRALS
 FOR    2 PROCESSORS, THE REPLICATED MEMORY NEEDED IS       69164 WORDS.
 SCHWARZ INEQUALITY OVERHEAD:       465 INTEGRALS, T=        0.00

      DIRECT 4-INDEX TRANSFORMATION 
      SCHWARZ INEQUALITY TEST SKIPPED          0 INTEGRAL BLOCKS
 ----- FROZEN CORE ENERGY =       -47.8161324580
 ... END OF INTEGRAL TRANSFORMATION ...
 CPU     0: STEP CPU TIME=     0.12 TOTAL CPU TIME=          0.2 (      0.0 MIN)
 TOTAL WALL CLOCK TIME=          0.3 SECONDS, CPU UTILIZATION IS    61.29%

     --------------------------------     -----------------------------
     MCHF NEWTON-RAPHSON OPTIMIZATION     CODE WRITTEN BY MICHEL DUPUIS
     --------------------------------     -----------------------------
     PARALLEL VERSION WRITTEN BY G. FLETCHER (ELORET)
     NASA ADVANCED SUPERCOMPUTING DIVISION, AMES RESEARCH CENTER

 NUMBER OF INDEPENDENT ORBITAL ROTATION PARAMETERS =    92
 ..... DONE SOLVING NEWTON-RAPHSON EQUATIONS .....
 CPU     0: STEP CPU TIME=     0.68 TOTAL CPU TIME=          0.9 (      0.0 MIN)
 TOTAL WALL CLOCK TIME=          1.2 SECONDS, CPU UTILIZATION IS    74.36%
 ..... DONE WITH NTN-RPH ORBITAL ROTATIONS ..... 
 CPU     0: STEP CPU TIME=     0.00 TOTAL CPU TIME=          0.9 (      0.0 MIN)
 TOTAL WALL CLOCK TIME=          1.2 SECONDS, CPU UTILIZATION IS    74.36%
 MAXIMUM MEMORY USED BY NTN-RPH CODE WAS     57645 WORDS.

 ITER     TOTAL ENERGY      DEL(E)  LAGRANGIAN ASYMMETRY   SQCDF  MICIT   DAMP
   1      -55.757581578 -0.757581578  0.000001   14    5 1.028E-09  1   0.0000
   2      -55.757581578 -0.000000000  0.000001   14    5 1.028E-09  1   0.0000

          --------------------
          LAGRANGIAN CONVERGED
          --------------------

 FINAL MCSCF ENERGY IS      -55.7575815783 AFTER   2 ITERATIONS

 -MCCI- BASED ON OPTIMIZED ORBITALS
 ----------------------------------

 PLEASE NOTE: IF THE ACTIVE ORBITALS ARE CANONICALIZED BELOW,
 THE FOLLOWING CI EXPANSION COEFFICIENTS AND THE DENSITY DO NOT
 CORRESPOND TO THE PRINTED ORBITALS.  THE PRINTED EXPANSIONS MATCH
 THE ORBITALS USED DURING THE LAST ITERATION.  IF YOU WISH TO SEE
 CI EXPANSIONS BASED ON THE CANONICAL (OR NATURAL) ORBITALS, YOU
 MUST RUN A CI CALCULATION WITH THAT ORBITAL CHOICE READ IN $VEC.

 Averaged energy =     -55.757581578

 State #    1  Energy =     -55.949960399  S =  0.500

      Det      Coef    Occupancy (Ignoring core)
      ---      ----    --------- --------- -----
        1   -0.981652  11110001110000
      107    0.050491  11101000111000
      357   -0.067271  11010101100010
      753   -0.067271  10110011010001

 State #    2  Energy =     -55.661392177  S =  0.500

      Det      Coef    Occupancy (Ignoring core)
      ---      ----    --------- --------- -----
       36   -0.938868  11110001101000
       71   -0.301831  11110001011000
      823   -0.062953  10110011001001

 State #    3  Energy =     -55.661392159  S =  0.500

      Det      Coef    Occupancy (Ignoring core)
      ---      ----    --------- --------- -----
       36   -0.301831  11110001101000
       71    0.938868  11110001011000
      462   -0.062953  11010101001010

 DENSITY MATRIX OVER ACTIVE MO-S

             1           2           3           4           5

    1    1.9850358
    2   -0.0000000   1.6498251
    3   -0.0000000   0.0000000   1.6498251
    4    0.0000000  -0.0000000  -0.0000000   1.6629170
    5   -0.0068809  -0.0000000   0.0000000   0.0000000   0.0188168
    6    0.0000000   0.0000002   0.0188346   0.0000000   0.0000000
    7   -0.0000000   0.0188346  -0.0000002   0.0000000  -0.0000000

             6           7

    6    0.0167901
    7    0.0000000   0.0167901

 FORMING THE "STANDARD FOCK OPERATOR" IN DIRECT AO INTEGRAL MODE...
 ONLY THE    1 CORE AND   21 VIRTUAL ORBITALS WILL BE CANONICALIZED

          ----------------------
          MCSCF NATURAL ORBITALS
          ----------------------

                      1          2          3          4          5
                  -15.9694     1.9851     1.6629     1.6500     1.6500
                     A          A          A          A          A   
    1  N  1  S    1.001433  -0.000014   0.000000  -0.000000   0.000000
    2  N  1  S    0.000087   0.444318   0.000000  -0.000000   0.000000
    3  N  1  S   -0.005593   0.324779   0.000000   0.000000   0.000000
    4  N  1  X    0.000000  -0.000000   0.000000   0.495033  -0.017976
    5  N  1  Y    0.000000  -0.000000   0.650430   0.000000   0.000000
    6  N  1  Z    0.000000  -0.000000   0.000000   0.017976   0.495033
    7  N  1  X    0.000000  -0.000000   0.000000   0.198958  -0.007225
    8  N  1  Y    0.000000  -0.000000   0.462852   0.000000   0.000000
    9  N  1  Z    0.000000  -0.000000   0.000000   0.007225   0.198958
   10  N  1 XX    0.000182   0.001300   0.000000  -0.000412  -0.011345
   11  N  1 YY   -0.000364  -0.002600   0.000000  -0.000000   0.000000
   12  N  1 ZZ    0.000182   0.001300   0.000000   0.000412   0.011345
   13  N  1 XY    0.000000  -0.000000   0.000000   0.000000   0.000000
   14  N  1 XZ    0.000000   0.000000   0.000000  -0.013101   0.000476
   15  N  1 YZ    0.000000  -0.000000   0.000000   0.000000   0.000000
   16  H  2  S   -0.001357   0.180406   0.000000  -0.336679  -0.178416
   17  H  2  S    0.000533   0.001917   0.000000  -0.038579  -0.020444
   18  H  2  X   -0.000762   0.031520   0.000000  -0.026117  -0.024448
   19  H  2  Y    0.000000  -0.000000   0.026597   0.000000   0.000000
   20  H  2  Z   -0.000440   0.018198   0.000000  -0.025214   0.005011
   21  H  3  S   -0.001357   0.180406   0.000000   0.322852  -0.202365
   22  H  3  S    0.000533   0.001917   0.000000   0.036994  -0.023188
   23  H  3  X    0.000762  -0.031520   0.000000  -0.024275   0.026277
   24  H  3  Y    0.000000  -0.000000   0.026597   0.000000   0.000000
   25  H  3  Z   -0.000440   0.018198   0.000000   0.025511   0.003170
   26  H  4  S   -0.001357   0.180406   0.000000   0.013827   0.380781
   27  H  4  S    0.000533   0.001917   0.000000   0.001584   0.043632
   28  H  4  X    0.000000  -0.000000   0.000000   0.018734  -0.000680
   29  H  4  Y    0.000000  -0.000000   0.026597   0.000000   0.000000
   30  H  4  Z    0.000879  -0.036397   0.000000  -0.001447  -0.039839

                      6          7          8
                    0.0188     0.0166     0.0166
                     A          A          A   
    1  N  1  S    0.328648  -0.000000   0.000000
    2  N  1  S    1.033924  -0.000001   0.000000
    3  N  1  S    0.118593  -0.000000   0.000000
    4  N  1  X   -0.000000   0.043367   0.976537
    5  N  1  Y    0.000000   0.000000   0.000000
    6  N  1  Z    0.000001   0.976537  -0.043367
    7  N  1  X   -0.000000   0.000883   0.019890
    8  N  1  Y    0.000000   0.000000   0.000000
    9  N  1  Z   -0.000000   0.019890  -0.000883
   10  N  1 XX   -0.029568   0.009060  -0.000402
   11  N  1 YY    0.059136  -0.000000   0.000000
   12  N  1 ZZ   -0.029568  -0.009060   0.000402
   13  N  1 XY    0.000000   0.000000   0.000000
   14  N  1 XZ   -0.000000   0.000465   0.010462
   15  N  1 YZ    0.000000   0.000000   0.000000
   16  H  2  S   -0.567455   0.398804   0.624966
   17  H  2  S   -0.053479   0.054104   0.084787
   18  H  2  X   -0.066529   0.039632   0.051733
   19  H  2  Y    0.000000   0.000000   0.000000
   20  H  2  Z   -0.038411   0.012017   0.036801
   21  H  3  S   -0.567454   0.341835  -0.657858
   22  H  3  S   -0.053479   0.046375  -0.089249
   23  H  3  X    0.066529  -0.034891   0.055043
   24  H  3  Y    0.000000   0.000000   0.000000
   25  H  3  Z   -0.038411   0.008708  -0.037722
   26  H  4  S   -0.567455  -0.740639   0.032891
   27  H  4  S   -0.053479  -0.100479   0.004462
   28  H  4  X    0.000000  -0.000495  -0.011150
   29  H  4  Y    0.000000   0.000000   0.000000
   30  H  4  Z    0.076821   0.074901  -0.003326

          ------------------------
          MCSCF OPTIMIZED ORBITALS
          ------------------------

                      1          2          3          4          5
                  -15.9694     0.0000     0.0000     0.0000     0.0000
                     A          A          A          A          A   
    1  N  1  S    1.001433   0.001136  -0.000000  -0.000000   0.000000
    2  N  1  S    0.000087   0.447934  -0.000000  -0.000000   0.000000
    3  N  1  S   -0.005593   0.325192  -0.000000   0.000000   0.000000
    4  N  1  X    0.000000   0.000000   0.484055   0.000014   0.000000
    5  N  1  Y    0.000000   0.000000   0.000000   0.000000   0.650430
    6  N  1  Z    0.000000   0.000000  -0.000014   0.484055   0.000000
    7  N  1  X    0.000000  -0.000000   0.198847   0.000006   0.000000
    8  N  1  Y    0.000000   0.000000   0.000000   0.000000   0.462852
    9  N  1  Z    0.000000   0.000000  -0.000006   0.198847   0.000000
   10  N  1 XX    0.000182   0.001197   0.000000  -0.011457   0.000000
   11  N  1 YY   -0.000364  -0.002393   0.000000   0.000000   0.000000
   12  N  1 ZZ    0.000182   0.001197  -0.000000   0.011457   0.000000
   13  N  1 XY    0.000000   0.000000   0.000000   0.000000  -0.000000
   14  N  1 XZ    0.000000  -0.000000  -0.013229  -0.000000   0.000000
   15  N  1 YZ    0.000000   0.000000   0.000000   0.000000   0.000000
   16  H  2  S   -0.001357   0.178419  -0.337359  -0.194787   0.000000
   17  H  2  S    0.000533   0.001730  -0.038813  -0.022410   0.000000
   18  H  2  X   -0.000762   0.031287  -0.025826  -0.025808   0.000000
   19  H  2  Y    0.000000   0.000000   0.000000   0.000000   0.026597
   20  H  2  Z   -0.000440   0.018064  -0.025808   0.003973   0.000000
   21  H  3  S   -0.001357   0.178419   0.337370  -0.194768   0.000000
   22  H  3  S    0.000533   0.001730   0.038814  -0.022408   0.000000
   23  H  3  X    0.000762  -0.031287  -0.025828   0.025807   0.000000
   24  H  3  Y    0.000000   0.000000   0.000000   0.000000   0.026597
   25  H  3  Z   -0.000440   0.018064   0.025808   0.003974   0.000000
   26  H  4  S   -0.001357   0.178419  -0.000011   0.389555   0.000000
   27  H  4  S    0.000533   0.001730  -0.000001   0.044818   0.000000
   28  H  4  X    0.000000   0.000000   0.018873   0.000001   0.000000
   29  H  4  Y    0.000000   0.000000   0.000000   0.000000   0.026597
   30  H  4  Z    0.000879  -0.036128   0.000001  -0.040727   0.000000

                      6          7          8          9         10
                    0.0000     0.0000     0.0000     0.1519     0.1990
                     A          A          A          A          A   
    1  N  1  S    0.328646  -0.000000   0.000000  -0.137693  -0.000000
    2  N  1  S    1.032363  -0.000000   0.000000  -0.230822  -0.000000
    3  N  1  S    0.117455  -0.000000  -0.000000   1.351520   0.000000
    4  N  1  X   -0.000000   0.000037   0.983147  -0.000000  -0.097315
    5  N  1  Y    0.000000   0.000000   0.000000   0.000000   0.000000
    6  N  1  Z    0.000000   0.983147  -0.000037  -0.000000  -0.001315
    7  N  1  X   -0.000000   0.000001   0.022204  -0.000000   0.758496
    8  N  1  Y    0.000000   0.000000   0.000000   0.000000   0.000000
    9  N  1  Z   -0.000000   0.022204  -0.000001  -0.000000   0.010246
   10  N  1 XX   -0.029572   0.008937  -0.000000   0.060190  -0.001338
   11  N  1 YY    0.059145  -0.000000   0.000000  -0.120379  -0.000000
   12  N  1 ZZ   -0.029572  -0.008937   0.000000   0.060190   0.001338
   13  N  1 XY    0.000000   0.000000   0.000000   0.000000   0.000000
   14  N  1 XZ    0.000000   0.000000   0.010320   0.000000  -0.114410
   15  N  1 YZ    0.000000   0.000000   0.000000   0.000000   0.000000
   16  H  2  S   -0.568083   0.368487   0.638183   0.385969  -0.440908
   17  H  2  S   -0.053486   0.050037   0.086660  -0.852268   1.665045
   18  H  2  X   -0.066639   0.037005   0.053145  -0.079261   0.071599
   19  H  2  Y    0.000000   0.000000   0.000000   0.000000   0.000000
   20  H  2  Z   -0.038474   0.010421   0.037003  -0.045761   0.083997
   21  H  3  S   -0.568083   0.368439  -0.638210   0.385969   0.434084
   22  H  3  S   -0.053486   0.050031  -0.086663  -0.852268  -1.639274
   23  H  3  X    0.066639  -0.037001   0.053148   0.079261   0.069320
   24  H  3  Y    0.000000   0.000000   0.000000   0.000000   0.000000
   25  H  3  Z   -0.038474   0.010418  -0.037003  -0.045761  -0.084725
   26  H  4  S   -0.568083  -0.736926   0.000027   0.385969   0.006824
   27  H  4  S   -0.053486  -0.100068   0.000004  -0.852268  -0.025771
   28  H  4  X   -0.000000  -0.000000  -0.010945   0.000000  -0.075658
   29  H  4  Y    0.000000   0.000000   0.000000   0.000000   0.000000
   30  H  4  Z    0.076948   0.074510  -0.000003   0.091522   0.001610

                     11         12         13         14         15
                    0.1990     0.5406     0.5406     0.6192     0.9667
                     A          A          A          A          A   
    1  N  1  S    0.000000   0.000000   0.000000  -0.000000  -0.742540
    2  N  1  S    0.000000   0.000000   0.000000  -0.000000  -1.540067
    3  N  1  S   -0.000000  -0.000000  -0.000000  -0.000000   3.487176
    4  N  1  X   -0.001315   0.177757  -0.447631  -0.000000  -0.000000
    5  N  1  Y   -0.000000  -0.000000   0.000000  -0.969935  -0.000000
    6  N  1  Z    0.097315  -0.447631  -0.177758  -0.000000  -0.000000
    7  N  1  X    0.010246  -0.690805   1.739592  -0.000000   0.000000
    8  N  1  Y   -0.000000  -0.000000   0.000000   1.094014  -0.000000
    9  N  1  Z   -0.758496   1.739592   0.690805  -0.000000   0.000000
   10  N  1 XX    0.099082   0.017490   0.006945  -0.000000  -0.049216
   11  N  1 YY    0.000000   0.000000   0.000000  -0.000000   0.098431
   12  N  1 ZZ   -0.099082  -0.017490  -0.006945  -0.000000  -0.049216
   13  N  1 XY   -0.000000  -0.000000   0.000000   0.000000  -0.000000
   14  N  1 XZ   -0.001546  -0.008020   0.020196  -0.000000   0.000000
   15  N  1 YZ   -0.000000  -0.000000   0.000000   0.000000  -0.000000
   16  H  2  S    0.246678   0.104058   0.709681  -0.000000  -0.565509
   17  H  2  S   -0.931556   0.128883   0.878990  -0.000000  -0.507545
   18  H  2  X   -0.083409  -0.058509   0.152897  -0.000000  -0.130722
   19  H  2  Y   -0.000000  -0.000000   0.000000  -0.028869  -0.000000
   20  H  2  Z    0.028092   0.149181   0.061448  -0.000000  -0.075472
   21  H  3  S    0.258499   0.562573  -0.444957  -0.000000  -0.565509
   22  H  3  S   -0.976193   0.696786  -0.551111  -0.000000  -0.507545
   23  H  3  X    0.085313  -0.062322   0.151382  -0.000000   0.130722
   24  H  3  Y   -0.000000  -0.000000   0.000000  -0.028869  -0.000000
   25  H  3  Z    0.025812   0.150695   0.057635  -0.000000  -0.075472
   26  H  4  S   -0.505177  -0.666630  -0.264724  -0.000000  -0.565509
   27  H  4  S    1.907749  -0.825669  -0.327879  -0.000000  -0.507545
   28  H  4  X   -0.001022  -0.059104   0.148837  -0.000000   0.000000
   29  H  4  Y   -0.000000  -0.000000   0.000000  -0.028869  -0.000000
   30  H  4  Z   -0.119165   0.153240   0.060853  -0.000000   0.150945

                     16         17         18         19         20
                    1.0077     1.0077     1.2834     1.5682     1.5682
                     A          A          A          A          A   
    1  N  1  S   -0.000000  -0.000000   0.000000  -0.000000   0.000000
    2  N  1  S   -0.000000  -0.000000   0.000000  -0.000000   0.000000
    3  N  1  S   -0.000000  -0.000000  -0.000000  -0.000000   0.000000
    4  N  1  X   -0.000000  -0.000000   0.000000   0.021580  -0.362996
    5  N  1  Y   -0.000000   0.000000  -0.000000   0.000000  -0.000000
    6  N  1  Z   -0.000000  -0.000000   0.000000  -0.362996  -0.021580
    7  N  1  X   -0.000000  -0.000000   0.000000  -0.085338   1.435493
    8  N  1  Y    0.000000  -0.000000  -0.000000   0.000000  -0.000000
    9  N  1  Z   -0.000000  -0.000000  -0.000000   1.435493   0.085338
   10  N  1 XX   -0.000000  -0.000000   0.000000  -0.134518  -0.007997
   11  N  1 YY   -0.000000  -0.000000   0.000000  -0.000000   0.000000
   12  N  1 ZZ   -0.000000  -0.000000  -0.000000   0.134518   0.007997
   13  N  1 XY   -0.275172  -0.143758  -0.000000   0.000000  -0.000000
   14  N  1 XZ   -0.000000  -0.000000  -0.000000   0.009234  -0.155328
   15  N  1 YZ   -0.143758   0.275172  -0.000000   0.000000  -0.000000
   16  H  2  S   -0.000000  -0.000000  -0.000000   0.319823   0.638733
   17  H  2  S   -0.000000  -0.000000   0.000000   0.097305   0.194332
   18  H  2  X   -0.000000  -0.000000  -0.301367   0.204639  -0.448135
   19  H  2  Y    0.669980  -0.028268  -0.000000   0.000000  -0.000000
   20  H  2  Z   -0.000000  -0.000000   0.521983  -0.674034   0.137927
   21  H  3  S   -0.000000  -0.000000   0.000000   0.393247  -0.596342
   22  H  3  S   -0.000000  -0.000000  -0.000000   0.119644  -0.181435
   23  H  3  X   -0.000000  -0.000000  -0.301367  -0.150103  -0.469223
   24  H  3  Y   -0.359471  -0.566086  -0.000000   0.000000  -0.000000
   25  H  3  Z   -0.000000  -0.000000  -0.521983  -0.652945  -0.216814
   26  H  4  S   -0.000000  -0.000000   0.000000  -0.713070  -0.042391
   27  H  4  S   -0.000000  -0.000000   0.000000  -0.216949  -0.012897
   28  H  4  X   -0.000000  -0.000000   0.602734   0.045531  -0.765894
   29  H  4  Y   -0.310509   0.594354  -0.000000   0.000000  -0.000000
   30  H  4  Z   -0.000000  -0.000000   0.000000  -0.356274  -0.021180

                     21         22         23         24         25
                    1.5773     1.7543     2.0382     2.0382     2.1911
                     A          A          A          A          A   
    1  N  1  S   -0.000000   0.335350  -0.000000   0.000000   0.000000
    2  N  1  S   -0.000000   0.733989  -0.000000   0.000000   0.000000
    3  N  1  S   -0.000000   0.084752   0.000000  -0.000000   0.000000
    4  N  1  X   -0.000000   0.000000   0.046385   0.562223   0.000000
    5  N  1  Y   -0.117607   0.000000   0.000000  -0.000000  -0.000000
    6  N  1  Z   -0.000000   0.000000   0.562222  -0.046385   0.000000
    7  N  1  X   -0.000000  -0.000000   0.094493   1.145328   0.000000
    8  N  1  Y   -0.675150   0.000000   0.000000  -0.000000  -0.000000
    9  N  1  Z   -0.000000   0.000000   1.145328  -0.094493   0.000000
   10  N  1 XX   -0.000000  -0.247590   0.187893  -0.015502   0.000000
   11  N  1 YY   -0.000000   0.495180  -0.000000   0.000000   0.000000
   12  N  1 ZZ   -0.000000  -0.247590  -0.187893   0.015502   0.000000
   13  N  1 XY    0.000000   0.000000   0.000000  -0.000000  -0.035676
   14  N  1 XZ   -0.000000   0.000000   0.017900   0.216960   0.000000
   15  N  1 YZ   -0.000000   0.000000   0.000000  -0.000000   1.092098
   16  H  2  S   -0.000000   0.107004   0.278304   0.401675   0.000000
   17  H  2  S   -0.000000  -0.139506   0.405314   0.584990   0.000000
   18  H  2  X   -0.000000  -0.489497   0.738371   0.486357   0.000000
   19  H  2  Y    0.702703   0.000000   0.000000  -0.000000   0.307209
   20  H  2  Z   -0.000000  -0.282612  -0.200020   0.714747   0.000000
   21  H  3  S   -0.000000   0.107004   0.208709  -0.441856   0.000000
   22  H  3  S   -0.000000  -0.139506   0.303959  -0.643508   0.000000
   23  H  3  X   -0.000000   0.489497  -0.648678   0.600793   0.000000
   24  H  3  Y    0.702704   0.000000   0.000000  -0.000000   0.344059
   25  H  3  Z   -0.000000  -0.282612  -0.314456  -0.672301   0.000000
   26  H  4  S   -0.000000   0.107004  -0.487013   0.040180   0.000000
   27  H  4  S   -0.000000  -0.139506  -0.709274   0.058517   0.000000
   28  H  4  X   -0.000000   0.000000  -0.054258  -0.657644   0.000000
   29  H  4  Y    0.702703   0.000000   0.000000  -0.000000  -0.651267
   30  H  4  Z   -0.000000   0.565223   0.943981  -0.077882   0.000000

                     26         27         28         29
                    2.1911     2.7188     2.7820     2.7820
                     A          A          A          A   
    1  N  1  S   -0.000000   0.056109  -0.000000   0.000000
    2  N  1  S   -0.000000   0.306613  -0.000000   0.000000
    3  N  1  S   -0.000000   2.736187  -0.000000   0.000003
    4  N  1  X   -0.000000   0.000000  -0.620949  -0.070845
    5  N  1  Y    0.000000  -0.000000  -0.000000   0.000000
    6  N  1  Z   -0.000000   0.000000   0.070845  -0.620948
    7  N  1  X   -0.000000   0.000000  -0.998390  -0.113909
    8  N  1  Y   -0.000000  -0.000000  -0.000000   0.000000
    9  N  1  Z   -0.000000   0.000001   0.113909  -0.998390
   10  N  1 XX   -0.000000   0.623101  -0.146865   1.287249
   11  N  1 YY   -0.000000  -1.246205   0.000000  -0.000001
   12  N  1 ZZ   -0.000000   0.623104   0.146865  -1.287248
   13  N  1 XY    1.092098  -0.000000  -0.000000   0.000000
   14  N  1 XZ   -0.000000  -0.000000   1.486387   0.169585
   15  N  1 YZ    0.035676  -0.000000  -0.000000   0.000000
   16  H  2  S   -0.000000  -1.007633  -0.961687  -0.711842
   17  H  2  S   -0.000000  -0.305402  -0.305607  -0.226211
   18  H  2  X   -0.000000  -0.777637  -0.768275  -0.373412
   19  H  2  Y    0.574652  -0.000000  -0.000000   0.000000
   20  H  2  Z   -0.000000  -0.448969  -0.227921  -0.506920
   21  H  3  S   -0.000000  -1.007633   1.097316  -0.476926
   22  H  3  S   -0.000000  -0.305402   0.348707  -0.151558
   23  H  3  X   -0.000000   0.777638  -0.832643   0.190759
   24  H  3  Y   -0.553377  -0.000000  -0.000000   0.000000
   25  H  3  Z   -0.000000  -0.448969   0.336248  -0.442552
   26  H  4  S   -0.000000  -1.007635  -0.135629   1.188765
   27  H  4  S   -0.000000  -0.305403  -0.043100   0.377768
   28  H  4  X   -0.000000   0.000000  -0.311874  -0.035582
   29  H  4  Y   -0.021275  -0.000000  -0.000000   0.000000
   30  H  4  Z   -0.000000   0.897940   0.109907  -0.963320
 .....DONE WITH MCSCF ITERATIONS.....
 CPU     0: STEP CPU TIME=     0.82 TOTAL CPU TIME=          1.7 (      0.0 MIN)
 TOTAL WALL CLOCK TIME=          2.2 SECONDS, CPU UTILIZATION IS    75.45%

     ----------------------------------------------------------------
     PROPERTY VALUES FOR THE MCSCF SELF-CONSISTENT FIELD WAVEFUNCTION
     ----------------------------------------------------------------

          -----------------
          ENERGY COMPONENTS
          -----------------

         WAVEFUNCTION NORMALIZATION =       1.0000000000

                ONE ELECTRON ENERGY =     -94.8816941417
                TWO ELECTRON ENERGY =      27.4443008592
           NUCLEAR REPULSION ENERGY =      11.6798117042
                                      ------------------
                       TOTAL ENERGY =     -55.7575815783

 ELECTRON-ELECTRON POTENTIAL ENERGY =      27.4443008592
  NUCLEUS-ELECTRON POTENTIAL ENERGY =    -150.7469259276
   NUCLEUS-NUCLEUS POTENTIAL ENERGY =      11.6798117042
                                      ------------------
             TOTAL POTENTIAL ENERGY =    -111.6228133643
               TOTAL KINETIC ENERGY =      55.8652317859
                 VIRIAL RATIO (V/T) =       1.9980730375

          ---------------------------------------
          MULLIKEN AND LOWDIN POPULATION ANALYSES
          ---------------------------------------

     ATOMIC MULLIKEN POPULATION IN EACH MOLECULAR ORBITAL

                      1          2          3          4          5

                  2.000000   1.985060   1.662917   1.650042   1.650042

    1             2.000701   1.376767   1.620924   0.955028   0.955028
    2            -0.000234   0.202764   0.013998   0.358015   0.105328
    3            -0.000234   0.202764   0.013998   0.329748   0.133594
    4            -0.000234   0.202764   0.013998   0.007251   0.456092

                      6          7          8

                  0.018793   0.016573   0.016573

    1             0.008218   0.009053   0.009053
    2             0.003525   0.001441   0.003572
    3             0.003525   0.001052   0.003961
    4             0.003525   0.005027  -0.000013
 WARNING! MCSCF POPULATIONS SHOWN ABOVE ARE FOR THE NATURAL ORBITALS.
 IGNORE THE ABOVE DATA FOR MCSCF FUNCTIONS WHICH ARE NOT OF -FORS- TYPE.
 THE FOLLOWING POPULATIONS ARE CORRECT FOR ANY MCSCF WAVEFUNCTION.

               ----- POPULATIONS IN EACH AO -----
                             MULLIKEN      LOWDIN
              1  N  1  S      2.00281     1.89165
              2  N  1  S      0.77909     0.54331
              3  N  1  S      0.60289     0.36510
              4  N  1  X      0.68110     0.60200
              5  N  1  Y      0.98206     0.92825
              6  N  1  Z      0.68110     0.60121
              7  N  1  X      0.27925     0.38566
              8  N  1  Y      0.63887     0.61033
              9  N  1  Z      0.27925     0.38511
             10  N  1 XX      0.00302     0.17525
             11  N  1 YY      0.00161     0.11857
             12  N  1 ZZ      0.00000     0.17525
             13  N  1 XY      0.00373    -0.00000
             14  N  1 XZ      0.00000     0.01466
             15  N  1 YZ      0.00000     0.00000
             16  H  2  S      0.60038     0.46829
             17  H  2  S      0.02875     0.14397
             18  H  2  X      0.03064     0.05294
             19  H  2  Y      0.01400     0.04144
             20  H  2  Z      0.01464     0.02698
             21  H  3  S      0.60038     0.46829
             22  H  3  S      0.02875     0.14397
             23  H  3  X      0.03064     0.05294
             24  H  3  Y      0.01400     0.04144
             25  H  3  Z      0.01464     0.02698
             26  H  4  S      0.60038     0.47021
             27  H  4  S      0.02875     0.14406
             28  H  4  X      0.00663     0.01427
             29  H  4  Y      0.01400     0.04144
             30  H  4  Z      0.03864     0.06640

          ----- MULLIKEN ATOMIC OVERLAP POPULATIONS -----
          (OFF-DIAGONAL ELEMENTS NEED TO BE MULTIPLIED BY 2)

             1           2           3           4

    1    5.9296589
    2    0.3350378   0.3709336
    3    0.3350379  -0.0087812   0.3709337
    4    0.3350378  -0.0087812  -0.0087812   0.3709336

          TOTAL MULLIKEN AND LOWDIN ATOMIC POPULATIONS
       ATOM         MULL.POP.    CHARGE          LOW.POP.     CHARGE
    1 N             6.934773    0.065227         6.796359    0.203641
    2 H             0.688409    0.311591         0.733630    0.266370
    3 H             0.688409    0.311591         0.733630    0.266370
    4 H             0.688409    0.311591         0.736381    0.263619

          MULLIKEN SPHERICAL HARMONIC POPULATIONS
       ATOM           S       P       D      F      G      H      I    TOTAL
    1 N             3.38    3.54    0.01   0.00   0.00   0.00   0.00    6.93
    2 H             0.63    0.06    0.00   0.00   0.00   0.00   0.00    0.69
    3 H             0.63    0.06    0.00   0.00   0.00   0.00   0.00    0.69
    4 H             0.63    0.06    0.00   0.00   0.00   0.00   0.00    0.69

          ---------------------
          ELECTROSTATIC MOMENTS
          ---------------------

 POINT   1           X           Y           Z (BOHR)    CHARGE
                 0.000000    0.000000   -0.000000        1.00 (A.U.)
         DX          DY          DZ         /D/  (DEBYE)
    -0.000000    0.000000   -0.000000    0.000000
 ...... END OF PROPERTY EVALUATION ......
 CPU     0: STEP CPU TIME=     0.01 TOTAL CPU TIME=          1.7 (      0.0 MIN)
 TOTAL WALL CLOCK TIME=          2.3 SECONDS, CPU UTILIZATION IS    75.22%

     -------------------------------------------------
     GMC-PT/GMC-QDPT or general MCSCF input parameters
     -------------------------------------------------
 # of frozen core orbs. =         0 ->         0
 # of doubly occ. orbs. =         1
 # of active      orbs. =         7
 # of virtual     orbs. =        21
 # of active electrons  =         7
 # of states in CI      =         3
 Highest state in CI    =         3
 kstate =  1 1 1
 avecoe =  0.333 0.333 0.333
 State symmetry           = A           
 Assigned symmetry number = 1

 <<<Act. MO sym.: 1111111

 <<<Division of 1-ext.:  0 0
 <<<Division of 2-ext.:  0 1

     ------------------------
     Orbital canonicalization
     ------------------------

 MOs are canonicalized for core, virtual, and invariant-active orbital spaces.
 This is a part of the GMC-QDPT calculation.
 SCHWARZ INEQUALITY OVERHEAD:       465 INTEGRALS, T=        0.00
 DIRECT TRANSFORMATION SKIPS AO INTEGRAL STORAGE ON DISK.

 Averaged energy =     -55.757581578

 State #    1  Energy =     -55.949960399  S =  0.500
 State #    2  Energy =     -55.661392177  S =  0.500
 State #    3  Energy =     -55.661392159  S =  0.500

 Orbital energies for filled orbital space
  -15.969361
 Orbital energies for active orbital space
   -1.501248  -0.958022  -0.958022  -0.716630   0.343465
    0.452317   0.452317
 Orbital energies for external orbital space
    0.151924   0.198951   0.198951   0.540628   0.540628
    0.619191   0.966658   1.007694   1.007694   1.283418
    1.568191   1.568191   1.577275   1.754337   2.038176
    2.038176   2.191133   2.191133   2.718812   2.781995
    2.781995

 Zero values mean non-canonical orbitals.
 ... done with orbital canonicalization ...
 CPU     0: STEP CPU TIME=     0.81 TOTAL CPU TIME=          2.5 (      0.0 MIN)
 TOTAL WALL CLOCK TIME=          3.3 SECONDS, CPU UTILIZATION IS    76.52%

     --------------------------------------------
     PARTIAL TWO ELECTRON INTEGRAL TRANSFORMATION
     --------------------------------------------

 NUMBER OF CORE MOLECULAR ORBITALS     =    0
 NUMBER OF OCCUPIED MOLECULAR ORBITALS =    8
 TOTAL NUMBER OF MOLECULAR ORBITALS    =   29
 TOTAL NUMBER OF ATOMIC ORBITALS       =   30
 THRESHOLD FOR KEEPING TRANSFORMED 2E- INTEGRALS = 1.000E-09
 AO INTEGRALS WILL BE CALCULATED IN DIRECT MODE...
 DIRECT TRANSFORMATION SKIPS AO INTEGRAL STORAGE ON DISK.
 SCHWARZ INEQUALITY OVERHEAD:       465 INTEGRALS, T=        0.00

 PLAN A: REQUIREMENTS FOR FULLY IN-MEMORY TRANSFORMATION:
 # OF WORDS AVAILABLE =            250000000
 # OF WORDS NEEDED    =               221799

 PARALLEL ONLY WORKS WITH THE SEGMENTED ALGORITHM.
 ADJUSTING MEMORY TO USE SEGMENTED ALGORITHM.


 PLAN B: REQUIREMENTS FOR THE SEGMENTED TRANSFORMATION:
       MINIMUM=         124149 WORDS FOR 1 MOLECULAR ORBITAL PER PASS
       MAXIMUM=         165999 WORDS FOR ALL MOLECULAR ORBITALS IN 1 PASS
              (          13950 EXTRA WORDS INCLUDES 1 EXTRA ORBITAL/PASS)
 THIS RUN USES=         165999 WORDS,
 DISTRIBUTING   2 PASSES EACH CONTAINING     4 ORBITALS OVER   2 PROCESSORS.

 CHOOSING SEGMENTED PARTIAL TRANSFORMATION...
 DIRECT TRANSFORMATION SKIPS AO INTEGRAL STORAGE ON DISK.
 PASS #   1 TOOK        0.08 SECONDS.
 ASSIGNING PASS #   2 TO A DIFFERENT PROCESSOR.
 TOTAL NUMBER OF TRANSFORMED 2E- INTEGRALS KEPT =        14901
 ... END OF INTEGRAL TRANSFORMATION ...
 CPU     0: STEP CPU TIME=     0.08 TOTAL CPU TIME=          2.6 (      0.0 MIN)
 TOTAL WALL CLOCK TIME=          3.4 SECONDS, CPU UTILIZATION IS    76.85%

     --------     ------------------------------------------
     GMC-QDPT     Program written by H.Nakano (Kyushu Univ.)
     --------     ------------------------------------------

 *** Reference space

 Reference type: ORMAS (= Occupation restricted multiple active space)
 # of orbitals          =  7
 # of minimum electrons =  7
 # of maximum electrons =  7
 State symmetry    =    1 (input)
 2*Sz              =    1 (input)
 Spin multiplicity =    2 (input)
 Dimension of reference space =      1225  (from      3432 walks)

 Dimension of reference space =      1225  (from      1225 walks)

 <<<Ionized spaces for Ref-CI:
      0:         1225 /   -1-0:         1960 /  0-1-0:         2891

 ***                    ***
 *** Reference space CI ***
 ***                    ***

 Converged after   46 iterations

 Reference wavefunctions:

 State #    1  Energy =     -55.949960399  S =  0.500

      Det      Coef    Occupancy (Ignoring core)
      ---      ----    --------- --------- -----
        1   -0.981652  11110001110000
      107    0.050491  11101000111000
      357   -0.066804  11010101100010
      753   -0.066804  10110011010001

 State #    2  Energy =     -55.661392177  S =  0.500

      Det      Coef    Occupancy (Ignoring core)
      ---      ----    --------- --------- -----
       36   -0.948874  11110001101000
       71   -0.268724  11110001011000
      823   -0.061860  10110011001001

 State #    3  Energy =     -55.661392159  S =  0.500

      Det      Coef    Occupancy (Ignoring core)
      ---      ----    --------- --------- -----
       36    0.268724  11110001101000
       71   -0.948874  11110001011000
      462    0.061860  11010101001010

 Davidson method: CPU/Wall time =           0.69 /           0.88 sec.

 Oscillator strength (invalid if E(1)/=E(GS)):
 -----------------------------------------
   State                        f
 -----------------------------------------
     2     F(REF-CI)=        0.0000000000
     3     F(REF-CI)=        0.0000000000
 -----------------------------------------

 Dipole moment matrix elements, x, y, z, in A.U.

 Dimension of ionized spaces for PT:
 (N-2) space:         1715 /  (N-1) space:         2842 /  N space:         2891
 (N+1) space:         2842 /  (N+2) space:         1715

 <<<Ionized spaces for internal:
         0:         1225 /      -1-0:         1960 /     0-1-0:         2891
  -1-0-1-0:         2842 / 0-1-0-1-0:         3381

 Diagonal elements of averaged one-particle density matrix:
       2       3       4       5       6       7       8
  0.9943  0.9894  0.9894  0.9967  0.0107  0.0097  0.0097
  0.9907  0.6604  0.6604  0.6662  0.0081  0.0071  0.0071

 Orbital energies:
 -------- Doubly-occupied orbitals (highest several orbs.) -------
             1
 -1.596936D+01
 -------- Active orbitals ----------------------------------------
             2            3            4            5            6
 -1.501248D+00-9.580219D-01-9.580219D-01-7.166300D-01 3.434653D-01
             7            8
  4.523165D-01 4.523166D-01
 -------- External orbitals (lowest several orbs.) ---------------
             9           10           11           12           13
  1.519241D-01 1.989507D-01 1.989508D-01 5.406284D-01 5.406284D-01
            14           15           16           17           18
  6.191906D-01 9.666578D-01 1.007694D+00 1.007694D+00 1.283418D+00

 *** Quasi-degeneracy checking

 === Det (|Ci| > 1.0D-01 and dE < 5.0D-03)

 # of small denominators (single excitations)
 State       dEmin  dE < 5.0D-03  dE < 5.0D-04  dE < 5.0D-05  dE < 5.0D-06
 ----- ----------- ------------- ------------- ------------- -------------
     1    5.00D-03             0             0             0             0
     2    5.00D-03             0             0             0             0
     3    5.00D-03             0             0             0             0

 # of small denominators (double excitations)
 State       dEmin  dE < 5.0D-03  dE < 5.0D-04  dE < 5.0D-05  dE < 5.0D-06
 ----- ----------- ------------- ------------- ------------- -------------
     1    5.00D-03             0             0             0             0
     2    5.00D-03             0             0             0             0
     3    5.00D-03             0             0             0             0

 *** Zeroth-Order Setup (Granovsky's zeroth-order vectors)
 Zeroth-order effective Hamiltonian
  (= Sum_i e(i)*<I|a+(i)a(i)|J> ):
                   1            2            3
     1 -7.453634D+00
     2  5.697991D-14-7.240004D+00
     3  3.904313D-14 7.375885D-09-7.240004D+00

 Zeroth-order vectors:
 State #    1
       MC st            1           2           2
       Coeff    1.000D+00   0.000D+00   0.000D+00
 State #    2
       MC st            2           3           1
       Coeff   -9.686D-01   2.488D-01   0.000D+00
 State #    3
       MC st            3           2           1
       Coeff    9.686D-01   2.488D-01   0.000D+00

 *** GMC-QDPT computation

 (Integral reading:  CPU/Wall time =           0.00 /           0.00 sec.)

 One-external:
   0 -ionized terms: CPU/Wall time =           0.03 /           0.03 sec.
 (-1)-ionized terms: CPU/Wall time =           0.09 /           0.09 sec.
 (+1)-ionized terms: CPU/Wall time =           0.03 /           0.02 sec.
 (+1)-ionized terms: CPU/Wall time =           0.00 /           0.01 sec.
 (+2)-ionized terms: CPU/Wall time =           0.00 /           0.00 sec.

 Internal:
 # of macro loops for internal contribution =         1 (input)
 Loop:    1
 Dimension of internal CISD space     =         0  (after screening)
 Space construction: CPU/Wall time =           0.04 /           0.04 sec.
 Internal terms:     CPU/Wall time =           0.00 /           0.00 sec.

 Two-external:
   0 -ionized terms: CPU/Wall time =           0.01 /           0.02 sec.
 (-1)-ionized terms: CPU/Wall time =           0.24 /           0.23 sec.
 (-2)-ionized terms: CPU/Wall time =           0.16 /           0.17 sec.

 Total time:         CPU/Wall time =           0.60 /           0.61 sec.

 ***                  ***
 *** GMC-QDPT Results ***
 ***                  ***

 Diagonal elements of effective Hamiltonian:
 Heff(  1) =   -56.04462445
 Heff(  2) =   -55.77937826
 Heff(  3) =   -55.77937824

 Off-diagonal elements of effective Hamiltonian:
                   1            2
     2 -2.029210D-15
     3  1.889490D-15-7.209511D-10

 ******** GMC-QDPT energies ********
 ----------------------------------------------------------------------------
   State                        1st order                           2nd order
 ----------------------------------------------------------------------------
     1     E(REF-CI)=      -55.9499603989   E(GMC-QDPT2)=      -56.0446244460
     2     E(REF-CI)=      -55.6613921771   E(GMC-QDPT2)=      -55.7793782603
     3     E(REF-CI)=      -55.6613921590   E(GMC-QDPT2)=      -55.7793782433
 ----------------------------------------------------------------------------

 Excitation energies (invalid if E(1)/=E(GS)):
 ----------------------------------------------------------------------------
   State                        1st order                           2nd order
 ----------------------------------------------------------------------------

     TZ Sorted GMC-PT ENERGIES:
         1      -56.0446244460
         2      -55.7793782603
         3      -55.7793782433
     2     E(REF-CI)=        7.8523453 eV   E(GMC-QDPT2)=        7.2177201 eV
     3     E(REF-CI)=        7.8523458 eV   E(GMC-QDPT2)=        7.2177205 eV
 ----------------------------------------------------------------------------

 Main characters of perturbed GMC-QDPT states:

 State #    1  Energy =     -56.044624446  S =  0.500

      Det      Coef    Occupancy (Ignoring core)
      ---      ----    --------- --------- -----
        1   -0.981652  11110001110000
      107    0.050491  11101000111000
      357   -0.066804  11010101100010
      753   -0.066804  10110011010001

 State #    2  Energy =     -55.779378260  S =  0.500

      Det      Coef    Occupancy (Ignoring core)
      ---      ----    --------- --------- -----
       36   -0.986038  11110001101000
      823   -0.065748  10110011001001

 State #    3  Energy =     -55.779378243  S =  0.500

      Det      Coef    Occupancy (Ignoring core)
      ---      ----    --------- --------- -----
       71   -0.986038  11110001011000
      462    0.065748  11010101001010

 <<<Max |V/de| = 4.918D-02  Thresh = 1.000D+00

 Oscillator strength (invalid if E(1)/=E(GS)):
 ----------------------------------------------------------------------------
   State                        1st order                           2nd order
 ----------------------------------------------------------------------------
     2     F(REF-CI)=        0.0000000000     F(GMC-PT2)=        0.0000000000
     3     F(REF-CI)=        0.0000000000     F(GMC-PT2)=        0.0000000000
 ----------------------------------------------------------------------------

 Dipole moment matrix elements, x, y, z, in A.U.
States    1    1        0.0000001404       -0.0000000000        0.0000002867
States    1    2        0.0000000000        0.0000000260        0.0000000000
States    1    3        0.0000000000       -0.0000000268        0.0000000000
States    2    1        0.0000000000        0.0000000260        0.0000000000
States    2    2       -0.0252427902        0.0000000000       -0.2876979427
States    2    3       -0.2876981115       -0.0000000000        0.0252428980
States    3    1        0.0000000000       -0.0000000268        0.0000000000
States    3    2       -0.2876981115       -0.0000000000        0.0252428980
States    3    3        0.0252429325       -0.0000000000        0.2876983329

 Oscillator strength (valid only when positive): 
 ----------------------------------------------------------------------------
  States                        1st order                           2nd order
 ----------------------------------------------------------------------------
  1  1     F(REF-CI)=        0.0000000000     F(GMC-PT2)=        0.0000000000
  1  2     F(REF-CI)=       -0.0000000000     F(GMC-PT2)=       -0.0000000000
  1  3     F(REF-CI)=       -0.0000000000     F(GMC-PT2)=       -0.0000000000
  2  1     F(REF-CI)=        0.0000000000     F(GMC-PT2)=        0.0000000000
  2  2     F(REF-CI)=        0.0000000000     F(GMC-PT2)=        0.0000000000
  2  3     F(REF-CI)=       -0.0000000010     F(GMC-PT2)=       -0.0000000010
  3  1     F(REF-CI)=        0.0000000000     F(GMC-PT2)=        0.0000000000
  3  2     F(REF-CI)=        0.0000000010     F(GMC-PT2)=        0.0000000010
  3  3     F(REF-CI)=        0.0000000000     F(GMC-PT2)=        0.0000000000
 CPU     0: STEP CPU TIME=     1.41 TOTAL CPU TIME=          4.0 (      0.1 MIN)
 TOTAL WALL CLOCK TIME=          5.0 SECONDS, CPU UTILIZATION IS    79.52%

     !!! DIABATIZATION FOR REF CI STATES !!!

 *******************************************************
          $DMO GROUP FOUND IN THE INPUT.
        DIABATIZATION OF ADIABATIC STATES BEGINS.
     PROGRAMMED BY TAO ZENG (CARLETON UNIVERSITY).
               Email: toby.zeng@carleton.ca
     See T. Zeng, J. Chem. Phys. 2017, 146, 144103
 *******************************************************

 *************************************************************************
     STEP 1: TRANSFORMATION OF ADIABATIC STATES TO THE DMO REPRESENTATION
         See Atchity and Ruedenberg, J. Chem. Phys. 1999, 111, 2910
 *************************************************************************

Read in Diabatic Molecualr Orbitals:

                      1          2          3          4          5

    1  N  1  S    0.001136   0.000000   0.000000  -0.000000   0.328646
    2  N  1  S    0.447934   0.000000   0.000000  -0.000000   1.032363
    3  N  1  S    0.325192   0.000000   0.000000  -0.000000   0.117456
    4  N  1  X   -0.000000   0.484055   0.000014  -0.000000   0.000000
    5  N  1  Y   -0.000000   0.000000   0.000000   0.650430   0.000000
    6  N  1  Z   -0.000000  -0.000014   0.484055  -0.000000   0.000000
    7  N  1  X   -0.000000   0.198847   0.000006  -0.000000   0.000000
    8  N  1  Y   -0.000000   0.000000   0.000000   0.462852   0.000000
    9  N  1  Z    0.000000  -0.000006   0.198847  -0.000000   0.000000
   10  N  1 XX    0.001197   0.000000  -0.011457  -0.000000  -0.029572
   11  N  1 YY   -0.002393   0.000000   0.000000  -0.000000   0.059145
   12  N  1 ZZ    0.001197  -0.000000   0.011457  -0.000000  -0.029572
   13  N  1 XY   -0.000000   0.000000   0.000000  -0.000000   0.000000
   14  N  1 XZ   -0.000000  -0.013229  -0.000000  -0.000000   0.000000
   15  N  1 YZ   -0.000000   0.000000   0.000000   0.000000   0.000000
   16  H  2  S    0.178419  -0.337359  -0.194787  -0.000000  -0.568083
   17  H  2  S    0.001730  -0.038813  -0.022410  -0.000000  -0.053486
   18  H  2  X    0.031287  -0.025826  -0.025808  -0.000000  -0.066639
   19  H  2  Y   -0.000000   0.000000   0.000000   0.026597   0.000000
   20  H  2  Z    0.018064  -0.025808   0.003973  -0.000000  -0.038474
   21  H  3  S    0.178419   0.337370  -0.194768  -0.000000  -0.568083
   22  H  3  S    0.001730   0.038814  -0.022408  -0.000000  -0.053486
   23  H  3  X   -0.031287  -0.025828   0.025807  -0.000000   0.066639
   24  H  3  Y   -0.000000   0.000000   0.000000   0.026597   0.000000
   25  H  3  Z    0.018064   0.025808   0.003974  -0.000000  -0.038474
   26  H  4  S    0.178419  -0.000011   0.389555  -0.000000  -0.568083
   27  H  4  S    0.001730  -0.000001   0.044818  -0.000000  -0.053486
   28  H  4  X   -0.000000   0.018873   0.000001  -0.000000   0.000000
   29  H  4  Y   -0.000000   0.000000   0.000000   0.026597   0.000000
   30  H  4  Z   -0.036128   0.000001  -0.040727  -0.000000   0.076948

                      6          7

    1  N  1  S    0.000000   0.000000
    2  N  1  S    0.000000   0.000000
    3  N  1  S    0.000000   0.000000
    4  N  1  X   -0.000037   0.983147
    5  N  1  Y   -0.000000   0.000000
    6  N  1  Z   -0.983147  -0.000037
    7  N  1  X   -0.000001   0.022204
    8  N  1  Y   -0.000000   0.000000
    9  N  1  Z   -0.022204  -0.000001
   10  N  1 XX   -0.008937  -0.000000
   11  N  1 YY    0.000000   0.000000
   12  N  1 ZZ    0.008937   0.000000
   13  N  1 XY   -0.000000   0.000000
   14  N  1 XZ   -0.000000   0.010320
   15  N  1 YZ   -0.000000   0.000000
   16  H  2  S   -0.368487   0.638183
   17  H  2  S   -0.050037   0.086660
   18  H  2  X   -0.037005   0.053145
   19  H  2  Y   -0.000000   0.000000
   20  H  2  Z   -0.010421   0.037003
   21  H  3  S   -0.368439  -0.638210
   22  H  3  S   -0.050031  -0.086663
   23  H  3  X    0.037001   0.053148
   24  H  3  Y   -0.000000   0.000000
   25  H  3  Z   -0.010418  -0.037003
   26  H  4  S    0.736926   0.000027
   27  H  4  S    0.100068   0.000004
   28  H  4  X    0.000000  -0.010945
   29  H  4  Y   -0.000000   0.000000
   30  H  4  Z   -0.074510  -0.000003

NUMBER OF SUB ACTIVE SPACES:   1
ROTATE ACTIVE MOS TO DMOS IN EACH SUB-SPACE

SPACE  1:

OVERLAP BETWEEN ORTHONORMAL AND PRE-ORTHONORMAL REF. DMOS

             1           2           3           4           5

    1    1.0000000   0.0000000   0.0000000   0.0000000  -0.0000000
    2    0.0000000   1.0000000  -0.0000000   0.0000000  -0.0000000
    3    0.0000000  -0.0000000   1.0000000   0.0000000   0.0000000
    4    0.0000000   0.0000000   0.0000000   1.0000000   0.0000000
    5   -0.0000000  -0.0000000   0.0000000   0.0000000   1.0000000
    6   -0.0000000   0.0000000  -0.0000000   0.0000000   0.0000000
    7    0.0000000   0.0000000   0.0000000   0.0000000  -0.0000000

             6           7

    1   -0.0000000   0.0000000
    2    0.0000000   0.0000000
    3   -0.0000000   0.0000000
    4    0.0000000   0.0000000
    5    0.0000000  -0.0000000
    6    1.0000000  -0.0000000
    7   -0.0000000   1.0000000
REFERENCE DMOS AFTER ORTHONORMALIZATION:

                      1          2          3          4          5

    1  N  1  S    0.001136  -0.000000   0.000000   0.000000   0.328646
    2  N  1  S    0.447934   0.000000   0.000000   0.000000   1.032363
    3  N  1  S    0.325192  -0.000000   0.000000   0.000000   0.117456
    4  N  1  X   -0.000000   0.484055   0.000014   0.000000   0.000000
    5  N  1  Y    0.000000   0.000000   0.000000   0.650430   0.000000
    6  N  1  Z   -0.000000  -0.000014   0.484055   0.000000   0.000000
    7  N  1  X   -0.000000   0.198847   0.000006   0.000000   0.000000
    8  N  1  Y    0.000000   0.000000   0.000000   0.462852   0.000000
    9  N  1  Z    0.000000  -0.000006   0.198847   0.000000   0.000000
   10  N  1 XX    0.001197   0.000000  -0.011457   0.000000  -0.029572
   11  N  1 YY   -0.002393  -0.000000   0.000000   0.000000   0.059145
   12  N  1 ZZ    0.001197  -0.000000   0.011457   0.000000  -0.029572
   13  N  1 XY    0.000000   0.000000   0.000000   0.000000   0.000000
   14  N  1 XZ   -0.000000  -0.013229  -0.000000   0.000000   0.000000
   15  N  1 YZ    0.000000   0.000000   0.000000   0.000000   0.000000
   16  H  2  S    0.178419  -0.337359  -0.194787   0.000000  -0.568083
   17  H  2  S    0.001730  -0.038813  -0.022410   0.000000  -0.053486
   18  H  2  X    0.031287  -0.025826  -0.025808   0.000000  -0.066639
   19  H  2  Y    0.000000   0.000000   0.000000   0.026597   0.000000
   20  H  2  Z    0.018064  -0.025808   0.003973   0.000000  -0.038474
   21  H  3  S    0.178419   0.337370  -0.194768   0.000000  -0.568083
   22  H  3  S    0.001730   0.038814  -0.022408   0.000000  -0.053486
   23  H  3  X   -0.031287  -0.025828   0.025807   0.000000   0.066639
   24  H  3  Y    0.000000   0.000000   0.000000   0.026597   0.000000
   25  H  3  Z    0.018064   0.025808   0.003974   0.000000  -0.038474
   26  H  4  S    0.178419  -0.000011   0.389555   0.000000  -0.568083
   27  H  4  S    0.001730  -0.000001   0.044818   0.000000  -0.053486
   28  H  4  X    0.000000   0.018873   0.000001   0.000000  -0.000000
   29  H  4  Y    0.000000   0.000000   0.000000   0.026597   0.000000
   30  H  4  Z   -0.036128   0.000001  -0.040727   0.000000   0.076948

                      6          7

    1  N  1  S    0.000000  -0.000000
    2  N  1  S    0.000000  -0.000000
    3  N  1  S    0.000000  -0.000000
    4  N  1  X   -0.000037   0.983147
    5  N  1  Y    0.000000   0.000000
    6  N  1  Z   -0.983147  -0.000037
    7  N  1  X   -0.000001   0.022204
    8  N  1  Y    0.000000   0.000000
    9  N  1  Z   -0.022204  -0.000001
   10  N  1 XX   -0.008937  -0.000000
   11  N  1 YY    0.000000   0.000000
   12  N  1 ZZ    0.008937   0.000000
   13  N  1 XY    0.000000   0.000000
   14  N  1 XZ   -0.000000   0.010320
   15  N  1 YZ    0.000000   0.000000
   16  H  2  S   -0.368487   0.638183
   17  H  2  S   -0.050037   0.086660
   18  H  2  X   -0.037005   0.053145
   19  H  2  Y    0.000000   0.000000
   20  H  2  Z   -0.010421   0.037003
   21  H  3  S   -0.368439  -0.638210
   22  H  3  S   -0.050031  -0.086663
   23  H  3  X    0.037001   0.053148
   24  H  3  Y    0.000000   0.000000
   25  H  3  Z   -0.010418  -0.037003
   26  H  4  S    0.736926   0.000027
   27  H  4  S    0.100068   0.000004
   28  H  4  X    0.000000  -0.010945
   29  H  4  Y    0.000000   0.000000
   30  H  4  Z   -0.074510  -0.000003

 -------------------------------------------
       MAXIMIZING MORMO OVERLAP TERM        
 -------------------------------------------
   SWEEP    VALUE       PROGRESS
     0     6.99044
     1     7.00000     0.00955989
     2     7.00000     0.00000000
 THE ROTATION IS DONE
FLIPPING SIGN FOR ORBITAL   6
ACTIVE ORBITALS AFTER MORMO:

                      1          2          3          4          5

    1  N  1  S    0.001136  -0.000000   0.000000   0.000000   0.328646
    2  N  1  S    0.447934  -0.000000   0.000000   0.000000   1.032363
    3  N  1  S    0.325192  -0.000000   0.000000   0.000000   0.117455
    4  N  1  X   -0.000000   0.484055   0.000014   0.000000  -0.000000
    5  N  1  Y    0.000000   0.000000   0.000000   0.650430   0.000000
    6  N  1  Z   -0.000000  -0.000014   0.484055   0.000000   0.000000
    7  N  1  X   -0.000000   0.198847   0.000006   0.000000  -0.000000
    8  N  1  Y    0.000000   0.000000   0.000000   0.462852   0.000000
    9  N  1  Z   -0.000000  -0.000006   0.198847   0.000000  -0.000000
   10  N  1 XX    0.001197   0.000000  -0.011457   0.000000  -0.029572
   11  N  1 YY   -0.002393  -0.000000   0.000000   0.000000   0.059145
   12  N  1 ZZ    0.001197  -0.000000   0.011457   0.000000  -0.029572
   13  N  1 XY    0.000000   0.000000   0.000000   0.000000   0.000000
   14  N  1 XZ   -0.000000  -0.013229  -0.000000   0.000000   0.000000
   15  N  1 YZ    0.000000   0.000000   0.000000   0.000000   0.000000
   16  H  2  S    0.178419  -0.337359  -0.194787   0.000000  -0.568083
   17  H  2  S    0.001730  -0.038813  -0.022410   0.000000  -0.053486
   18  H  2  X    0.031287  -0.025826  -0.025808   0.000000  -0.066639
   19  H  2  Y    0.000000   0.000000   0.000000   0.026597   0.000000
   20  H  2  Z    0.018064  -0.025808   0.003973   0.000000  -0.038474
   21  H  3  S    0.178419   0.337370  -0.194768   0.000000  -0.568083
   22  H  3  S    0.001730   0.038814  -0.022408   0.000000  -0.053486
   23  H  3  X   -0.031287  -0.025828   0.025807   0.000000   0.066639
   24  H  3  Y    0.000000   0.000000   0.000000   0.026597   0.000000
   25  H  3  Z    0.018064   0.025808   0.003974   0.000000  -0.038474
   26  H  4  S    0.178419  -0.000011   0.389555   0.000000  -0.568083
   27  H  4  S    0.001730  -0.000001   0.044818   0.000000  -0.053486
   28  H  4  X    0.000000   0.018873   0.000001   0.000000  -0.000000
   29  H  4  Y    0.000000   0.000000   0.000000   0.026597   0.000000
   30  H  4  Z   -0.036128   0.000001  -0.040727   0.000000   0.076948

                      6          7

    1  N  1  S    0.000000   0.000000
    2  N  1  S    0.000000   0.000000
    3  N  1  S    0.000000   0.000000
    4  N  1  X   -0.000037   0.983147
    5  N  1  Y   -0.000000   0.000000
    6  N  1  Z   -0.983147  -0.000037
    7  N  1  X   -0.000001   0.022204
    8  N  1  Y   -0.000000   0.000000
    9  N  1  Z   -0.022204  -0.000001
   10  N  1 XX   -0.008937  -0.000000
   11  N  1 YY    0.000000  -0.000000
   12  N  1 ZZ    0.008937   0.000000
   13  N  1 XY   -0.000000   0.000000
   14  N  1 XZ   -0.000000   0.010320
   15  N  1 YZ   -0.000000   0.000000
   16  H  2  S   -0.368487   0.638183
   17  H  2  S   -0.050037   0.086660
   18  H  2  X   -0.037005   0.053145
   19  H  2  Y   -0.000000   0.000000
   20  H  2  Z   -0.010421   0.037003
   21  H  3  S   -0.368439  -0.638210
   22  H  3  S   -0.050031  -0.086663
   23  H  3  X    0.037001   0.053148
   24  H  3  Y   -0.000000   0.000000
   25  H  3  Z   -0.010418  -0.037003
   26  H  4  S    0.736926   0.000027
   27  H  4  S    0.100068   0.000004
   28  H  4  X    0.000000  -0.010945
   29  H  4  Y   -0.000000   0.000000
   30  H  4  Z   -0.074510  -0.000003

Actually Used Diabatic Molecualr Orbitals:

                      1          2          3          4          5

    1  N  1  S    0.001136  -0.000000   0.000000   0.000000   0.328646
    2  N  1  S    0.447934  -0.000000   0.000000   0.000000   1.032363
    3  N  1  S    0.325192  -0.000000   0.000000   0.000000   0.117455
    4  N  1  X   -0.000000   0.484055   0.000014   0.000000  -0.000000
    5  N  1  Y    0.000000   0.000000   0.000000   0.650430   0.000000
    6  N  1  Z   -0.000000  -0.000014   0.484055   0.000000   0.000000
    7  N  1  X   -0.000000   0.198847   0.000006   0.000000  -0.000000
    8  N  1  Y    0.000000   0.000000   0.000000   0.462852   0.000000
    9  N  1  Z   -0.000000  -0.000006   0.198847   0.000000  -0.000000
   10  N  1 XX    0.001197   0.000000  -0.011457   0.000000  -0.029572
   11  N  1 YY   -0.002393  -0.000000   0.000000   0.000000   0.059145
   12  N  1 ZZ    0.001197  -0.000000   0.011457   0.000000  -0.029572
   13  N  1 XY    0.000000   0.000000   0.000000   0.000000   0.000000
   14  N  1 XZ   -0.000000  -0.013229  -0.000000   0.000000   0.000000
   15  N  1 YZ    0.000000   0.000000   0.000000   0.000000   0.000000
   16  H  2  S    0.178419  -0.337359  -0.194787   0.000000  -0.568083
   17  H  2  S    0.001730  -0.038813  -0.022410   0.000000  -0.053486
   18  H  2  X    0.031287  -0.025826  -0.025808   0.000000  -0.066639
   19  H  2  Y    0.000000   0.000000   0.000000   0.026597   0.000000
   20  H  2  Z    0.018064  -0.025808   0.003973   0.000000  -0.038474
   21  H  3  S    0.178419   0.337370  -0.194768   0.000000  -0.568083
   22  H  3  S    0.001730   0.038814  -0.022408   0.000000  -0.053486
   23  H  3  X   -0.031287  -0.025828   0.025807   0.000000   0.066639
   24  H  3  Y    0.000000   0.000000   0.000000   0.026597   0.000000
   25  H  3  Z    0.018064   0.025808   0.003974   0.000000  -0.038474
   26  H  4  S    0.178419  -0.000011   0.389555   0.000000  -0.568083
   27  H  4  S    0.001730  -0.000001   0.044818   0.000000  -0.053486
   28  H  4  X    0.000000   0.018873   0.000001   0.000000  -0.000000
   29  H  4  Y    0.000000   0.000000   0.000000   0.026597   0.000000
   30  H  4  Z   -0.036128   0.000001  -0.040727   0.000000   0.076948

                      6          7

    1  N  1  S    0.000000   0.000000
    2  N  1  S    0.000000   0.000000
    3  N  1  S    0.000000   0.000000
    4  N  1  X   -0.000037   0.983147
    5  N  1  Y   -0.000000   0.000000
    6  N  1  Z   -0.983147  -0.000037
    7  N  1  X   -0.000001   0.022204
    8  N  1  Y   -0.000000   0.000000
    9  N  1  Z   -0.022204  -0.000001
   10  N  1 XX   -0.008937  -0.000000
   11  N  1 YY    0.000000  -0.000000
   12  N  1 ZZ    0.008937   0.000000
   13  N  1 XY   -0.000000   0.000000
   14  N  1 XZ   -0.000000   0.010320
   15  N  1 YZ   -0.000000   0.000000
   16  H  2  S   -0.368487   0.638183
   17  H  2  S   -0.050037   0.086660
   18  H  2  X   -0.037005   0.053145
   19  H  2  Y   -0.000000   0.000000
[...]
       71   -0.986021    0.986021  2+22000
      462    0.065751   -0.065751  2+02020
      460   -0.040179   -0.040179  -++2+-0
      322   -0.038443    0.038443  ++-2-+0
       73    0.037231   -0.037231  2+-2+00
       39   -0.037231   -0.037231  2-+2+00
      333    0.036998   -0.036998  +022-0+
      177    0.036741   -0.036741  2+20200
      473    0.035438    0.035438  20+20-+
       16   -0.034861    0.034861  222000+
      248    0.033416   -0.033416  2+02200
      320    0.030158    0.030158  0+22200
      113    0.030059   -0.030059  +-220+0
      122    0.030059    0.030059  +2-200+
      528    0.023708    0.023708  ++-2+-0
      254    0.022550   -0.022550  -++2-+0
      894    0.020149    0.020149  0+22002
      456   -0.020114   -0.020114  2++20-0

 ---------------------------------------
    -DIABATIC STATES IN PROTOTYPES-     
 ---------------------------------------

     STATE:    1
 Group Ref#    Coefficients
     1    1    0.997660
     2    2   -0.000000
     3    3    0.000000

WEIGHT OF LISTED PROTOTYPES:   99.53%

     STATE:    2
 Group Ref#    Coefficients
     1    1    0.000000
     2    2    0.996917
     3    3   -0.000000

WEIGHT OF LISTED PROTOTYPES:   99.38%

     STATE:    3
 Group Ref#    Coefficients
     1    1   -0.000000
     2    2   -0.000000
     3    3    0.996917

WEIGHT OF LISTED PROTOTYPES:   99.38%

 --------------------------------------------------
 IN DIRECT MAX. DIABATIZATION FOR GMC-QDPT

 DIRECT MAXIMIZATION (DM) WITHOUT TRUNCATING ADIABATS
 EXPANSIONS INTO THE REFERENCE CONFIGURATION SPACE
 --------------------------------------------------

 -------------------------------------------
 - DM DIABT PT HAMILTONIAN MATRIX ELEMENTS -
 -------------------------------------------
                                            
 --- DIABATIC ENERGIES (DIAGONAL ELEMENT) ---       HARTREE            EV
 STATE #  1'S GMC-PT-LEVEL DIABATIC ENERGY=     -56.044624446       0.000000000
 STATE #  2'S GMC-PT-LEVEL DIABATIC ENERGY=     -55.779378260       7.217716344
 STATE #  3'S GMC-PT-LEVEL DIABATIC ENERGY=     -55.779378243       7.217716809

 --- DIABATIC COUPLINGS (OFF DIAGONAL ELEMENTS)---  HATREE            EV
 STATE #  1 &  2'S GMC-PT-LEVEL COUPLING  =       0.000000000       0.000000000
 STATE #  1 &  3'S GMC-PT-LEVEL COUPLING  =       0.000000000       0.000000000
 STATE #  2 &  3'S GMC-PT-LEVEL COUPLING  =       0.000000000       0.000000000

 ---------------------------------------
     - ROTATION TO DIABATIC STATES -    
 ---------------------------------------
 ROWS=ADIABATIC, COLUMNS=DIABATIC STATES

             1           2           3

    1    1.0000000   0.0000000   0.0000000
    2    0.0000000   0.9999996  -0.0009358
    3    0.0000000  -0.0009358  -0.9999996

 ---------------------------------------
          - DIABATIC STATES -           
 ---------------------------------------

 State #    1  Energy =     -56.044624446

      Det      Coef        Coefp    Occupancy (Ignoring core)
      ---      ----        ----    --------- --------- -----
        1    0.981652   -0.981652  222+000
      357   -0.067271   -0.067271  220+020
      753   -0.067271   -0.067271  202+002
      107   -0.050491    0.050491  +22-+00
       18    0.040974   -0.040974  2-2+00+
        7   -0.040974   -0.040974  22-+0+0
      217    0.039306    0.039306  +2-+-+0
      228   -0.039306    0.039306  +-2+-0+
      355    0.035820    0.035820  -2+++-0
      740   -0.035820    0.035820  -+2++0-
      368   -0.033559   -0.033559  2-++0-+
      742   -0.033559   -0.033559  2+-+0+-
      215   -0.031913   -0.031913  022+200
      143   -0.031134   -0.031134  220+200
      179   -0.031134   -0.031134  202+200
       41    0.027163   -0.027163  22+-0+0
       86   -0.027163   -0.027163  2+2-00+
        5    0.027062    0.027062  -22++00
      423   -0.024162    0.024162  +2-++-0
      774    0.024162    0.024162  +-2++0-
      149   -0.023455    0.023455  -2++-+0
      194    0.023455    0.023455  -+2+-0+
      211    0.023429    0.023429  +22+-00
      708    0.020463   -0.020463  2-++0+-
      402    0.020463   -0.020463  2+-+0-+

 State #    2  Energy =     -55.779378260

      Det      Coef        Coefp    Occupancy (Ignoring core)
      ---      ----        ----    --------- --------- -----
       36   -0.985287   -0.985287  22+2000
      823    0.066066   -0.066066  20+2002
       71    0.042246   -0.042246  2+22000
      810    0.040254    0.040254  -++2+0-
      298    0.038584    0.038584  +-+2-0+
       38    0.037714   -0.037714  2202+00
       74   -0.037714    0.037714  2022+00
      287   -0.037136    0.037136  +202-+0
      142    0.036713    0.036713  22+0200
      812    0.035776   -0.035776  2+020+-
        6    0.034926   -0.034926  22200+0
      249    0.033391   -0.033391  20+2200
      285    0.030136   -0.030136  02+2200
      112    0.030111    0.030111  +2-20+0
      123    0.030111   -0.030111  +-2200+
      844   -0.023791    0.023791  +-+2+0-
      264   -0.022592    0.022592  -++2-0+
      806    0.020152    0.020152  2++200-
      499    0.020138   -0.020138  02+2020

 State #    3  Energy =     -55.779378243

      Det      Coef        Coefp    Occupancy (Ignoring core)
      ---      ----        ----    --------- --------- -----
       71   -0.985287    0.985287  2+22000
      462    0.066066   -0.066066  2+02020
       36   -0.042246   -0.042246  22+2000
      460    0.040254    0.040254  -++2+-0
      322    0.038584   -0.038584  ++-2-+0
       73    0.037714   -0.037714  2+-2+00
       39   -0.037714   -0.037714  2-+2+00
      333    0.037136   -0.037136  +022-0+
      177    0.036713   -0.036713  2+20200
      473   -0.035776   -0.035776  20+20-+
       16   -0.034926    0.034926  222000+
      248    0.033391   -0.033391  2+02200
      320    0.030136    0.030136  0+22200
      113   -0.030111    0.030111  +-220+0
      122    0.030111    0.030111  +2-200+
      528   -0.023791   -0.023791  ++-2+-0
      254   -0.022592    0.022592  -++2-+0
      456    0.020152    0.020152  2++20-0
      894    0.020138    0.020138  0+22002

 ---------------------------------------
      - DIABATIC STATES IN CMO -        
 ---------------------------------------

 State #    1  Energy =     -56.044624446

      Det      Coef        Coefp    Occupancy (Ignoring core)
      ---      ----        ----    --------- --------- -----
        1    0.981652   -0.981652  222+000
      357   -0.066804   -0.066804  220+020
      753   -0.066804   -0.066804  202+002
      107   -0.050491    0.050491  +22-+00
        7    0.040796    0.040796  22-+0+0
       18    0.040796   -0.040796  2-2+00+
      217   -0.039136   -0.039136  +2-+-+0
      228   -0.039136    0.039136  +-2+-0+
      355   -0.035664   -0.035664  -2+++-0
      740   -0.035664    0.035664  -+2++0-
      742    0.033091    0.033091  2+-+0+-
      368    0.033091    0.033091  2-++0-+
      215   -0.031913   -0.031913  022+200
      143   -0.031134   -0.031134  220+200
      179   -0.031134   -0.031134  202+200
        5    0.027062    0.027062  -22++00
       41   -0.027045    0.027045  22+-0+0
       86   -0.027045   -0.027045  2+2-00+
      423    0.024058   -0.024058  +2-++-0
      774    0.024058    0.024058  +-2++0-
      211    0.023429    0.023429  +22+-00
      149    0.023353   -0.023353  -2++-+0
      194    0.023353    0.023353  -+2+-0+

 State #    2  Energy =     -55.779378260

      Det      Coef        Coefp    Occupancy (Ignoring core)
      ---      ----        ----    --------- --------- -----
       36   -0.986021   -0.986021  22+2000
      823    0.065751   -0.065751  20+2002
      810    0.040179    0.040179  -++2+0-
      298    0.038443    0.038443  +-+2-0+
       38    0.037231   -0.037231  2202+00
       74   -0.037231    0.037231  2022+00
      287    0.036998   -0.036998  +202-+0
      142    0.036741    0.036741  22+0200
      812   -0.035438    0.035438  2+020+-
        6   -0.034861    0.034861  22200+0
      249    0.033416   -0.033416  20+2200
      285    0.030158   -0.030158  02+2200
      112   -0.030059   -0.030059  +2-20+0
      123    0.030059   -0.030059  +-2200+
      844   -0.023708    0.023708  +-+2+0-
      264   -0.022550    0.022550  -++2-0+
      499    0.020149   -0.020149  02+2020
      806    0.020114    0.020114  2++200-

 State #    3  Energy =     -55.779378243

      Det      Coef        Coefp    Occupancy (Ignoring core)
      ---      ----        ----    --------- --------- -----
       71   -0.986021    0.986021  2+22000
      462    0.065751   -0.065751  2+02020
      460   -0.040179   -0.040179  -++2+-0
      322   -0.038443    0.038443  ++-2-+0
       73    0.037231   -0.037231  2+-2+00
       39   -0.037231   -0.037231  2-+2+00
      333    0.036998   -0.036998  +022-0+
      177    0.036741   -0.036741  2+20200
      473    0.035438    0.035438  20+20-+
       16   -0.034861    0.034861  222000+
      248    0.033416   -0.033416  2+02200
      320    0.030158    0.030158  0+22200
      113    0.030059   -0.030059  +-220+0
      122    0.030059    0.030059  +2-200+
      528    0.023708    0.023708  ++-2+-0
      254    0.022550   -0.022550  -++2-+0
      894    0.020149    0.020149  0+22002
      456   -0.020114   -0.020114  2++20-0

 ---------------------------------------
    -DIABATIC STATES IN PROTOTYPES-     
 ---------------------------------------

     STATE:    1
 Group Ref#    Coefficients
     1    1    0.997660
     2    2   -0.000000
     3    3    0.000000

WEIGHT OF LISTED PROTOTYPES:   99.53%

     STATE:    2
 Group Ref#    Coefficients
     1    1    0.000000
     2    2    0.996917
     3    3   -0.000000

WEIGHT OF LISTED PROTOTYPES:   99.38%

     STATE:    3
 Group Ref#    Coefficients
     1    1   -0.000000
     2    2   -0.000000
     3    3    0.996917

WEIGHT OF LISTED PROTOTYPES:   99.38%

     DIRECT MAX. DIABATIZATION FINISHED    
 CPU     0: STEP CPU TIME=     0.49 TOTAL CPU TIME=          4.5 (      0.1 MIN)
 TOTAL WALL CLOCK TIME=          5.6 SECONDS, CPU UTILIZATION IS    80.76%

DIABATS FOR SPIN-ORBIT CALCULATION ARE READY

TRANSITION DIPOLES BETWEEN ADIABATS (in A.U.):

STATE PAIR      X         Y         Z
    1    1  0.000000 -0.000000  0.000000
    2    1  0.000000  0.000000  0.000000
    2    2 -0.025243  0.000000 -0.287698
    3    1  0.000000 -0.000000  0.000000
    3    2 -0.287698 -0.000000  0.025243
    3    3  0.025243 -0.000000  0.287698


TRANSITION DIPOLES BETWEEN DIABATS (in A.U.):

STATE PAIR      X         Y         Z
    1    1  0.000000 -0.000000  0.000000
    2    1  0.000000  0.000000  0.000000
    2    2 -0.024704  0.000000 -0.287745
    3    1 -0.000000  0.000000 -0.000000
    3    2  0.287745  0.000000 -0.024704
    3    3  0.024704 -0.000000  0.287745

TRANSITION DIPOLES BETWEEN DIRECT MAX. DIABATS (in A.U.):

STATE PAIR      X         Y         Z
    1    1  0.000000 -0.000000  0.000000
    2    1  0.000000  0.000000  0.000000
    2    2 -0.024704  0.000000 -0.287745
    3    1 -0.000000  0.000000 -0.000000
    3    2  0.287745  0.000000 -0.024704
    3    3  0.024704 -0.000000  0.287745
 No $TRANST Group Found.
 Quit without doing spin-orbit coupling
 ..... DONE WITH MP2 ENERGY .....
 CPU     0: STEP CPU TIME=     0.01 TOTAL CPU TIME=          4.5 (      0.1 MIN)
 TOTAL WALL CLOCK TIME=          5.6 SECONDS, CPU UTILIZATION IS    80.94%
            250000000  WORDS OF DYNAMIC MEMORY USED
 EXECUTION OF GAMESS TERMINATED NORMALLY Mon Jan 22 16:20:50 2024
 DDI: 489576 bytes (0.5 MB / 0 MWords) used by master data server.
Note: The following floating-point exceptions are signalling: IEEE_DENORMAL

 ----------------------------------------
 CPU timing information for all processes
 ========================================
 0: 4.370 + 0.133 = 4.503
 1: 4.214 + 0.78 = 4.293
 ----------------------------------------
Note: The following floating-point exceptions are signalling: IEEE_DENORMAL
 ddikick.x: exited gracefully.
unset echo
----- accounting info -----
Files used on the master node io001 were:
-rwxr-xr-x 1 bjb2chen nooijen   22063 Jan 22 16:20 /home/bjb2chen/gmsscr//NH3cat_ccd_C2v_gmcpt_3st_diab_refG.F05*
-rw-r--r-- 1 bjb2chen nooijen  183504 Jan 22 16:20 /home/bjb2chen/gmsscr//NH3cat_ccd_C2v_gmcpt_3st_diab_refG.F09
-rw-r--r-- 1 bjb2chen nooijen  180016 Jan 22 16:20 /home/bjb2chen/gmsscr//NH3cat_ccd_C2v_gmcpt_3st_diab_refG.F09.001
-rw-r--r-- 1 bjb2chen nooijen 1995920 Jan 22 16:20 /home/bjb2chen/gmsscr//NH3cat_ccd_C2v_gmcpt_3st_diab_refG.F10
-rw-r--r-- 1 bjb2chen nooijen   74552 Jan 22 16:20 /home/bjb2chen/gmsscr//NH3cat_ccd_C2v_gmcpt_3st_diab_refG.F13
-rw-r--r-- 1 bjb2chen nooijen   74552 Jan 22 16:20 /home/bjb2chen/gmsscr//NH3cat_ccd_C2v_gmcpt_3st_diab_refG.F13.001
-rw-r--r-- 1 bjb2chen nooijen  180312 Jan 22 16:20 /home/bjb2chen/gmsscr//NH3cat_ccd_C2v_gmcpt_3st_diab_refG.F15
-rw-r--r-- 1 bjb2chen nooijen       0 Jan 22 16:20 /home/bjb2chen/gmsscr//NH3cat_ccd_C2v_gmcpt_3st_diab_refG.F16
-rw-r--r-- 1 bjb2chen nooijen    9808 Jan 22 16:20 /home/bjb2chen/gmsscr//NH3cat_ccd_C2v_gmcpt_3st_diab_refG.F70
-rw-r--r-- 1 bjb2chen nooijen    9808 Jan 22 16:20 /home/bjb2chen/gmsscr//NH3cat_ccd_C2v_gmcpt_3st_diab_refG.F70.001
-rw-r--r-- 1 bjb2chen nooijen    9808 Jan 22 16:20 /home/bjb2chen/gmsscr//NH3cat_ccd_C2v_gmcpt_3st_diab_refG.F71
-rw-r--r-- 1 bjb2chen nooijen    9808 Jan 22 16:20 /home/bjb2chen/gmsscr//NH3cat_ccd_C2v_gmcpt_3st_diab_refG.F71.001
-rw-r--r-- 1 bjb2chen nooijen   19608 Jan 22 16:20 /home/bjb2chen/gmsscr//NH3cat_ccd_C2v_gmcpt_3st_diab_refG.F72
-rw-r--r-- 1 bjb2chen nooijen   19608 Jan 22 16:20 /home/bjb2chen/gmsscr//NH3cat_ccd_C2v_gmcpt_3st_diab_refG.F72.001
-rw-r--r-- 1 bjb2chen nooijen   19608 Jan 22 16:20 /home/bjb2chen/gmsscr//NH3cat_ccd_C2v_gmcpt_3st_diab_refG.F73
-rw-r--r-- 1 bjb2chen nooijen   19608 Jan 22 16:20 /home/bjb2chen/gmsscr//NH3cat_ccd_C2v_gmcpt_3st_diab_refG.F73.001
-rw-r--r-- 1 bjb2chen nooijen  961208 Jan 22 16:20 /home/bjb2chen/gmsscr//NH3cat_ccd_C2v_gmcpt_3st_diab_refG.F74
-rw-r--r-- 1 bjb2chen nooijen  959640 Jan 22 16:20 /home/bjb2chen/gmsscr//NH3cat_ccd_C2v_gmcpt_3st_diab_refG.F74.001
-rw-r--r-- 1 bjb2chen nooijen       0 Jan 22 16:20 /home/bjb2chen/gmsscr//NH3cat_ccd_C2v_gmcpt_3st_diab_refG.F75
-rw-r--r-- 1 bjb2chen nooijen       0 Jan 22 16:20 /home/bjb2chen/gmsscr//NH3cat_ccd_C2v_gmcpt_3st_diab_refG.F75.001
-rw-r--r-- 1 bjb2chen nooijen   58848 Jan 22 16:20 /home/bjb2chen/gmsscr//NH3cat_ccd_C2v_gmcpt_3st_diab_refG.F76
-rw-r--r-- 1 bjb2chen nooijen   58848 Jan 22 16:20 /home/bjb2chen/gmsscr//NH3cat_ccd_C2v_gmcpt_3st_diab_refG.F76.001
-rw-r--r-- 1 bjb2chen nooijen       0 Jan 22 16:20 /home/bjb2chen/gmsscr//NH3cat_ccd_C2v_gmcpt_3st_diab_refG.F77
-rw-r--r-- 1 bjb2chen nooijen       0 Jan 22 16:20 /home/bjb2chen/gmsscr//NH3cat_ccd_C2v_gmcpt_3st_diab_refG.F77.001
-rw-r--r-- 1 bjb2chen nooijen    1864 Jan 22 16:20 /home/bjb2chen/gmsscr//NH3cat_ccd_C2v_gmcpt_3st_diab_refG.F78
-rw-r--r-- 1 bjb2chen nooijen    1864 Jan 22 16:20 /home/bjb2chen/gmsscr//NH3cat_ccd_C2v_gmcpt_3st_diab_refG.F78.001
-rw-r--r-- 1 bjb2chen nooijen   39208 Jan 22 16:20 /home/bjb2chen/gmsscr//NH3cat_ccd_C2v_gmcpt_3st_diab_refG.F79
-rw-r--r-- 1 bjb2chen nooijen   39208 Jan 22 16:20 /home/bjb2chen/gmsscr//NH3cat_ccd_C2v_gmcpt_3st_diab_refG.F79.001
-rw-r--r-- 1 bjb2chen nooijen     104 Jan 22 16:20 /home/bjb2chen/gmsscr//NH3cat_ccd_C2v_gmcpt_3st_diab_refG.F80
-rw-r--r-- 1 bjb2chen nooijen     104 Jan 22 16:20 /home/bjb2chen/gmsscr//NH3cat_ccd_C2v_gmcpt_3st_diab_refG.F80.001
-rw-r--r-- 1 bjb2chen nooijen   13472 Jan 22 16:20 /home/bjb2chen/gmsscr//NH3cat_ccd_C2v_gmcpt_3st_diab_refG.F81
-rw-r--r-- 1 bjb2chen nooijen   13472 Jan 22 16:20 /home/bjb2chen/gmsscr//NH3cat_ccd_C2v_gmcpt_3st_diab_refG.F81.001
-rw-r--r-- 1 bjb2chen nooijen      16 Jan 22 16:20 /home/bjb2chen/gmsscr//NH3cat_ccd_C2v_gmcpt_3st_diab_refG.F82
-rw-r--r-- 1 bjb2chen nooijen      16 Jan 22 16:20 /home/bjb2chen/gmsscr//NH3cat_ccd_C2v_gmcpt_3st_diab_refG.F82.001
-rw-r--r-- 1 bjb2chen nooijen   19216 Jan 22 16:20 /home/bjb2chen/gmsscr//NH3cat_ccd_C2v_gmcpt_3st_diab_refG.F83
-rw-r--r-- 1 bjb2chen nooijen   19216 Jan 22 16:20 /home/bjb2chen/gmsscr//NH3cat_ccd_C2v_gmcpt_3st_diab_refG.F83.001
-rw-r--r-- 1 bjb2chen nooijen   29712 Jan 22 16:20 /home/bjb2chen/gmsscr//NH3cat_ccd_C2v_gmcpt_3st_diab_refG.F84
-rw-r--r-- 1 bjb2chen nooijen   29712 Jan 22 16:20 /home/bjb2chen/gmsscr//NH3cat_ccd_C2v_gmcpt_3st_diab_refG.F84.001
-rw-r--r-- 1 bjb2chen nooijen  219400 Jan 22 16:20 /home/bjb2chen/gmsscr//NH3cat_ccd_C2v_gmcpt_3st_diab_refG.F85
-rw-r--r-- 1 bjb2chen nooijen  219400 Jan 22 16:20 /home/bjb2chen/gmsscr//NH3cat_ccd_C2v_gmcpt_3st_diab_refG.F85.001
-rw-r--r-- 1 bjb2chen nooijen  227928 Jan 22 16:20 /home/bjb2chen/gmsscr//NH3cat_ccd_C2v_gmcpt_3st_diab_refG.F86
-rw-r--r-- 1 bjb2chen nooijen  212440 Jan 22 16:20 /home/bjb2chen/gmsscr//NH3cat_ccd_C2v_gmcpt_3st_diab_refG.F86.001
-rw-r--r-- 1 bjb2chen nooijen     656 Jan 22 16:20 /home/bjb2chen/gmsscr//NH3cat_ccd_C2v_gmcpt_3st_diab_refG.F87
-rw-r--r-- 1 bjb2chen nooijen     656 Jan 22 16:20 /home/bjb2chen/gmsscr//NH3cat_ccd_C2v_gmcpt_3st_diab_refG.F87.001
-rw-r--r-- 1 bjb2chen nooijen   15824 Jan 22 16:20 /home/bjb2chen/gmsscr//NH3cat_ccd_C2v_gmcpt_3st_diab_refG.F88
-rw-r--r-- 1 bjb2chen nooijen   15824 Jan 22 16:20 /home/bjb2chen/gmsscr//NH3cat_ccd_C2v_gmcpt_3st_diab_refG.F88.001
-rw-r--r-- 1 bjb2chen nooijen     240 Jan 22 16:20 /home/bjb2chen/gmsscr//NH3cat_ccd_C2v_gmcpt_3st_diab_refG.F89
-rw-r--r-- 1 bjb2chen nooijen     240 Jan 22 16:20 /home/bjb2chen/gmsscr//NH3cat_ccd_C2v_gmcpt_3st_diab_refG.F89.001
-rw-r--r-- 1 bjb2chen nooijen       0 Jan 22 16:20 /home/bjb2chen/gmsscr//NH3cat_ccd_C2v_gmcpt_3st_diab_refG.F90
-rw-r--r-- 1 bjb2chen nooijen       0 Jan 22 16:20 /home/bjb2chen/gmsscr//NH3cat_ccd_C2v_gmcpt_3st_diab_refG.F90.001
-rw-r--r-- 1 bjb2chen nooijen   13760 Jan 22 16:20 /home/bjb2chen/gmsscr//NH3cat_ccd_C2v_gmcpt_3st_diab_refG.F91
-rw-r--r-- 1 bjb2chen nooijen   13760 Jan 22 16:20 /home/bjb2chen/gmsscr//NH3cat_ccd_C2v_gmcpt_3st_diab_refG.F91.001
-rw-r--r-- 1 bjb2chen nooijen   22776 Jan 22 16:20 /home/bjb2chen/gmsscr//NH3cat_ccd_C2v_gmcpt_3st_diab_refG.F92
-rw-r--r-- 1 bjb2chen nooijen   22776 Jan 22 16:20 /home/bjb2chen/gmsscr//NH3cat_ccd_C2v_gmcpt_3st_diab_refG.F92.001
-rw-r--r-- 1 bjb2chen nooijen   23168 Jan 22 16:20 /home/bjb2chen/gmsscr//NH3cat_ccd_C2v_gmcpt_3st_diab_refG.F93
-rw-r--r-- 1 bjb2chen nooijen   23168 Jan 22 16:20 /home/bjb2chen/gmsscr//NH3cat_ccd_C2v_gmcpt_3st_diab_refG.F93.001
-rw-r--r-- 1 bjb2chen nooijen   22776 Jan 22 16:20 /home/bjb2chen/gmsscr//NH3cat_ccd_C2v_gmcpt_3st_diab_refG.F94
-rw-r--r-- 1 bjb2chen nooijen   22776 Jan 22 16:20 /home/bjb2chen/gmsscr//NH3cat_ccd_C2v_gmcpt_3st_diab_refG.F94.001
-rw-r--r-- 1 bjb2chen nooijen   13760 Jan 22 16:20 /home/bjb2chen/gmsscr//NH3cat_ccd_C2v_gmcpt_3st_diab_refG.F95
-rw-r--r-- 1 bjb2chen nooijen   13760 Jan 22 16:20 /home/bjb2chen/gmsscr//NH3cat_ccd_C2v_gmcpt_3st_diab_refG.F95.001
-rw-r--r-- 1 bjb2chen nooijen   29440 Jan 22 16:20 /home/bjb2chen/gmsscr//NH3cat_ccd_C2v_gmcpt_3st_diab_refG.F96
-rw-r--r-- 1 bjb2chen nooijen   29440 Jan 22 16:20 /home/bjb2chen/gmsscr//NH3cat_ccd_C2v_gmcpt_3st_diab_refG.F96.001
-rw-r--r-- 1 bjb2chen nooijen    1184 Jan 22 16:20 /home/bjb2chen/gmsscr//NH3cat_ccd_C2v_gmcpt_3st_diab_refG.F97
-rw-r--r-- 1 bjb2chen nooijen    1184 Jan 22 16:20 /home/bjb2chen/gmsscr//NH3cat_ccd_C2v_gmcpt_3st_diab_refG.F97.001
-rw-r--r-- 1 bjb2chen nooijen    9808 Jan 22 16:20 /home/bjb2chen/gmsscr//NH3cat_ccd_C2v_gmcpt_3st_diab_refG.F98
-rw-r--r-- 1 bjb2chen nooijen    9808 Jan 22 16:20 /home/bjb2chen/gmsscr//NH3cat_ccd_C2v_gmcpt_3st_diab_refG.F98.001
-rw-r--r-- 1 bjb2chen nooijen   30264 Jan 22 16:20 /home/bjb2chen/gmsscr//NH3cat_ccd_C2v_gmcpt_3st_diab_refG.F99
-rw-r--r-- 1 bjb2chen nooijen   30264 Jan 22 16:20 /home/bjb2chen/gmsscr//NH3cat_ccd_C2v_gmcpt_3st_diab_refG.F99.001
ls: No match.
ls: No match.
ls: No match.
Mon 22 Jan 2024 04:20:53 PM EST
0.262u 0.096s 0:09.17 3.8%	0+0k 48+256io 0pf+0w
