----- GAMESS execution script 'rungms' -----
This job is running on host io002
under operating system Linux at Thu 14 Dec 2023 01:16:53 AM EST
Available scratch disk space (Kbyte units) at beginning of the job is
Filesystem             1K-blocks       Used Available Use% Mounted on
helmholtz.nlogn:/home 6391504896 5229926400 839439360  87% /home
GAMESS temporary binary files will be written to /home/bjb2chen/gmsscr/
GAMESS supplementary output files will be written to /home/bjb2chen/gamess/vibronics/converged_inputs/3st
Copying input file CoF3_cct_gmcpt_C1_e_mult5_diis_3st_diab_mode12_+0.05_mode1_+0.05.inp to your run's scratch directory...
cp CoF3_cct_gmcpt_C1_e_mult5_diis_3st_diab_mode12_+0.05_mode1_+0.05.inp /home/bjb2chen/gmsscr//CoF3_cct_gmcpt_C1_e_mult5_diis_3st_diab_mode12_+0.05_mode1_+0.05.F05
unset echo
 
Assuming a single but multicore node.
 
/home/bjb2chen/gamess/ddikick.x /home/bjb2chen/gamess/gamess.00.x CoF3_cct_gmcpt_C1_e_mult5_diis_3st_diab_mode12_+0.05_mode1_+0.05 -ddi 1 2 io002:cpus=2 -scr /home/bjb2chen/gmsscr/

 Distributed Data Interface kickoff program.
 Initiating 2 compute processes on 1 nodes to run the following command:
 /home/bjb2chen/gamess/gamess.00.x CoF3_cct_gmcpt_C1_e_mult5_diis_3st_diab_mode12_+0.05_mode1_+0.05 

          ******************************************************
          *         GAMESS VERSION = 02 AUG 2018 (R2)         *
          *             FROM IOWA STATE UNIVERSITY             *
          * M.W.SCHMIDT, K.K.BALDRIDGE, J.A.BOATZ, S.T.ELBERT, *
          *   M.S.GORDON, J.H.JENSEN, S.KOSEKI, N.MATSUNAGA,   *
          *          K.A.NGUYEN, S.J.SU, T.L.WINDUS,           *
          *       TOGETHER WITH M.DUPUIS, J.A.MONTGOMERY       *
          *         J.COMPUT.CHEM.  14, 1347-1363(1993)        *
          **************** 64 BIT LINUX VERSION ****************

  SINCE 1993, STUDENTS AND POSTDOCS WORKING AT IOWA STATE UNIVERSITY
  AND ALSO IN THEIR VARIOUS JOBS AFTER LEAVING ISU HAVE MADE IMPORTANT
  CONTRIBUTIONS TO THE CODE:
     IVANA ADAMOVIC, CHRISTINE AIKENS, YURI ALEXEEV, POOJA ARORA,
     ANDREY ASADCHEV, ROB BELL, PRADIPTA BANDYOPADHYAY, JONATHAN BENTZ,
     BRETT BODE, KURT BRORSEN, CALEB CARLIN, GALINA CHABAN, WEI CHEN,
     CHEOL HO CHOI, PAUL DAY, ALBERT DEFUSCO, NUWAN DESILVA, TIM DUDLEY,
     DMITRI FEDOROV, ALEX FINDLATER, GRAHAM FLETCHER, MARK FREITAG,
     KURT GLAESEMANN, ANASTASIA GUININA,
     DAN KEMP, GRANT MERRILL, NORIYUKI MINEZAWA, JONATHAN MULLIN,
     TAKESHI NAGATA, SEAN NEDD, HEATHER NETZLOFF, BOSILJKA NJEGIC, RYAN OLSON,
     MIKE PAK, BUU PHAM,
     SPENCER PRUITT, LUKE ROSKOP, JIM SHOEMAKER, LYUDMILA SLIPCHENKO,
     TONY SMITH, SAROM SOK LEANG, JIE SONG, TETSUYA TAKETSUGU, SIMON WEBB,
     PENG XU, SOOHAENG YOO, FEDERICO ZAHARIEV

  ADDITIONAL CODE HAS BEEN PROVIDED BY COLLABORATORS IN OTHER GROUPS:
     IOWA STATE UNIVERSITY:
          JOE IVANIC, AARON WEST, LAIMUTIS BYTAUTAS, KLAUS RUEDENBERG
     UNIVERSITY OF TOKYO: KIMIHIKO HIRAO, TAKAHITO NAKAJIMA,
          TAKAO TSUNEDA, MUNEAKI KAMIYA, SUSUMU YANAGISAWA,
          KIYOSHI YAGI, MAHITO CHIBA, SEIKEN TOKURA, NAOAKI KAWAKAMI
     UNIVERSITY OF AARHUS: FRANK JENSEN
     UNIVERSITY OF IOWA: VISVALDAS KAIRYS, HUI LI
     NATIONAL INST. OF STANDARDS AND TECHNOLOGY: WALT STEVENS, DAVID GARMER
     UNIVERSITY OF PISA: BENEDETTA MENNUCCI, JACOPO TOMASI
     UNIVERSITY OF MEMPHIS: HENRY KURTZ, PRAKASHAN KORAMBATH
     UNIVERSITY OF ALBERTA: TOBY ZENG, MARIUSZ KLOBUKOWSKI
     UNIVERSITY OF NEW ENGLAND: MARK SPACKMAN
     MIE UNIVERSITY: HIROAKI UMEDA
     NAT. INST. OF ADVANCED INDUSTRIAL SCIENCE AND TECHNOLOGY: KAZUO KITAURA
     MICHIGAN STATE UNIVERSITY:
          KAROL KOWALSKI, MARTA WLOCH, JEFFREY GOUR, JESSE LUTZ,
          WEI LI, JUN SHEN, J. EMILIANO DEUSTUA, PIOTR PIECUCH
     UNIVERSITY OF MINNESOTA:
          YINAN SHU
     UNIVERSITY OF SILESIA: MONIKA MUSIAL, STANISLAW KUCHARSKI
     FACULTES UNIVERSITAIRES NOTRE-DAME DE LA PAIX:
          OLIVIER QUINET, BENOIT CHAMPAGNE
     UNIVERSITY OF CALIFORNIA - SANTA BARBARA: BERNARD KIRTMAN
     INSTITUTE FOR MOLECULAR SCIENCE:
          KAZUYA ISHIMURA, MICHIO KATOUDA, AND SHIGERU NAGASE
     UNIVERSITY OF NOTRE DAME: ANNA POMOGAEVA, DAN CHIPMAN
     KYUSHU UNIVERSITY:
          HARUYUKI NAKANO,
          FENG LONG GU, JACEK KORCHOWIEC, MARCIN MAKOWSKI, AND YURIKO AOKI,
          HIROTOSHI MORI AND EISAKU MIYOSHI
     PENNSYLVANIA STATE UNIVERSITY:
          TZVETELIN IORDANOV, CHET SWALINA, JONATHAN SKONE,
          SHARON HAMMES-SCHIFFER
     WASEDA UNIVERSITY:
          MASATO KOBAYASHI, TOMOKO AKAMA, TSUGUKI TOUMA,
          TAKESHI YOSHIKAWA, YASUHIRO IKABATA, JUNJI SEINO,
          YUYA NAKAJIMA, HIROMI NAKAI
     NANJING UNIVERSITY: SHUHUA LI
     UNIVERSITY OF NEBRASKA:
          PEIFENG SU, DEJUN SI, NANDUN THELLAMUREGE, YALI WANG, HUI LI
     UNIVERSITY OF ZURICH: ROBERTO PEVERATI, KIM BALDRIDGE
     N. COPERNICUS UNIVERSITY AND JACKSON STATE UNIVERSITY:
          MARIA BARYSZ
     UNIVERSITY OF COPENHAGEN: Jimmy Kromann, CASPER STEINMANN
     TOKYO INSTITUTE OF TECHNOLOGY: HIROYA NAKATA
     NAGOYA UNIVERSITY: YOSHIO NISHIMOTO, STEPHAN IRLE
     MOSCOW STATE UNIVERSITY: VLADIMIR MIRONOV


 PARALLEL VERSION RUNNING ON        2 PROCESSORS IN        1 NODES.

 EXECUTION OF GAMESS BEGUN Thu Dec 14 01:16:53 2023

            ECHO OF THE FIRST FEW INPUT CARDS -
 INPUT CARD>8 !Step 2: single point gmcpt calculation averaging 10 states                   
 INPUT CARD> !        for FeF4- at optimized geometry. The UHF orbitals at                  
 INPUT CARD> !        the MP2 optimized structure is taken as the initial                   
 INPUT CARD> !        guess of orbitals in the $VEC group.                                  
 INPUT CARD> $system kdiag=3 mwords=250 memddi=1000 parall=.t. $end                         
 INPUT CARD> $contrl runtyp=energy ispher=1 relwfn=dk $end                                  
 INPUT CARD> $contrl icut=9 itol=20 inttyp=rysquad qmttol=1.0d-05 nosym=1 $end              
 INPUT CARD> $scf    npunch=2 conv=1.0d-06 dirscf=.t. diis=.t. soscf=.f. ethrsh=10.0 $end   
 INPUT CARD> $contrl scftyp=mcscf mult=5 maxit=200 icharg=0 mplevl=2 $end                   
 INPUT CARD> $relwfn norder=3 $end                                                          
 INPUT CARD> $guess  guess=moread norb=158 purify=.t. $end                                  
 INPUT CARD> $basis  gbasis=cct $end                                                        
 INPUT CARD> $mcscf  cistep=gmcci fullnr=.t. finci=mos                                      
 INPUT CARD>         acurcy=1.d-6 maxit=200 $end                                            
 INPUT CARD> $trans  dirtrf=.t. $end                                                        
 INPUT CARD> $mrmp   mrpt=gmcpt rdvecs=.f. $end                                             
 INPUT CARD> $gmcpt  nmofzc=12 nmodoc=12 nmoact=5 nelact=6 stsym(1)=A nsolut=100            
 INPUT CARD>         reftyp=ormas nspace=1 mstart(1)=25 mine(1)=6 maxe(1)=6                 
 INPUT CARD>         kstate(1)=1,1,1                                                        
 INPUT CARD>         wstate(1)=1,1,1                                                        
 INPUT CARD>         iwgt=0 thrwgt=-1.0 krot=.f. kszdoe=.f. knospn=.f.                      
 INPUT CARD>         thrde=-1.0 edshft=0.02 $end                                            
 INPUT CARD> $statpt hssend=.t. $end                                                        
 INPUT CARD> -data                                                                          
 INPUT CARD> FeH4- 10 states calculation at opt geometry.                                   
 INPUT CARD> C1                                                                             
 INPUT CARD> CO         27.0  -0.0000000000  -0.0000000000   0.0000000000                   
 INPUT CARD> F           9.0  -0.8572839723   1.4848593965   0.0000000000                   
 INPUT CARD> F           9.0  -0.8572839723  -1.4848593965   0.0000000000                   
 INPUT CARD> F           9.0   1.7145679445   0.0000000000   0.0000000000                   
 INPUT CARD> $end                                                                           
 INPUT CARD>--- Semi-canonical MOs --- generated at Thu Dec 14 00:13:05 2023                
 INPUT CARD> $VEC                                                                           
 INPUT CARD> 1  1 9.83222004E-01-1.82413001E-01-4.03917786E-04 7.86079817E-06 1.36144212E-07
 INPUT CARD> 1  2 4.95464472E-07 9.25482943E-06 0.00000000E+00 0.00000000E+00 0.00000000E+00
 INPUT CARD> 1  3 2.03419635E-11 0.00000000E+00 0.00000000E+00-7.33513522E-10-3.87092792E-11
 INPUT CARD> 1  4 0.00000000E+00-7.56568207E-10-3.72707905E-11 0.00000000E+00 1.10895576E-10
 INPUT CARD> 1  5 0.00000000E+00 0.00000000E+00 0.00000000E+00 0.00000000E+00 0.00000000E+00
 INPUT CARD> 1  6 5.15935818E-07 5.16019842E-07-1.03195566E-06 0.00000000E+00 0.00000000E+00
 INPUT CARD> 1  7 0.00000000E+00 1.46537404E-06 1.46538960E-06-2.93076364E-06 0.00000000E+00
 INPUT CARD> 1  8 0.00000000E+00 0.00000000E+00 1.25140409E-06 1.25139316E-06-2.50279725E-06
 INPUT CARD> 1  9 0.00000000E+00 0.00000000E+00 0.00000000E+00 9.83268262E-08 9.82903447E-08
 INPUT CARD> 1 10-1.96617171E-07 0.00000000E+00 0.00000000E+00 0.00000000E+00 2.25013746E-08
 INPUT CARD> 1 11 0.00000000E+00 0.00000000E+00 0.00000000E+00 0.00000000E+00-3.02234578E-08
 INPUT CARD> 1 12 0.00000000E+00 4.44363236E-11 0.00000000E+00 0.00000000E+00 7.04341489E-08
 INPUT CARD> 1 13 0.00000000E+00 0.00000000E+00 0.00000000E+00 0.00000000E+00-9.44946372E-08
 INPUT CARD> 1 14 0.00000000E+00 0.00000000E+00 0.00000000E+00 0.00000000E+00-1.41241132E-08
 INPUT CARD> 1 15-1.41178100E-08-3.76575398E-08-3.09179348E-11 0.00000000E+00 0.00000000E+00
 INPUT CARD> 1 16 0.00000000E+00 0.00000000E+00 0.00000000E+00-8.26983080E-09 3.30805324E-08
 INPUT CARD> 1 17 3.30694601E-08 0.00000000E+00 0.00000000E+00 3.98335266E-11-9.52972369E-08
  250000000 WORDS OF MEMORY AVAILABLE

     BASIS OPTIONS
     -------------
     GBASIS=CCT          IGAUSS=       0      POLAR=NONE    
     NDFUNC=       0     NFFUNC=       0     DIFFSP=       F
     NPFUNC=       0      DIFFS=       F     BASNAM=        


     RUN TITLE
     ---------
  CoF3 3 states                                                                  

 THE POINT GROUP OF THE MOLECULE IS C1      
 THE ORDER OF THE PRINCIPAL AXIS IS     0

 ATOM      ATOMIC                      COORDINATES (BOHR)
           CHARGE         X                   Y                   Z
 CO         27.0    -0.0014733756        0.1111941374       -0.0000040226
 F           9.0    -1.6215258884        2.9144901764       -0.0000040825
 F           9.0    -1.6169496467       -2.6948294214       -0.0000039867
 F           9.0     3.2431400778        0.1138204601       -0.0000039987

          INTERNUCLEAR DISTANCES (ANGS.)
          ------------------------------

                1 CO         2 F          3 F          4 F     

   1 CO      0.0000000    1.7133448 *  1.7133850 *  1.7169762 *
   2 F       1.7133448 *  0.0000000    2.9683253 *  2.9704113 *
   3 F       1.7133850 *  2.9683253 *  0.0000000    2.9704236 *
   4 F       1.7169762 *  2.9704113 *  2.9704236 *  0.0000000  

  * ... LESS THAN  3.000


     ATOMIC BASIS SET
     ----------------
 THE CONTRACTED PRIMITIVE FUNCTIONS HAVE BEEN UNNORMALIZED
 THE CONTRACTED BASIS FUNCTIONS ARE NOW NORMALIZED TO UNITY

  SHELL TYPE  PRIMITIVE        EXPONENT          CONTRACTION COEFFICIENT(S)

 CO        

      1   S       1       4675675.0000000    0.000145999981
      1   S       2        700161.5000000    0.000421999945
      1   S       3        159337.3000000    0.001156999849
      1   S       4         45130.4600000    0.002981999612
      1   S       5         14722.3800000    0.007694998999
      1   S       6          5314.2220000    0.019952997404
      1   S       7          2072.0180000    0.050716993401
      1   S       8           858.6188000    0.118229984616
      1   S       9           373.5497000    0.229803970097
      1   S      10           168.9229000    0.317282958714
      1   S      11            78.2963900    0.232324969769
      1   S      12            35.5212300    0.074862990259
      1   S      13            17.0414400    0.094648987684
      1   S      14             8.1730000    0.091624988078
      1   S      15             3.6103180    0.014659998092
      1   S      16             1.6970470   -0.000413999946
      1   S      17             0.7435320    0.000004999999
      1   S      18             0.1583440   -0.000027999996
      1   S      19             0.0750360    0.000028999996

      2   S      20       4675675.0000000   -0.000076999769
      2   S      21        700161.5000000   -0.000221999333
      2   S      22        159337.3000000   -0.000609998169
      2   S      23         45130.4600000   -0.001575995268
      2   S      24         14722.3800000   -0.004084987735
      2   S      25          5314.2220000   -0.010677967940
      2   S      26          2072.0180000   -0.027612917094
      2   S      27           858.6188000   -0.066815799389
      2   S      28           373.5497000   -0.140978576719
      2   S      29           168.9229000   -0.232920300669
      2   S      30            78.2963900   -0.232045303296
      2   S      31            35.5212300    0.046552860228
      2   S      32            17.0414400    0.516963447845
      2   S      33             8.1730000    0.484838544298
      2   S      34             3.6103180    0.083288749930
      2   S      35             1.6970470   -0.005810982553
      2   S      36             0.7435320   -0.000053999838
      2   S      37             0.1583440   -0.000467998595
      2   S      38             0.0750360    0.000388998832

      3   S      39       4675675.0000000    0.000018010484
      3   S      40        700161.5000000    0.000052030288
      3   S      41        159337.3000000    0.000142082711
      3   S      42         45130.4600000    0.000367213766
      3   S      43         14722.3800000    0.000954555676
      3   S      44          5314.2220000    0.002513463163
      3   S      45          2072.0180000    0.006567823328
      3   S      46           858.6188000    0.016340512306
      3   S      47           373.5497000    0.036207077234
      3   S      48           168.9229000    0.066390648003
      3   S      49            78.2963900    0.075386884984
      3   S      50            35.5212300   -0.026502427864
      3   S      51            17.0414400   -0.314988364248
      3   S      52             8.1730000   -0.446972196026
      3   S      53             3.6103180    0.160213264984
      3   S      54             1.6970470    0.721744149085
      3   S      55             0.7435320    0.382579711214
      3   S      56             0.1583440    0.018198593952
      3   S      57             0.0750360   -0.006418736541

      4   S      58       4675675.0000000   -0.000005349430
      4   S      59        700161.5000000   -0.000014710932
      4   S      60        159337.3000000   -0.000040120724
      4   S      61         45130.4600000   -0.000104313882
      4   S      62         14722.3800000   -0.000272820922
      4   S      63          5314.2220000   -0.000716823598
      4   S      64          2072.0180000   -0.001874975158
      4   S      65           858.6188000   -0.004667377533
      4   S      66           373.5497000   -0.010351146735
      4   S      67           168.9229000   -0.019043970220
      4   S      68            78.2963900   -0.021701299491
      4   S      69            35.5212300    0.007612238658
      4   S      70            17.0414400    0.095134260221
      4   S      71             8.1730000    0.140985560711
      4   S      72             3.6103180   -0.061768528970
      4   S      73             1.6970470   -0.296896030667
      4   S      74             0.7435320   -0.305752011762
      4   S      75             0.1583440    0.389615023316
      4   S      76             0.0750360    0.753009816286

      5   S      77       4675675.0000000   -0.000007075152
      5   S      78        700161.5000000   -0.000022236194
      5   S      79        159337.3000000   -0.000059633428
      5   S      80         45130.4600000   -0.000156664091
      5   S      81         14722.3800000   -0.000395197803
      5   S      82          5314.2220000   -0.001092605691
      5   S      83          2072.0180000   -0.002666321752
      5   S      84           858.6188000   -0.007263149397
      5   S      85           373.5497000   -0.014292818762
      5   S      86           168.9229000   -0.031131681683
      5   S      87            78.2963900   -0.025298723825
      5   S      88            35.5212300   -0.006568773717
      5   S      89            17.0414400    0.186815358499
      5   S      90             8.1730000    0.148057673170
      5   S      91             3.6103180    0.030579819789
      5   S      92             1.6970470   -0.952353932843
      5   S      93             0.7435320    0.303862638314
      5   S      94             0.1583440    1.760113985026
      5   S      95             0.0750360   -0.864157103400

      6   S      96       4675675.0000000   -0.000007971013
      6   S      97        700161.5000000   -0.000023913038
      6   S      98        159337.3000000   -0.000064994411
      6   S      99         45130.4600000   -0.000171070196
      6   S     100         14722.3800000   -0.000429821532
      6   S     101          5314.2220000   -0.001190746670
      6   S     102          2072.0180000   -0.002895930238
      6   S     103           858.6188000   -0.007934223434
      6   S     104           373.5497000   -0.015539182728
      6   S     105           168.9229000   -0.034225689172
      6   S     106            78.2963900   -0.027571119857
      6   S     107            35.5212300   -0.008158638100
      6   S     108            17.0414400    0.214377934589
      6   S     109             8.1730000    0.213295103169
      6   S     110             3.6103180   -0.167326885945
      6   S     111             1.6970470   -1.283482045167
      6   S     112             0.7435320    1.576533875342
      6   S     113             0.1583440   -0.237262712120
      6   S     114             0.0750360   -0.974716283140

      7   S     115             0.0330910    1.000000000000

      8   P     116         19267.7800000    0.000129999932
      8   P     117          4560.9860000    0.000581999693
      8   P     118          1481.4360000    0.002647998605
      8   P     119           566.8671000    0.010380994531
      8   P     120           240.4910000    0.034962981581
      8   P     121           109.6105000    0.097228948778
      8   P     122            52.5949100    0.211247888710
      8   P     123            26.0836100    0.333851824119
      8   P     124            13.2614300    0.329750826280
      8   P     125             6.7997780    0.152293919768
      8   P     126             3.3934140    0.020264989324
      8   P     127             1.6487660   -0.002284998796
      8   P     128             0.7762820   -0.001810999046
      8   P     129             0.2972090   -0.000295999844
      8   P     130             0.1133520    0.000027999985

      9   P     131         19267.7800000   -0.000046004747
      9   P     132          4560.9860000   -0.000208021465
      9   P     133          1481.4360000   -0.000947097730
      9   P     134           566.8671000   -0.003738385759
      9   P     135           240.4910000   -0.012751315792
      9   P     136           109.6105000   -0.036450761307
      9   P     137            52.5949100   -0.082243486600
      9   P     138            26.0836100   -0.137013138210
      9   P     139            13.2614300   -0.137135150800
      9   P     140             6.7997780    0.039325057902
      9   P     141             3.3934140    0.341261214307
      9   P     142             1.6487660    0.453680814741
      9   P     143             0.7762820    0.276142494790
      9   P     144             0.2972090    0.043669506200
      9   P     145             0.1133520   -0.003070316822

     10   P     146         19267.7800000   -0.000013858660
     10   P     147          4560.9860000   -0.000063749836
     10   P     148          1481.4360000   -0.000289645993
     10   P     149           566.8671000   -0.001143339445
     10   P     150           240.4910000   -0.003903984506
     10   P     151           109.6105000   -0.011181166843
     10   P     152            52.5949100   -0.025316999987
     10   P     153            26.0836100   -0.042388097306
     10   P     154            13.2614300   -0.042799699507
     10   P     155             6.7997780    0.017050309330
     10   P     156             3.3934140    0.125325247744
     10   P     157             1.6487660    0.181298989394
     10   P     158             0.7762820    0.095917171342
     10   P     159             0.2972090   -0.311656316564
     10   P     160             0.1133520   -0.789466878935

     11   P     161         19267.7800000    0.000016581869
     11   P     162          4560.9860000    0.000074618409
     11   P     163          1481.4360000    0.000337855576
     11   P     164           566.8671000    0.001345204102
     11   P     165           240.4910000    0.004551722970
     11   P     166           109.6105000    0.013161858316
     11   P     167            52.5949100    0.029457689824
     11   P     168            26.0836100    0.050297989735
     11   P     169            13.2614300    0.049488587267
     11   P     170             6.7997780   -0.017257579896
     11   P     171             3.3934140   -0.159255376520
     11   P     172             1.6487660   -0.213142304472
     11   P     173             0.7762820   -0.074804955373
     11   P     174             0.2972090    0.500711290436
     11   P     175             0.1133520    0.621272876241

     12   P     176         19267.7800000    0.000034683347
     12   P     177          4560.9860000    0.000153447537
     12   P     178          1481.4360000    0.000732554340
     12   P     179           566.8671000    0.002737882431
     12   P     180           240.4910000    0.009932049511
     12   P     181           109.6105000    0.026649423006
     12   P     182            52.5949100    0.065290876163
     12   P     183            26.0836100    0.098729827196
     12   P     184            13.2614300    0.131805128584
     12   P     185             6.7997780   -0.072788785287
     12   P     186             3.3934140   -0.436056911949
     12   P     187             1.6487660   -0.600448622025
     12   P     188             0.7762820    0.952200826307
     12   P     189             0.2972090    0.722181916697
     12   P     190             0.1133520   -0.935520238180

     13   P     191             0.0415100    1.000000000000

     14   D     192           128.3920000    0.003564654150
     14   D     193            37.8938000    0.026018415728
     14   D     194            13.8798000    0.100770382832
     14   D     195             5.6254400    0.243209080982
     14   D     196             2.3353900    0.362212593517
     14   D     197             0.9351920    0.366548148621
     14   D     198             0.3469530    0.243283323423

     15   D     199           128.3920000   -0.005114551471
     15   D     200            37.8938000   -0.037404797215
     15   D     201            13.8798000   -0.149053002351
     15   D     202             5.6254400   -0.364523456867
     15   D     203             2.3353900   -0.403059368909
     15   D     204             0.9351920    0.107801911447
     15   D     205             0.3469530    0.703484221917

     16   D     206           128.3920000    0.006647226101
     16   D     207            37.8938000    0.049143554806
     16   D     208            13.8798000    0.203208082844
     16   D     209             5.6254400    0.495604641619
     16   D     210             2.3353900    0.113921210473
     16   D     211             0.9351920   -0.930850963930
     16   D     212             0.3469530   -0.010089886694

     17   D     213             0.1117230    1.000000000000

     18   F     214             3.7724000    1.000000000000

     19   F     215             0.9170000    1.000000000000

     20   G     216             2.4229000    1.000000000000

 F         

     21   S     217         19500.0000000    0.000810497692
     21   S     218          2923.0000000    0.004425831577
     21   S     219           664.5000000    0.021308622435
     21   S     220           187.5000000    0.081729161483
     21   S     221            60.6200000    0.236684684575
     21   S     222            21.4200000    0.443072754428
     21   S     223             7.9500000    0.357461439082
     21   S     224             0.8815000   -0.008043009132

     22   S     225         19500.0000000   -0.000312939415
     22   S     226          2923.0000000   -0.001717500191
     22   S     227           664.5000000   -0.008308498837
     22   S     228           187.5000000   -0.032969147985
     22   S     229            60.6200000   -0.102252229103
     22   S     230            21.4200000   -0.239222826672
     22   S     231             7.9500000   -0.300328383052
     22   S     232             0.8815000    1.031717252585

     23   S     233             2.2570000    1.000000000000

     24   S     234             0.3041000    1.000000000000

     25   P     235            43.8800000    0.042223391301
     25   P     236             9.9260000    0.262966024375
     25   P     237             2.9300000    0.797437251356

     26   P     238             0.9132000    1.000000000000

     27   P     239             0.2672000    1.000000000000

     28   D     240             3.1070000    1.000000000000

     29   D     241             0.8550000    1.000000000000

     30   F     242             1.9170000    1.000000000000

 F         

     31   S     243         19500.0000000    0.000810497692
     31   S     244          2923.0000000    0.004425831577
     31   S     245           664.5000000    0.021308622435
     31   S     246           187.5000000    0.081729161483
     31   S     247            60.6200000    0.236684684575
     31   S     248            21.4200000    0.443072754428
     31   S     249             7.9500000    0.357461439082
     31   S     250             0.8815000   -0.008043009132

     32   S     251         19500.0000000   -0.000312939415
     32   S     252          2923.0000000   -0.001717500191
     32   S     253           664.5000000   -0.008308498837
     32   S     254           187.5000000   -0.032969147985
     32   S     255            60.6200000   -0.102252229103
     32   S     256            21.4200000   -0.239222826672
     32   S     257             7.9500000   -0.300328383052
     32   S     258             0.8815000    1.031717252585

     33   S     259             2.2570000    1.000000000000

     34   S     260             0.3041000    1.000000000000

     35   P     261            43.8800000    0.042223391301
     35   P     262             9.9260000    0.262966024375
     35   P     263             2.9300000    0.797437251356

     36   P     264             0.9132000    1.000000000000

     37   P     265             0.2672000    1.000000000000

     38   D     266             3.1070000    1.000000000000

     39   D     267             0.8550000    1.000000000000

     40   F     268             1.9170000    1.000000000000

 F         

     41   S     269         19500.0000000    0.000810497692
     41   S     270          2923.0000000    0.004425831577
     41   S     271           664.5000000    0.021308622435
     41   S     272           187.5000000    0.081729161483
     41   S     273            60.6200000    0.236684684575
     41   S     274            21.4200000    0.443072754428
     41   S     275             7.9500000    0.357461439082
     41   S     276             0.8815000   -0.008043009132

     42   S     277         19500.0000000   -0.000312939415
     42   S     278          2923.0000000   -0.001717500191
     42   S     279           664.5000000   -0.008308498837
     42   S     280           187.5000000   -0.032969147985
     42   S     281            60.6200000   -0.102252229103
     42   S     282            21.4200000   -0.239222826672
     42   S     283             7.9500000   -0.300328383052
     42   S     284             0.8815000    1.031717252585

     43   S     285             2.2570000    1.000000000000

     44   S     286             0.3041000    1.000000000000

     45   P     287            43.8800000    0.042223391301
     45   P     288             9.9260000    0.262966024375
     45   P     289             2.9300000    0.797437251356

     46   P     290             0.9132000    1.000000000000

     47   P     291             0.2672000    1.000000000000

     48   D     292             3.1070000    1.000000000000

     49   D     293             0.8550000    1.000000000000

     50   F     294             1.9170000    1.000000000000

 TOTAL NUMBER OF BASIS SET SHELLS             =   50
 NUMBER OF CARTESIAN GAUSSIAN BASIS FUNCTIONS =  189
 NOTE: THIS RUN WILL RESTRICT THE MO VARIATION SPACE TO SPHERICAL HARMONICS.
 THE NUMBER OF ORBITALS KEPT IN THE VARIATIONAL SPACE WILL BE PRINTED LATER.
 NUMBER OF ELECTRONS                          =   54
 CHARGE OF MOLECULE                           =    0
 SPIN MULTIPLICITY                            =    5
 NUMBER OF OCCUPIED ORBITALS (ALPHA)          =   29
 NUMBER OF OCCUPIED ORBITALS (BETA )          =   25
 TOTAL NUMBER OF ATOMS                        =    4
 THE NUCLEAR REPULSION ENERGY IS      268.2961170214

     ---------------------------------
     RELATIVISTIC WAVEFUNCTION OPTIONS
     ---------------------------------
     METHOD=DK       NORDER= 3       NESOC=  0      MODEQR=      1
     NRATOM=  0      QMTTOL= 1.000E-10      QRTOL= 1.000E-02
     CLIGHT=137.03598950     TAU= 3.500E+00

 INTERNAL BASIS SET UNCONTRACTION FOR RESC/DK/IOTC/LUT-IOTC:
   101 SHELLS AND    292 AOS ARE CONSTRUCTED, COMPARED TO
    50 SHELLS AND    189 AOS IN THE CONTRACTED BASIS SET

   193 REDUNDANT PRIMITIVE(S) ELIMINATED.


     $CONTRL OPTIONS
     ---------------
 SCFTYP=MCSCF        RUNTYP=ENERGY       EXETYP=RUN     
 MPLEVL=       2     CITYP =NONE         CCTYP =NONE         VBTYP =NONE    
 DFTTYP=NONE         TDDFT =NONE    
 MULT  =       5     ICHARG=       0     NZVAR =       0     COORD =UNIQUE  
 PP    =NONE         RELWFN=DK           LOCAL =NONE         NUMGRD=       F
 ISPHER=       1     NOSYM =       1     MAXIT =     200     UNITS =ANGS    
 PLTORB=       F     MOLPLT=       F     AIMPAC=       F     FRIEND=        
 NPRINT=       7     IREST =       0     GEOM  =INPUT   
 NORMF =       0     NORMP =       0     ITOL  =      20     ICUT  =       9
 INTTYP=RYSQUAD      GRDTYP=BEST         QMTTOL= 1.0E-05

     $SYSTEM OPTIONS
     ---------------
  REPLICATED MEMORY=   250000000 WORDS (ON EVERY NODE).
 DISTRIBUTED MEMDDI=        1000 MILLION WORDS IN AGGREGATE,
 MEMDDI DISTRIBUTED OVER   2 PROCESSORS IS   500000000 WORDS/PROCESSOR.
 TOTAL MEMORY REQUESTED ON EACH PROCESSOR=   750000000 WORDS.
 TIMLIM=      525600.00 MINUTES, OR     365.0 DAYS.
 PARALL= T  BALTYP=  DLB     KDIAG=    3  COREFL= F
 MXSEQ2=     300 MXSEQ3=     150  mem10=         0

          ----------------
          PROPERTIES INPUT
          ----------------

     MOMENTS            FIELD           POTENTIAL          DENSITY
 IEMOM =       1   IEFLD =       0   IEPOT =       0   IEDEN =       0
 WHERE =COMASS     WHERE =NUCLEI     WHERE =NUCLEI     WHERE =NUCLEI  
 OUTPUT=BOTH       OUTPUT=BOTH       OUTPUT=BOTH       OUTPUT=BOTH    
 IEMINT=       0   IEFINT=       0                     IEDINT=       0
                                                       MORB  =       0

     -------------------------------
     INTEGRAL TRANSFORMATION OPTIONS
     -------------------------------
     NWORD  =            0
     CUTOFF = 1.0E-09     MPTRAN =       0
     DIRTRF =       T     AOINTS =DUP     

          ----------------------
          MCSCF INPUT PARAMETERS
          ----------------------
 CONVERGER SELECTION: FOCAS = F  SOSCF = F  FULLNR = T  QUD = F  JACOBI = F
 SECULAR EQUATION METHOD CISTEP = GMCCI   
 --- GENERAL INPUT OPTIONS:
 MAXIT =     200  MICIT =       1  ACURCY= 1.000E-06
 DAMP  =   0.000  CANONC=       T  ENGTOL= 1.000E-10
 EKT   =       F  NPUNCH=       2  NWORD =         0
 REGENERATE CI AFTER CONVERGENCE = NONE    
 DIABATIZATION AFTER CONVERGENCE =        F
 --- INPUT FOR FULLNR CONVERGER:
 METHOD=DM2       FORS  =       F  DROPC =       T
 LINSER=       F  FCORE =       F  NORB  =     189

          ----------------------
          INTEGRAL INPUT OPTIONS
          ----------------------
 NOPK  =       1 NORDER=       0 SCHWRZ=       T

 ------------------------------------------
 MULTIREFERENCE PERTURBATION THEORY CONTROL
 ------------------------------------------
 MRPT=GMCPT    READ CONVERGED MCSCF VECTORS= F


     ------------------------------------------
     THE POINT GROUP IS C1 , NAXIS= 1, ORDER= 1
     ------------------------------------------

 -- VARIATIONAL SPACE WILL BE RESTRICTED TO PURE SPHERICAL HARMONICS ONLY --
 AFTER EXCLUDING CONTAMINANT COMBINATIONS FROM THE CARTESIAN GAUSSIAN BASIS
 SET, THE NUMBER OF SPHERICAL HARMONICS KEPT IN THE VARIATION SPACE IS  158

     DIMENSIONS OF THE SYMMETRY SUBSPACES ARE
 A   =  158

 ..... DONE SETTING UP THE RUN .....
 CPU     0: STEP CPU TIME=     0.23 TOTAL CPU TIME=          0.2 (      0.0 MIN)
 TOTAL WALL CLOCK TIME=          0.3 SECONDS, CPU UTILIZATION IS    82.14%

          ********************
          1 ELECTRON INTEGRALS
          ********************
 TIME TO DO ORDINARY INTEGRALS=      0.01

 ------------------------------------------------------------------
 3RD ORDER DOUGLAS-KROLL-HESS RELATIVISTIC ONE-ELECTRON HAMILTONIAN
            CODED BY TAKAHITO NAKAJIMA AND DMITRI FEDOROV
 ------------------------------------------------------------------

 TIME TO DO  RELATIVISTIC INTS=      1.37
 TIME TO DO   DIPOLE INTEGRALS=      0.01
 ...... END OF ONE-ELECTRON INTEGRALS ......
 CPU     0: STEP CPU TIME=     1.39 TOTAL CPU TIME=          1.6 (      0.0 MIN)
 TOTAL WALL CLOCK TIME=          1.7 SECONDS, CPU UTILIZATION IS    94.19%

          -------------
          GUESS OPTIONS
          -------------
          GUESS =MOREAD            NORB  =     158          NORDER=       0
          MIX   =       F          PRTMO =       F          PUNMO =       F
          TOLZ  = 1.0E-08          TOLE  = 1.0E-05
          SYMDEN=       F          PURIFY=       T

 INITIAL GUESS ORBITALS GENERATED BY MOREAD   ROUTINE.

 STATISTICS FOR GENERATION OF SYMMETRY ORBITAL -Q- MATRIX
 NUMBER OF CARTESIAN ATOMIC ORBITALS=        189
 NUMBER OF SPHERICAL CONTAMINANTS DROPPED=    31
 NUMBER OF LINEARLY DEPENDENT MOS DROPPED=     0
 TOTAL NUMBER OF MOS IN VARIATION SPACE=     158
 ORBITAL PURIFICATION WILL OCCUR

 SYMMETRIES FOR INITIAL GUESS ORBITALS FOLLOW.   BOTH SET(S).
    29 ORBITALS ARE OCCUPIED (   12 CORE ORBITALS).
     1=A        2=A        3=A        4=A        5=A        6=A        7=A   
     8=A        9=A       10=A       11=A       12=A       13=A       14=A   
    15=A       16=A       17=A       18=A       19=A       20=A       21=A   
    22=A       23=A       24=A       25=A       26=A       27=A       28=A   
    29=A       30=A       31=A       32=A       33=A       34=A       35=A   
    36=A       37=A       38=A       39=A       40=A       41=A       42=A   
    43=A       44=A       45=A       46=A       47=A       48=A       49=A   
    50=A       51=A       52=A       53=A       54=A       55=A       56=A   
    57=A       58=A       59=A       60=A       61=A       62=A       63=A   
    64=A       65=A       66=A       67=A       68=A       69=A       70=A   
    71=A       72=A       73=A       74=A       75=A       76=A       77=A   
    78=A       79=A       80=A       81=A       82=A       83=A       84=A   
    85=A       86=A       87=A       88=A       89=A       90=A       91=A   
    92=A       93=A       94=A       95=A       96=A       97=A       98=A   
    99=A      100=A      101=A      102=A      103=A      104=A      105=A   
   106=A      107=A      108=A      109=A      110=A      111=A      112=A   
   113=A      114=A      115=A      116=A      117=A      118=A      119=A   
   120=A      121=A      122=A      123=A      124=A      125=A      126=A   
   127=A      128=A      129=A      130=A      131=A      132=A      133=A   
   134=A      135=A      136=A      137=A      138=A      139=A      140=A   
   141=A      142=A      143=A      144=A      145=A      146=A      147=A   
   148=A      149=A      150=A      151=A      152=A      153=A      154=A   
   155=A      156=A      157=A      158=A   
 ...... END OF INITIAL ORBITAL SELECTION ......
 CPU     0: STEP CPU TIME=     0.25 TOTAL CPU TIME=          1.9 (      0.0 MIN)
 TOTAL WALL CLOCK TIME=          2.0 SECONDS, CPU UTILIZATION IS    93.97%

                    ----------------------
                    AO INTEGRAL TECHNOLOGY
                    ----------------------
     S,P,L SHELL ROTATED AXIS INTEGRALS, REPROGRAMMED BY
        KAZUYA ISHIMURA (IMS) AND JOSE SIERRA (SYNSTAR).
     S,P,D,L SHELL ROTATED AXIS INTEGRALS PROGRAMMED BY
        KAZUYA ISHIMURA (INSTITUTE FOR MOLECULAR SCIENCE).
     S,P,D,F,G SHELL TO TOTAL QUARTET ANGULAR MOMENTUM SUM 5,
        ERIC PROGRAM BY GRAHAM FLETCHER (ELORET AND NASA ADVANCED
        SUPERCOMPUTING DIVISION, AMES RESEARCH CENTER).
     S,P,D,F,G,L SHELL GENERAL RYS QUADRATURE PROGRAMMED BY
        MICHEL DUPUIS (PACIFIC NORTHWEST NATIONAL LABORATORY).

          --------------------
          2 ELECTRON INTEGRALS
          --------------------

 DIRECT SCF METHOD SKIPS INTEGRAL STORAGE ON DISK.
 DIRECT TRANSFORMATION SKIPS AO INTEGRAL STORAGE ON DISK.
  ...... END OF TWO-ELECTRON INTEGRALS .....
 STEP CPU TIME =     0.01 TOTAL CPU TIME =          1.9 (      0.0 MIN)
 TOTAL WALL CLOCK TIME=          2.0 SECONDS, CPU UTILIZATION IS    94.00%
 DDI: Creating Array [0] - 35721 x 435 = 15538635 words.
 DDI: Creating Array [1] - 129 x 12615 = 1627335 words.
 DDI: Creating Array [2] - 435 x 435 = 189225 words.
 DDI: Creating Array [3] - 17955 x 435 = 7810425 words.

          -----------------
          MCSCF CALCULATION
          -----------------

 ----- NUCLEAR ENERGY ----- =       268.2961170214

     -------------------------------------------------
     GMC-PT/GMC-QDPT or general MCSCF input parameters
     -------------------------------------------------
 # of frozen core orbs. =        12 ->         0
 # of doubly occ. orbs. =        12
 # of active      orbs. =         5
 # of virtual     orbs. =       129
 # of active electrons  =         6
 # of states in CI      =         3
 Highest state in CI    =         3
 kstate =  1 1 1
 avecoe =  0.333 0.333 0.333
 State symmetry           = A           
 Assigned symmetry number = 1

 <<<Act. MO sym.: 11111

 <<<Division of 1-ext.:  0 0
 <<<Division of 2-ext.:  0 1

 *** Reference space

 Reference type: ORMAS (= Occupation restricted multiple active space)
 # of orbitals          =  5
 # of minimum electrons =  6
 # of maximum electrons =  6
 State symmetry    =    1 (input)
 2*Sz              =    4 (input)
 Spin multiplicity =    5 (input)
 Dimension of reference space =         5  (from       210 walks)

 Dimension of reference space =         5  (from         5 walks)

 <<<Ionized spaces for Ref-CI:
      0:            5 /   -1-0:           26 /  0-1-0:           55

 EVALUATING EXCHANGE INTEGRALS FOR DIRECT INTEGRAL TRANSFORMATION
 SCHWARZ INEQUALITY OVERHEAD:     17658 INTEGRALS, T=        0.76

     --------------------------------------------
     PARTIAL TWO ELECTRON INTEGRAL TRANSFORMATION
     --------------------------------------------

 NUMBER OF CORE MOLECULAR ORBITALS     =   24
 NUMBER OF OCCUPIED MOLECULAR ORBITALS =   29
 TOTAL NUMBER OF MOLECULAR ORBITALS    =  158
 TOTAL NUMBER OF ATOMIC ORBITALS       =  189
 THRESHOLD FOR KEEPING TRANSFORMED 2E- INTEGRALS = 1.000E-09

 -------------------------------     ------------------------------
 DISTRIBUTED DATA TRANSFORMATION     PROGRAM WRITTEN BY G. FLETCHER
 -------------------------------     ------------------------------

 THE DISTRIBUTED MEMORY REQUIRED FOR THIS STEP IS MEMDDI=        26 MWORDS
 CREATING DISTRIBUTED STORAGE FOR [VIR OCC|VIR OCC] INTEGRALS
 CREATING DISTRIBUTED STORAGE FOR [VIR OCC|OCC OCC] INTEGRALS
 CREATING DISTRIBUTED STORAGE FOR [OCC OCC|OCC OCC] INTEGRALS
 CREATING DISTRIBUTED STORAGE FOR [VIR VIR|OCC OCC] INTEGRALS
 FOR    2 PROCESSORS, THE REPLICATED MEMORY NEEDED IS     3477743 WORDS.
 SCHWARZ INEQUALITY OVERHEAD:     17658 INTEGRALS, T=        0.73

      DIRECT 4-INDEX TRANSFORMATION 
      SCHWARZ INEQUALITY TEST SKIPPED     288686 INTEGRAL BLOCKS
 ----- FROZEN CORE ENERGY =     -1940.0903531120
 ... END OF INTEGRAL TRANSFORMATION ...
 CPU     0: STEP CPU TIME=   281.54 TOTAL CPU TIME=        283.4 (      4.7 MIN)
 TOTAL WALL CLOCK TIME=        283.7 SECONDS, CPU UTILIZATION IS    99.90%

     --------------------------------     -----------------------------
     MCHF NEWTON-RAPHSON OPTIMIZATION     CODE WRITTEN BY MICHEL DUPUIS
     --------------------------------     -----------------------------
     PARALLEL VERSION WRITTEN BY G. FLETCHER (ELORET)
     NASA ADVANCED SUPERCOMPUTING DIVISION, AMES RESEARCH CENTER

 NUMBER OF INDEPENDENT ORBITAL ROTATION PARAMETERS =  2366
 ..... DONE SOLVING NEWTON-RAPHSON EQUATIONS .....
 CPU     0: STEP CPU TIME=     0.71 TOTAL CPU TIME=        284.1 (      4.7 MIN)
 TOTAL WALL CLOCK TIME=        285.1 SECONDS, CPU UTILIZATION IS    99.65%
 ..... DONE WITH NTN-RPH ORBITAL ROTATIONS ..... 
 CPU     0: STEP CPU TIME=     0.02 TOTAL CPU TIME=        284.2 (      4.7 MIN)
 TOTAL WALL CLOCK TIME=        285.1 SECONDS, CPU UTILIZATION IS    99.66%
 MAXIMUM MEMORY USED BY NTN-RPH CODE WAS    469498 WORDS.

 ITER     TOTAL ENERGY      DEL(E)  LAGRANGIAN ASYMMETRY   SQCDF  MICIT   DAMP
   1    -1690.666469401 -0.666469401  0.000447   62   21 2.810E-06  1   0.0000
   2    -1690.666472019 -0.000002618  0.000023  150   12 2.384E-10  1   0.0000
   3    -1690.666472019 -0.000000000  0.000002  150   12 1.822E-12  1   0.0000

          ---------------
          SQCDF CONVERGED (BUT THE LAGRANGIAN MATRIX IS NOT ENTIRELY SYMMETRIC)
          ---------------

 FINAL MCSCF ENERGY IS    -1690.6664720193 AFTER   3 ITERATIONS

 -MCCI- BASED ON OPTIMIZED ORBITALS
 ----------------------------------

 PLEASE NOTE: IF THE ACTIVE ORBITALS ARE CANONICALIZED BELOW,
 THE FOLLOWING CI EXPANSION COEFFICIENTS AND THE DENSITY DO NOT
 CORRESPOND TO THE PRINTED ORBITALS.  THE PRINTED EXPANSIONS MATCH
 THE ORBITALS USED DURING THE LAST ITERATION.  IF YOU WISH TO SEE
 CI EXPANSIONS BASED ON THE CANONICAL (OR NATURAL) ORBITALS, YOU
 MUST RUN A CI CALCULATION WITH THAT ORBITAL CHOICE READ IN $VEC.

 Averaged energy =   -1690.666472019

 State #    1  Energy =   -1690.672533870  S =  2.000

      Det      Coef    Occupancy (Ignoring core)
      ---      ----    --------- --------- -----
        1   -0.999998  1111110000

 State #    2  Energy =   -1690.663540199  S =  2.000

      Det      Coef    Occupancy (Ignoring core)
      ---      ----    --------- --------- -----
        2    0.108966  1111101000
        3    0.994045  1111100100

 State #    3  Energy =   -1690.663341989  S =  2.000

      Det      Coef    Occupancy (Ignoring core)
      ---      ----    --------- --------- -----
        2   -0.994045  1111101000
        3    0.108966  1111100100

 DENSITY MATRIX OVER ACTIVE MO-S

             1           2           3           4           5

    1    1.3333319
    2   -0.0000000   1.3333333
    3   -0.0000000  -0.0000000   1.3333333
    4    0.0007017   0.0000000   0.0000000   1.0000015
    5   -0.0000113  -0.0000000   0.0000000  -0.0000000   1.0000000

 FORMING THE "STANDARD FOCK OPERATOR" IN DIRECT AO INTEGRAL MODE...
 ONLY THE   24 CORE AND  129 VIRTUAL ORBITALS WILL BE CANONICALIZED

          ----------------------
          MCSCF NATURAL ORBITALS
          ----------------------

                      1          2          3          4          5
                 -286.0500   -35.7588   -30.5278   -30.5278   -30.5209
                     A          A          A          A          A   
    1  CO 1  S    0.983222   0.182405   0.000000  -0.000001  -0.000000
    2  CO 1  S   -0.182413   0.983188   0.000000  -0.000003  -0.000000
    3  CO 1  S   -0.000404   0.005228  -0.000000   0.000000  -0.000000
    4  CO 1  S    0.000008  -0.000482   0.000000  -0.000000  -0.000000
    5  CO 1  S    0.000000   0.000194  -0.000000   0.000000  -0.000000
    6  CO 1  S    0.000000  -0.000323   0.000000  -0.000000  -0.000000
    7  CO 1  S    0.000009  -0.000041  -0.000000   0.000000   0.000000
    8  CO 1  X    0.000000   0.000003  -0.005908   0.999948   0.000000
    9  CO 1  Y   -0.000000  -0.000000   0.999948   0.005908   0.000000
   10  CO 1  Z   -0.000000   0.000000  -0.000000  -0.000000   0.999964
   11  CO 1  X    0.000000   0.000000  -0.000047   0.007928   0.000000
   12  CO 1  Y   -0.000000   0.000000   0.007927   0.000047   0.000000
   13  CO 1  Z    0.000000  -0.000000  -0.000000  -0.000000   0.008135
   14  CO 1  X    0.000000  -0.000001  -0.000011   0.001939  -0.000000
   15  CO 1  Y   -0.000000   0.000000   0.001936   0.000011   0.000000
   16  CO 1  Z   -0.000000  -0.000000   0.000000  -0.000000   0.001577
   17  CO 1  X    0.000000  -0.000002  -0.000011   0.001901  -0.000000
   18  CO 1  Y   -0.000000   0.000000   0.001897   0.000011   0.000000
   19  CO 1  Z   -0.000000  -0.000000   0.000000  -0.000000   0.001527
   20  CO 1  X    0.000000  -0.000000   0.000002  -0.000313   0.000000
   21  CO 1  Y   -0.000000  -0.000000  -0.000313  -0.000002  -0.000000
   22  CO 1  Z    0.000000   0.000000   0.000000  -0.000000  -0.000258
   23  CO 1  X   -0.000000   0.000000  -0.000000   0.000011  -0.000000
   24  CO 1  Y    0.000000  -0.000000   0.000011   0.000000  -0.000000
   25  CO 1  Z    0.000000   0.000000   0.000000  -0.000000   0.000016
   26  CO 1 XX    0.000001  -0.000053   0.000000  -0.000108  -0.000000
   27  CO 1 YY    0.000000  -0.000053  -0.000000   0.000109  -0.000000
   28  CO 1 ZZ   -0.000001   0.000106   0.000000  -0.000001   0.000000
   29  CO 1 XY    0.000000   0.000000   0.000128   0.000000   0.000000
   30  CO 1 XZ    0.000000   0.000000  -0.000000  -0.000000   0.000001
   31  CO 1 YZ    0.000000   0.000000   0.000000  -0.000000  -0.000000
   32  CO 1 XX    0.000001   0.000048  -0.000000   0.000032  -0.000000
   33  CO 1 YY    0.000001   0.000049   0.000000  -0.000032  -0.000000
   34  CO 1 ZZ   -0.000003  -0.000098   0.000000  -0.000000   0.000000
   35  CO 1 XY    0.000000  -0.000000  -0.000036  -0.000000  -0.000000
   36  CO 1 XZ    0.000000   0.000000  -0.000000  -0.000000   0.000000
   37  CO 1 YZ    0.000000   0.000000   0.000000  -0.000000  -0.000000
   38  CO 1 XX    0.000001   0.000095  -0.000000   0.000020  -0.000000
   39  CO 1 YY    0.000001   0.000096   0.000000  -0.000020  -0.000000
   40  CO 1 ZZ   -0.000003  -0.000191   0.000000  -0.000000   0.000000
   41  CO 1 XY    0.000000  -0.000000  -0.000022  -0.000000  -0.000000
   42  CO 1 XZ    0.000000   0.000000  -0.000000  -0.000000   0.000000
   43  CO 1 YZ    0.000000   0.000000   0.000000  -0.000000  -0.000000
   44  CO 1 XX    0.000000  -0.000016   0.000000  -0.000004  -0.000000
   45  CO 1 YY    0.000000  -0.000016  -0.000000   0.000004   0.000000
   46  CO 1 ZZ   -0.000000   0.000032  -0.000000   0.000000  -0.000000
   47  CO 1 XY   -0.000000   0.000000   0.000004   0.000000   0.000000
   48  CO 1 XZ    0.000000   0.000000   0.000000   0.000000  -0.000000
   49  CO 1 YZ   -0.000000   0.000000   0.000000  -0.000000   0.000000
   50  CO 1 XXX   0.000000  -0.000003   0.000000  -0.000002  -0.000000
   51  CO 1 YYY  -0.000000   0.000000  -0.000002  -0.000000  -0.000000
   52  CO 1 ZZZ   0.000000   0.000000   0.000000  -0.000000  -0.000092
   53  CO 1 XXY   0.000000  -0.000000  -0.000001  -0.000000  -0.000000
   54  CO 1 XXZ   0.000000  -0.000000   0.000000   0.000000   0.000062
   55  CO 1 YYX  -0.000000   0.000004   0.000000  -0.000001  -0.000000
   56  CO 1 YYZ  -0.000000   0.000000   0.000000  -0.000000   0.000062
   57  CO 1 ZZX   0.000000  -0.000000  -0.000000   0.000004  -0.000000
   58  CO 1 ZZY  -0.000000   0.000000   0.000004   0.000000   0.000000
   59  CO 1 XYZ   0.000000   0.000000  -0.000000  -0.000000  -0.000000
   60  CO 1 XXX   0.000000   0.000005   0.000000  -0.000014  -0.000000
   61  CO 1 YYY  -0.000000  -0.000000  -0.000015  -0.000000  -0.000000
   62  CO 1 ZZZ  -0.000000  -0.000000   0.000000  -0.000000   0.000022
   63  CO 1 XXY   0.000000   0.000000  -0.000006  -0.000000  -0.000000
   64  CO 1 XXZ   0.000000   0.000000   0.000000  -0.000000  -0.000015
   65  CO 1 YYX  -0.000000  -0.000007   0.000000  -0.000007   0.000000
   66  CO 1 YYZ   0.000000   0.000000  -0.000000  -0.000000  -0.000015
   67  CO 1 ZZX  -0.000000   0.000000  -0.000000   0.000026  -0.000000
   68  CO 1 ZZY   0.000000  -0.000000   0.000026   0.000000  -0.000000
   69  CO 1 XYZ   0.000000  -0.000000  -0.000000  -0.000000   0.000000
   70  CO 1XXXX  -0.000000  -0.000005   0.000000  -0.000002  -0.000000
   71  CO 1YYYY  -0.000000  -0.000005   0.000000  -0.000002  -0.000000
   72  CO 1ZZZZ  -0.000000  -0.000012   0.000000  -0.000000  -0.000000
   73  CO 1XXXY   0.000000   0.000000  -0.000003  -0.000000  -0.000000
   74  CO 1XXXZ   0.000000   0.000000   0.000000  -0.000000  -0.000003
   75  CO 1YYYX   0.000000   0.000000   0.000003   0.000000  -0.000000
   76  CO 1YYYZ   0.000000  -0.000000   0.000000  -0.000000   0.000000
   77  CO 1ZZZX  -0.000000   0.000000   0.000000  -0.000000  -0.000000
   78  CO 1ZZZY   0.000000   0.000000   0.000000  -0.000000   0.000000
   79  CO 1XXYY  -0.000000  -0.000003  -0.000000   0.000004  -0.000000
   80  CO 1XXZZ   0.000000   0.000011   0.000000  -0.000000  -0.000000
   81  CO 1YYZZ   0.000000   0.000011  -0.000000   0.000000  -0.000000
   82  CO 1XXYZ  -0.000000   0.000000   0.000000  -0.000000  -0.000000
   83  CO 1YYXZ   0.000000   0.000000   0.000000  -0.000000   0.000003
   84  CO 1ZZXY  -0.000000  -0.000000   0.000000   0.000000  -0.000000
   85  F  2  S   -0.000000   0.000002  -0.000002   0.000001  -0.000000
   86  F  2  S   -0.000000   0.000006  -0.000003   0.000002  -0.000000
   87  F  2  S   -0.000000   0.000002   0.000002  -0.000001  -0.000000
   88  F  2  S   -0.000002  -0.000023  -0.000005   0.000003  -0.000000
   89  F  2  X   -0.000000   0.000004   0.000002  -0.000009  -0.000000
   90  F  2  Y    0.000000  -0.000006  -0.000012   0.000002   0.000000
   91  F  2  Z    0.000000   0.000000   0.000000  -0.000000  -0.000000
   92  F  2  X    0.000000  -0.000002  -0.000002  -0.000011  -0.000000
   93  F  2  Y   -0.000000   0.000004  -0.000009  -0.000002   0.000000
   94  F  2  Z   -0.000000   0.000000   0.000000  -0.000000  -0.000004
   95  F  2  X   -0.000001  -0.000006  -0.000005  -0.000007  -0.000000
   96  F  2  Y    0.000002   0.000011  -0.000001  -0.000005   0.000000
   97  F  2  Z    0.000000   0.000000   0.000000  -0.000000   0.000001
   98  F  2 XX    0.000000  -0.000000   0.000000   0.000000  -0.000000
   99  F  2 YY   -0.000000   0.000003  -0.000001   0.000000   0.000000
  100  F  2 ZZ    0.000000  -0.000003   0.000001  -0.000000  -0.000000
  101  F  2 XY    0.000001  -0.000003   0.000000  -0.000000  -0.000000
  102  F  2 XZ    0.000000   0.000000   0.000000  -0.000000  -0.000000
  103  F  2 YZ    0.000000   0.000000   0.000000   0.000000   0.000000
  104  F  2 XX   -0.000000   0.000002  -0.000000  -0.000002  -0.000000
  105  F  2 YY    0.000001  -0.000013   0.000001   0.000002  -0.000000
  106  F  2 ZZ   -0.000001   0.000011  -0.000000   0.000000   0.000000
  107  F  2 XY   -0.000001   0.000015   0.000002   0.000001   0.000000
  108  F  2 XZ    0.000000  -0.000000  -0.000000  -0.000000  -0.000001
  109  F  2 YZ    0.000000   0.000000   0.000000  -0.000000   0.000002
  110  F  2 XXX  -0.000000   0.000002  -0.000001   0.000000  -0.000000
  111  F  2 YYY  -0.000000   0.000002  -0.000001  -0.000000  -0.000000
  112  F  2 ZZZ   0.000000   0.000000   0.000000  -0.000000   0.000000
  113  F  2 XXY  -0.000000   0.000001  -0.000000   0.000001  -0.000000
  114  F  2 XXZ   0.000000   0.000000   0.000000  -0.000000  -0.000000
  115  F  2 YYX   0.000001  -0.000005   0.000002  -0.000001  -0.000000
  116  F  2 YYZ   0.000000   0.000000   0.000000  -0.000000  -0.000001
  117  F  2 ZZX  -0.000000   0.000002  -0.000001   0.000001  -0.000000
  118  F  2 ZZY   0.000000  -0.000004   0.000001  -0.000001  -0.000000
  119  F  2 XYZ  -0.000000   0.000000   0.000000  -0.000000   0.000001
  120  F  3  S   -0.000000   0.000002   0.000002   0.000001   0.000000
  121  F  3  S   -0.000000   0.000006   0.000003   0.000002  -0.000000
  122  F  3  S   -0.000000   0.000002  -0.000002  -0.000001   0.000000
  123  F  3  S   -0.000002  -0.000023   0.000005   0.000003   0.000000
  124  F  3  X   -0.000000   0.000004  -0.000002  -0.000009   0.000000
  125  F  3  Y   -0.000000   0.000006  -0.000012  -0.000002   0.000000
  126  F  3  Z    0.000000  -0.000000   0.000000   0.000000  -0.000000
  127  F  3  X    0.000000  -0.000002   0.000002  -0.000011   0.000000
  128  F  3  Y    0.000000  -0.000004  -0.000009   0.000002   0.000000
  129  F  3  Z   -0.000000  -0.000000   0.000000   0.000000  -0.000004
  130  F  3  X   -0.000001  -0.000006   0.000005  -0.000006   0.000000
  131  F  3  Y   -0.000002  -0.000011  -0.000001   0.000005   0.000000
  132  F  3  Z   -0.000000  -0.000000   0.000000   0.000000   0.000001
  133  F  3 XX    0.000000  -0.000000  -0.000000   0.000000   0.000000
  134  F  3 YY   -0.000000   0.000003   0.000001   0.000000  -0.000000
  135  F  3 ZZ    0.000000  -0.000003  -0.000001  -0.000000  -0.000000
  136  F  3 XY   -0.000001   0.000003   0.000000   0.000000   0.000000
  137  F  3 XZ   -0.000000   0.000000  -0.000000   0.000000  -0.000000
  138  F  3 YZ   -0.000000  -0.000000   0.000000  -0.000000  -0.000000
  139  F  3 XX   -0.000000   0.000002   0.000000  -0.000002   0.000000
  140  F  3 YY    0.000001  -0.000013  -0.000001   0.000002  -0.000000
  141  F  3 ZZ   -0.000001   0.000011   0.000000   0.000000  -0.000000
  142  F  3 XY    0.000001  -0.000015   0.000002  -0.000001  -0.000000
  143  F  3 XZ    0.000000  -0.000000   0.000000  -0.000000  -0.000001
  144  F  3 YZ    0.000000   0.000000   0.000000  -0.000000  -0.000002
  145  F  3 XXX  -0.000000   0.000002   0.000001   0.000000  -0.000000
  146  F  3 YYY   0.000000  -0.000002  -0.000001   0.000000   0.000000
  147  F  3 ZZZ   0.000000   0.000000   0.000000  -0.000000   0.000000
  148  F  3 XXY   0.000000  -0.000001  -0.000000  -0.000001  -0.000000
  149  F  3 XXZ   0.000000   0.000000   0.000000  -0.000000  -0.000000
  150  F  3 YYX   0.000001  -0.000005  -0.000002  -0.000001  -0.000000
  151  F  3 YYZ   0.000000   0.000000   0.000000  -0.000000  -0.000001
  152  F  3 ZZX  -0.000000   0.000002   0.000001   0.000001  -0.000000
  153  F  3 ZZY  -0.000000   0.000004   0.000001   0.000001  -0.000000
  154  F  3 XYZ  -0.000000   0.000000   0.000000  -0.000000  -0.000001
  155  F  4  S   -0.000000   0.000002   0.000000  -0.000002   0.000000
  156  F  4  S   -0.000000   0.000006   0.000000  -0.000003  -0.000000
  157  F  4  S   -0.000000   0.000002  -0.000000   0.000003   0.000000
  158  F  4  S   -0.000002  -0.000022   0.000000  -0.000007   0.000000
  159  F  4  X    0.000000  -0.000007   0.000000  -0.000013  -0.000000
  160  F  4  Y    0.000000  -0.000000  -0.000008  -0.000000  -0.000000
  161  F  4  Z   -0.000000  -0.000000  -0.000000  -0.000000  -0.000000
  162  F  4  X   -0.000000   0.000005   0.000000  -0.000007  -0.000000
  163  F  4  Y   -0.000000   0.000000  -0.000012  -0.000000  -0.000000
  164  F  4  Z    0.000000  -0.000000   0.000000  -0.000000  -0.000004
  165  F  4  X    0.000002   0.000012  -0.000000   0.000003  -0.000000
  166  F  4  Y    0.000000   0.000000  -0.000010  -0.000000  -0.000000
  167  F  4  Z    0.000000  -0.000000  -0.000000  -0.000000   0.000001
  168  F  4 XX   -0.000001   0.000005   0.000000  -0.000001  -0.000000
  169  F  4 YY    0.000000  -0.000002  -0.000000   0.000000   0.000000
  170  F  4 ZZ    0.000000  -0.000003  -0.000000   0.000001  -0.000000
  171  F  4 XY   -0.000000   0.000000  -0.000000  -0.000000  -0.000000
  172  F  4 XZ    0.000000   0.000000   0.000000   0.000000   0.000000
  173  F  4 YZ   -0.000000  -0.000000  -0.000000  -0.000000   0.000000
  174  F  4 XX    0.000001  -0.000020   0.000000  -0.000001   0.000000
  175  F  4 YY   -0.000001   0.000009  -0.000000   0.000002  -0.000000
  176  F  4 ZZ   -0.000001   0.000011   0.000000  -0.000000  -0.000000
  177  F  4 XY    0.000000  -0.000000   0.000003   0.000000  -0.000000
  178  F  4 XZ    0.000000   0.000000  -0.000000  -0.000000   0.000003
  179  F  4 YZ    0.000000   0.000000   0.000000   0.000000   0.000000
  180  F  4 XXX  -0.000001   0.000006   0.000000  -0.000002  -0.000000
  181  F  4 YYY   0.000000  -0.000000   0.000000   0.000000  -0.000000
  182  F  4 ZZZ   0.000000   0.000000   0.000000  -0.000000   0.000000
  183  F  4 XXY  -0.000000   0.000000  -0.000001  -0.000000  -0.000000
  184  F  4 XXZ   0.000000   0.000000   0.000000  -0.000000  -0.000001
  185  F  4 YYX   0.000001  -0.000004  -0.000000   0.000001  -0.000000
  186  F  4 YYZ   0.000000   0.000000   0.000000  -0.000000   0.000000
  187  F  4 ZZX   0.000001  -0.000005  -0.000000   0.000002  -0.000000
  188  F  4 ZZY   0.000000  -0.000000   0.000000   0.000000  -0.000000
  189  F  4 XYZ   0.000000   0.000000   0.000000  -0.000000  -0.000000

                      6          7          8          9         10
                  -26.3069   -26.3068   -26.3060    -4.8959    -3.2955
                     A          A          A          A          A   
    1  CO 1  S   -0.000030  -0.000039  -0.000035  -0.000683  -0.000000
    2  CO 1  S   -0.000087  -0.000116  -0.000103  -0.005651  -0.000000
    3  CO 1  S   -0.000461  -0.000614  -0.000543   0.997410  -0.000001
    4  CO 1  S   -0.000958  -0.001279  -0.001133  -0.010562  -0.000000
    5  CO 1  S    0.000068   0.000091   0.000081  -0.006314   0.000000
    6  CO 1  S   -0.000081  -0.000108  -0.000095  -0.008653  -0.000000
    7  CO 1  S    0.000175   0.000233   0.000206  -0.000034   0.000000
    8  CO 1  X    0.000013   0.000018  -0.000031   0.000000   0.000045
    9  CO 1  Y   -0.000031   0.000023  -0.000000  -0.000000  -0.008039
   10  CO 1  Z    0.000000  -0.000000  -0.000000  -0.000000   0.000000
   11  CO 1  X    0.000185   0.000247  -0.000433  -0.000011  -0.005604
   12  CO 1  Y   -0.000426   0.000320  -0.000000   0.000000   0.997130
   13  CO 1  Z    0.000000  -0.000000  -0.000000   0.000000  -0.000002
   14  CO 1  X   -0.001790  -0.002382   0.004195  -0.000001  -0.000072
   15  CO 1  Y    0.004117  -0.003089   0.000003  -0.000000   0.012850
   16  CO 1  Z   -0.000000   0.000000  -0.000000   0.000000   0.000000
   17  CO 1  X   -0.001334  -0.001775   0.003127   0.000000   0.000017
   18  CO 1  Y    0.003068  -0.002302   0.000003  -0.000000  -0.002992
   19  CO 1  Z   -0.000000   0.000000   0.000000   0.000000   0.000000
   20  CO 1  X    0.000096   0.000127  -0.000225  -0.000000   0.000074
   21  CO 1  Y   -0.000220   0.000165  -0.000000   0.000000  -0.013224
   22  CO 1  Z    0.000000  -0.000000  -0.000000   0.000000   0.000000
   23  CO 1  X   -0.000046  -0.000061   0.000107  -0.000000  -0.000003
   24  CO 1  Y    0.000106  -0.000079   0.000000   0.000000   0.000523
   25  CO 1  Z    0.000000   0.000000  -0.000000   0.000000  -0.000000
   26  CO 1 XX   -0.000010  -0.000013  -0.000038  -0.003280   0.000021
   27  CO 1 YY   -0.000024  -0.000032  -0.000003  -0.003306  -0.000021
   28  CO 1 ZZ    0.000034   0.000045   0.000041   0.006587   0.000000
   29  CO 1 XY    0.000018  -0.000014  -0.000000   0.000000   0.007547
   30  CO 1 XZ    0.000000   0.000000  -0.000000  -0.000000  -0.000000
   31  CO 1 YZ    0.000000   0.000000  -0.000000   0.000000   0.000000
   32  CO 1 XX   -0.000012  -0.000017  -0.000038  -0.000891  -0.000003
   33  CO 1 YY   -0.000025  -0.000033  -0.000007  -0.000894   0.000004
   34  CO 1 ZZ    0.000037   0.000049   0.000045   0.001786  -0.000000
   35  CO 1 XY    0.000016  -0.000012  -0.000000   0.000000  -0.001276
   36  CO 1 XZ    0.000000  -0.000000  -0.000000  -0.000000  -0.000000
   37  CO 1 YZ    0.000000  -0.000000   0.000000   0.000000  -0.000000
   38  CO 1 XX   -0.000008  -0.000011   0.000007   0.000082  -0.000002
   39  CO 1 YY    0.000001   0.000002  -0.000015   0.000081   0.000002
   40  CO 1 ZZ    0.000006   0.000009   0.000008  -0.000164   0.000000
   41  CO 1 XY   -0.000012   0.000009   0.000000   0.000000  -0.000595
   42  CO 1 XZ    0.000000   0.000000  -0.000000  -0.000000  -0.000000
   43  CO 1 YZ    0.000000  -0.000000   0.000000   0.000000  -0.000000
   44  CO 1 XX    0.000118   0.000159  -0.000597   0.000074   0.000000
   45  CO 1 YY   -0.000299  -0.000400   0.000384   0.000073  -0.000000
   46  CO 1 ZZ    0.000180   0.000241   0.000213  -0.000147   0.000000
   47  CO 1 XY    0.000555  -0.000415  -0.000001   0.000000   0.000096
   48  CO 1 XZ    0.000000   0.000000   0.000000  -0.000000  -0.000000
   49  CO 1 YZ   -0.000000   0.000000  -0.000000   0.000000   0.000000
   50  CO 1 XXX  -0.000010  -0.000013  -0.000024  -0.000115  -0.000001
   51  CO 1 YYY  -0.000008   0.000006   0.000000   0.000000   0.000187
   52  CO 1 ZZZ  -0.000000   0.000000  -0.000000   0.000000   0.000000
   53  CO 1 XXY  -0.000004   0.000003  -0.000000  -0.000000   0.000083
   54  CO 1 XXZ   0.000000   0.000000  -0.000000   0.000000  -0.000000
   55  CO 1 YYX   0.000020   0.000027   0.000018   0.000155  -0.000000
   56  CO 1 YYZ   0.000000   0.000000  -0.000000   0.000000  -0.000000
   57  CO 1 ZZX  -0.000006  -0.000009   0.000015  -0.000000   0.000002
   58  CO 1 ZZY   0.000015  -0.000011   0.000000   0.000000  -0.000335
   59  CO 1 XYZ   0.000000   0.000000  -0.000000   0.000000  -0.000000
   60  CO 1 XXX   0.000030   0.000040   0.000070  -0.000350   0.000002
   61  CO 1 YYY   0.000025  -0.000019  -0.000000   0.000001  -0.000330
   62  CO 1 ZZZ  -0.000000  -0.000000  -0.000000   0.000000  -0.000000
   63  CO 1 XXY   0.000011  -0.000008   0.000000  -0.000001  -0.000151
   64  CO 1 XXZ   0.000000   0.000000   0.000000  -0.000000   0.000000
   65  CO 1 YYX  -0.000059  -0.000079  -0.000052   0.000468   0.000001
   66  CO 1 YYZ   0.000000   0.000000  -0.000000   0.000000   0.000000
   67  CO 1 ZZX   0.000019   0.000025  -0.000043   0.000002  -0.000003
   68  CO 1 ZZY  -0.000044   0.000033  -0.000000  -0.000000   0.000594
   69  CO 1 XYZ   0.000000   0.000000   0.000000  -0.000000   0.000000
   70  CO 1XXXX  -0.000005  -0.000006   0.000019  -0.000028   0.000001
   71  CO 1YYYY   0.000000   0.000001   0.000007  -0.000029   0.000001
   72  CO 1ZZZZ   0.000006   0.000008   0.000007  -0.000075   0.000000
   73  CO 1XXXY   0.000011  -0.000008   0.000000   0.000000  -0.000129
   74  CO 1XXXZ   0.000000   0.000000  -0.000000   0.000000   0.000000
   75  CO 1YYYX  -0.000020   0.000015  -0.000000  -0.000000   0.000113
   76  CO 1YYYZ   0.000000   0.000000  -0.000000   0.000000  -0.000000
   77  CO 1ZZZX   0.000000   0.000000   0.000000   0.000000  -0.000000
   78  CO 1ZZZY   0.000000   0.000000  -0.000000   0.000000  -0.000000
   79  CO 1XXYY   0.000009   0.000012  -0.000016  -0.000016  -0.000001
   80  CO 1XXZZ  -0.000001  -0.000001  -0.000017   0.000065   0.000000
   81  CO 1YYZZ  -0.000010  -0.000013   0.000004   0.000066  -0.000000
   82  CO 1XXYZ   0.000000   0.000000  -0.000000   0.000000  -0.000000
   83  CO 1YYXZ   0.000000  -0.000000  -0.000000   0.000000  -0.000000
   84  CO 1ZZXY   0.000012  -0.000009  -0.000000  -0.000000   0.000022
   85  F  2  S    0.965772   0.138263   0.001668  -0.000075  -0.000275
   86  F  2  S   -0.000991  -0.000133   0.000007   0.001403   0.007844
   87  F  2  S    0.042977   0.006153   0.000074   0.000210   0.001739
   88  F  2  S    0.004444   0.000534  -0.000094   0.001227   0.003826
   89  F  2  X    0.000389   0.000062  -0.000000   0.000461   0.002264
   90  F  2  Y   -0.000674  -0.000099  -0.000008  -0.000795  -0.003616
   91  F  2  Z   -0.000000   0.000000   0.000000   0.000000   0.000000
   92  F  2  X   -0.000244  -0.000061   0.000004   0.000857   0.003453
   93  F  2  Y    0.000428   0.000071   0.000027  -0.001481  -0.005428
   94  F  2  Z    0.000000   0.000000   0.000000   0.000000   0.000000
   95  F  2  X    0.000409   0.000123  -0.000007   0.000501   0.000922
   96  F  2  Y   -0.000719  -0.000130  -0.000070  -0.000865  -0.001673
   97  F  2  Z    0.000000   0.000000  -0.000000   0.000000   0.000000
   98  F  2 XX    0.000004  -0.000000  -0.000009  -0.000018  -0.000010
   99  F  2 YY   -0.000007  -0.000010  -0.000001   0.000071   0.000213
  100  F  2 ZZ    0.000003   0.000011   0.000010  -0.000053  -0.000203
  101  F  2 XY    0.000013  -0.000001   0.000003  -0.000089  -0.000322
  102  F  2 XZ   -0.000000   0.000000  -0.000000  -0.000000  -0.000000
  103  F  2 YZ    0.000000   0.000000  -0.000000  -0.000000   0.000000
  104  F  2 XX   -0.000011   0.000001   0.000027  -0.000060  -0.000009
  105  F  2 YY    0.000028   0.000033   0.000004   0.000360   0.000869
  106  F  2 ZZ   -0.000016  -0.000034  -0.000031  -0.000300  -0.000861
  107  F  2 XY   -0.000043   0.000001  -0.000009  -0.000421  -0.001408
  108  F  2 XZ    0.000000  -0.000000  -0.000000   0.000000  -0.000000
  109  F  2 YZ   -0.000000   0.000000   0.000000  -0.000000   0.000000
  110  F  2 XXX  -0.000006   0.000002   0.000003  -0.000036  -0.000167
  111  F  2 YYY  -0.000003  -0.000002   0.000000  -0.000031  -0.000057
  112  F  2 ZZZ   0.000000   0.000000   0.000000   0.000000   0.000000
  113  F  2 XXY  -0.000002   0.000001  -0.000002  -0.000014  -0.000151
  114  F  2 XXZ   0.000000   0.000000  -0.000000   0.000000  -0.000000
  115  F  2 YYX   0.000011  -0.000001  -0.000003   0.000081   0.000384
  116  F  2 YYZ   0.000000  -0.000000  -0.000000   0.000000  -0.000000
  117  F  2 ZZX  -0.000004  -0.000001  -0.000001  -0.000033  -0.000160
  118  F  2 ZZY   0.000006   0.000002   0.000001   0.000056   0.000227
  119  F  2 XYZ   0.000000   0.000000  -0.000000   0.000000   0.000000
  120  F  3  S   -0.138256   0.965773   0.001687  -0.000075   0.000273
  121  F  3  S    0.000150  -0.000988   0.000007   0.001403  -0.007799
  122  F  3  S   -0.006153   0.042977   0.000075   0.000210  -0.001730
  123  F  3  S   -0.000734   0.004416  -0.000094   0.001227  -0.003805
  124  F  3  X   -0.000050   0.000389  -0.000000   0.000459  -0.002248
  125  F  3  Y   -0.000094   0.000675   0.000008   0.000795  -0.003597
  126  F  3  Z   -0.000000  -0.000000   0.000000  -0.000000   0.000000
  127  F  3  X    0.000010  -0.000251   0.000004   0.000855  -0.003430
  128  F  3  Y    0.000052  -0.000431  -0.000027   0.001482  -0.005400
  129  F  3  Z   -0.000000   0.000000  -0.000000  -0.000000  -0.000000
  130  F  3  X    0.000003   0.000426  -0.000007   0.000500  -0.000914
  131  F  3  Y   -0.000077   0.000727   0.000070   0.000866  -0.001666
  132  F  3  Z   -0.000000   0.000000   0.000000  -0.000000   0.000000
  133  F  3 XX   -0.000002   0.000004  -0.000009  -0.000018   0.000010
  134  F  3 YY   -0.000008  -0.000010  -0.000001   0.000071  -0.000212
  135  F  3 ZZ    0.000009   0.000006   0.000010  -0.000052   0.000202
  136  F  3 XY    0.000005  -0.000012  -0.000003   0.000088  -0.000321
  137  F  3 XZ    0.000000   0.000000  -0.000000   0.000000  -0.000000
  138  F  3 YZ    0.000000   0.000000  -0.000000   0.000000  -0.000000
  139  F  3 XX    0.000004  -0.000011   0.000027  -0.000061   0.000008
  140  F  3 YY    0.000023   0.000036   0.000004   0.000361  -0.000864
  141  F  3 ZZ   -0.000028  -0.000025  -0.000031  -0.000300   0.000856
  142  F  3 XY   -0.000013   0.000042   0.000009   0.000420  -0.001401
  143  F  3 XZ   -0.000000  -0.000000  -0.000000  -0.000000  -0.000000
  144  F  3 YZ   -0.000000   0.000000  -0.000000  -0.000000  -0.000000
  145  F  3 XXX   0.000003  -0.000005   0.000003  -0.000036   0.000166
  146  F  3 YYY   0.000001   0.000004  -0.000000   0.000032  -0.000056
  147  F  3 ZZZ   0.000000   0.000000  -0.000000   0.000000   0.000000
  148  F  3 XXY  -0.000001   0.000001   0.000002   0.000014  -0.000151
  149  F  3 XXZ   0.000000   0.000000  -0.000000   0.000000  -0.000000
  150  F  3 YYX  -0.000004   0.000010  -0.000003   0.000081  -0.000382
  151  F  3 YYZ   0.000000   0.000000  -0.000000   0.000000  -0.000000
  152  F  3 ZZX  -0.000000  -0.000004  -0.000001  -0.000032   0.000159
  153  F  3 ZZY  -0.000001  -0.000007  -0.000001  -0.000056   0.000226
  154  F  3 XYZ   0.000000   0.000000  -0.000000   0.000000  -0.000000
  155  F  4  S   -0.001403  -0.001895   0.975620  -0.000074   0.000002
  156  F  4  S    0.000009   0.000012  -0.000998   0.001376  -0.000043
  157  F  4  S   -0.000063  -0.000085   0.043413   0.000204  -0.000009
  158  F  4  S   -0.000093  -0.000124   0.004472   0.001214  -0.000021
  159  F  4  X   -0.000003  -0.000004  -0.000785  -0.000902   0.000023
  160  F  4  Y   -0.000005   0.000003  -0.000001  -0.000001   0.000297
  161  F  4  Z   -0.000000   0.000000  -0.000000  -0.000000  -0.000000
  162  F  4  X    0.000017   0.000023   0.000500  -0.001686   0.000035
  163  F  4  Y    0.000019  -0.000014   0.000000  -0.000001   0.000541
  164  F  4  Z   -0.000000   0.000000  -0.000000  -0.000000  -0.000000
  165  F  4  X   -0.000045  -0.000060  -0.000845  -0.000991   0.000011
  166  F  4  Y   -0.000046   0.000035  -0.000001  -0.000001  -0.000077
  167  F  4  Z   -0.000000   0.000000  -0.000000  -0.000000  -0.000000
  168  F  4 XX   -0.000004  -0.000005  -0.000016   0.000112  -0.000002
  169  F  4 YY   -0.000005  -0.000006   0.000010  -0.000061   0.000001
  170  F  4 ZZ    0.000009   0.000011   0.000005  -0.000051   0.000001
  171  F  4 XY    0.000006  -0.000005  -0.000000   0.000000  -0.000098
  172  F  4 XZ    0.000000  -0.000000  -0.000000  -0.000000   0.000000
  173  F  4 YZ    0.000000   0.000000   0.000000   0.000000  -0.000000
  174  F  4 XX    0.000014   0.000019   0.000055   0.000567  -0.000009
  175  F  4 YY    0.000012   0.000016  -0.000033  -0.000269   0.000004
  176  F  4 ZZ   -0.000026  -0.000035  -0.000022  -0.000298   0.000005
  177  F  4 XY   -0.000018   0.000014   0.000000   0.000001  -0.000525
  178  F  4 XZ   -0.000000   0.000000  -0.000000   0.000000   0.000000
  179  F  4 YZ    0.000000  -0.000000   0.000000   0.000000  -0.000000
  180  F  4 XXX   0.000001   0.000002  -0.000012  -0.000090   0.000002
  181  F  4 YYY  -0.000001   0.000001   0.000000   0.000000  -0.000112
  182  F  4 ZZZ   0.000000   0.000000  -0.000000   0.000000   0.000000
  183  F  4 XXY   0.000002  -0.000001  -0.000000  -0.000000   0.000199
  184  F  4 XXZ   0.000000   0.000000  -0.000000   0.000000  -0.000000
  185  F  4 YYX  -0.000003  -0.000004   0.000008   0.000056  -0.000001
  186  F  4 YYZ   0.000000   0.000000  -0.000000   0.000000   0.000000
  187  F  4 ZZX   0.000001   0.000002   0.000007   0.000065  -0.000001
  188  F  4 ZZY  -0.000000   0.000000   0.000000   0.000000  -0.000049
  189  F  4 XYZ   0.000000  -0.000000  -0.000000  -0.000000  -0.000000

                     11         12         13         14         15
                   -3.2954    -3.2938    -1.5735    -1.5645    -1.5636
                     A          A          A          A          A   
    1  CO 1  S    0.000001  -0.000000  -0.003516   0.000004  -0.000222
    2  CO 1  S    0.000003   0.000000  -0.010464   0.000010  -0.000660
    3  CO 1  S    0.000044  -0.000000  -0.076286   0.000076  -0.004807
    4  CO 1  S    0.000005   0.000000  -0.011676   0.000012  -0.000746
    5  CO 1  S   -0.000012   0.000000   0.052888  -0.000054   0.003463
    6  CO 1  S    0.000003  -0.000000  -0.013785   0.000015  -0.000937
    7  CO 1  S   -0.000003   0.000000   0.020217  -0.000021   0.001349
    8  CO 1  X   -0.008039   0.000000   0.000140   0.000010  -0.001951
    9  CO 1  Y   -0.000045  -0.000000  -0.000001  -0.001970  -0.000010
   10  CO 1  Z   -0.000000  -0.008162   0.000000  -0.000000  -0.000000
   11  CO 1  X    0.997166  -0.000001   0.005550   0.000386  -0.076524
   12  CO 1  Y    0.005605   0.000002  -0.000059  -0.077313  -0.000387
   13  CO 1  Z    0.000001   0.999742  -0.000000   0.000000  -0.000000
   14  CO 1  X    0.012844  -0.000000  -0.011013  -0.000830   0.165696
   15  CO 1  Y    0.000072   0.000000   0.000117   0.166128   0.000839
   16  CO 1  Z   -0.000000  -0.000912   0.000000  -0.000000   0.000000
   17  CO 1  X   -0.003001   0.000000  -0.013283  -0.000998   0.199304
   18  CO 1  Y   -0.000017  -0.000000   0.000142   0.199851   0.001009
   19  CO 1  Z   -0.000000  -0.013561   0.000000  -0.000000   0.000000
   20  CO 1  X   -0.013224   0.000000   0.000343   0.000030  -0.006025
   21  CO 1  Y   -0.000074  -0.000000  -0.000004  -0.005959  -0.000031
   22  CO 1  Z   -0.000000  -0.008721  -0.000000  -0.000000  -0.000000
   23  CO 1  X    0.000524  -0.000000  -0.000448  -0.000034   0.006818
   24  CO 1  Y    0.000003   0.000000   0.000005   0.006823   0.000034
   25  CO 1  Z    0.000000   0.000658  -0.000000   0.000000   0.000000
   26  CO 1 XX   -0.006487   0.000000   0.017392  -0.000150   0.052117
   27  CO 1 YY    0.006506  -0.000000   0.024679   0.000108  -0.049451
   28  CO 1 ZZ   -0.000018  -0.000000  -0.042071   0.000042  -0.002667
   29  CO 1 XY    0.000024   0.000000  -0.000055  -0.059048  -0.000153
   30  CO 1 XZ   -0.000000   0.000010  -0.000000  -0.000000  -0.000000
   31  CO 1 YZ   -0.000000  -0.000000   0.000000   0.000000  -0.000000
   32  CO 1 XX    0.001089  -0.000000   0.002744  -0.000032   0.011605
   33  CO 1 YY   -0.001095   0.000000   0.004252   0.000025  -0.011125
   34  CO 1 ZZ    0.000006   0.000000  -0.006996   0.000007  -0.000480
   35  CO 1 XY   -0.000004  -0.000000  -0.000011  -0.013109  -0.000034
   36  CO 1 XZ   -0.000000  -0.000004  -0.000000  -0.000000  -0.000000
   37  CO 1 YZ   -0.000000   0.000000   0.000000   0.000000  -0.000000
   38  CO 1 XX    0.000516  -0.000000  -0.000010  -0.000006   0.002203
   39  CO 1 YY   -0.000516   0.000000   0.000238   0.000005  -0.002169
   40  CO 1 ZZ   -0.000001  -0.000000  -0.000228   0.000000  -0.000034
   41  CO 1 XY   -0.000002  -0.000000  -0.000002  -0.002487  -0.000007
   42  CO 1 XZ   -0.000000  -0.000001  -0.000000  -0.000000  -0.000000
   43  CO 1 YZ   -0.000000  -0.000000   0.000000  -0.000000  -0.000000
   44  CO 1 XX   -0.000081  -0.000000  -0.000986  -0.000002   0.001001
   45  CO 1 YY    0.000082  -0.000000  -0.000879   0.000003  -0.001110
   46  CO 1 ZZ   -0.000001   0.000000   0.001865  -0.000002   0.000109
   47  CO 1 XY    0.000000   0.000000  -0.000001  -0.001181  -0.000003
   48  CO 1 XZ   -0.000000   0.000001  -0.000000  -0.000000  -0.000000
   49  CO 1 YZ   -0.000000  -0.000000   0.000000   0.000000  -0.000000
   50  CO 1 XXX   0.000188  -0.000000   0.000350  -0.000001   0.000116
   51  CO 1 YYY   0.000001   0.000000  -0.000001   0.000100   0.000000
   52  CO 1 ZZZ  -0.000000  -0.001052  -0.000000  -0.000000   0.000000
   53  CO 1 XXY   0.000000   0.000000   0.000001   0.000044   0.000000
   54  CO 1 XXZ   0.000000   0.000702  -0.000000   0.000000   0.000000
   55  CO 1 YYX   0.000086  -0.000000  -0.000485   0.000000   0.000017
   56  CO 1 YYZ   0.000000   0.000709  -0.000000  -0.000000   0.000000
   57  CO 1 ZZX  -0.000338   0.000000   0.000015   0.000001  -0.000172
   58  CO 1 ZZY  -0.000002  -0.000000  -0.000000  -0.000178  -0.000001
   59  CO 1 XYZ   0.000000  -0.000000   0.000000  -0.000000  -0.000000
   60  CO 1 XXX  -0.000337   0.000000   0.007888  -0.000026   0.004131
   61  CO 1 YYY  -0.000002  -0.000000  -0.000017   0.003638   0.000017
   62  CO 1 ZZZ   0.000000   0.000285  -0.000000   0.000000  -0.000000
   63  CO 1 XXY  -0.000001  -0.000000   0.000028   0.001616   0.000010
   64  CO 1 XXZ  -0.000000  -0.000196   0.000000   0.000000   0.000000
   65  CO 1 YYX  -0.000142   0.000000  -0.011034   0.000003   0.000908
   66  CO 1 YYZ  -0.000000  -0.000187  -0.000000  -0.000000   0.000000
   67  CO 1 ZZX   0.000594  -0.000000   0.000450   0.000032  -0.006451
   68  CO 1 ZZY   0.000003   0.000000  -0.000005  -0.006496  -0.000033
   69  CO 1 XYZ   0.000000  -0.000000   0.000000   0.000000  -0.000000
   70  CO 1XXXX  -0.000071   0.000000   0.000132  -0.000005   0.000819
   71  CO 1YYYY  -0.000091   0.000000   0.000175  -0.000003   0.000224
   72  CO 1ZZZZ  -0.000001  -0.000000   0.000506  -0.000001   0.000032
   73  CO 1XXXY  -0.000001  -0.000000   0.000000   0.000552   0.000005
   74  CO 1XXXZ  -0.000000  -0.000100  -0.000000  -0.000000   0.000000
   75  CO 1YYYX   0.000001   0.000000  -0.000001  -0.001005  -0.000006
   76  CO 1YYYZ  -0.000000   0.000000   0.000000  -0.000000   0.000000
   77  CO 1ZZZX  -0.000000   0.000001  -0.000000  -0.000000   0.000000
   78  CO 1ZZZY  -0.000000  -0.000000  -0.000000  -0.000000   0.000000
   79  CO 1XXYY   0.000142  -0.000000   0.000174   0.000007  -0.000888
   80  CO 1XXZZ  -0.000017   0.000000  -0.000406   0.000002  -0.000551
   81  CO 1YYZZ   0.000018  -0.000000  -0.000482  -0.000001   0.000495
   82  CO 1XXYZ  -0.000000  -0.000000  -0.000000  -0.000000   0.000000
   83  CO 1YYXZ   0.000000   0.000133   0.000000  -0.000000  -0.000000
   84  CO 1ZZXY   0.000000   0.000000   0.000001   0.000608   0.000002
   85  F  2  S    0.000157  -0.000000  -0.003425  -0.003449   0.001746
   86  F  2  S   -0.004474   0.000000   0.332324   0.394046  -0.203541
   87  F  2  S   -0.000992   0.000000   0.095234   0.112945  -0.058341
   88  F  2  S   -0.002182   0.000000   0.229101   0.267508  -0.137926
   89  F  2  X   -0.000984   0.000000   0.006886   0.006886  -0.004538
   90  F  2  Y    0.002239  -0.000000  -0.011787  -0.012968   0.006039
   91  F  2  Z   -0.000000   0.000623   0.000000   0.000000  -0.000000
   92  F  2  X   -0.001414   0.000000   0.013379   0.013449  -0.008072
   93  F  2  Y    0.003416  -0.000000  -0.022997  -0.024532   0.011796
   94  F  2  Z   -0.000000   0.000944   0.000000   0.000000  -0.000000
   95  F  2  X   -0.000599   0.000000   0.007366   0.007766  -0.003711
   96  F  2  Y    0.000910  -0.000000  -0.012778  -0.013213   0.006851
   97  F  2  Z   -0.000000   0.000217   0.000000   0.000000  -0.000000
   98  F  2 XX    0.000092  -0.000000   0.000004  -0.000125  -0.000077
   99  F  2 YY   -0.000208   0.000000   0.000180   0.000329  -0.000028
  100  F  2 ZZ    0.000116  -0.000000  -0.000184  -0.000204   0.000105
  101  F  2 XY    0.000127  -0.000000  -0.000197  -0.000283   0.000249
  102  F  2 XZ    0.000000   0.000054  -0.000000   0.000000   0.000000
  103  F  2 YZ   -0.000000  -0.000094  -0.000000  -0.000000   0.000000
  104  F  2 XX    0.000465  -0.000000  -0.001003  -0.000559   0.000872
  105  F  2 YY   -0.000955   0.000000   0.003983   0.003469  -0.002340
  106  F  2 ZZ    0.000491  -0.000000  -0.002979  -0.002910   0.001468
  107  F  2 XY    0.000497  -0.000000  -0.004910  -0.004747   0.001979
  108  F  2 XZ    0.000000   0.000229   0.000000   0.000000  -0.000000
  109  F  2 YZ   -0.000000  -0.000396  -0.000000  -0.000000   0.000000
  110  F  2 XXX   0.000123  -0.000000  -0.000423  -0.000405   0.000213
  111  F  2 YYY   0.000211  -0.000000  -0.000278  -0.000285   0.000184
  112  F  2 ZZZ  -0.000000  -0.000105  -0.000000  -0.000000   0.000000
[...]
 State #    3  Energy =   -1691.716340111  S =  2.000

      Det      Coef        Coefp    Occupancy (Ignoring core)
      ---      ----        ----    --------- --------- -----
        2   -0.994055   -0.994055  +2+++
        3   -0.108876    0.108876  ++2++

     $REFDET GROUP FOUND

 *************************************************************************
     STEP 2: DIABATIZATION USING CONFIGURATION UNIFORMITY
  See Atchity and Ruedenberg, Theor. Chem. Acc. 1997, 97, 47
 *************************************************************************

READ-IN LIST OF DIABATIC PROTOTYPES:

     THE SAME NUMBER OF PROTOTYPE GROUPS & ADIABATS

     THE ADIABS SHOULD HAVE FULLY COVER THE PROTOTYPES

 -------------------------------------------
   - DIABATIC HAMILTONIAN MATRIX ELEMENTS - 
 -------------------------------------------
                                            
 --- DIABATIC ENERGIES (DIAGONAL ELEMENT) ---       HARTREE            EV
 STATE #  1'S GMC-PT-LEVEL DIABATIC ENERGY=   -1691.732881641       0.000000000
 STATE #  2'S GMC-PT-LEVEL DIABATIC ENERGY=   -1691.716560960       0.444108342
 STATE #  3'S GMC-PT-LEVEL DIABATIC ENERGY=   -1691.716408402       0.448259658

 --- DIABATIC COUPLINGS (OFF DIAGONAL ELEMENTS)---  HATREE            EV
 STATE #  1 &  2'S GMC-PT-LEVEL COUPLING  =      -0.000000002      -0.000000066
 STATE #  1 &  3'S GMC-PT-LEVEL COUPLING  =      -0.000000006      -0.000000172
 STATE #  2 &  3'S GMC-PT-LEVEL COUPLING  =       0.000122808       0.003341778

 ---------------------------------------
     - ROTATION TO DIABATIC STATES -    
 ---------------------------------------
 ROWS=ADIABATIC, COLUMNS=DIABATIC STATES

             1           2           3

    1   -1.0000000  -0.0000001  -0.0000004
    2    0.0000001   0.8739643  -0.4859901
    3    0.0000004  -0.4859901  -0.8739643

 ---------------------------------------
          - DIABATIC STATES -           
 ---------------------------------------

 State #    1  Energy =   -1691.732881641

      Det      Coef        Coefp    Occupancy (Ignoring core)
      ---      ----        ----    --------- --------- -----
        1    0.999998   -0.999998  2++++

 State #    2  Energy =   -1691.716560960

      Det      Coef        Coefp    Occupancy (Ignoring core)
      ---      ----        ----    --------- --------- -----
        3    0.921682   -0.921682  ++2++
        2    0.387947    0.387947  +2+++

 State #    3  Energy =   -1691.716408402

      Det      Coef        Coefp    Occupancy (Ignoring core)
      ---      ----        ----    --------- --------- -----
        2    0.921682    0.921682  +2+++
        3   -0.387947    0.387947  ++2++

 ---------------------------------------
      - DIABATIC STATES IN CMO -        
 ---------------------------------------

 State #    1  Energy =   -1691.732881641

      Det      Coef        Coefp    Occupancy (Ignoring core)
      ---      ----        ----    --------- --------- -----
        1   -1.000000    1.000000  2++++

 State #    2  Energy =   -1691.716560960

      Det      Coef        Coefp    Occupancy (Ignoring core)
      ---      ----        ----    --------- --------- -----
        3   -0.873949    0.873949  ++2++
        2   -0.486018   -0.486018  +2+++

 State #    3  Energy =   -1691.716408402

      Det      Coef        Coefp    Occupancy (Ignoring core)
      ---      ----        ----    --------- --------- -----
        2   -0.873949   -0.873949  +2+++
        3    0.486018   -0.486018  ++2++

 ---------------------------------------
    -DIABATIC STATES IN PROTOTYPES-     
 ---------------------------------------

     STATE:    1
 Group Ref#    Coefficients
     1    1    0.999998
     2    2   -0.000000
     3    3    0.000000

WEIGHT OF LISTED PROTOTYPES:  100.00%

     STATE:    2
 Group Ref#    Coefficients
     1    1   -0.000000
     2    2    1.000000
     3    3    0.000000

WEIGHT OF LISTED PROTOTYPES:  100.00%

     STATE:    3
 Group Ref#    Coefficients
     1    1    0.000000
     2    2    0.000000
     3    3    1.000000

WEIGHT OF LISTED PROTOTYPES:  100.00%

 --------------------------------------------------
 IN DIRECT MAX. DIABATIZATION FOR GMC-QDPT

 DIRECT MAXIMIZATION (DM) WITHOUT TRUNCATING ADIABATS
 EXPANSIONS INTO THE REFERENCE CONFIGURATION SPACE
 --------------------------------------------------

 -------------------------------------------
 - DM DIABT PT HAMILTONIAN MATRIX ELEMENTS -
 -------------------------------------------
                                            
 --- DIABATIC ENERGIES (DIAGONAL ELEMENT) ---       HARTREE            EV
 STATE #  1'S GMC-PT-LEVEL DIABATIC ENERGY=   -1691.732881641       0.000000000
 STATE #  2'S GMC-PT-LEVEL DIABATIC ENERGY=   -1691.716560960       0.444108342
 STATE #  3'S GMC-PT-LEVEL DIABATIC ENERGY=   -1691.716408402       0.448259658

 --- DIABATIC COUPLINGS (OFF DIAGONAL ELEMENTS)---  HATREE            EV
 STATE #  1 &  2'S GMC-PT-LEVEL COUPLING  =       0.000000024       0.000000640
 STATE #  1 &  3'S GMC-PT-LEVEL COUPLING  =      -0.000000006      -0.000000172
 STATE #  2 &  3'S GMC-PT-LEVEL COUPLING  =       0.000122808       0.003341778

 ---------------------------------------
     - ROTATION TO DIABATIC STATES -    
 ---------------------------------------
 ROWS=ADIABATIC, COLUMNS=DIABATIC STATES

             1           2           3

    1   -1.0000000  -0.0000001  -0.0000004
    2    0.0000001   0.8739643  -0.4859901
    3    0.0000004  -0.4859901  -0.8739643

 ---------------------------------------
          - DIABATIC STATES -           
 ---------------------------------------

 State #    1  Energy =   -1691.732881641

      Det      Coef        Coefp    Occupancy (Ignoring core)
      ---      ----        ----    --------- --------- -----
        1    0.999998   -0.999998  2++++

 State #    2  Energy =   -1691.716560960

      Det      Coef        Coefp    Occupancy (Ignoring core)
      ---      ----        ----    --------- --------- -----
        3    0.921682   -0.921682  ++2++
        2    0.387947    0.387947  +2+++

 State #    3  Energy =   -1691.716408402

      Det      Coef        Coefp    Occupancy (Ignoring core)
      ---      ----        ----    --------- --------- -----
        2    0.921682    0.921682  +2+++
        3   -0.387947    0.387947  ++2++

 ---------------------------------------
      - DIABATIC STATES IN CMO -        
 ---------------------------------------

 State #    1  Energy =   -1691.732881641

      Det      Coef        Coefp    Occupancy (Ignoring core)
      ---      ----        ----    --------- --------- -----
        1   -1.000000    1.000000  2++++

 State #    2  Energy =   -1691.716560960

      Det      Coef        Coefp    Occupancy (Ignoring core)
      ---      ----        ----    --------- --------- -----
        3   -0.873949    0.873949  ++2++
        2   -0.486018   -0.486018  +2+++

 State #    3  Energy =   -1691.716408402

      Det      Coef        Coefp    Occupancy (Ignoring core)
      ---      ----        ----    --------- --------- -----
        2   -0.873949   -0.873949  +2+++
        3    0.486018   -0.486018  ++2++

 ---------------------------------------
    -DIABATIC STATES IN PROTOTYPES-     
 ---------------------------------------

     STATE:    1
 Group Ref#    Coefficients
     1    1    0.999998
     2    2   -0.000000
     3    3    0.000000

WEIGHT OF LISTED PROTOTYPES:  100.00%

     STATE:    2
 Group Ref#    Coefficients
     1    1   -0.000000
     2    2    1.000000
     3    3    0.000000

WEIGHT OF LISTED PROTOTYPES:  100.00%

     STATE:    3
 Group Ref#    Coefficients
     1    1    0.000000
     2    2    0.000000
     3    3    1.000000

WEIGHT OF LISTED PROTOTYPES:  100.00%

     DIRECT MAX. DIABATIZATION FINISHED    
 CPU     0: STEP CPU TIME=     0.09 TOTAL CPU TIME=       1713.6 (     28.6 MIN)
 TOTAL WALL CLOCK TIME=       1723.9 SECONDS, CPU UTILIZATION IS    99.40%

DIABATS FOR SPIN-ORBIT CALCULATION ARE READY

TRANSITION DIPOLES BETWEEN ADIABATS (in A.U.):

STATE PAIR      X         Y         Z
    1    1 -0.010426  0.000111 -0.000000
    2    1 -0.000000 -0.000000 -0.000151
    2    2  0.038378 -0.000372  0.000000
    3    1 -0.000000 -0.000000  0.000002
    3    2 -0.000482 -0.049286  0.000000
    3    3 -0.059863  0.000599 -0.000000


TRANSITION DIPOLES BETWEEN DIABATS (in A.U.):

STATE PAIR      X         Y         Z
    1    1 -0.010426  0.000111 -0.000000
    2    1  0.000000  0.000000  0.000133
    2    2  0.015584  0.041725 -0.000000
    3    1 -0.000000 -0.000000 -0.000072
    3    2 -0.041473  0.026417 -0.000000
    3    3 -0.037069 -0.041497  0.000000

TRANSITION DIPOLES BETWEEN DIRECT MAX. DIABATS (in A.U.):

STATE PAIR      X         Y         Z
    1    1 -0.010426  0.000111 -0.000000
    2    1  0.000000  0.000000  0.000133
    2    2  0.015584  0.041725 -0.000000
    3    1 -0.000000 -0.000000 -0.000072
    3    2 -0.041473  0.026417 -0.000000
    3    3 -0.037069 -0.041497  0.000000
 No $TRANST Group Found.
 Quit without doing spin-orbit coupling
 ..... DONE WITH MP2 ENERGY .....
 CPU     0: STEP CPU TIME=     0.00 TOTAL CPU TIME=       1713.6 (     28.6 MIN)
 TOTAL WALL CLOCK TIME=       1723.9 SECONDS, CPU UTILIZATION IS    99.40%
            250000000  WORDS OF DYNAMIC MEMORY USED
 EXECUTION OF GAMESS TERMINATED NORMALLY Thu Dec 14 01:45:37 2023
 DDI: 101143080 bytes (96.5 MB / 12 MWords) used by master data server.

 ----------------------------------------
 CPU timing information for all processes
 ========================================
 0: 1712.974 + 0.631 = 1713.606
 1: 1706.386 + 0.495 = 1706.882
 ----------------------------------------
Note: The following floating-point exceptions are signalling: IEEE_DENORMAL
Note: The following floating-point exceptions are signalling: IEEE_DENORMAL
 ddikick.x: exited gracefully.
unset echo
----- accounting info -----
Files used on the master node io002 were:
-rw-r--r-- 1 bjb2chen nooijen   507632 Dec 14 01:16 /home/bjb2chen/gmsscr//CoF3_cct_gmcpt_C1_e_mult5_diis_3st_diab_mode12_+0.05_mode1_+0.05.F05
-rw-r--r-- 1 bjb2chen nooijen 17007360 Dec 14 01:45 /home/bjb2chen/gmsscr//CoF3_cct_gmcpt_C1_e_mult5_diis_3st_diab_mode12_+0.05_mode1_+0.05.F09
-rw-r--r-- 1 bjb2chen nooijen 20161792 Dec 14 01:45 /home/bjb2chen/gmsscr//CoF3_cct_gmcpt_C1_e_mult5_diis_3st_diab_mode12_+0.05_mode1_+0.05.F09.001
-rw-r--r-- 1 bjb2chen nooijen 11353840 Dec 14 01:45 /home/bjb2chen/gmsscr//CoF3_cct_gmcpt_C1_e_mult5_diis_3st_diab_mode12_+0.05_mode1_+0.05.F10
-rw-r--r-- 1 bjb2chen nooijen  1232808 Dec 14 01:37 /home/bjb2chen/gmsscr//CoF3_cct_gmcpt_C1_e_mult5_diis_3st_diab_mode12_+0.05_mode1_+0.05.F13
-rw-r--r-- 1 bjb2chen nooijen  1232808 Dec 14 01:37 /home/bjb2chen/gmsscr//CoF3_cct_gmcpt_C1_e_mult5_diis_3st_diab_mode12_+0.05_mode1_+0.05.F13.001
-rw-r--r-- 1 bjb2chen nooijen   183504 Dec 14 01:45 /home/bjb2chen/gmsscr//CoF3_cct_gmcpt_C1_e_mult5_diis_3st_diab_mode12_+0.05_mode1_+0.05.F15
-rw-r--r-- 1 bjb2chen nooijen        0 Dec 14 01:16 /home/bjb2chen/gmsscr//CoF3_cct_gmcpt_C1_e_mult5_diis_3st_diab_mode12_+0.05_mode1_+0.05.F16
-rw-r--r-- 1 bjb2chen nooijen       48 Dec 14 01:45 /home/bjb2chen/gmsscr//CoF3_cct_gmcpt_C1_e_mult5_diis_3st_diab_mode12_+0.05_mode1_+0.05.F70
-rw-r--r-- 1 bjb2chen nooijen       48 Dec 14 01:45 /home/bjb2chen/gmsscr//CoF3_cct_gmcpt_C1_e_mult5_diis_3st_diab_mode12_+0.05_mode1_+0.05.F70.001
-rw-r--r-- 1 bjb2chen nooijen       48 Dec 14 01:45 /home/bjb2chen/gmsscr//CoF3_cct_gmcpt_C1_e_mult5_diis_3st_diab_mode12_+0.05_mode1_+0.05.F71
-rw-r--r-- 1 bjb2chen nooijen       48 Dec 14 01:45 /home/bjb2chen/gmsscr//CoF3_cct_gmcpt_C1_e_mult5_diis_3st_diab_mode12_+0.05_mode1_+0.05.F71.001
-rw-r--r-- 1 bjb2chen nooijen       88 Dec 14 01:45 /home/bjb2chen/gmsscr//CoF3_cct_gmcpt_C1_e_mult5_diis_3st_diab_mode12_+0.05_mode1_+0.05.F72
-rw-r--r-- 1 bjb2chen nooijen       88 Dec 14 01:45 /home/bjb2chen/gmsscr//CoF3_cct_gmcpt_C1_e_mult5_diis_3st_diab_mode12_+0.05_mode1_+0.05.F72.001
-rw-r--r-- 1 bjb2chen nooijen       88 Dec 14 01:45 /home/bjb2chen/gmsscr//CoF3_cct_gmcpt_C1_e_mult5_diis_3st_diab_mode12_+0.05_mode1_+0.05.F73
-rw-r--r-- 1 bjb2chen nooijen       88 Dec 14 01:45 /home/bjb2chen/gmsscr//CoF3_cct_gmcpt_C1_e_mult5_diis_3st_diab_mode12_+0.05_mode1_+0.05.F73.001
-rw-r--r-- 1 bjb2chen nooijen     1704 Dec 14 01:45 /home/bjb2chen/gmsscr//CoF3_cct_gmcpt_C1_e_mult5_diis_3st_diab_mode12_+0.05_mode1_+0.05.F74
-rw-r--r-- 1 bjb2chen nooijen     1144 Dec 14 01:45 /home/bjb2chen/gmsscr//CoF3_cct_gmcpt_C1_e_mult5_diis_3st_diab_mode12_+0.05_mode1_+0.05.F74.001
-rw-r--r-- 1 bjb2chen nooijen      224 Dec 14 01:45 /home/bjb2chen/gmsscr//CoF3_cct_gmcpt_C1_e_mult5_diis_3st_diab_mode12_+0.05_mode1_+0.05.F75
-rw-r--r-- 1 bjb2chen nooijen      224 Dec 14 01:45 /home/bjb2chen/gmsscr//CoF3_cct_gmcpt_C1_e_mult5_diis_3st_diab_mode12_+0.05_mode1_+0.05.F75.001
-rw-r--r-- 1 bjb2chen nooijen      288 Dec 14 01:45 /home/bjb2chen/gmsscr//CoF3_cct_gmcpt_C1_e_mult5_diis_3st_diab_mode12_+0.05_mode1_+0.05.F76
-rw-r--r-- 1 bjb2chen nooijen      288 Dec 14 01:45 /home/bjb2chen/gmsscr//CoF3_cct_gmcpt_C1_e_mult5_diis_3st_diab_mode12_+0.05_mode1_+0.05.F76.001
-rw-r--r-- 1 bjb2chen nooijen        0 Dec 14 01:16 /home/bjb2chen/gmsscr//CoF3_cct_gmcpt_C1_e_mult5_diis_3st_diab_mode12_+0.05_mode1_+0.05.F77
-rw-r--r-- 1 bjb2chen nooijen        0 Dec 14 01:16 /home/bjb2chen/gmsscr//CoF3_cct_gmcpt_C1_e_mult5_diis_3st_diab_mode12_+0.05_mode1_+0.05.F77.001
-rw-r--r-- 1 bjb2chen nooijen     9352 Dec 14 01:45 /home/bjb2chen/gmsscr//CoF3_cct_gmcpt_C1_e_mult5_diis_3st_diab_mode12_+0.05_mode1_+0.05.F78
-rw-r--r-- 1 bjb2chen nooijen     9352 Dec 14 01:45 /home/bjb2chen/gmsscr//CoF3_cct_gmcpt_C1_e_mult5_diis_3st_diab_mode12_+0.05_mode1_+0.05.F78.001
-rw-r--r-- 1 bjb2chen nooijen      168 Dec 14 01:45 /home/bjb2chen/gmsscr//CoF3_cct_gmcpt_C1_e_mult5_diis_3st_diab_mode12_+0.05_mode1_+0.05.F79
-rw-r--r-- 1 bjb2chen nooijen      168 Dec 14 01:45 /home/bjb2chen/gmsscr//CoF3_cct_gmcpt_C1_e_mult5_diis_3st_diab_mode12_+0.05_mode1_+0.05.F79.001
-rw-r--r-- 1 bjb2chen nooijen      104 Dec 14 01:45 /home/bjb2chen/gmsscr//CoF3_cct_gmcpt_C1_e_mult5_diis_3st_diab_mode12_+0.05_mode1_+0.05.F80
-rw-r--r-- 1 bjb2chen nooijen      104 Dec 14 01:45 /home/bjb2chen/gmsscr//CoF3_cct_gmcpt_C1_e_mult5_diis_3st_diab_mode12_+0.05_mode1_+0.05.F80.001
-rw-r--r-- 1 bjb2chen nooijen   341072 Dec 14 01:45 /home/bjb2chen/gmsscr//CoF3_cct_gmcpt_C1_e_mult5_diis_3st_diab_mode12_+0.05_mode1_+0.05.F81
-rw-r--r-- 1 bjb2chen nooijen   341072 Dec 14 01:45 /home/bjb2chen/gmsscr//CoF3_cct_gmcpt_C1_e_mult5_diis_3st_diab_mode12_+0.05_mode1_+0.05.F81.001
-rw-r--r-- 1 bjb2chen nooijen     1160 Dec 14 01:45 /home/bjb2chen/gmsscr//CoF3_cct_gmcpt_C1_e_mult5_diis_3st_diab_mode12_+0.05_mode1_+0.05.F82
-rw-r--r-- 1 bjb2chen nooijen     1160 Dec 14 01:45 /home/bjb2chen/gmsscr//CoF3_cct_gmcpt_C1_e_mult5_diis_3st_diab_mode12_+0.05_mode1_+0.05.F82.001
-rw-r--r-- 1 bjb2chen nooijen     5008 Dec 14 01:45 /home/bjb2chen/gmsscr//CoF3_cct_gmcpt_C1_e_mult5_diis_3st_diab_mode12_+0.05_mode1_+0.05.F83
-rw-r--r-- 1 bjb2chen nooijen     5008 Dec 14 01:45 /home/bjb2chen/gmsscr//CoF3_cct_gmcpt_C1_e_mult5_diis_3st_diab_mode12_+0.05_mode1_+0.05.F83.001
-rw-r--r-- 1 bjb2chen nooijen   675120 Dec 14 01:45 /home/bjb2chen/gmsscr//CoF3_cct_gmcpt_C1_e_mult5_diis_3st_diab_mode12_+0.05_mode1_+0.05.F84
-rw-r--r-- 1 bjb2chen nooijen   675120 Dec 14 01:45 /home/bjb2chen/gmsscr//CoF3_cct_gmcpt_C1_e_mult5_diis_3st_diab_mode12_+0.05_mode1_+0.05.F84.001
-rw-r--r-- 1 bjb2chen nooijen  4610168 Dec 14 01:45 /home/bjb2chen/gmsscr//CoF3_cct_gmcpt_C1_e_mult5_diis_3st_diab_mode12_+0.05_mode1_+0.05.F85
-rw-r--r-- 1 bjb2chen nooijen  4610168 Dec 14 01:45 /home/bjb2chen/gmsscr//CoF3_cct_gmcpt_C1_e_mult5_diis_3st_diab_mode12_+0.05_mode1_+0.05.F85.001
-rw-r--r-- 1 bjb2chen nooijen 59165656 Dec 14 01:45 /home/bjb2chen/gmsscr//CoF3_cct_gmcpt_C1_e_mult5_diis_3st_diab_mode12_+0.05_mode1_+0.05.F86
-rw-r--r-- 1 bjb2chen nooijen 53712376 Dec 14 01:45 /home/bjb2chen/gmsscr//CoF3_cct_gmcpt_C1_e_mult5_diis_3st_diab_mode12_+0.05_mode1_+0.05.F86.001
-rw-r--r-- 1 bjb2chen nooijen      656 Dec 14 01:45 /home/bjb2chen/gmsscr//CoF3_cct_gmcpt_C1_e_mult5_diis_3st_diab_mode12_+0.05_mode1_+0.05.F87
-rw-r--r-- 1 bjb2chen nooijen      656 Dec 14 01:45 /home/bjb2chen/gmsscr//CoF3_cct_gmcpt_C1_e_mult5_diis_3st_diab_mode12_+0.05_mode1_+0.05.F87.001
-rw-r--r-- 1 bjb2chen nooijen      144 Dec 14 01:45 /home/bjb2chen/gmsscr//CoF3_cct_gmcpt_C1_e_mult5_diis_3st_diab_mode12_+0.05_mode1_+0.05.F88
-rw-r--r-- 1 bjb2chen nooijen      144 Dec 14 01:45 /home/bjb2chen/gmsscr//CoF3_cct_gmcpt_C1_e_mult5_diis_3st_diab_mode12_+0.05_mode1_+0.05.F88.001
-rw-r--r-- 1 bjb2chen nooijen     1176 Dec 14 01:45 /home/bjb2chen/gmsscr//CoF3_cct_gmcpt_C1_e_mult5_diis_3st_diab_mode12_+0.05_mode1_+0.05.F89
-rw-r--r-- 1 bjb2chen nooijen     1176 Dec 14 01:45 /home/bjb2chen/gmsscr//CoF3_cct_gmcpt_C1_e_mult5_diis_3st_diab_mode12_+0.05_mode1_+0.05.F89.001
-rw-r--r-- 1 bjb2chen nooijen        0 Dec 14 01:16 /home/bjb2chen/gmsscr//CoF3_cct_gmcpt_C1_e_mult5_diis_3st_diab_mode12_+0.05_mode1_+0.05.F90
-rw-r--r-- 1 bjb2chen nooijen        0 Dec 14 01:16 /home/bjb2chen/gmsscr//CoF3_cct_gmcpt_C1_e_mult5_diis_3st_diab_mode12_+0.05_mode1_+0.05.F90.001
-rw-r--r-- 1 bjb2chen nooijen      480 Dec 14 01:45 /home/bjb2chen/gmsscr//CoF3_cct_gmcpt_C1_e_mult5_diis_3st_diab_mode12_+0.05_mode1_+0.05.F91
-rw-r--r-- 1 bjb2chen nooijen      480 Dec 14 01:45 /home/bjb2chen/gmsscr//CoF3_cct_gmcpt_C1_e_mult5_diis_3st_diab_mode12_+0.05_mode1_+0.05.F91.001
-rw-r--r-- 1 bjb2chen nooijen     1048 Dec 14 01:45 /home/bjb2chen/gmsscr//CoF3_cct_gmcpt_C1_e_mult5_diis_3st_diab_mode12_+0.05_mode1_+0.05.F92
-rw-r--r-- 1 bjb2chen nooijen     1048 Dec 14 01:45 /home/bjb2chen/gmsscr//CoF3_cct_gmcpt_C1_e_mult5_diis_3st_diab_mode12_+0.05_mode1_+0.05.F92.001
-rw-r--r-- 1 bjb2chen nooijen      480 Dec 14 01:45 /home/bjb2chen/gmsscr//CoF3_cct_gmcpt_C1_e_mult5_diis_3st_diab_mode12_+0.05_mode1_+0.05.F93
-rw-r--r-- 1 bjb2chen nooijen      480 Dec 14 01:45 /home/bjb2chen/gmsscr//CoF3_cct_gmcpt_C1_e_mult5_diis_3st_diab_mode12_+0.05_mode1_+0.05.F93.001
-rw-r--r-- 1 bjb2chen nooijen      520 Dec 14 01:45 /home/bjb2chen/gmsscr//CoF3_cct_gmcpt_C1_e_mult5_diis_3st_diab_mode12_+0.05_mode1_+0.05.F94
-rw-r--r-- 1 bjb2chen nooijen      520 Dec 14 01:45 /home/bjb2chen/gmsscr//CoF3_cct_gmcpt_C1_e_mult5_diis_3st_diab_mode12_+0.05_mode1_+0.05.F94.001
-rw-r--r-- 1 bjb2chen nooijen      120 Dec 14 01:45 /home/bjb2chen/gmsscr//CoF3_cct_gmcpt_C1_e_mult5_diis_3st_diab_mode12_+0.05_mode1_+0.05.F95
-rw-r--r-- 1 bjb2chen nooijen      120 Dec 14 01:45 /home/bjb2chen/gmsscr//CoF3_cct_gmcpt_C1_e_mult5_diis_3st_diab_mode12_+0.05_mode1_+0.05.F95.001
-rw-r--r-- 1 bjb2chen nooijen      160 Dec 14 01:45 /home/bjb2chen/gmsscr//CoF3_cct_gmcpt_C1_e_mult5_diis_3st_diab_mode12_+0.05_mode1_+0.05.F96
-rw-r--r-- 1 bjb2chen nooijen      160 Dec 14 01:45 /home/bjb2chen/gmsscr//CoF3_cct_gmcpt_C1_e_mult5_diis_3st_diab_mode12_+0.05_mode1_+0.05.F96.001
-rw-r--r-- 1 bjb2chen nooijen      608 Dec 14 01:45 /home/bjb2chen/gmsscr//CoF3_cct_gmcpt_C1_e_mult5_diis_3st_diab_mode12_+0.05_mode1_+0.05.F97
-rw-r--r-- 1 bjb2chen nooijen      608 Dec 14 01:45 /home/bjb2chen/gmsscr//CoF3_cct_gmcpt_C1_e_mult5_diis_3st_diab_mode12_+0.05_mode1_+0.05.F97.001
-rw-r--r-- 1 bjb2chen nooijen       48 Dec 14 01:45 /home/bjb2chen/gmsscr//CoF3_cct_gmcpt_C1_e_mult5_diis_3st_diab_mode12_+0.05_mode1_+0.05.F98
-rw-r--r-- 1 bjb2chen nooijen       48 Dec 14 01:45 /home/bjb2chen/gmsscr//CoF3_cct_gmcpt_C1_e_mult5_diis_3st_diab_mode12_+0.05_mode1_+0.05.F98.001
-rw-r--r-- 1 bjb2chen nooijen       24 Dec 14 01:45 /home/bjb2chen/gmsscr//CoF3_cct_gmcpt_C1_e_mult5_diis_3st_diab_mode12_+0.05_mode1_+0.05.F99
-rw-r--r-- 1 bjb2chen nooijen       24 Dec 14 01:45 /home/bjb2chen/gmsscr//CoF3_cct_gmcpt_C1_e_mult5_diis_3st_diab_mode12_+0.05_mode1_+0.05.F99.001
ls: No match.
ls: No match.
ls: No match.
Thu 14 Dec 2023 01:45:41 AM EST
0.230u 0.061s 28:47.83 0.0%	0+0k 992+1192io 0pf+0w
