SCRATCH DIRECTORY IS /localscratch/bjb2chen.18348961.0
----- GAMESS execution script 'rungms' -----
This job is running on host gra1279
under operating system Linux at Thu 04 Apr 2024 01:39:08 PM EDT
Available scratch disk space (Kbyte units) at beginning of the job is
Filesystem     1K-blocks     Used Available Use% Mounted on
/dev/sda1      921690020 59466428 815381116   7% /local
GAMESS temporary binary files will be written to /localscratch/bjb2chen.18348961.0
GAMESS supplementary output files will be written to /scratch/bjb2chen/vibronics/8o9e/fastLagrangian
Copying input file FeCOcat_SPK_gmcpt_C1_5st_diab_0.05_+x1q30_-x1q29.inp to your run's scratch directory...
cp FeCOcat_SPK_gmcpt_C1_5st_diab_0.05_+x1q30_-x1q29.inp /localscratch/bjb2chen.18348961.0/FeCOcat_SPK_gmcpt_C1_5st_diab_0.05_+x1q30_-x1q29.F05
unset echo
 
Assuming a single but multicore node.
 
/home/bjb2chen/LOCAL/gamess.mrsftddft.fmo.180731/ddikick.x /home/bjb2chen/LOCAL/gamess.mrsftddft.fmo.180731/gamess.00.x FeCOcat_SPK_gmcpt_C1_5st_diab_0.05_+x1q30_-x1q29 -ddi 1 10 gra1279:cpus=10 -scr /localscratch/bjb2chen.18348961.0

 Distributed Data Interface kickoff program.
 Initiating 10 compute processes on 1 nodes to run the following command:
 /home/bjb2chen/LOCAL/gamess.mrsftddft.fmo.180731/gamess.00.x FeCOcat_SPK_gmcpt_C1_5st_diab_0.05_+x1q30_-x1q29 

          ******************************************************
          *         GAMESS VERSION = 14 FEB 2018 (R1)         *
          *             FROM IOWA STATE UNIVERSITY             *
          * M.W.SCHMIDT, K.K.BALDRIDGE, J.A.BOATZ, S.T.ELBERT, *
          *   M.S.GORDON, J.H.JENSEN, S.KOSEKI, N.MATSUNAGA,   *
          *          K.A.NGUYEN, S.J.SU, T.L.WINDUS,           *
          *       TOGETHER WITH M.DUPUIS, J.A.MONTGOMERY       *
          *         J.COMPUT.CHEM.  14, 1347-1363(1993)        *
          **************** 64 BIT INTEL VERSION ****************

  SINCE 1993, STUDENTS AND POSTDOCS WORKING AT IOWA STATE UNIVERSITY
  AND ALSO IN THEIR VARIOUS JOBS AFTER LEAVING ISU HAVE MADE IMPORTANT
  CONTRIBUTIONS TO THE CODE:
     IVANA ADAMOVIC, CHRISTINE AIKENS, YURI ALEXEEV, POOJA ARORA,
     ANDREY ASADCHEV, ROB BELL, PRADIPTA BANDYOPADHYAY, JONATHAN BENTZ,
     BRETT BODE, KURT BRORSEN, CALEB CARLIN, GALINA CHABAN, WEI CHEN,
     CHEOL HO CHOI, PAUL DAY, ALBERT DEFUSCO, NUWAN DESILVA, TIM DUDLEY,
     DMITRI FEDOROV, ALEX FINDLATER, GRAHAM FLETCHER, MARK FREITAG,
     KURT GLAESEMANN, ANASTASIA GUININA,
     DAN KEMP, GRANT MERRILL, NORIYUKI MINEZAWA, JONATHAN MULLIN,
     TAKESHI NAGATA, SEAN NEDD, HEATHER NETZLOFF, BOSILJKA NJEGIC, RYAN OLSON,
     MIKE PAK, BUU PHAM,
     SPENCER PRUITT, LUKE ROSKOP, JIM SHOEMAKER, LYUDMILA SLIPCHENKO,
     TONY SMITH, SAROM SOK LEANG, JIE SONG, TETSUYA TAKETSUGU, SIMON WEBB,
     PENG XU, SOOHAENG YOO, FEDERICO ZAHARIEV

  ADDITIONAL CODE HAS BEEN PROVIDED BY COLLABORATORS IN OTHER GROUPS:
     IOWA STATE UNIVERSITY:
          JOE IVANIC, AARON WEST, LAIMUTIS BYTAUTAS, KLAUS RUEDENBERG
     UNIVERSITY OF TOKYO: KIMIHIKO HIRAO, TAKAHITO NAKAJIMA,
          TAKAO TSUNEDA, MUNEAKI KAMIYA, SUSUMU YANAGISAWA,
          KIYOSHI YAGI, MAHITO CHIBA, SEIKEN TOKURA, NAOAKI KAWAKAMI
     UNIVERSITY OF AARHUS: FRANK JENSEN
     UNIVERSITY OF IOWA: VISVALDAS KAIRYS, HUI LI
     NATIONAL INST. OF STANDARDS AND TECHNOLOGY: WALT STEVENS, DAVID GARMER
     UNIVERSITY OF PISA: BENEDETTA MENNUCCI, JACOPO TOMASI
     UNIVERSITY OF MEMPHIS: HENRY KURTZ, PRAKASHAN KORAMBATH
     UNIVERSITY OF ALBERTA: TOBY ZENG, MARIUSZ KLOBUKOWSKI
     UNIVERSITY OF NEW ENGLAND: MARK SPACKMAN
     MIE UNIVERSITY: HIROAKI UMEDA
     NAT. INST. OF ADVANCED INDUSTRIAL SCIENCE AND TECHNOLOGY: KAZUO KITAURA
     MICHIGAN STATE UNIVERSITY:
          KAROL KOWALSKI, MARTA WLOCH, JEFFREY GOUR, JESSE LUTZ,
          WEI LI, PIOTR PIECUCH
     UNIVERSITY OF SILESIA: MONIKA MUSIAL, STANISLAW KUCHARSKI
     FACULTES UNIVERSITAIRES NOTRE-DAME DE LA PAIX:
          OLIVIER QUINET, BENOIT CHAMPAGNE
     UNIVERSITY OF CALIFORNIA - SANTA BARBARA: BERNARD KIRTMAN
     INSTITUTE FOR MOLECULAR SCIENCE:
          KAZUYA ISHIMURA, MICHIO KATOUDA, AND SHIGERU NAGASE
     UNIVERSITY OF NOTRE DAME: ANNA POMOGAEVA, DAN CHIPMAN
     KYUSHU UNIVERSITY:
          HARUYUKI NAKANO,
          FENG LONG GU, JACEK KORCHOWIEC, MARCIN MAKOWSKI, AND YURIKO AOKI,
          HIROTOSHI MORI AND EISAKU MIYOSHI
     PENNSYLVANIA STATE UNIVERSITY:
          TZVETELIN IORDANOV, CHET SWALINA, JONATHAN SKONE,
          SHARON HAMMES-SCHIFFER
     WASEDA UNIVERSITY:
          MASATO KOBAYASHI, TOMOKO AKAMA, TSUGUKI TOUMA,
          TAKESHI YOSHIKAWA, YASUHIRO IKABATA, JUNJI SEINO,
          YUYA NAKAJIMA, HIROMI NAKAI
     NANJING UNIVERSITY: SHUHUA LI
     UNIVERSITY OF NEBRASKA:
          PEIFENG SU, DEJUN SI, NANDUN THELLAMUREGE, YALI WANG, HUI LI
     UNIVERSITY OF ZURICH: ROBERTO PEVERATI, KIM BALDRIDGE
     N. COPERNICUS UNIVERSITY AND JACKSON STATE UNIVERSITY:
          MARIA BARYSZ
     UNIVERSITY OF COPENHAGEN: Jimmy Kromann, CASPER STEINMANN
     TOKYO INSTITUTE OF TECHNOLOGY: HIROYA NAKATA
     NAGOYA UNIVERSITY: YOSHIO NISHIMOTO, STEPHAN IRLE
     MOSCOW STATE UNIVERSITY: VLADIMIR MIRONOV


 PARALLEL VERSION RUNNING ON       10 PROCESSORS IN        1 NODES.

 EXECUTION OF GAMESS BEGUN Thu Apr  4 13:39:09 2024

            ECHO OF THE FIRST FEW INPUT CARDS -
 INPUT CARD> !############################################################################# 
 INPUT CARD> !                   D_3h RHF GEOMETRY OPTIMIZATION AND HESSIAN TEMPLATE        
 INPUT CARD> ! ---------------------------------------------------------------------------  
 INPUT CARD> ! Replace the symmetry-correct coordinates, should only be two atoms.          
 INPUT CARD> ! The hydrogen or fluorine should have only one non-zero x,y,z coordinate.     
 INPUT CARD> !                                                                              
 INPUT CARD> ! Basis set?   gbasis=ccd for 2nd row,                                         
 INPUT CARD> !                         cct 3rd/4th,                                         
 INPUT CARD> !                   SPKrTZP for heavy,                                         
 INPUT CARD> !                   SPKrTZC beyond 4th                                         
 INPUT CARD> !                                                                              
 INPUT CARD> !############################################################################# 
 INPUT CARD> $system kdiag=3 mwords=375 memddi=3750 parall=.t. $end                         
 INPUT CARD> $contrl runtyp=energy ispher=1 $end                                            
 INPUT CARD> $contrl icut=9 itol=20 inttyp=rysquad qmttol=1.0d-05 nosym=1 $end              
 INPUT CARD> $contrl scftyp=mcscf  mult=2 maxit=200 icharg=1 mplevl=2 $end                  
 INPUT CARD> $scf    npunch=2 conv=1.0d-06 dirscf=.t. $end                                  
 INPUT CARD> $force  method=seminum $end                                                    
 INPUT CARD> $trans  dirtrf=.t. $end                                                        
 INPUT CARD> $statpt hssend=.t. $end                                                        
 INPUT CARD> $basis  gbasis=SPKrTZP $end                                                    
 INPUT CARD> !############################################################################# 
 INPUT CARD> !                                                                              
 INPUT CARD> !                       TURN ON THIS SECTION IF HEAVY ATOM                     
 INPUT CARD> !                                                                              
 INPUT CARD> !############################################################################# 
 INPUT CARD> !                                                                              
 INPUT CARD> $contrl relwfn=LUT-IOTC $end                                                   
 INPUT CARD> $scf  diis=.t. soscf=.f. ethrsh=10.0 $end                                      
 INPUT CARD> -guess iorder(43)=44 iorder(44)=43 $end                                        
 INPUT CARD> $gmcpt nsolut=200 $end                                                         
 INPUT CARD> !                                                                              
 INPUT CARD> !############################################################################# 
 INPUT CARD> !                                                                              
 INPUT CARD> ! TURN ON THIS SECTION IF GMCPT, CHANGE runtyp=energy, scftyp=mcscf, change nos
 INPUT CARD> !                                                                              
 INPUT CARD> !############################################################################# 
 INPUT CARD> $guess  guess=moread norb=369 purify=.t. norder=1 $end                         
 INPUT CARD> $mcscf  cistep=gmcci fullnr=.t. finci=mos                                      
 INPUT CARD>         acurcy=1.d-6 maxit=100 $end                                            
 INPUT CARD> $mrmp   mrpt=gmcpt rdvecs=.f. $end                                             
 INPUT CARD> $gmcpt  nmofzc=19 nmodoc=24 nmoact=8 nelact=9 stsym(1)=A                       
 INPUT CARD>         reftyp=ormas nspace=1 mstart(1)=44 mine(1)=9 maxe(1)=9                 
 INPUT CARD>         kstate(1)=1,1,1,1,1                                                    
 INPUT CARD>         wstate(1)=1,1,1,1,1                                                    
 INPUT CARD>         iwgt=0 thrwgt=-1.0 krot=.f. kszdoe=.f. knospn=.f.                      
 INPUT CARD>         thrde=-1.0 edshft=0.02 maxbas=8000 $end                                
 INPUT CARD> !############################################################################# 
 INPUT CARD> !                                                                              
 INPUT CARD> !             TURN OFF THIS SECTION IF temp.inp, add C1                        
  375000000 WORDS OF MEMORY AVAILABLE

     $BASIS REQUESTS READING THE "SPKRTZP " BASIS SET FROM AN EXTERNAL FILE


     RUN TITLE
     ---------
  FeCO 5 states diabatization                                                    

 THE POINT GROUP OF THE MOLECULE IS C1      
 THE ORDER OF THE PRINCIPAL AXIS IS     0

 THE EXTERNAL BASIS SET FILE BEING READ IS
     "/home/bjb2chen/LOCAL/gamess.mrsftddft.fmo.180731/auxdata/BASES/SPKRTZP"

 ATOM      ATOMIC                      COORDINATES (BOHR)
           CHARGE         X                   Y                   Z
 FE         26.0     0.0000000070        0.0000000000        0.0000773880
 C           6.0    -1.6677527745        2.8886325408        0.0000438916
 C           6.0    -1.6677527745       -2.8886325408        0.0000438916
 C           6.0     3.3355055580        0.0000000001        0.0000438987
 O           8.0    -2.7564174633        4.7742550944       -0.0000223617
 O           8.0    -2.7564174633       -4.7742550944       -0.0000223617
 O           8.0     5.5128349115        0.0000000001       -0.0000223613
 C           6.0    -0.0000000114       -0.0000000001       -3.1711494748
 C           6.0     0.0000000010       -0.0000000001        3.1671761823
 O           8.0    -0.0000000029       -0.0000000001       -5.3729532573
 O           8.0     0.0000000044        0.0000000001        5.3756317682

          INTERNUCLEAR DISTANCES (ANGS.)
          ------------------------------

                1 FE         2 C          3 C          4 C          5 O     

   1 FE      0.0000000    1.7650737 *  1.7650737 *  1.7650737 *  2.9172668 *
   2 C       1.7650737 *  0.0000000    3.0571972    3.0571972    1.1521932 *
   3 C       1.7650737 *  3.0571972    0.0000000    3.0571972    4.0957443  
   4 C       1.7650737 *  3.0571972    3.0571972    0.0000000    4.0957443  
   5 O       2.9172668 *  1.1521932 *  4.0957443    4.0957443    0.0000000  
   6 O       2.9172668 *  4.0957443    1.1521932 *  4.0957443    5.0528544  
   7 O       2.9172668 *  4.0957443    4.0957443    1.1521932 *  5.0528543  
   8 C       1.6781411 *  2.4354842 *  2.4354842 *  2.4354842 *  3.3654756  
   9 C       1.6759566 *  2.4340039 *  2.4340039 *  2.4340039 *  3.3644395  
  10 O       2.8432856 *  3.3465889    3.3465889    3.3465889    4.0736247  
  11 O       2.8446211 *  3.3477537    3.3477537    3.3477537    4.0746307  

                6 O          7 O          8 C          9 C         10 O     

   1 FE      2.9172668 *  2.9172668 *  1.6781411 *  1.6759566 *  2.8432856 *
   2 C       4.0957443    4.0957443    2.4354842 *  2.4340039 *  3.3465889  
   3 C       1.1521932 *  4.0957443    2.4354842 *  2.4340039 *  3.3465889  
   4 C       4.0957443    1.1521932 *  2.4354842 *  2.4340039 *  3.3465889  
   5 O       5.0528544    5.0528543    3.3654756    3.3644395    4.0736247  
   6 O       0.0000000    5.0528543    3.3654756    3.3644395    4.0736247  
   7 O       5.0528543    0.0000000    3.3654756    3.3644395    4.0736247  
   8 C       3.3654756    3.3654756    0.0000000    3.3540977    1.1651445 *
   9 C       3.3644395    3.3644395    3.3540977    0.0000000    4.5192422  
  10 O       4.0736247    4.0736247    1.1651445 *  4.5192422    0.0000000  
  11 O       4.0746307    4.0746307    4.5227622    1.1686645 *  5.6879067  

               11 O     

   1 FE      2.8446211 *
   2 C       3.3477537  
   3 C       3.3477537  
   4 C       3.3477537  
   5 O       4.0746307  
   6 O       4.0746307  
   7 O       4.0746307  
   8 C       4.5227622  
   9 C       1.1686645 *
  10 O       5.6879067  
  11 O       0.0000000  

  * ... LESS THAN  3.000


     ATOMIC BASIS SET
     ----------------
 THE CONTRACTED PRIMITIVE FUNCTIONS HAVE BEEN UNNORMALIZED
 THE CONTRACTED BASIS FUNCTIONS ARE NOW NORMALIZED TO UNITY

  SHELL TYPE  PRIMITIVE        EXPONENT          CONTRACTION COEFFICIENT(S)

 FE        

      1   S       1       1100791.5305010    0.000473999976
      1   S       2        111958.3587060    0.002184999889
      1   S       3         19185.3576710    0.008689999559
      1   S       4          4445.3037100    0.032685998341
      1   S       5          1266.9965100    0.110141994410
      1   S       6           416.6310290    0.284031985586
      1   S       7           150.8643160    0.454264876947
      1   S       8            56.3399190    0.263064986650

      2   S       9           359.6946140   -0.022463999939
      2   S      10           108.1698330   -0.110348999698
      2   S      11            16.2239570    0.581708898408
      2   S      12             6.5680420    0.504839898618

      3   S      13            10.7418790   -0.362092191734
      3   S      14             1.7503840    1.164823573408

      4   S      15             2.5115960    1.000000000000

      5   S      16             0.7053330    1.000000000000

      6   S      17             0.3621190    1.000000000000

      7   S      18             0.1098870    1.000000000000

      8   S      19             0.0389760    1.000000000000

      9   P      20          3763.5373930    0.001033999945
      9   P      21           777.6255800    0.008099999572
      9   P      22           235.1625800    0.042150997771
      9   P      23            85.2386240    0.150979992017
      9   P      24            34.2178420    0.344345981793
      9   P      25            14.4530580    0.445691976434
      9   P      26             6.0108430    0.197984989532

     10   P      27            29.2356570   -0.050671998602
     10   P      28             3.8658850    1.015612071978

     11   P      29             1.5321320    1.000000000000

     12   P      30             0.6880240    1.000000000000

     13   P      31             0.3377060    1.000000000000

     14   P      32             0.1058510    1.000000000000

     15   D      33           153.1499290    0.002483999928
     15   D      34            39.2185330    0.024814999278
     15   D      35            13.1241220    0.112497096729
     15   D      36             4.9420130    0.294331191441
     15   D      37             1.9182510    0.436439287309
     15   D      38             0.7263080    0.400155288364

     16   D      39             1.2013780    1.000000000000

     17   D      40             0.4134800    1.000000000000

     18   D      41             0.2769570    0.803321387841
     18   D      42             0.1024240    0.267279095955

     19   F      43             7.1173700    0.248360909500
     19   F      44             2.0161170    0.867482733183

     20   F      45             0.5734880    1.000000000000

     21   G      46             3.1098950    0.428615975933
     21   G      47             0.8477510    0.770538956734

 C         

     22   S      48          2806.9439975    0.002023800059
     22   S      49           421.5775504    0.015441100454
     22   S      50            95.8957402    0.075177402208
     22   S      51            26.9445497    0.249027707314
     22   S      52             8.5713784    0.482075214159
     22   S      53             2.8716364    0.326878109601

     23   S      54             4.9998841   -0.210680004154
     23   S      55             0.5327613    1.077681121247

     24   S      56             0.2075124    1.000000000000

     25   S      57             0.0868337    1.000000000000

     26   P      58            18.6818848    0.039471499719
     26   P      59             4.1250373    0.244388698258
     26   P      60             1.1979790    0.815218894188

     27   P      61             0.3821592    1.000000000000

     28   P      62             0.1206886    1.000000000000

     29   D      63             3.0148490    0.111983997300
     29   D      64             0.8820640    0.935464277443

     30   D      65             0.2854600    1.000000000000

     31   F      66             1.2468250    0.439684998371
     31   F      67             0.4390430    0.686338997457

 C         

     32   S      68          2806.9439975    0.002023800059
     32   S      69           421.5775504    0.015441100454
     32   S      70            95.8957402    0.075177402208
     32   S      71            26.9445497    0.249027707314
     32   S      72             8.5713784    0.482075214159
     32   S      73             2.8716364    0.326878109601

     33   S      74             4.9998841   -0.210680004154
     33   S      75             0.5327613    1.077681121247

     34   S      76             0.2075124    1.000000000000

     35   S      77             0.0868337    1.000000000000

     36   P      78            18.6818848    0.039471499719
     36   P      79             4.1250373    0.244388698258
     36   P      80             1.1979790    0.815218894188

     37   P      81             0.3821592    1.000000000000

     38   P      82             0.1206886    1.000000000000

     39   D      83             3.0148490    0.111983997300
     39   D      84             0.8820640    0.935464277443

     40   D      85             0.2854600    1.000000000000

     41   F      86             1.2468250    0.439684998371
     41   F      87             0.4390430    0.686338997457

 C         

     42   S      88          2806.9439975    0.002023800059
     42   S      89           421.5775504    0.015441100454
     42   S      90            95.8957402    0.075177402208
     42   S      91            26.9445497    0.249027707314
     42   S      92             8.5713784    0.482075214159
     42   S      93             2.8716364    0.326878109601

     43   S      94             4.9998841   -0.210680004154
     43   S      95             0.5327613    1.077681121247

     44   S      96             0.2075124    1.000000000000

     45   S      97             0.0868337    1.000000000000

     46   P      98            18.6818848    0.039471499719
     46   P      99             4.1250373    0.244388698258
     46   P     100             1.1979790    0.815218894188

     47   P     101             0.3821592    1.000000000000

     48   P     102             0.1206886    1.000000000000

     49   D     103             3.0148490    0.111983997300
     49   D     104             0.8820640    0.935464277443

     50   D     105             0.2854600    1.000000000000

     51   F     106             1.2468250    0.439684998371
     51   F     107             0.4390430    0.686338997457

 O         

     52   S     108          5077.7107079    0.002005200049
     52   S     109           762.6032479    0.015311300372
     52   S     110           173.4747916    0.074816301816
     52   S     111            48.8026730    0.249940906066
     52   S     112            15.6087813    0.483164411726
     52   S     113             5.2562810    0.324034307864

     53   S     114             9.8167720   -0.213008798624
     53   S     115             1.0626144    1.079351093025

     54   S     116             0.4112889    1.000000000000

     55   S     117             0.1672821    1.000000000000

     56   P     118            34.4309698    0.041201500385
     56   P     119             7.7428211    0.257878902408
     56   P     120             2.2788395    0.802283507490

     57   P     121             0.7151603    1.000000000000

     58   P     122             0.2137722    1.000000000000

     59   D     123             5.9603300    0.136289097514
     59   D     124             1.7648530    0.919489483226

     60   D     125             0.5756600    1.000000000000

     61   F     126             2.4143370    0.424090301385
     61   F     127             0.7676600    0.719405502349

 O         

     62   S     128          5077.7107079    0.002005200049
     62   S     129           762.6032479    0.015311300372
     62   S     130           173.4747916    0.074816301816
     62   S     131            48.8026730    0.249940906066
     62   S     132            15.6087813    0.483164411726
     62   S     133             5.2562810    0.324034307864

     63   S     134             9.8167720   -0.213008798624
     63   S     135             1.0626144    1.079351093025

     64   S     136             0.4112889    1.000000000000

     65   S     137             0.1672821    1.000000000000

     66   P     138            34.4309698    0.041201500385
     66   P     139             7.7428211    0.257878902408
     66   P     140             2.2788395    0.802283507490

     67   P     141             0.7151603    1.000000000000

     68   P     142             0.2137722    1.000000000000

     69   D     143             5.9603300    0.136289097514
     69   D     144             1.7648530    0.919489483226

     70   D     145             0.5756600    1.000000000000

     71   F     146             2.4143370    0.424090301385
     71   F     147             0.7676600    0.719405502349

 O         

     72   S     148          5077.7107079    0.002005200049
     72   S     149           762.6032479    0.015311300372
     72   S     150           173.4747916    0.074816301816
     72   S     151            48.8026730    0.249940906066
     72   S     152            15.6087813    0.483164411726
     72   S     153             5.2562810    0.324034307864

     73   S     154             9.8167720   -0.213008798624
     73   S     155             1.0626144    1.079351093025

     74   S     156             0.4112889    1.000000000000

     75   S     157             0.1672821    1.000000000000

     76   P     158            34.4309698    0.041201500385
     76   P     159             7.7428211    0.257878902408
     76   P     160             2.2788395    0.802283507490

     77   P     161             0.7151603    1.000000000000

     78   P     162             0.2137722    1.000000000000

     79   D     163             5.9603300    0.136289097514
     79   D     164             1.7648530    0.919489483226

     80   D     165             0.5756600    1.000000000000

     81   F     166             2.4143370    0.424090301385
     81   F     167             0.7676600    0.719405502349

 C         

     82   S     168          2806.9439975    0.002023800059
     82   S     169           421.5775504    0.015441100454
     82   S     170            95.8957402    0.075177402208
     82   S     171            26.9445497    0.249027707314
     82   S     172             8.5713784    0.482075214159
     82   S     173             2.8716364    0.326878109601

     83   S     174             4.9998841   -0.210680004154
     83   S     175             0.5327613    1.077681121247

     84   S     176             0.2075124    1.000000000000

     85   S     177             0.0868337    1.000000000000

     86   P     178            18.6818848    0.039471499719
     86   P     179             4.1250373    0.244388698258
     86   P     180             1.1979790    0.815218894188

     87   P     181             0.3821592    1.000000000000

     88   P     182             0.1206886    1.000000000000

     89   D     183             3.0148490    0.111983997300
     89   D     184             0.8820640    0.935464277443

     90   D     185             0.2854600    1.000000000000

     91   F     186             1.2468250    0.439684998371
     91   F     187             0.4390430    0.686338997457

 C         

     92   S     188          2806.9439975    0.002023800059
     92   S     189           421.5775504    0.015441100454
     92   S     190            95.8957402    0.075177402208
     92   S     191            26.9445497    0.249027707314
     92   S     192             8.5713784    0.482075214159
     92   S     193             2.8716364    0.326878109601

     93   S     194             4.9998841   -0.210680004154
     93   S     195             0.5327613    1.077681121247

     94   S     196             0.2075124    1.000000000000

     95   S     197             0.0868337    1.000000000000

     96   P     198            18.6818848    0.039471499719
     96   P     199             4.1250373    0.244388698258
     96   P     200             1.1979790    0.815218894188

     97   P     201             0.3821592    1.000000000000

     98   P     202             0.1206886    1.000000000000

     99   D     203             3.0148490    0.111983997300
     99   D     204             0.8820640    0.935464277443

    100   D     205             0.2854600    1.000000000000

    101   F     206             1.2468250    0.439684998371
    101   F     207             0.4390430    0.686338997457

 O         

    102   S     208          5077.7107079    0.002005200049
    102   S     209           762.6032479    0.015311300372
    102   S     210           173.4747916    0.074816301816
    102   S     211            48.8026730    0.249940906066
    102   S     212            15.6087813    0.483164411726
    102   S     213             5.2562810    0.324034307864

    103   S     214             9.8167720   -0.213008798624
    103   S     215             1.0626144    1.079351093025

    104   S     216             0.4112889    1.000000000000

    105   S     217             0.1672821    1.000000000000

    106   P     218            34.4309698    0.041201500385
    106   P     219             7.7428211    0.257878902408
    106   P     220             2.2788395    0.802283507490

    107   P     221             0.7151603    1.000000000000

    108   P     222             0.2137722    1.000000000000

    109   D     223             5.9603300    0.136289097514
    109   D     224             1.7648530    0.919489483226

    110   D     225             0.5756600    1.000000000000

    111   F     226             2.4143370    0.424090301385
    111   F     227             0.7676600    0.719405502349

 O         

    112   S     228          5077.7107079    0.002005200049
    112   S     229           762.6032479    0.015311300372
    112   S     230           173.4747916    0.074816301816
    112   S     231            48.8026730    0.249940906066
    112   S     232            15.6087813    0.483164411726
    112   S     233             5.2562810    0.324034307864

    113   S     234             9.8167720   -0.213008798624
    113   S     235             1.0626144    1.079351093025

    114   S     236             0.4112889    1.000000000000

    115   S     237             0.1672821    1.000000000000

    116   P     238            34.4309698    0.041201500385
    116   P     239             7.7428211    0.257878902408
    116   P     240             2.2788395    0.802283507490

    117   P     241             0.7151603    1.000000000000

    118   P     242             0.2137722    1.000000000000

    119   D     243             5.9603300    0.136289097514
    119   D     244             1.7648530    0.919489483226

    120   D     245             0.5756600    1.000000000000

    121   F     246             2.4143370    0.424090301385
    121   F     247             0.7676600    0.719405502349

 TOTAL NUMBER OF BASIS SET SHELLS             =  121
 NUMBER OF CARTESIAN GAUSSIAN BASIS FUNCTIONS =  435
 NOTE: THIS RUN WILL RESTRICT THE MO VARIATION SPACE TO SPHERICAL HARMONICS.
 THE NUMBER OF ORBITALS KEPT IN THE VARIATIONAL SPACE WILL BE PRINTED LATER.
 NUMBER OF ELECTRONS                          =   95
 CHARGE OF MOLECULE                           =    1
 SPIN MULTIPLICITY                            =    2
 NUMBER OF OCCUPIED ORBITALS (ALPHA)          =   48
 NUMBER OF OCCUPIED ORBITALS (BETA )          =   47
 TOTAL NUMBER OF ATOMS                        =   11
 THE NUCLEAR REPULSION ENERGY IS      825.5530311604

     ---------------------------------
     RELATIVISTIC WAVEFUNCTION OPTIONS
     ---------------------------------
     METHOD=LUT-IOTC NORDER= 2       NESOC=  0      MODEQR=      1
     NRATOM=  0      QMTTOL= 1.000E-10      QRTOL= 1.000E-10
     CLIGHT=137.03598950     TAU= 3.500E+00

 INTERNAL BASIS SET UNCONTRACTION FOR RESC/DK/IOTC/LUT-IOTC:
   247 SHELLS AND    808 AOS ARE CONSTRUCTED, COMPARED TO
   121 SHELLS AND    435 AOS IN THE CONTRACTED BASIS SET


     $CONTRL OPTIONS
     ---------------
 SCFTYP=MCSCF        RUNTYP=ENERGY       EXETYP=RUN     
 MPLEVL=       2     CITYP =NONE         CCTYP =NONE         VBTYP =NONE    
 DFTTYP=NONE         TDDFT =NONE    
 MULT  =       2     ICHARG=       1     NZVAR =       0     COORD =UNIQUE  
 PP    =NONE         RELWFN=LUT-IOTC     LOCAL =NONE         NUMGRD=       F
 ISPHER=       1     NOSYM =       1     MAXIT =     200     UNITS =ANGS    
 PLTORB=       F     MOLPLT=       F     AIMPAC=       F     FRIEND=        
 NPRINT=       7     IREST =       0     GEOM  =INPUT   
 NORMF =       0     NORMP =       0     ITOL  =      20     ICUT  =       9
 INTTYP=RYSQUAD      GRDTYP=BEST         QMTTOL= 1.0E-05

     $SYSTEM OPTIONS
     ---------------
  REPLICATED MEMORY=   375000000 WORDS (ON EVERY NODE).
 DISTRIBUTED MEMDDI=        3750 MILLION WORDS IN AGGREGATE,
 MEMDDI DISTRIBUTED OVER  10 PROCESSORS IS   375000000 WORDS/PROCESSOR.
 TOTAL MEMORY REQUESTED ON EACH PROCESSOR=   750000000 WORDS.
 TIMLIM=      525600.00 MINUTES, OR     365.0 DAYS.
 PARALL= T  BALTYP=  DLB     KDIAG=    3  COREFL= F
 MXSEQ2=     300 MXSEQ3=     150  mem10=         0

          ----------------
          PROPERTIES INPUT
          ----------------

     MOMENTS            FIELD           POTENTIAL          DENSITY
 IEMOM =       1   IEFLD =       0   IEPOT =       0   IEDEN =       0
 WHERE =COMASS     WHERE =NUCLEI     WHERE =NUCLEI     WHERE =NUCLEI  
 OUTPUT=BOTH       OUTPUT=BOTH       OUTPUT=BOTH       OUTPUT=BOTH    
 IEMINT=       0   IEFINT=       0                     IEDINT=       0
                                                       MORB  =       0

     -------------------------------
     INTEGRAL TRANSFORMATION OPTIONS
     -------------------------------
     NWORD  =            0
     CUTOFF = 1.0E-09     MPTRAN =       0
     DIRTRF =       T     AOINTS =DUP     

          ----------------------
          MCSCF INPUT PARAMETERS
          ----------------------
 CONVERGER SELECTION: FOCAS = F  SOSCF = F  FULLNR = T  QUD = F  JACOBI = F
 SECULAR EQUATION METHOD CISTEP = GMCCI   
 --- GENERAL INPUT OPTIONS:
 MAXIT =     100  MICIT =       1  ACURCY= 1.000E-06
 DAMP  =   0.000  CANONC=       T  ENGTOL= 1.000E-10
 EKT   =       F  NPUNCH=       2  NWORD =         0
 REGENERATE CI AFTER CONVERGENCE = NONE    
 DIABATIZATION AFTER CONVERGENCE =        F
 --- INPUT FOR FULLNR CONVERGER:
 METHOD=DM2       FORS  =       F  DROPC =       T
 LINSER=       F  FCORE =       F  NORB  =     435

          ----------------------
          INTEGRAL INPUT OPTIONS
          ----------------------
 NOPK  =       1 NORDER=       0 SCHWRZ=       T

 ------------------------------------------
 MULTIREFERENCE PERTURBATION THEORY CONTROL
 ------------------------------------------
 MRPT=GMCPT    READ CONVERGED MCSCF VECTORS= F


     ------------------------------------------
     THE POINT GROUP IS C1 , NAXIS= 1, ORDER= 1
     ------------------------------------------

 -- VARIATIONAL SPACE WILL BE RESTRICTED TO PURE SPHERICAL HARMONICS ONLY --
 AFTER EXCLUDING CONTAMINANT COMBINATIONS FROM THE CARTESIAN GAUSSIAN BASIS
 SET, THE NUMBER OF SPHERICAL HARMONICS KEPT IN THE VARIATION SPACE IS  369

     DIMENSIONS OF THE SYMMETRY SUBSPACES ARE
 A   =  369

 ..... DONE SETTING UP THE RUN .....
 CPU     0: STEP CPU TIME=     0.64 TOTAL CPU TIME=          0.7 (      0.0 MIN)
 TOTAL WALL CLOCK TIME=          0.8 SECONDS, CPU UTILIZATION IS    82.28%

          ********************
          1 ELECTRON INTEGRALS
          ********************
 TIME TO DO ORDINARY INTEGRALS=      0.03

 ======================================================================
      INFINITE-ORDER TWO-COMPONENT (IOTC) ONE-ELECTRON HAMILTONIAN
      WITH LOCAL UNITARY TRANSFORMATION (LUT) SCHEME
                                            CODED BY YUYA NAKAJIMA
             J. SEINO, H. NAKAI, J. CHEM. PHYS. 136, 244102 (2012)
             J. SEINO, H. NAKAI, J. CHEM. PHYS. 137, 144101 (2012)
             J. SEINO, H. NAKAI, J. CHEM. PHYS. 139, 034109 (2013)
        J. SEINO, H. NAKAI, INT. J. QUANTUM. CHEM. 115, 253 (2015)
 ======================================================================

 LUT-IOTC TRANSFORMATION FOR ATOM:    1
 THE SMALLEST EIGENVALUE OF THE OVERLAP MATRIX IS   5.23E-12
 THERE ARE     2 OVERLAP MATRIX EIGENVALUES LESS THAN   1.00E-10
 THE NUMBER OF LINEARLY INDEPENDENT ORBITALS KEPT IS   176

 LUT-IOTC TRANSFORMATION FOR ATOM:    2
 LUT-IOTC TRANSFORMATION FOR ATOM:    3
 LUT-IOTC TRANSFORMATION FOR ATOM:    4
 LUT-IOTC TRANSFORMATION FOR ATOM:    5
 LUT-IOTC TRANSFORMATION FOR ATOM:    6
 LUT-IOTC TRANSFORMATION FOR ATOM:    7
 LUT-IOTC TRANSFORMATION FOR ATOM:    8
 LUT-IOTC TRANSFORMATION FOR ATOM:    9
 LUT-IOTC TRANSFORMATION FOR ATOM:   10
 LUT-IOTC TRANSFORMATION FOR ATOM:   11

     -------------------------------------
     LUT-IOTC TRANSFORMATION FOR ATOM-PAIR
     -------------------------------------

                1 FE         2 C          3 C          4 C          5 O     

   1 FE      0.0000000    1.7650737 *  1.7650737 *  1.7650737 *  2.9172668 *
   2 C       1.7650737 *  0.0000000    3.0571972 *  3.0571972 *  1.1521932 *
   3 C       1.7650737 *  3.0571972 *  0.0000000    3.0571972 *  4.0957443  
   4 C       1.7650737 *  3.0571972 *  3.0571972 *  0.0000000    4.0957443  
   5 O       2.9172668 *  1.1521932 *  4.0957443    4.0957443    0.0000000  
   6 O       2.9172668 *  4.0957443    1.1521932 *  4.0957443    5.0528544  
   7 O       2.9172668 *  4.0957443    4.0957443    1.1521932 *  5.0528543  
   8 C       1.6781411 *  2.4354842 *  2.4354842 *  2.4354842 *  3.3654756 *
   9 C       1.6759566 *  2.4340039 *  2.4340039 *  2.4340039 *  3.3644395 *
  10 O       2.8432856 *  3.3465889 *  3.3465889 *  3.3465889 *  4.0736247  
  11 O       2.8446211 *  3.3477537 *  3.3477537 *  3.3477537 *  4.0746307  

                6 O          7 O          8 C          9 C         10 O     

   1 FE      2.9172668 *  2.9172668 *  1.6781411 *  1.6759566 *  2.8432856 *
   2 C       4.0957443    4.0957443    2.4354842 *  2.4340039 *  3.3465889 *
   3 C       1.1521932 *  4.0957443    2.4354842 *  2.4340039 *  3.3465889 *
   4 C       4.0957443    1.1521932 *  2.4354842 *  2.4340039 *  3.3465889 *
   5 O       5.0528544    5.0528543    3.3654756 *  3.3644395 *  4.0736247  
   6 O       0.0000000    5.0528543    3.3654756 *  3.3644395 *  4.0736247  
   7 O       5.0528543    0.0000000    3.3654756 *  3.3644395 *  4.0736247  
   8 C       3.3654756 *  3.3654756 *  0.0000000    3.3540977 *  1.1651445 *
   9 C       3.3644395 *  3.3644395 *  3.3540977 *  0.0000000    4.5192422  
  10 O       4.0736247    4.0736247    1.1651445 *  4.5192422    0.0000000  
  11 O       4.0746307    4.0746307    4.5227622    1.1686645 *  5.6879067  

               11 O     

   1 FE      2.8446211 *
   2 C       3.3477537 *
   3 C       3.3477537 *
   4 C       3.3477537 *
   5 O       4.0746307  
   6 O       4.0746307  
   7 O       4.0746307  
   8 C       4.5227622  
   9 C       1.1686645 *
  10 O       5.6879067  
  11 O       0.0000000  

  * ... TRANSFORMED ATOM PAIR (LESS THAN   3.500 ANGS.)

 TIME TO DO  RELATIVISTIC INTS=      0.37
 TIME TO DO   DIPOLE INTEGRALS=      0.02
 ...... END OF ONE-ELECTRON INTEGRALS ......
 CPU     0: STEP CPU TIME=     0.42 TOTAL CPU TIME=          1.1 (      0.0 MIN)
 TOTAL WALL CLOCK TIME=          4.5 SECONDS, CPU UTILIZATION IS    23.67%

          -------------
          GUESS OPTIONS
          -------------
          GUESS =MOREAD            NORB  =     369          NORDER=       1
          MIX   =       F          PRTMO =       F          PUNMO =       F
          TOLZ  = 1.0E-08          TOLE  = 1.0E-05
          SYMDEN=       F          PURIFY=       T

 INITIAL GUESS ORBITALS GENERATED BY MOREAD   ROUTINE.

 STATISTICS FOR GENERATION OF SYMMETRY ORBITAL -Q- MATRIX
 NUMBER OF CARTESIAN ATOMIC ORBITALS=        435
 NUMBER OF SPHERICAL CONTAMINANTS DROPPED=    66
 NUMBER OF LINEARLY DEPENDENT MOS DROPPED=     0
 TOTAL NUMBER OF MOS IN VARIATION SPACE=     369
 ORBITAL PURIFICATION WILL OCCUR

 SYMMETRIES FOR INITIAL GUESS ORBITALS FOLLOW.   BOTH SET(S).
    48 ORBITALS ARE OCCUPIED (   19 CORE ORBITALS).
     1=A        2=A        3=A        4=A        5=A        6=A        7=A   
     8=A        9=A       10=A       11=A       12=A       13=A       14=A   
    15=A       16=A       17=A       18=A       19=A       20=A       21=A   
    22=A       23=A       24=A       25=A       26=A       27=A       28=A   
    29=A       30=A       31=A       32=A       33=A       34=A       35=A   
    36=A       37=A       38=A       39=A       40=A       41=A       42=A   
    43=A       44=A       45=A       46=A       47=A       48=A       49=A   
    50=A       51=A       52=A       53=A       54=A       55=A       56=A   
    57=A       58=A       59=A       60=A       61=A       62=A       63=A   
    64=A       65=A       66=A       67=A       68=A       69=A       70=A   
    71=A       72=A       73=A       74=A       75=A       76=A       77=A   
    78=A       79=A       80=A       81=A       82=A       83=A       84=A   
    85=A       86=A       87=A       88=A       89=A       90=A       91=A   
    92=A       93=A       94=A       95=A       96=A       97=A       98=A   
    99=A      100=A      101=A      102=A      103=A      104=A      105=A   
   106=A      107=A      108=A      109=A      110=A      111=A      112=A   
   113=A      114=A      115=A      116=A      117=A      118=A      119=A   
   120=A      121=A      122=A      123=A      124=A      125=A      126=A   
   127=A      128=A      129=A      130=A      131=A      132=A      133=A   
   134=A      135=A      136=A      137=A      138=A      139=A      140=A   
   141=A      142=A      143=A      144=A      145=A      146=A      147=A   
   148=A      149=A      150=A      151=A      152=A      153=A      154=A   
   155=A      156=A      157=A      158=A      159=A      160=A      161=A   
   162=A      163=A      164=A      165=A      166=A      167=A      168=A   
   169=A      170=A      171=A      172=A      173=A      174=A      175=A   
   176=A      177=A      178=A      179=A      180=A      181=A      182=A   
   183=A      184=A      185=A      186=A      187=A      188=A      189=A   
   190=A      191=A      192=A      193=A      194=A      195=A      196=A   
   197=A      198=A      199=A      200=A      201=A      202=A      203=A   
   204=A      205=A      206=A      207=A      208=A      209=A      210=A   
   211=A      212=A      213=A      214=A      215=A      216=A      217=A   
   218=A      219=A      220=A      221=A      222=A      223=A      224=A   
   225=A      226=A      227=A      228=A      229=A      230=A      231=A   
   232=A      233=A      234=A      235=A      236=A      237=A      238=A   
   239=A      240=A      241=A      242=A      243=A      244=A      245=A   
   246=A      247=A      248=A      249=A      250=A      251=A      252=A   
   253=A      254=A      255=A      256=A      257=A      258=A      259=A   
   260=A      261=A      262=A      263=A      264=A      265=A      266=A   
   267=A      268=A      269=A      270=A      271=A      272=A      273=A   
   274=A      275=A      276=A      277=A      278=A      279=A      280=A   
   281=A      282=A      283=A      284=A      285=A      286=A      287=A   
   288=A      289=A      290=A      291=A      292=A      293=A      294=A   
   295=A      296=A      297=A      298=A      299=A      300=A      301=A   
   302=A      303=A      304=A      305=A      306=A      307=A      308=A   
   309=A      310=A      311=A      312=A      313=A      314=A      315=A   
   316=A      317=A      318=A      319=A      320=A      321=A      322=A   
   323=A      324=A      325=A      326=A      327=A      328=A      329=A   
   330=A      331=A      332=A      333=A      334=A      335=A      336=A   
   337=A      338=A      339=A      340=A      341=A      342=A      343=A   
   344=A      345=A      346=A      347=A      348=A      349=A      350=A   
   351=A      352=A      353=A      354=A      355=A      356=A      357=A   
   358=A      359=A      360=A      361=A      362=A      363=A      364=A   
   365=A      366=A      367=A      368=A      369=A   
 ...... END OF INITIAL ORBITAL SELECTION ......
 CPU     0: STEP CPU TIME=     5.56 TOTAL CPU TIME=          6.6 (      0.1 MIN)
 TOTAL WALL CLOCK TIME=         15.1 SECONDS, CPU UTILIZATION IS    43.91%

                    ----------------------
                    AO INTEGRAL TECHNOLOGY
                    ----------------------
     S,P,L SHELL ROTATED AXIS INTEGRALS, REPROGRAMMED BY
        KAZUYA ISHIMURA (IMS) AND JOSE SIERRA (SYNSTAR).
     S,P,D,L SHELL ROTATED AXIS INTEGRALS PROGRAMMED BY
        KAZUYA ISHIMURA (INSTITUTE FOR MOLECULAR SCIENCE).
     S,P,D,F,G SHELL TO TOTAL QUARTET ANGULAR MOMENTUM SUM 5,
        ERIC PROGRAM BY GRAHAM FLETCHER (ELORET AND NASA ADVANCED
        SUPERCOMPUTING DIVISION, AMES RESEARCH CENTER).
     S,P,D,F,G,L SHELL GENERAL RYS QUADRATURE PROGRAMMED BY
        MICHEL DUPUIS (PACIFIC NORTHWEST NATIONAL LABORATORY).

          --------------------
          2 ELECTRON INTEGRALS
          --------------------

 DIRECT SCF METHOD SKIPS INTEGRAL STORAGE ON DISK.
 DIRECT TRANSFORMATION SKIPS AO INTEGRAL STORAGE ON DISK.
  ...... END OF TWO-ELECTRON INTEGRALS .....
 STEP CPU TIME =     0.01 TOTAL CPU TIME =          6.6 (      0.1 MIN)
 TOTAL WALL CLOCK TIME=         18.1 SECONDS, CPU UTILIZATION IS    36.77%

          -----------------
          MCSCF CALCULATION
          -----------------

 ----- NUCLEAR ENERGY ----- =       825.5530311604

     -------------------------------------------------
     GMC-PT/GMC-QDPT or general MCSCF input parameters
     -------------------------------------------------
 # of frozen core orbs. =        19 ->         0
 # of doubly occ. orbs. =        24
 # of active      orbs. =         8
 # of virtual     orbs. =       318
 # of active electrons  =         9
 # of states in CI      =         5
 Highest state in CI    =         5
 kstate =  1 1 1 1 1
 avecoe =  0.200 0.200 0.200 0.200 0.200
 State symmetry           = A           
 Assigned symmetry number = 1

 <<<Act. MO sym.: 11111111

 <<<Division of 1-ext.:  0 0 0 0 0 0 0 0 0 0
 <<<Division of 2-ext.:  0 1 2 3 4 5 6 7 8 9

 *** Reference space

 Reference type: ORMAS (= Occupation restricted multiple active space)
 # of orbitals          =  8
 # of minimum electrons =  9
 # of maximum electrons =  9
 State symmetry    =    1 (input)
 2*Sz              =    1 (input)
 Spin multiplicity =    2 (input)
 Dimension of reference space =      3920  (from     11440 walks)

 Dimension of reference space =      3920  (from      3920 walks)

 <<<Ionized spaces for Ref-CI:
      0:         3920 /   -1-0:         8036 /  0-1-0:         9408

 EVALUATING EXCHANGE INTEGRALS FOR DIRECT INTEGRAL TRANSFORMATION
 SCHWARZ INEQUALITY OVERHEAD:     90407 INTEGRALS, T=        0.06

     --------------------------------------------
     PARTIAL TWO ELECTRON INTEGRAL TRANSFORMATION
     --------------------------------------------

 NUMBER OF CORE MOLECULAR ORBITALS     =   43
 NUMBER OF OCCUPIED MOLECULAR ORBITALS =   51
 TOTAL NUMBER OF MOLECULAR ORBITALS    =  369
 TOTAL NUMBER OF ATOMIC ORBITALS       =  435
 THRESHOLD FOR KEEPING TRANSFORMED 2E- INTEGRALS = 1.000E-09

 -------------------------------     ------------------------------
 DISTRIBUTED DATA TRANSFORMATION     PROGRAM WRITTEN BY G. FLETCHER
 -------------------------------     ------------------------------

 THE DISTRIBUTED MEMORY REQUIRED FOR THIS STEP IS MEMDDI=       400 MWORDS
 CREATING DISTRIBUTED STORAGE FOR [VIR OCC|VIR OCC] INTEGRALS
 DDI: Creating Array [0] - 189225 x 1326 = 250912350 words.
 CREATING DISTRIBUTED STORAGE FOR [VIR OCC|OCC OCC] INTEGRALS
 DDI: Creating Array [1] - 318 x 67626 = 21505068 words.
 CREATING DISTRIBUTED STORAGE FOR [OCC OCC|OCC OCC] INTEGRALS
 DDI: Creating Array [2] - 1326 x 1326 = 1758276 words.
 CREATING DISTRIBUTED STORAGE FOR [VIR VIR|OCC OCC] INTEGRALS
 DDI: Creating Array [3] - 94830 x 1326 = 125744580 words.
 FOR   10 PROCESSORS, THE REPLICATED MEMORY NEEDED IS    11733063 WORDS.
 SCHWARZ INEQUALITY OVERHEAD:     90407 INTEGRALS, T=        0.06

      DIRECT 4-INDEX TRANSFORMATION 
      SCHWARZ INEQUALITY TEST SKIPPED   18211902 INTEGRAL BLOCKS
 ----- FROZEN CORE ENERGY =     -2634.4306103889
 ... END OF INTEGRAL TRANSFORMATION ...
 CPU     0: STEP CPU TIME=   144.96 TOTAL CPU TIME=        151.6 (      2.5 MIN)
 TOTAL WALL CLOCK TIME=        179.9 SECONDS, CPU UTILIZATION IS    84.29%

     --------------------------------     -----------------------------
     MCHF NEWTON-RAPHSON OPTIMIZATION     CODE WRITTEN BY MICHEL DUPUIS
     --------------------------------     -----------------------------
     PARALLEL VERSION WRITTEN BY G. FLETCHER (ELORET)
     NASA ADVANCED SUPERCOMPUTING DIVISION, AMES RESEARCH CENTER

 NUMBER OF INDEPENDENT ORBITAL ROTATION PARAMETERS = 11321
 ..... DONE SOLVING NEWTON-RAPHSON EQUATIONS .....
 CPU     0: STEP CPU TIME=   241.16 TOTAL CPU TIME=        392.8 (      6.5 MIN)
 TOTAL WALL CLOCK TIME=        484.5 SECONDS, CPU UTILIZATION IS    81.07%
 ..... DONE WITH NTN-RPH ORBITAL ROTATIONS ..... 
 CPU     0: STEP CPU TIME=     0.13 TOTAL CPU TIME=        392.9 (      6.5 MIN)
 TOTAL WALL CLOCK TIME=        489.6 SECONDS, CPU UTILIZATION IS    80.24%
 MAXIMUM MEMORY USED BY NTN-RPH CODE WAS   1992646 WORDS.

 ITER     TOTAL ENERGY      DEL(E)  LAGRANGIAN ASYMMETRY   SQCDF  MICIT   DAMP
   1    -1835.034931618 -0.034931618  0.000735  120   20 1.847E-05  1   0.0000
   2    -1835.034946049 -0.000014431  0.000200  338   18 2.623E-05  1   0.0000
   3    -1835.034950992 -0.000004943  0.000354  338   18 8.777E-05  1   0.0000
   4    -1835.034967002 -0.000016010  0.000622  338   18 2.819E-04  1   0.0000
   5    -1835.035016934 -0.000049933  0.001002  338   18 8.268E-04  1   0.0000
   6    -1835.035153552 -0.000136618  0.001270  338   18 1.942E-03  1   0.0000
   7    -1835.035438647 -0.000285095  0.001388  356   17 3.224E-03  1   0.0000
   8    -1835.035860604 -0.000421957  0.001469   53   50 3.982E-03  1   0.0000
   9    -1835.036347575 -0.000486970  0.001520   53   50 4.225E-03  1   0.0000
  10    -1835.036848693 -0.000501118  0.001524   53   50 4.214E-03  1   0.0000
  11    -1835.037341810 -0.000493118  0.001510   53   50 4.102E-03  1   0.0000
  12    -1835.037818846 -0.000477036  0.001491   53   50 3.958E-03  1   0.0000
  13    -1835.038277780 -0.000458933  0.001471   53   50 3.810E-03  1   0.0000
  14    -1835.038719109 -0.000441329  0.001453   53   50 3.669E-03  1   0.0000
  15    -1835.039144236 -0.000425128  0.001438   53   50 3.537E-03  1   0.0000
  16    -1835.039554686 -0.000410449  0.001425   53   50 3.413E-03  1   0.0000
  17    -1835.039951713 -0.000397027  0.001413   53   50 3.295E-03  1   0.0000
  18    -1835.040336108 -0.000384395  0.001403   53   50 3.176E-03  1   0.0000
  19    -1835.040708119 -0.000372011  0.001392   53   50 3.054E-03  1   0.0000
  20    -1835.041067445 -0.000359326  0.001379   53   50 2.925E-03  1   0.0000
  21    -1835.041413288 -0.000345843  0.001363   52   51 2.786E-03  1   0.0000
  22    -1835.041744494 -0.000331206  0.001344   52   51 2.636E-03  1   0.0000
  23    -1835.042059655 -0.000315161  0.001320   52   51 2.475E-03  1   0.0000
  24    -1835.042357327 -0.000297671  0.001291   52   51 2.306E-03  1   0.0000
  25    -1835.042636192 -0.000278865  0.001257   52   51 2.130E-03  1   0.0000
  26    -1835.042895219 -0.000259028  0.001218   52   51 1.952E-03  1   0.0000
  27    -1835.043287421 -0.000392202  0.005038   49   16 5.538E-03  1   0.0000
  28    -1835.044075605 -0.000788184  0.001853   52   51 4.346E-03  1   0.0000
  29    -1835.044606668 -0.000531063  0.001733   52   51 3.714E-03  1   0.0000
  30    -1835.045058552 -0.000451885  0.001647  156   47 3.125E-03  1   0.0000
  31    -1835.045438354 -0.000379802  0.001589  156   47 2.608E-03  1   0.0000
  32    -1835.045754775 -0.000316421  0.001514  156   47 2.169E-03  1   0.0000
  33    -1835.046017193 -0.000262418  0.001430  156   47 1.804E-03  1   0.0000
  34    -1835.046234565 -0.000217372  0.001341  156   47 1.504E-03  1   0.0000
  35    -1835.046414852 -0.000180287  0.001251  156   47 1.258E-03  1   0.0000
  36    -1835.046564824 -0.000149972  0.001164  156   47 1.057E-03  1   0.0000
  37    -1835.046690085 -0.000125261  0.001081  156   47 8.919E-04  1   0.0000
  38    -1835.046795197 -0.000105112  0.001004  156   47 7.565E-04  1   0.0000
  39    -1835.046883842 -0.000088645  0.000932  156   47 6.447E-04  1   0.0000
  40    -1835.046958980 -0.000075138  0.000866  156   47 5.521E-04  1   0.0000
  41    -1835.047022990 -0.000064010  0.000805  156   47 4.750E-04  1   0.0000
  42    -1835.047077784 -0.000054795  0.000749  156   47 4.104E-04  1   0.0000
  43    -1835.047124909 -0.000047124  0.000698  156   47 3.560E-04  1   0.0000
  44    -1835.047165615 -0.000040706  0.000651  156   47 3.101E-04  1   0.0000
  45    -1835.047200922 -0.000035307  0.000609  156   47 2.710E-04  1   0.0000
  46    -1835.047231664 -0.000030742  0.000569  156   47 2.376E-04  1   0.0000
  47    -1835.047258529 -0.000026864  0.000533  156   47 2.090E-04  1   0.0000
  48    -1835.047282082 -0.000023553  0.000501  157   48 1.843E-04  1   0.0000
  49    -1835.047302796 -0.000020714  0.000471  157   48 1.630E-04  1   0.0000
  50    -1835.047321064 -0.000018268  0.000444  157   48 1.445E-04  1   0.0000
  51    -1835.047337222 -0.000016158  0.000418  157   48 1.284E-04  1   0.0000
  52    -1835.047351544 -0.000014323  0.000395  157   48 1.143E-04  1   0.0000
  53    -1835.047364270 -0.000012725  0.000373  157   48 1.020E-04  1   0.0000
  54    -1835.047375599 -0.000011330  0.000353  157   48 9.113E-05  1   0.0000
  55    -1835.047385706 -0.000010106  0.000334  157   48 8.156E-05  1   0.0000
  56    -1835.047394737 -0.000009031  0.000316  157   48 7.311E-05  1   0.0000
  57    -1835.047402820 -0.000008083  0.000300  157   48 6.563E-05  1   0.0000
  58    -1835.047410066 -0.000007246  0.000284  157   48 5.899E-05  1   0.0000
  59    -1835.047416570 -0.000006504  0.000269  157   48 5.308E-05  1   0.0000
  60    -1835.047422416 -0.000005846  0.000256  157   48 4.781E-05  1   0.0000
  61    -1835.047427677 -0.000005261  0.000243  157   48 4.312E-05  1   0.0000
  62    -1835.047432416 -0.000004739  0.000231  157   48 3.892E-05  1   0.0000
  63    -1835.047436690 -0.000004274  0.000219  157   48 3.515E-05  1   0.0000
  64    -1835.047440547 -0.000003857  0.000209  157   48 3.178E-05  1   0.0000
  65    -1835.047444032 -0.000003485  0.000199  157   48 2.876E-05  1   0.0000
  66    -1835.047447182 -0.000003151  0.000189  157   48 2.603E-05  1   0.0000
  67    -1835.047450033 -0.000002850  0.000180  157   48 2.359E-05  1   0.0000
  68    -1835.047452614 -0.000002581  0.000171  157   48 2.138E-05  1   0.0000
  69    -1835.047454952 -0.000002338  0.000163  157   48 1.939E-05  1   0.0000
  70    -1835.047457072 -0.000002120  0.000155  157   48 1.760E-05  1   0.0000
  71    -1835.047458994 -0.000001923  0.000148  157   48 1.598E-05  1   0.0000
  72    -1835.047460739 -0.000001745  0.000141  157   48 1.451E-05  1   0.0000
  73    -1835.047462323 -0.000001584  0.000135  157   48 1.318E-05  1   0.0000
  74    -1835.047463761 -0.000001439  0.000128  157   48 1.198E-05  1   0.0000
  75    -1835.047465068 -0.000001307  0.000122  157   48 1.090E-05  1   0.0000
  76    -1835.047466257 -0.000001188  0.000117  157   48 9.912E-06  1   0.0000
  77    -1835.047467337 -0.000001081  0.000111  157   48 9.019E-06  1   0.0000
  78    -1835.047468320 -0.000000983  0.000106  157   48 8.208E-06  1   0.0000
  79    -1835.047469215 -0.000000894  0.000101  157   48 7.473E-06  1   0.0000
  80    -1835.047470029 -0.000000814  0.000097  157   48 6.805E-06  1   0.0000
  81    -1835.047470770 -0.000000741  0.000092  157   48 6.198E-06  1   0.0000
  82    -1835.047471444 -0.000000675  0.000088  157   48 5.647E-06  1   0.0000
  83    -1835.047472059 -0.000000615  0.000084  157   48 5.145E-06  1   0.0000
  84    -1835.047472619 -0.000000560  0.000080  157   48 4.687E-06  1   0.0000
  85    -1835.047473129 -0.000000510  0.000077  157   48 4.277E-06  1   0.0000
  86    -1835.047473594 -0.000000465  0.000073  157   48 3.892E-06  1   0.0000
  87    -1835.047474018 -0.000000423  0.000070  157   48 3.555E-06  1   0.0000
  88    -1835.047474405 -0.000000387  0.000067  157   48 3.241E-06  1   0.0000
  89    -1835.047474757 -0.000000352  0.000064  157   48 2.956E-06  1   0.0000
  90    -1835.047475079 -0.000000321  0.000061  157   48 2.697E-06  1   0.0000
  91    -1835.047475372 -0.000000293  0.000058  157   48 2.460E-06  1   0.0000
  92    -1835.047475639 -0.000000267  0.000056  157   48 2.245E-06  1   0.0000
  93    -1835.047475883 -0.000000244  0.000053  157   48 2.048E-06  1   0.0000
  94    -1835.047476106 -0.000000223  0.000051  157   48 1.869E-06  1   0.0000
  95    -1835.047476309 -0.000000203  0.000048  157   48 1.706E-06  1   0.0000
  96    -1835.047476495 -0.000000185  0.000046  157   48 1.557E-06  1   0.0000
  97    -1835.047476664 -0.000000169  0.000044  157   48 1.422E-06  1   0.0000
  98    -1835.047476818 -0.000000154  0.000042  157   48 1.298E-06  1   0.0000
  99    -1835.047476959 -0.000000141  0.000040  157   48 1.185E-06  1   0.0000
 100    -1835.047477088 -0.000000129  0.000039  157   48 1.082E-06  1   0.0000
 EXCESSIVE NUMBER OF ITERATIONS...
 MCSCF IS NOT CONVERGED!
 A $VEC GROUP OF CURRENT MO-S IS IN THE PUNCH FILE
 USE THIS WITH GUESS=MOREAD TO RESTART THIS RUN

 FINAL MCSCF ENERGY IS        0.0000000000 AFTER 100 ITERATIONS

 -MCCI- BASED ON OPTIMIZED ORBITALS
 ----------------------------------

 PLEASE NOTE: IF THE ACTIVE ORBITALS ARE CANONICALIZED BELOW,
 THE FOLLOWING CI EXPANSION COEFFICIENTS AND THE DENSITY DO NOT
 CORRESPOND TO THE PRINTED ORBITALS.  THE PRINTED EXPANSIONS MATCH
 THE ORBITALS USED DURING THE LAST ITERATION.  IF YOU WISH TO SEE
 CI EXPANSIONS BASED ON THE CANONICAL (OR NATURAL) ORBITALS, YOU
 MUST RUN A CI CALCULATION WITH THAT ORBITAL CHOICE READ IN $VEC.

 Averaged energy =       0.000000000

 State #    1  Energy =   -1835.132177645  S =  0.500

      Det      Coef    Occupancy (Ignoring core)
      ---      ----    --------- --------- -----
        1   -0.911593  1111100011110000
        7    0.083047  1111001011110000
        8    0.076642  1110101011110000
        9   -0.081018  1101101011110000
       10   -0.061742  1011101011110000
       22    0.075628  1111000111110000
       23   -0.084360  1110100111110000
       24   -0.059746  1101100111110000
       25    0.083063  1011100111110000
       57   -0.054946  1111100011101000
      841   -0.071589  1111100011100010
      897    0.098303  1111100011010010
      905   -0.060099  1101101011010010
      953    0.080325  1111100010110010
     1961    0.088995  1111100011100001
     2017    0.070463  1111100011010001
     2073   -0.108341  1111100010110001
     2097   -0.060466  1011100110110001

 State #    2  Energy =   -1835.132043684  S =  0.500

      Det      Coef    Occupancy (Ignoring core)
      ---      ----    --------- --------- -----
        1   -0.054955  1111100011110000
       57    0.911665  1111100011101000
       63   -0.084123  1111001011101000
       64   -0.075776  1110101011101000
       65    0.082891  1101101011101000
       66    0.059769  1011101011101000
       78   -0.076499  1111000111101000
       79    0.083282  1110100111101000
       80    0.061608  1101100111101000
       81   -0.081042  1011100111101000
      841   -0.088746  1111100011100010
     1065   -0.108046  1111100011001010
     1073    0.060521  1101101011001010
     1121   -0.070661  1111100010101010
     1961   -0.071416  1111100011100001
     2185   -0.080087  1111100011001001
     2241    0.098537  1111100010101001
     2265    0.060086  1011100110101001

 State #    3  Energy =   -1835.023905535  S =  0.500

      Det      Coef    Occupancy (Ignoring core)
      ---      ----    --------- --------- -----
      113    0.912372  1111100011011000
      119   -0.082422  1111001011011000
      120   -0.074985  1110101011011000
      121    0.053683  1101101011011000
      122    0.067719  1011101011011000
      134   -0.074933  1111000111011000
      135    0.082542  1110100111011000
      137   -0.090391  1011100111011000
      156    0.060718  1001101111011000
      393    0.064518  1111100010110100
      505    0.065886  1111100011001100
      734    0.052499  0111110001011100
      737   -0.050627  1101101001011100
      753    0.050206  1011100101011100
      897   -0.083730  1111100011010010
     1065   -0.074063  1111100011001010
     1233   -0.087277  1111100010011010
     2017   -0.075702  1111100011010001
     2185    0.081150  1111100011001001
     2353    0.113096  1111100010011001
     2358    0.052829  0111110010011001
     2377    0.063842  1011100110011001

 State #    4  Energy =   -1835.023699188  S =  0.500

      Det      Coef    Occupancy (Ignoring core)
      ---      ----    --------- --------- -----
      169    0.912473  1111100010111000
      175   -0.082381  1111001010111000
      176   -0.075176  1110101010111000
      177    0.090406  1101101010111000
      190   -0.074913  1111000110111000
      191    0.082777  1110100110111000
      192    0.067722  1101100110111000
      193   -0.053942  1011100110111000
      212    0.060692  1001101110111000
      337    0.064914  1111100011010100
      561   -0.063726  1111100010101100
      790    0.052481  0111110000111100
      793   -0.050149  1101101000111100
      809    0.050648  1011100100111100
      953   -0.080998  1111100010110010
     1121   -0.075956  1111100010101010
     1233    0.113076  1111100010011010
     1238    0.052754  0111110010011010
     1241   -0.063884  1101101010011010
     2073   -0.073996  1111100010110001
     2241    0.084100  1111100010101001
     2353    0.087262  1111100010011001

 State #    5  Energy =   -1834.925559387  S =  0.500

      Det      Coef    Occupancy (Ignoring core)
      ---      ----    --------- --------- -----
        2   -0.648432  1111010011110000
        3   -0.074203  1110110011110000
       13   -0.061931  1101011011110000
       14   -0.051892  1011011011110000
       27   -0.067757  1110010111110000
       29    0.071126  1011010111110000
       58   -0.074118  1111010011101000
       59    0.643163  1110110011101000
       68    0.067114  1110011011101000
       72    0.070044  1100111011101000
       87    0.051078  1100110111101000
       88   -0.061786  1010110111101000
      843   -0.066056  1110110011100010
      898    0.075834  1111010011010010
      954    0.062234  1111010010110010
     1067   -0.084102  1110110011001010
     1123   -0.053735  1110110010101010
     1962    0.066690  1111010011100001
     2018    0.053964  1111010011010001
     2074   -0.085250  1111010010110001
     2187   -0.061368  1110110011001001
     2243    0.075504  1110110010101001

 DENSITY MATRIX OVER ACTIVE MO-S

             1           2           3           4           5

    1    1.9684199
    2   -0.0001126   1.7300795
    3    0.0000075   0.0000024   1.7301980
    4    0.0034219   0.0230232  -0.0023068   1.5708524
    5    0.0001150   0.0023077   0.0230092   0.0001701   1.5677896
    6    0.0187484   0.0004909  -0.0000336  -0.0014857  -0.0000510
    7    0.0000547  -0.1009168   0.1356870   0.1241005  -0.1359443
    8   -0.0000637   0.1361419   0.1005497  -0.1366272  -0.1236475

             6           7           8

    6    0.2431782
    7    0.0001861   0.0946965
    8   -0.0002196  -0.0001711   0.0947858

 FORMING THE "STANDARD FOCK OPERATOR" IN DIRECT AO INTEGRAL MODE...
 ONLY THE   43 CORE AND  318 VIRTUAL ORBITALS WILL BE CANONICALIZED

          ----------------------
          MCSCF NATURAL ORBITALS
          ----------------------

                      1          2          3          4          5
                 -263.9019   -32.6933   -27.7664   -27.7562   -27.7562
                     A          A          A          A          A   
    1  FE 1  S    0.997432  -0.320543   0.000005  -0.000000  -0.000001
    2  FE 1  S    0.011929   1.048356  -0.000020   0.000000   0.000002
    3  FE 1  S    0.003430   0.027451  -0.000005   0.000000   0.000000
    4  FE 1  S   -0.007235  -0.014231   0.000003  -0.000000  -0.000000
    5  FE 1  S    0.002275   0.004574   0.000005  -0.000000   0.000001
    6  FE 1  S   -0.003522  -0.010831  -0.000002   0.000000  -0.000001
    7  FE 1  S    0.000701   0.001969  -0.000015   0.000000  -0.000002
    8  FE 1  S   -0.000079  -0.000272   0.000001   0.000000  -0.000000
    9  FE 1  X    0.000000  -0.000002   0.000150  -0.015970   0.997295
   10  FE 1  Y   -0.000000  -0.000000  -0.000012   0.997295   0.015970
   11  FE 1  Z   -0.000000   0.000012   0.997465   0.000014  -0.000150
   12  FE 1  X   -0.000000  -0.000000   0.000000  -0.000008   0.000487
   13  FE 1  Y    0.000000  -0.000000  -0.000000   0.000488   0.000008
   14  FE 1  Z    0.000000   0.000007   0.000569   0.000000  -0.000000
   15  FE 1  X    0.000000   0.000001   0.000001  -0.000148   0.009251
   16  FE 1  Y   -0.000000   0.000000  -0.000000   0.009251   0.000148
   17  FE 1  Z   -0.000000   0.000007   0.008875   0.000000  -0.000001
   18  FE 1  X   -0.000000  -0.000000  -0.000000   0.000044  -0.002731
   19  FE 1  Y    0.000000  -0.000000   0.000000  -0.002732  -0.000044
   20  FE 1  Z    0.000001   0.000011  -0.002363  -0.000000   0.000000
   21  FE 1  X    0.000000   0.000001   0.000000  -0.000024   0.001506
   22  FE 1  Y   -0.000000   0.000000  -0.000000   0.001509   0.000024
   23  FE 1  Z   -0.000007  -0.000031   0.000758   0.000000   0.000000
   24  FE 1  X    0.000000  -0.000002  -0.000000  -0.000016   0.000977
   25  FE 1  Y   -0.000000   0.000000  -0.000000   0.000977   0.000016
   26  FE 1  Z    0.000002   0.000009   0.000463   0.000000   0.000000
   27  FE 1 XX    0.000005   0.000058  -0.000023   0.000001  -0.000037
   28  FE 1 YY    0.000005   0.000039  -0.000024  -0.000001   0.000036
   29  FE 1 ZZ   -0.000010  -0.000097   0.000047  -0.000000   0.000001
   30  FE 1 XY   -0.000000   0.000000   0.000000   0.000040   0.000001
   31  FE 1 XZ   -0.000000  -0.000000  -0.000002  -0.000000   0.000015
   32  FE 1 YZ    0.000000   0.000000   0.000000   0.000015   0.000000
   33  FE 1 XX   -0.000017   0.000235   0.000004  -0.000002   0.000140
   34  FE 1 YY   -0.000017   0.000233   0.000004   0.000002  -0.000140
   35  FE 1 ZZ    0.000034  -0.000467  -0.000007  -0.000000  -0.000000
   36  FE 1 XY    0.000000   0.000000   0.000000  -0.000160  -0.000003
   37  FE 1 XZ   -0.000000  -0.000000   0.000000   0.000000  -0.000002
   38  FE 1 YZ    0.000000   0.000000   0.000000  -0.000002  -0.000000
   39  FE 1 XX    0.000135   0.000400  -0.000007   0.000006  -0.000391
   40  FE 1 YY    0.000135   0.000399  -0.000007  -0.000006   0.000390
   41  FE 1 ZZ   -0.000271  -0.000799   0.000014   0.000000   0.000001
   42  FE 1 XY   -0.000000   0.000000  -0.000000   0.000450   0.000007
   43  FE 1 XZ    0.000000   0.000000  -0.000000   0.000000  -0.000001
   44  FE 1 YZ    0.000000  -0.000000  -0.000000  -0.000001  -0.000000
   45  FE 1 XX   -0.000048   0.000044  -0.000001  -0.000012   0.000766
   46  FE 1 YY   -0.000048   0.000036  -0.000002   0.000012  -0.000767
   47  FE 1 ZZ    0.000095  -0.000080   0.000003  -0.000000   0.000002
   48  FE 1 XY    0.000000   0.000000   0.000000  -0.000885  -0.000014
   49  FE 1 XZ   -0.000000  -0.000000   0.000000  -0.000000   0.000002
   50  FE 1 YZ    0.000000   0.000000   0.000000   0.000002   0.000000
   51  FE 1 XXX   0.000016   0.000088   0.000003   0.000002  -0.000151
   52  FE 1 YYY  -0.000000  -0.000000   0.000000  -0.000152  -0.000002
   53  FE 1 ZZZ   0.000000  -0.000000  -0.000202  -0.000000  -0.000000
   54  FE 1 XXY   0.000000  -0.000000   0.000000  -0.000070  -0.000001
   55  FE 1 XXZ  -0.000000   0.000000   0.000134  -0.000000   0.000005
   56  FE 1 YYX  -0.000022  -0.000118  -0.000005   0.000001  -0.000070
   57  FE 1 YYZ  -0.000000   0.000000   0.000136   0.000000  -0.000005
   58  FE 1 ZZX  -0.000000  -0.000000   0.000000  -0.000004   0.000271
   59  FE 1 ZZY   0.000000   0.000000  -0.000000   0.000273   0.000004
   60  FE 1 XYZ   0.000000  -0.000000  -0.000000  -0.000005  -0.000000
   61  FE 1 XXX  -0.000113  -0.000441  -0.000002  -0.000001   0.000060
   62  FE 1 YYY   0.000000  -0.000000  -0.000000   0.000060   0.000001
   63  FE 1 ZZZ  -0.000001  -0.000004  -0.000115  -0.000000   0.000000
   64  FE 1 XXY   0.000000  -0.000000  -0.000000   0.000028   0.000000
   65  FE 1 XXZ   0.000000   0.000003   0.000078   0.000000  -0.000000
   66  FE 1 YYX   0.000151   0.000592   0.000003  -0.000000   0.000027
   67  FE 1 YYZ   0.000000   0.000003   0.000077  -0.000000   0.000000
   68  FE 1 ZZX   0.000000  -0.000000  -0.000000   0.000002  -0.000108
   69  FE 1 ZZY  -0.000000   0.000000   0.000000  -0.000109  -0.000002
   70  FE 1 XYZ  -0.000000   0.000000   0.000000   0.000000   0.000000
   71  FE 1XXXX  -0.000018  -0.000092   0.000000  -0.000000   0.000004
   72  FE 1YYYY  -0.000018  -0.000092   0.000000  -0.000000   0.000002
   73  FE 1ZZZZ  -0.000047  -0.000246   0.000000   0.000000  -0.000000
   74  FE 1XXXY   0.000000   0.000000  -0.000000   0.000003   0.000000
   75  FE 1XXXZ  -0.000000   0.000001   0.000003   0.000000  -0.000000
   76  FE 1YYYX   0.000000  -0.000000   0.000000  -0.000004  -0.000000
   77  FE 1YYYZ  -0.000000   0.000000  -0.000000  -0.000000  -0.000000
   78  FE 1ZZZX  -0.000000  -0.000000  -0.000000  -0.000000   0.000000
   79  FE 1ZZZY   0.000000  -0.000000   0.000000   0.000000   0.000000
   80  FE 1XXYY  -0.000010  -0.000054   0.000000   0.000000  -0.000005
   81  FE 1XXZZ   0.000042   0.000216  -0.000000   0.000000  -0.000002
   82  FE 1YYZZ   0.000042   0.000216  -0.000000  -0.000000   0.000002
   83  FE 1XXYZ   0.000000   0.000000  -0.000000  -0.000000  -0.000000
   84  FE 1YYXZ   0.000000  -0.000001  -0.000004   0.000000  -0.000000
   85  FE 1ZZXY   0.000000  -0.000000  -0.000000   0.000002   0.000000
   86  C  2  S   -0.000031  -0.000197   0.000005   0.000012  -0.000006
   87  C  2  S   -0.000193  -0.000520  -0.000010   0.000074  -0.000042
   88  C  2  S    0.000535   0.001980  -0.000011  -0.000471   0.000261
   89  C  2  S    0.000037   0.000143  -0.000004  -0.000527   0.000293
   90  C  2  X   -0.000014   0.000002  -0.000004  -0.000006   0.000004
   91  C  2  Y    0.000024  -0.000006   0.000007   0.000011  -0.000005
   92  C  2  Z   -0.000000  -0.000000   0.000006   0.000000  -0.000000
   93  C  2  X    0.000113   0.000578  -0.000003  -0.000022   0.000031
   94  C  2  Y   -0.000196  -0.001004   0.000005   0.000057  -0.000020
   95  C  2  Z    0.000000  -0.000001   0.000001   0.000001  -0.000000
   96  C  2  X   -0.000106  -0.000377  -0.000001  -0.000364   0.000261
   97  C  2  Y    0.000184   0.000653   0.000001   0.000687  -0.000349
   98  C  2  Z   -0.000000  -0.000000   0.000028   0.000000  -0.000000
   99  C  2 XX    0.000002   0.000008  -0.000000  -0.000002  -0.000001
  100  C  2 YY   -0.000005  -0.000019   0.000000   0.000003   0.000001
  101  C  2 ZZ    0.000004   0.000011   0.000000  -0.000001   0.000001
  102  C  2 XY    0.000007   0.000027  -0.000000  -0.000002   0.000003
  103  C  2 XZ    0.000000  -0.000000   0.000000   0.000000  -0.000000
  104  C  2 YZ   -0.000000   0.000000  -0.000001  -0.000000   0.000000
  105  C  2 XX   -0.000026  -0.000085  -0.000000   0.000033   0.000004
  106  C  2 YY    0.000142   0.000472   0.000000  -0.000106   0.000037
  107  C  2 ZZ   -0.000116  -0.000387  -0.000000   0.000073  -0.000040
  108  C  2 XY   -0.000168  -0.000556  -0.000001   0.000114  -0.000078
  109  C  2 XZ    0.000000  -0.000000  -0.000021   0.000000  -0.000000
  110  C  2 YZ   -0.000000   0.000000   0.000037  -0.000000   0.000000
  111  C  2 XXX  -0.000037  -0.000166  -0.000000  -0.000038   0.000022
  112  C  2 YYY  -0.000028  -0.000124  -0.000000  -0.000026   0.000014
  113  C  2 ZZZ   0.000000   0.000000  -0.000003  -0.000000   0.000000
  114  C  2 XXY  -0.000013  -0.000055  -0.000000  -0.000011   0.000007
  115  C  2 XXZ  -0.000000  -0.000000   0.000000   0.000000  -0.000000
  116  C  2 YYX   0.000079   0.000351   0.000001   0.000078  -0.000043
  117  C  2 YYZ  -0.000000  -0.000000   0.000004   0.000000  -0.000000
  118  C  2 ZZX  -0.000029  -0.000128  -0.000000  -0.000026   0.000015
  119  C  2 ZZY   0.000050   0.000222   0.000000   0.000046  -0.000025
  120  C  2 XYZ  -0.000000   0.000000  -0.000004  -0.000000   0.000000
  121  C  3  S   -0.000031  -0.000197   0.000005  -0.000012  -0.000007
  122  C  3  S   -0.000193  -0.000520  -0.000010  -0.000072  -0.000044
  123  C  3  S    0.000535   0.001980  -0.000011   0.000462   0.000276
  124  C  3  S    0.000037   0.000143  -0.000004   0.000517   0.000310
  125  C  3  X   -0.000014   0.000002  -0.000004   0.000006   0.000004
  126  C  3  Y   -0.000024   0.000006  -0.000007   0.000011   0.000005
  127  C  3  Z   -0.000000  -0.000000   0.000006  -0.000000  -0.000000
  128  C  3  X    0.000113   0.000578  -0.000003   0.000021   0.000032
  129  C  3  Y    0.000196   0.001004  -0.000005   0.000056   0.000022
  130  C  3  Z    0.000000  -0.000001   0.000001  -0.000001  -0.000000
  131  C  3  X   -0.000106  -0.000377  -0.000001   0.000355   0.000272
  132  C  3  Y   -0.000184  -0.000653  -0.000001   0.000676   0.000371
  133  C  3  Z   -0.000000  -0.000000   0.000028  -0.000000  -0.000000
  134  C  3 XX    0.000002   0.000008  -0.000000   0.000002  -0.000001
  135  C  3 YY   -0.000005  -0.000019   0.000000  -0.000003   0.000001
  136  C  3 ZZ    0.000004   0.000011   0.000000   0.000001   0.000001
  137  C  3 XY   -0.000007  -0.000027   0.000000  -0.000002  -0.000003
  138  C  3 XZ    0.000000  -0.000000   0.000000  -0.000000  -0.000000
  139  C  3 YZ    0.000000  -0.000000   0.000001  -0.000000  -0.000000
  140  C  3 XX   -0.000026  -0.000085  -0.000000  -0.000033   0.000003
  141  C  3 YY    0.000142   0.000472   0.000000   0.000105   0.000040
  142  C  3 ZZ   -0.000116  -0.000387  -0.000000  -0.000071  -0.000043
  143  C  3 XY    0.000168   0.000556   0.000001   0.000112   0.000082
  144  C  3 XZ    0.000000  -0.000000  -0.000021  -0.000000  -0.000000
  145  C  3 YZ    0.000000  -0.000000  -0.000037  -0.000000  -0.000000
  146  C  3 XXX  -0.000037  -0.000166  -0.000000   0.000038   0.000023
  147  C  3 YYY   0.000028   0.000124   0.000000  -0.000025  -0.000015
  148  C  3 ZZZ   0.000000   0.000000  -0.000003   0.000000   0.000000
  149  C  3 XXY   0.000013   0.000055   0.000000  -0.000011  -0.000007
  150  C  3 XXZ  -0.000000  -0.000000   0.000000  -0.000000  -0.000000
  151  C  3 YYX   0.000079   0.000351   0.000001  -0.000076  -0.000046
  152  C  3 YYZ  -0.000000  -0.000000   0.000004  -0.000000  -0.000000
  153  C  3 ZZX  -0.000029  -0.000128  -0.000000   0.000026   0.000015
  154  C  3 ZZY  -0.000050  -0.000222  -0.000000   0.000045   0.000027
  155  C  3 XYZ   0.000000  -0.000000   0.000004  -0.000000  -0.000000
  156  C  4  S   -0.000031  -0.000198   0.000005  -0.000000   0.000014
  157  C  4  S   -0.000193  -0.000518  -0.000010  -0.000001   0.000084
  158  C  4  S    0.000535   0.001981  -0.000011   0.000009  -0.000538
  159  C  4  S    0.000037   0.000142  -0.000005   0.000010  -0.000602
  160  C  4  X    0.000028  -0.000008   0.000008  -0.000000   0.000014
  161  C  4  Y   -0.000000   0.000000   0.000000   0.000001   0.000000
  162  C  4  Z   -0.000000  -0.000000   0.000006  -0.000000   0.000000
  163  C  4  X   -0.000226  -0.001159   0.000006  -0.000001   0.000067
  164  C  4  Y   -0.000000   0.000000   0.000000   0.000019   0.000000
  165  C  4  Z   -0.000000  -0.000001   0.000000  -0.000000   0.000001
  166  C  4  X    0.000212   0.000754   0.000001  -0.000014   0.000889
  167  C  4  Y    0.000000   0.000000  -0.000000   0.000058   0.000001
  168  C  4  Z   -0.000000  -0.000000   0.000028  -0.000000   0.000000
  169  C  4 XX   -0.000009  -0.000032   0.000000  -0.000000   0.000004
  170  C  4 YY    0.000005   0.000021  -0.000000   0.000000  -0.000002
  171  C  4 ZZ    0.000004   0.000011   0.000000   0.000000  -0.000002
  172  C  4 XY    0.000000  -0.000000  -0.000000   0.000003   0.000000
  173  C  4 XZ   -0.000000   0.000000  -0.000001   0.000000  -0.000000
  174  C  4 YZ    0.000000   0.000000   0.000000   0.000000   0.000000
  175  C  4 XX    0.000226   0.000750   0.000001   0.000003  -0.000179
  176  C  4 YY   -0.000110  -0.000363  -0.000001  -0.000002   0.000096
  177  C  4 ZZ   -0.000116  -0.000387   0.000000  -0.000001   0.000083
  178  C  4 XY    0.000000  -0.000000  -0.000000  -0.000025  -0.000000
  179  C  4 XZ   -0.000000   0.000001   0.000043   0.000000  -0.000001
  180  C  4 YZ    0.000000  -0.000000   0.000000   0.000000   0.000000
  181  C  4 XXX  -0.000086  -0.000381  -0.000001   0.000002  -0.000095
  182  C  4 YYY  -0.000000  -0.000000  -0.000000   0.000001   0.000000
  183  C  4 ZZZ   0.000000   0.000000  -0.000003   0.000000  -0.000000
  184  C  4 XXY   0.000000   0.000000   0.000000  -0.000001  -0.000000
  185  C  4 XXZ  -0.000000  -0.000000   0.000006  -0.000000   0.000000
  186  C  4 YYX   0.000058   0.000255   0.000001  -0.000001   0.000067
  187  C  4 YYZ  -0.000000   0.000000  -0.000002   0.000000  -0.000000
  188  C  4 ZZX   0.000058   0.000256   0.000000  -0.000001   0.000061
  189  C  4 ZZY   0.000000  -0.000000  -0.000000  -0.000000  -0.000000
  190  C  4 XYZ   0.000000  -0.000000   0.000000   0.000000   0.000000
  191  O  5  S   -0.000000   0.000008  -0.000001  -0.000002   0.000001
  192  O  5  S    0.000017   0.000041   0.000001   0.000003  -0.000002
  193  O  5  S    0.000006   0.000199   0.000002   0.000268  -0.000149
  194  O  5  S   -0.000369  -0.001322   0.000002  -0.000515   0.000287
  195  O  5  X   -0.000001  -0.000035   0.000002   0.000000   0.000001
  196  O  5  Y    0.000003   0.000062  -0.000002   0.000000   0.000000
  197  O  5  Z    0.000000   0.000001   0.000000  -0.000001   0.000000
  198  O  5  X    0.000029   0.000116   0.000002   0.000038  -0.000009
  199  O  5  Y   -0.000051  -0.000199  -0.000004  -0.000054   0.000037
  200  O  5  Z    0.000000   0.000002  -0.000014  -0.000001   0.000000
  201  O  5  X   -0.000054  -0.000196   0.000001  -0.000054   0.000018
  202  O  5  Y    0.000093   0.000341  -0.000002   0.000082  -0.000053
  203  O  5  Z    0.000000   0.000001  -0.000029  -0.000001   0.000000
  204  O  5 XX   -0.000001  -0.000005  -0.000000  -0.000001   0.000001
  205  O  5 YY    0.000006   0.000024   0.000000   0.000008  -0.000005
  206  O  5 ZZ   -0.000005  -0.000019  -0.000000  -0.000007   0.000004
  207  O  5 XY   -0.000007  -0.000029  -0.000000  -0.000009   0.000005
  208  O  5 XZ   -0.000000   0.000000   0.000001  -0.000000   0.000000
  209  O  5 YZ    0.000000  -0.000000  -0.000002   0.000000  -0.000000
  210  O  5 XX   -0.000004  -0.000016  -0.000000  -0.000001  -0.000003
  211  O  5 YY    0.000020   0.000077   0.000000  -0.000009   0.000008
  212  O  5 ZZ   -0.000016  -0.000062  -0.000000   0.000010  -0.000006
  213  O  5 XY   -0.000024  -0.000093  -0.000001   0.000011  -0.000004
  214  O  5 XZ    0.000000   0.000000  -0.000008  -0.000000  -0.000000
  215  O  5 YZ   -0.000000  -0.000000   0.000014   0.000000  -0.000000
  216  O  5 XXX  -0.000007  -0.000023  -0.000000  -0.000002   0.000001
  217  O  5 YYY  -0.000005  -0.000017  -0.000000  -0.000000  -0.000001
  218  O  5 ZZZ  -0.000000  -0.000000   0.000001   0.000000  -0.000000
  219  O  5 XXY  -0.000002  -0.000007  -0.000000   0.000001   0.000001
  220  O  5 XXZ   0.000000   0.000000  -0.000000  -0.000000  -0.000000
  221  O  5 YYX   0.000014   0.000048   0.000000   0.000002  -0.000001
  222  O  5 YYZ   0.000000   0.000000  -0.000001  -0.000000   0.000000
  223  O  5 ZZX  -0.000005  -0.000017  -0.000000   0.000001   0.000000
  224  O  5 ZZY   0.000009   0.000030   0.000000  -0.000001   0.000001
  225  O  5 XYZ  -0.000000  -0.000000   0.000001   0.000000  -0.000000
  226  O  6  S   -0.000000   0.000008  -0.000001   0.000002   0.000001
  227  O  6  S    0.000017   0.000041   0.000001  -0.000003  -0.000002
  228  O  6  S    0.000006   0.000199   0.000002  -0.000263  -0.000158
  229  O  6  S   -0.000369  -0.001322   0.000002   0.000506   0.000303
  230  O  6  X   -0.000001  -0.000035   0.000002  -0.000001   0.000001
  231  O  6  Y   -0.000003  -0.000062   0.000002   0.000000  -0.000000
  232  O  6  Z    0.000000   0.000001   0.000000   0.000001   0.000000
  233  O  6  X    0.000029   0.000116   0.000002  -0.000038  -0.000010
  234  O  6  Y    0.000051   0.000199   0.000004  -0.000053  -0.000039
  235  O  6  Z    0.000000   0.000002  -0.000014   0.000001   0.000000
  236  O  6  X   -0.000054  -0.000196   0.000001   0.000054   0.000019
  237  O  6  Y   -0.000093  -0.000341   0.000002   0.000080   0.000056
  238  O  6  Z    0.000000   0.000001  -0.000029   0.000001   0.000000
  239  O  6 XX   -0.000001  -0.000005  -0.000000   0.000001   0.000001
  240  O  6 YY    0.000006   0.000024   0.000000  -0.000007  -0.000005
  241  O  6 ZZ   -0.000005  -0.000019  -0.000000   0.000007   0.000004
  242  O  6 XY    0.000007   0.000029   0.000000  -0.000009  -0.000005
  243  O  6 XZ   -0.000000   0.000000   0.000001   0.000000   0.000000
  244  O  6 YZ   -0.000000   0.000000   0.000002   0.000000   0.000000
  245  O  6 XX   -0.000004  -0.000016  -0.000000   0.000001  -0.000003
  246  O  6 YY    0.000020   0.000077   0.000000   0.000008   0.000009
  247  O  6 ZZ   -0.000016  -0.000062  -0.000000  -0.000010  -0.000006
  248  O  6 XY    0.000024   0.000093   0.000001   0.000011   0.000004
[...]
-rw-r----- 1 bjb2chen bjb2chen        0 Apr  4 13:39 /localscratch/bjb2chen.18348961.0/FeCOcat_SPK_gmcpt_C1_5st_diab_0.05_+x1q30_-x1q29.F86.002
-rw-r----- 1 bjb2chen bjb2chen        0 Apr  4 13:39 /localscratch/bjb2chen.18348961.0/FeCOcat_SPK_gmcpt_C1_5st_diab_0.05_+x1q30_-x1q29.F86.003
-rw-r----- 1 bjb2chen bjb2chen        0 Apr  4 13:39 /localscratch/bjb2chen.18348961.0/FeCOcat_SPK_gmcpt_C1_5st_diab_0.05_+x1q30_-x1q29.F86.004
-rw-r----- 1 bjb2chen bjb2chen        0 Apr  4 13:39 /localscratch/bjb2chen.18348961.0/FeCOcat_SPK_gmcpt_C1_5st_diab_0.05_+x1q30_-x1q29.F86.005
-rw-r----- 1 bjb2chen bjb2chen        0 Apr  4 13:39 /localscratch/bjb2chen.18348961.0/FeCOcat_SPK_gmcpt_C1_5st_diab_0.05_+x1q30_-x1q29.F86.006
-rw-r----- 1 bjb2chen bjb2chen        0 Apr  4 13:39 /localscratch/bjb2chen.18348961.0/FeCOcat_SPK_gmcpt_C1_5st_diab_0.05_+x1q30_-x1q29.F86.007
-rw-r----- 1 bjb2chen bjb2chen        0 Apr  4 13:39 /localscratch/bjb2chen.18348961.0/FeCOcat_SPK_gmcpt_C1_5st_diab_0.05_+x1q30_-x1q29.F86.008
-rw-r----- 1 bjb2chen bjb2chen        0 Apr  4 13:39 /localscratch/bjb2chen.18348961.0/FeCOcat_SPK_gmcpt_C1_5st_diab_0.05_+x1q30_-x1q29.F86.009
-rw-r----- 1 bjb2chen bjb2chen        0 Apr  4 13:39 /localscratch/bjb2chen.18348961.0/FeCOcat_SPK_gmcpt_C1_5st_diab_0.05_+x1q30_-x1q29.F87
-rw-r----- 1 bjb2chen bjb2chen        0 Apr  4 13:39 /localscratch/bjb2chen.18348961.0/FeCOcat_SPK_gmcpt_C1_5st_diab_0.05_+x1q30_-x1q29.F87.001
-rw-r----- 1 bjb2chen bjb2chen        0 Apr  4 13:39 /localscratch/bjb2chen.18348961.0/FeCOcat_SPK_gmcpt_C1_5st_diab_0.05_+x1q30_-x1q29.F87.002
-rw-r----- 1 bjb2chen bjb2chen        0 Apr  4 13:39 /localscratch/bjb2chen.18348961.0/FeCOcat_SPK_gmcpt_C1_5st_diab_0.05_+x1q30_-x1q29.F87.003
-rw-r----- 1 bjb2chen bjb2chen        0 Apr  4 13:39 /localscratch/bjb2chen.18348961.0/FeCOcat_SPK_gmcpt_C1_5st_diab_0.05_+x1q30_-x1q29.F87.004
-rw-r----- 1 bjb2chen bjb2chen        0 Apr  4 13:39 /localscratch/bjb2chen.18348961.0/FeCOcat_SPK_gmcpt_C1_5st_diab_0.05_+x1q30_-x1q29.F87.005
-rw-r----- 1 bjb2chen bjb2chen        0 Apr  4 13:39 /localscratch/bjb2chen.18348961.0/FeCOcat_SPK_gmcpt_C1_5st_diab_0.05_+x1q30_-x1q29.F87.006
-rw-r----- 1 bjb2chen bjb2chen        0 Apr  4 13:39 /localscratch/bjb2chen.18348961.0/FeCOcat_SPK_gmcpt_C1_5st_diab_0.05_+x1q30_-x1q29.F87.007
-rw-r----- 1 bjb2chen bjb2chen        0 Apr  4 13:39 /localscratch/bjb2chen.18348961.0/FeCOcat_SPK_gmcpt_C1_5st_diab_0.05_+x1q30_-x1q29.F87.008
-rw-r----- 1 bjb2chen bjb2chen        0 Apr  4 13:39 /localscratch/bjb2chen.18348961.0/FeCOcat_SPK_gmcpt_C1_5st_diab_0.05_+x1q30_-x1q29.F87.009
-rw-r----- 1 bjb2chen bjb2chen        0 Apr  4 13:39 /localscratch/bjb2chen.18348961.0/FeCOcat_SPK_gmcpt_C1_5st_diab_0.05_+x1q30_-x1q29.F88
-rw-r----- 1 bjb2chen bjb2chen        0 Apr  4 13:39 /localscratch/bjb2chen.18348961.0/FeCOcat_SPK_gmcpt_C1_5st_diab_0.05_+x1q30_-x1q29.F88.001
-rw-r----- 1 bjb2chen bjb2chen        0 Apr  4 13:39 /localscratch/bjb2chen.18348961.0/FeCOcat_SPK_gmcpt_C1_5st_diab_0.05_+x1q30_-x1q29.F88.002
-rw-r----- 1 bjb2chen bjb2chen        0 Apr  4 13:39 /localscratch/bjb2chen.18348961.0/FeCOcat_SPK_gmcpt_C1_5st_diab_0.05_+x1q30_-x1q29.F88.003
-rw-r----- 1 bjb2chen bjb2chen        0 Apr  4 13:39 /localscratch/bjb2chen.18348961.0/FeCOcat_SPK_gmcpt_C1_5st_diab_0.05_+x1q30_-x1q29.F88.004
-rw-r----- 1 bjb2chen bjb2chen        0 Apr  4 13:39 /localscratch/bjb2chen.18348961.0/FeCOcat_SPK_gmcpt_C1_5st_diab_0.05_+x1q30_-x1q29.F88.005
-rw-r----- 1 bjb2chen bjb2chen        0 Apr  4 13:39 /localscratch/bjb2chen.18348961.0/FeCOcat_SPK_gmcpt_C1_5st_diab_0.05_+x1q30_-x1q29.F88.006
-rw-r----- 1 bjb2chen bjb2chen        0 Apr  4 13:39 /localscratch/bjb2chen.18348961.0/FeCOcat_SPK_gmcpt_C1_5st_diab_0.05_+x1q30_-x1q29.F88.007
-rw-r----- 1 bjb2chen bjb2chen        0 Apr  4 13:39 /localscratch/bjb2chen.18348961.0/FeCOcat_SPK_gmcpt_C1_5st_diab_0.05_+x1q30_-x1q29.F88.008
-rw-r----- 1 bjb2chen bjb2chen        0 Apr  4 13:39 /localscratch/bjb2chen.18348961.0/FeCOcat_SPK_gmcpt_C1_5st_diab_0.05_+x1q30_-x1q29.F88.009
-rw-r----- 1 bjb2chen bjb2chen        0 Apr  4 13:39 /localscratch/bjb2chen.18348961.0/FeCOcat_SPK_gmcpt_C1_5st_diab_0.05_+x1q30_-x1q29.F89
-rw-r----- 1 bjb2chen bjb2chen        0 Apr  4 13:39 /localscratch/bjb2chen.18348961.0/FeCOcat_SPK_gmcpt_C1_5st_diab_0.05_+x1q30_-x1q29.F89.001
-rw-r----- 1 bjb2chen bjb2chen        0 Apr  4 13:39 /localscratch/bjb2chen.18348961.0/FeCOcat_SPK_gmcpt_C1_5st_diab_0.05_+x1q30_-x1q29.F89.002
-rw-r----- 1 bjb2chen bjb2chen        0 Apr  4 13:39 /localscratch/bjb2chen.18348961.0/FeCOcat_SPK_gmcpt_C1_5st_diab_0.05_+x1q30_-x1q29.F89.003
-rw-r----- 1 bjb2chen bjb2chen        0 Apr  4 13:39 /localscratch/bjb2chen.18348961.0/FeCOcat_SPK_gmcpt_C1_5st_diab_0.05_+x1q30_-x1q29.F89.004
-rw-r----- 1 bjb2chen bjb2chen        0 Apr  4 13:39 /localscratch/bjb2chen.18348961.0/FeCOcat_SPK_gmcpt_C1_5st_diab_0.05_+x1q30_-x1q29.F89.005
-rw-r----- 1 bjb2chen bjb2chen        0 Apr  4 13:39 /localscratch/bjb2chen.18348961.0/FeCOcat_SPK_gmcpt_C1_5st_diab_0.05_+x1q30_-x1q29.F89.006
-rw-r----- 1 bjb2chen bjb2chen        0 Apr  4 13:39 /localscratch/bjb2chen.18348961.0/FeCOcat_SPK_gmcpt_C1_5st_diab_0.05_+x1q30_-x1q29.F89.007
-rw-r----- 1 bjb2chen bjb2chen        0 Apr  4 13:39 /localscratch/bjb2chen.18348961.0/FeCOcat_SPK_gmcpt_C1_5st_diab_0.05_+x1q30_-x1q29.F89.008
-rw-r----- 1 bjb2chen bjb2chen        0 Apr  4 13:39 /localscratch/bjb2chen.18348961.0/FeCOcat_SPK_gmcpt_C1_5st_diab_0.05_+x1q30_-x1q29.F89.009
-rw-r----- 1 bjb2chen bjb2chen        0 Apr  4 13:39 /localscratch/bjb2chen.18348961.0/FeCOcat_SPK_gmcpt_C1_5st_diab_0.05_+x1q30_-x1q29.F90
-rw-r----- 1 bjb2chen bjb2chen        0 Apr  4 13:39 /localscratch/bjb2chen.18348961.0/FeCOcat_SPK_gmcpt_C1_5st_diab_0.05_+x1q30_-x1q29.F90.001
-rw-r----- 1 bjb2chen bjb2chen        0 Apr  4 13:39 /localscratch/bjb2chen.18348961.0/FeCOcat_SPK_gmcpt_C1_5st_diab_0.05_+x1q30_-x1q29.F90.002
-rw-r----- 1 bjb2chen bjb2chen        0 Apr  4 13:39 /localscratch/bjb2chen.18348961.0/FeCOcat_SPK_gmcpt_C1_5st_diab_0.05_+x1q30_-x1q29.F90.003
-rw-r----- 1 bjb2chen bjb2chen        0 Apr  4 13:39 /localscratch/bjb2chen.18348961.0/FeCOcat_SPK_gmcpt_C1_5st_diab_0.05_+x1q30_-x1q29.F90.004
-rw-r----- 1 bjb2chen bjb2chen        0 Apr  4 13:39 /localscratch/bjb2chen.18348961.0/FeCOcat_SPK_gmcpt_C1_5st_diab_0.05_+x1q30_-x1q29.F90.005
-rw-r----- 1 bjb2chen bjb2chen        0 Apr  4 13:39 /localscratch/bjb2chen.18348961.0/FeCOcat_SPK_gmcpt_C1_5st_diab_0.05_+x1q30_-x1q29.F90.006
-rw-r----- 1 bjb2chen bjb2chen        0 Apr  4 13:39 /localscratch/bjb2chen.18348961.0/FeCOcat_SPK_gmcpt_C1_5st_diab_0.05_+x1q30_-x1q29.F90.007
-rw-r----- 1 bjb2chen bjb2chen        0 Apr  4 13:39 /localscratch/bjb2chen.18348961.0/FeCOcat_SPK_gmcpt_C1_5st_diab_0.05_+x1q30_-x1q29.F90.008
-rw-r----- 1 bjb2chen bjb2chen        0 Apr  4 13:39 /localscratch/bjb2chen.18348961.0/FeCOcat_SPK_gmcpt_C1_5st_diab_0.05_+x1q30_-x1q29.F90.009
-rw-r----- 1 bjb2chen bjb2chen        0 Apr  4 13:39 /localscratch/bjb2chen.18348961.0/FeCOcat_SPK_gmcpt_C1_5st_diab_0.05_+x1q30_-x1q29.F91
-rw-r----- 1 bjb2chen bjb2chen        0 Apr  4 13:39 /localscratch/bjb2chen.18348961.0/FeCOcat_SPK_gmcpt_C1_5st_diab_0.05_+x1q30_-x1q29.F91.001
-rw-r----- 1 bjb2chen bjb2chen        0 Apr  4 13:39 /localscratch/bjb2chen.18348961.0/FeCOcat_SPK_gmcpt_C1_5st_diab_0.05_+x1q30_-x1q29.F91.002
-rw-r----- 1 bjb2chen bjb2chen        0 Apr  4 13:39 /localscratch/bjb2chen.18348961.0/FeCOcat_SPK_gmcpt_C1_5st_diab_0.05_+x1q30_-x1q29.F91.003
-rw-r----- 1 bjb2chen bjb2chen        0 Apr  4 13:39 /localscratch/bjb2chen.18348961.0/FeCOcat_SPK_gmcpt_C1_5st_diab_0.05_+x1q30_-x1q29.F91.004
-rw-r----- 1 bjb2chen bjb2chen        0 Apr  4 13:39 /localscratch/bjb2chen.18348961.0/FeCOcat_SPK_gmcpt_C1_5st_diab_0.05_+x1q30_-x1q29.F91.005
-rw-r----- 1 bjb2chen bjb2chen        0 Apr  4 13:39 /localscratch/bjb2chen.18348961.0/FeCOcat_SPK_gmcpt_C1_5st_diab_0.05_+x1q30_-x1q29.F91.006
-rw-r----- 1 bjb2chen bjb2chen        0 Apr  4 13:39 /localscratch/bjb2chen.18348961.0/FeCOcat_SPK_gmcpt_C1_5st_diab_0.05_+x1q30_-x1q29.F91.007
-rw-r----- 1 bjb2chen bjb2chen        0 Apr  4 13:39 /localscratch/bjb2chen.18348961.0/FeCOcat_SPK_gmcpt_C1_5st_diab_0.05_+x1q30_-x1q29.F91.008
-rw-r----- 1 bjb2chen bjb2chen        0 Apr  4 13:39 /localscratch/bjb2chen.18348961.0/FeCOcat_SPK_gmcpt_C1_5st_diab_0.05_+x1q30_-x1q29.F91.009
-rw-r----- 1 bjb2chen bjb2chen        0 Apr  4 13:39 /localscratch/bjb2chen.18348961.0/FeCOcat_SPK_gmcpt_C1_5st_diab_0.05_+x1q30_-x1q29.F92
-rw-r----- 1 bjb2chen bjb2chen        0 Apr  4 13:39 /localscratch/bjb2chen.18348961.0/FeCOcat_SPK_gmcpt_C1_5st_diab_0.05_+x1q30_-x1q29.F92.001
-rw-r----- 1 bjb2chen bjb2chen        0 Apr  4 13:39 /localscratch/bjb2chen.18348961.0/FeCOcat_SPK_gmcpt_C1_5st_diab_0.05_+x1q30_-x1q29.F92.002
-rw-r----- 1 bjb2chen bjb2chen        0 Apr  4 13:39 /localscratch/bjb2chen.18348961.0/FeCOcat_SPK_gmcpt_C1_5st_diab_0.05_+x1q30_-x1q29.F92.003
-rw-r----- 1 bjb2chen bjb2chen        0 Apr  4 13:39 /localscratch/bjb2chen.18348961.0/FeCOcat_SPK_gmcpt_C1_5st_diab_0.05_+x1q30_-x1q29.F92.004
-rw-r----- 1 bjb2chen bjb2chen        0 Apr  4 13:39 /localscratch/bjb2chen.18348961.0/FeCOcat_SPK_gmcpt_C1_5st_diab_0.05_+x1q30_-x1q29.F92.005
-rw-r----- 1 bjb2chen bjb2chen        0 Apr  4 13:39 /localscratch/bjb2chen.18348961.0/FeCOcat_SPK_gmcpt_C1_5st_diab_0.05_+x1q30_-x1q29.F92.006
-rw-r----- 1 bjb2chen bjb2chen        0 Apr  4 13:39 /localscratch/bjb2chen.18348961.0/FeCOcat_SPK_gmcpt_C1_5st_diab_0.05_+x1q30_-x1q29.F92.007
-rw-r----- 1 bjb2chen bjb2chen        0 Apr  4 13:39 /localscratch/bjb2chen.18348961.0/FeCOcat_SPK_gmcpt_C1_5st_diab_0.05_+x1q30_-x1q29.F92.008
-rw-r----- 1 bjb2chen bjb2chen        0 Apr  4 13:39 /localscratch/bjb2chen.18348961.0/FeCOcat_SPK_gmcpt_C1_5st_diab_0.05_+x1q30_-x1q29.F92.009
-rw-r----- 1 bjb2chen bjb2chen        0 Apr  4 13:39 /localscratch/bjb2chen.18348961.0/FeCOcat_SPK_gmcpt_C1_5st_diab_0.05_+x1q30_-x1q29.F93
-rw-r----- 1 bjb2chen bjb2chen        0 Apr  4 13:39 /localscratch/bjb2chen.18348961.0/FeCOcat_SPK_gmcpt_C1_5st_diab_0.05_+x1q30_-x1q29.F93.001
-rw-r----- 1 bjb2chen bjb2chen        0 Apr  4 13:39 /localscratch/bjb2chen.18348961.0/FeCOcat_SPK_gmcpt_C1_5st_diab_0.05_+x1q30_-x1q29.F93.002
-rw-r----- 1 bjb2chen bjb2chen        0 Apr  4 13:39 /localscratch/bjb2chen.18348961.0/FeCOcat_SPK_gmcpt_C1_5st_diab_0.05_+x1q30_-x1q29.F93.003
-rw-r----- 1 bjb2chen bjb2chen        0 Apr  4 13:39 /localscratch/bjb2chen.18348961.0/FeCOcat_SPK_gmcpt_C1_5st_diab_0.05_+x1q30_-x1q29.F93.004
-rw-r----- 1 bjb2chen bjb2chen        0 Apr  4 13:39 /localscratch/bjb2chen.18348961.0/FeCOcat_SPK_gmcpt_C1_5st_diab_0.05_+x1q30_-x1q29.F93.005
-rw-r----- 1 bjb2chen bjb2chen        0 Apr  4 13:39 /localscratch/bjb2chen.18348961.0/FeCOcat_SPK_gmcpt_C1_5st_diab_0.05_+x1q30_-x1q29.F93.006
-rw-r----- 1 bjb2chen bjb2chen        0 Apr  4 13:39 /localscratch/bjb2chen.18348961.0/FeCOcat_SPK_gmcpt_C1_5st_diab_0.05_+x1q30_-x1q29.F93.007
-rw-r----- 1 bjb2chen bjb2chen        0 Apr  4 13:39 /localscratch/bjb2chen.18348961.0/FeCOcat_SPK_gmcpt_C1_5st_diab_0.05_+x1q30_-x1q29.F93.008
-rw-r----- 1 bjb2chen bjb2chen        0 Apr  4 13:39 /localscratch/bjb2chen.18348961.0/FeCOcat_SPK_gmcpt_C1_5st_diab_0.05_+x1q30_-x1q29.F93.009
-rw-r----- 1 bjb2chen bjb2chen        0 Apr  4 13:39 /localscratch/bjb2chen.18348961.0/FeCOcat_SPK_gmcpt_C1_5st_diab_0.05_+x1q30_-x1q29.F94
-rw-r----- 1 bjb2chen bjb2chen        0 Apr  4 13:39 /localscratch/bjb2chen.18348961.0/FeCOcat_SPK_gmcpt_C1_5st_diab_0.05_+x1q30_-x1q29.F94.001
-rw-r----- 1 bjb2chen bjb2chen        0 Apr  4 13:39 /localscratch/bjb2chen.18348961.0/FeCOcat_SPK_gmcpt_C1_5st_diab_0.05_+x1q30_-x1q29.F94.002
-rw-r----- 1 bjb2chen bjb2chen        0 Apr  4 13:39 /localscratch/bjb2chen.18348961.0/FeCOcat_SPK_gmcpt_C1_5st_diab_0.05_+x1q30_-x1q29.F94.003
-rw-r----- 1 bjb2chen bjb2chen        0 Apr  4 13:39 /localscratch/bjb2chen.18348961.0/FeCOcat_SPK_gmcpt_C1_5st_diab_0.05_+x1q30_-x1q29.F94.004
-rw-r----- 1 bjb2chen bjb2chen        0 Apr  4 13:39 /localscratch/bjb2chen.18348961.0/FeCOcat_SPK_gmcpt_C1_5st_diab_0.05_+x1q30_-x1q29.F94.005
-rw-r----- 1 bjb2chen bjb2chen        0 Apr  4 13:39 /localscratch/bjb2chen.18348961.0/FeCOcat_SPK_gmcpt_C1_5st_diab_0.05_+x1q30_-x1q29.F94.006
-rw-r----- 1 bjb2chen bjb2chen        0 Apr  4 13:39 /localscratch/bjb2chen.18348961.0/FeCOcat_SPK_gmcpt_C1_5st_diab_0.05_+x1q30_-x1q29.F94.007
-rw-r----- 1 bjb2chen bjb2chen        0 Apr  4 13:39 /localscratch/bjb2chen.18348961.0/FeCOcat_SPK_gmcpt_C1_5st_diab_0.05_+x1q30_-x1q29.F94.008
-rw-r----- 1 bjb2chen bjb2chen        0 Apr  4 13:39 /localscratch/bjb2chen.18348961.0/FeCOcat_SPK_gmcpt_C1_5st_diab_0.05_+x1q30_-x1q29.F94.009
-rw-r----- 1 bjb2chen bjb2chen        0 Apr  4 13:39 /localscratch/bjb2chen.18348961.0/FeCOcat_SPK_gmcpt_C1_5st_diab_0.05_+x1q30_-x1q29.F95
-rw-r----- 1 bjb2chen bjb2chen        0 Apr  4 13:39 /localscratch/bjb2chen.18348961.0/FeCOcat_SPK_gmcpt_C1_5st_diab_0.05_+x1q30_-x1q29.F95.001
-rw-r----- 1 bjb2chen bjb2chen        0 Apr  4 13:39 /localscratch/bjb2chen.18348961.0/FeCOcat_SPK_gmcpt_C1_5st_diab_0.05_+x1q30_-x1q29.F95.002
-rw-r----- 1 bjb2chen bjb2chen        0 Apr  4 13:39 /localscratch/bjb2chen.18348961.0/FeCOcat_SPK_gmcpt_C1_5st_diab_0.05_+x1q30_-x1q29.F95.003
-rw-r----- 1 bjb2chen bjb2chen        0 Apr  4 13:39 /localscratch/bjb2chen.18348961.0/FeCOcat_SPK_gmcpt_C1_5st_diab_0.05_+x1q30_-x1q29.F95.004
-rw-r----- 1 bjb2chen bjb2chen        0 Apr  4 13:39 /localscratch/bjb2chen.18348961.0/FeCOcat_SPK_gmcpt_C1_5st_diab_0.05_+x1q30_-x1q29.F95.005
-rw-r----- 1 bjb2chen bjb2chen        0 Apr  4 13:39 /localscratch/bjb2chen.18348961.0/FeCOcat_SPK_gmcpt_C1_5st_diab_0.05_+x1q30_-x1q29.F95.006
-rw-r----- 1 bjb2chen bjb2chen        0 Apr  4 13:39 /localscratch/bjb2chen.18348961.0/FeCOcat_SPK_gmcpt_C1_5st_diab_0.05_+x1q30_-x1q29.F95.007
-rw-r----- 1 bjb2chen bjb2chen        0 Apr  4 13:39 /localscratch/bjb2chen.18348961.0/FeCOcat_SPK_gmcpt_C1_5st_diab_0.05_+x1q30_-x1q29.F95.008
-rw-r----- 1 bjb2chen bjb2chen        0 Apr  4 13:39 /localscratch/bjb2chen.18348961.0/FeCOcat_SPK_gmcpt_C1_5st_diab_0.05_+x1q30_-x1q29.F95.009
-rw-r----- 1 bjb2chen bjb2chen        0 Apr  4 13:39 /localscratch/bjb2chen.18348961.0/FeCOcat_SPK_gmcpt_C1_5st_diab_0.05_+x1q30_-x1q29.F96
-rw-r----- 1 bjb2chen bjb2chen        0 Apr  4 13:39 /localscratch/bjb2chen.18348961.0/FeCOcat_SPK_gmcpt_C1_5st_diab_0.05_+x1q30_-x1q29.F96.001
-rw-r----- 1 bjb2chen bjb2chen        0 Apr  4 13:39 /localscratch/bjb2chen.18348961.0/FeCOcat_SPK_gmcpt_C1_5st_diab_0.05_+x1q30_-x1q29.F96.002
-rw-r----- 1 bjb2chen bjb2chen        0 Apr  4 13:39 /localscratch/bjb2chen.18348961.0/FeCOcat_SPK_gmcpt_C1_5st_diab_0.05_+x1q30_-x1q29.F96.003
-rw-r----- 1 bjb2chen bjb2chen        0 Apr  4 13:39 /localscratch/bjb2chen.18348961.0/FeCOcat_SPK_gmcpt_C1_5st_diab_0.05_+x1q30_-x1q29.F96.004
-rw-r----- 1 bjb2chen bjb2chen        0 Apr  4 13:39 /localscratch/bjb2chen.18348961.0/FeCOcat_SPK_gmcpt_C1_5st_diab_0.05_+x1q30_-x1q29.F96.005
-rw-r----- 1 bjb2chen bjb2chen        0 Apr  4 13:39 /localscratch/bjb2chen.18348961.0/FeCOcat_SPK_gmcpt_C1_5st_diab_0.05_+x1q30_-x1q29.F96.006
-rw-r----- 1 bjb2chen bjb2chen        0 Apr  4 13:39 /localscratch/bjb2chen.18348961.0/FeCOcat_SPK_gmcpt_C1_5st_diab_0.05_+x1q30_-x1q29.F96.007
-rw-r----- 1 bjb2chen bjb2chen        0 Apr  4 13:39 /localscratch/bjb2chen.18348961.0/FeCOcat_SPK_gmcpt_C1_5st_diab_0.05_+x1q30_-x1q29.F96.008
-rw-r----- 1 bjb2chen bjb2chen        0 Apr  4 13:39 /localscratch/bjb2chen.18348961.0/FeCOcat_SPK_gmcpt_C1_5st_diab_0.05_+x1q30_-x1q29.F96.009
-rw-r----- 1 bjb2chen bjb2chen        0 Apr  4 13:39 /localscratch/bjb2chen.18348961.0/FeCOcat_SPK_gmcpt_C1_5st_diab_0.05_+x1q30_-x1q29.F97
-rw-r----- 1 bjb2chen bjb2chen        0 Apr  4 13:39 /localscratch/bjb2chen.18348961.0/FeCOcat_SPK_gmcpt_C1_5st_diab_0.05_+x1q30_-x1q29.F97.001
-rw-r----- 1 bjb2chen bjb2chen        0 Apr  4 13:39 /localscratch/bjb2chen.18348961.0/FeCOcat_SPK_gmcpt_C1_5st_diab_0.05_+x1q30_-x1q29.F97.002
-rw-r----- 1 bjb2chen bjb2chen        0 Apr  4 13:39 /localscratch/bjb2chen.18348961.0/FeCOcat_SPK_gmcpt_C1_5st_diab_0.05_+x1q30_-x1q29.F97.003
-rw-r----- 1 bjb2chen bjb2chen        0 Apr  4 13:39 /localscratch/bjb2chen.18348961.0/FeCOcat_SPK_gmcpt_C1_5st_diab_0.05_+x1q30_-x1q29.F97.004
-rw-r----- 1 bjb2chen bjb2chen        0 Apr  4 13:39 /localscratch/bjb2chen.18348961.0/FeCOcat_SPK_gmcpt_C1_5st_diab_0.05_+x1q30_-x1q29.F97.005
-rw-r----- 1 bjb2chen bjb2chen        0 Apr  4 13:39 /localscratch/bjb2chen.18348961.0/FeCOcat_SPK_gmcpt_C1_5st_diab_0.05_+x1q30_-x1q29.F97.006
-rw-r----- 1 bjb2chen bjb2chen        0 Apr  4 13:39 /localscratch/bjb2chen.18348961.0/FeCOcat_SPK_gmcpt_C1_5st_diab_0.05_+x1q30_-x1q29.F97.007
-rw-r----- 1 bjb2chen bjb2chen        0 Apr  4 13:39 /localscratch/bjb2chen.18348961.0/FeCOcat_SPK_gmcpt_C1_5st_diab_0.05_+x1q30_-x1q29.F97.008
-rw-r----- 1 bjb2chen bjb2chen        0 Apr  4 13:39 /localscratch/bjb2chen.18348961.0/FeCOcat_SPK_gmcpt_C1_5st_diab_0.05_+x1q30_-x1q29.F97.009
-rw-r----- 1 bjb2chen bjb2chen    31368 Apr  4 13:39 /localscratch/bjb2chen.18348961.0/FeCOcat_SPK_gmcpt_C1_5st_diab_0.05_+x1q30_-x1q29.F98
-rw-r----- 1 bjb2chen bjb2chen    31368 Apr  4 13:39 /localscratch/bjb2chen.18348961.0/FeCOcat_SPK_gmcpt_C1_5st_diab_0.05_+x1q30_-x1q29.F98.001
-rw-r----- 1 bjb2chen bjb2chen    31368 Apr  4 13:39 /localscratch/bjb2chen.18348961.0/FeCOcat_SPK_gmcpt_C1_5st_diab_0.05_+x1q30_-x1q29.F98.002
-rw-r----- 1 bjb2chen bjb2chen    31368 Apr  4 13:39 /localscratch/bjb2chen.18348961.0/FeCOcat_SPK_gmcpt_C1_5st_diab_0.05_+x1q30_-x1q29.F98.003
-rw-r----- 1 bjb2chen bjb2chen    31368 Apr  4 13:39 /localscratch/bjb2chen.18348961.0/FeCOcat_SPK_gmcpt_C1_5st_diab_0.05_+x1q30_-x1q29.F98.004
-rw-r----- 1 bjb2chen bjb2chen    31368 Apr  4 13:39 /localscratch/bjb2chen.18348961.0/FeCOcat_SPK_gmcpt_C1_5st_diab_0.05_+x1q30_-x1q29.F98.005
-rw-r----- 1 bjb2chen bjb2chen    31368 Apr  4 13:39 /localscratch/bjb2chen.18348961.0/FeCOcat_SPK_gmcpt_C1_5st_diab_0.05_+x1q30_-x1q29.F98.006
-rw-r----- 1 bjb2chen bjb2chen    31368 Apr  4 13:39 /localscratch/bjb2chen.18348961.0/FeCOcat_SPK_gmcpt_C1_5st_diab_0.05_+x1q30_-x1q29.F98.007
-rw-r----- 1 bjb2chen bjb2chen    31368 Apr  4 13:39 /localscratch/bjb2chen.18348961.0/FeCOcat_SPK_gmcpt_C1_5st_diab_0.05_+x1q30_-x1q29.F98.008
-rw-r----- 1 bjb2chen bjb2chen    31368 Apr  4 13:39 /localscratch/bjb2chen.18348961.0/FeCOcat_SPK_gmcpt_C1_5st_diab_0.05_+x1q30_-x1q29.F98.009
-rw-r----- 1 bjb2chen bjb2chen   109784 Apr  4 13:39 /localscratch/bjb2chen.18348961.0/FeCOcat_SPK_gmcpt_C1_5st_diab_0.05_+x1q30_-x1q29.F99
-rw-r----- 1 bjb2chen bjb2chen   109784 Apr  4 13:39 /localscratch/bjb2chen.18348961.0/FeCOcat_SPK_gmcpt_C1_5st_diab_0.05_+x1q30_-x1q29.F99.001
-rw-r----- 1 bjb2chen bjb2chen   109784 Apr  4 13:39 /localscratch/bjb2chen.18348961.0/FeCOcat_SPK_gmcpt_C1_5st_diab_0.05_+x1q30_-x1q29.F99.002
-rw-r----- 1 bjb2chen bjb2chen   109784 Apr  4 13:39 /localscratch/bjb2chen.18348961.0/FeCOcat_SPK_gmcpt_C1_5st_diab_0.05_+x1q30_-x1q29.F99.003
-rw-r----- 1 bjb2chen bjb2chen   109784 Apr  4 13:39 /localscratch/bjb2chen.18348961.0/FeCOcat_SPK_gmcpt_C1_5st_diab_0.05_+x1q30_-x1q29.F99.004
-rw-r----- 1 bjb2chen bjb2chen   109784 Apr  4 13:39 /localscratch/bjb2chen.18348961.0/FeCOcat_SPK_gmcpt_C1_5st_diab_0.05_+x1q30_-x1q29.F99.005
-rw-r----- 1 bjb2chen bjb2chen   109784 Apr  4 13:39 /localscratch/bjb2chen.18348961.0/FeCOcat_SPK_gmcpt_C1_5st_diab_0.05_+x1q30_-x1q29.F99.006
-rw-r----- 1 bjb2chen bjb2chen   109784 Apr  4 13:39 /localscratch/bjb2chen.18348961.0/FeCOcat_SPK_gmcpt_C1_5st_diab_0.05_+x1q30_-x1q29.F99.007
-rw-r----- 1 bjb2chen bjb2chen   109784 Apr  4 13:39 /localscratch/bjb2chen.18348961.0/FeCOcat_SPK_gmcpt_C1_5st_diab_0.05_+x1q30_-x1q29.F99.008
-rw-r----- 1 bjb2chen bjb2chen   109784 Apr  4 13:39 /localscratch/bjb2chen.18348961.0/FeCOcat_SPK_gmcpt_C1_5st_diab_0.05_+x1q30_-x1q29.F99.009
ls: No match.
ls: No match.
ls: No match.
Fri 05 Apr 2024 05:38:32 AM EDT
0.877u 0.261s 15:59:24.56 0.0%	0+0k 17064+5304io 41pf+0w
