----- GAMESS execution script 'rungms' -----
This job is running on host io002
under operating system Linux at Wed 16 Nov 2022 07:03:41 PM EST
Available scratch disk space (Kbyte units) at beginning of the job is
Filesystem       1K-blocks       Used   Available Use% Mounted on
/dev/sdc1      15378471580 3278917120 11318349060  23% /scratch
GAMESS temporary binary files will be written to /scratch/bsonghao
GAMESS supplementary output files will be written to /home/bsonghao/.gamess_ascii_files/267638
Copying input file nh3_diabatization_2d_at_mode_7_8_dist-0.3_0.7.inp to your run's scratch directory...
cp nh3_diabatization_2d_at_mode_7_8_dist-0.3_0.7.inp /scratch/bsonghao/nh3_diabatization_2d_at_mode_7_8_dist-0.3_0.7.F05
unset echo
/home/bjb2chen/gamess/ddikick.x /home/bjb2chen/gamess/gamess.00.x nh3_diabatization_2d_at_mode_7_8_dist-0.3_0.7 -ddi 1 1 io002 -scr /scratch/bsonghao

 Distributed Data Interface kickoff program.
 Initiating 1 compute processes on 1 nodes to run the following command:
 /home/bjb2chen/gamess/gamess.00.x nh3_diabatization_2d_at_mode_7_8_dist-0.3_0.7 

          ******************************************************
          *         GAMESS VERSION = 02 AUG 2018 (R2)         *
          *             FROM IOWA STATE UNIVERSITY             *
          * M.W.SCHMIDT, K.K.BALDRIDGE, J.A.BOATZ, S.T.ELBERT, *
          *   M.S.GORDON, J.H.JENSEN, S.KOSEKI, N.MATSUNAGA,   *
          *          K.A.NGUYEN, S.J.SU, T.L.WINDUS,           *
          *       TOGETHER WITH M.DUPUIS, J.A.MONTGOMERY       *
          *         J.COMPUT.CHEM.  14, 1347-1363(1993)        *
          **************** 64 BIT LINUX VERSION ****************

  SINCE 1993, STUDENTS AND POSTDOCS WORKING AT IOWA STATE UNIVERSITY
  AND ALSO IN THEIR VARIOUS JOBS AFTER LEAVING ISU HAVE MADE IMPORTANT
  CONTRIBUTIONS TO THE CODE:
     IVANA ADAMOVIC, CHRISTINE AIKENS, YURI ALEXEEV, POOJA ARORA,
     ANDREY ASADCHEV, ROB BELL, PRADIPTA BANDYOPADHYAY, JONATHAN BENTZ,
     BRETT BODE, KURT BRORSEN, CALEB CARLIN, GALINA CHABAN, WEI CHEN,
     CHEOL HO CHOI, PAUL DAY, ALBERT DEFUSCO, NUWAN DESILVA, TIM DUDLEY,
     DMITRI FEDOROV, ALEX FINDLATER, GRAHAM FLETCHER, MARK FREITAG,
     KURT GLAESEMANN, ANASTASIA GUININA,
     DAN KEMP, GRANT MERRILL, NORIYUKI MINEZAWA, JONATHAN MULLIN,
     TAKESHI NAGATA, SEAN NEDD, HEATHER NETZLOFF, BOSILJKA NJEGIC, RYAN OLSON,
     MIKE PAK, BUU PHAM,
     SPENCER PRUITT, LUKE ROSKOP, JIM SHOEMAKER, LYUDMILA SLIPCHENKO,
     TONY SMITH, SAROM SOK LEANG, JIE SONG, TETSUYA TAKETSUGU, SIMON WEBB,
     PENG XU, SOOHAENG YOO, FEDERICO ZAHARIEV

  ADDITIONAL CODE HAS BEEN PROVIDED BY COLLABORATORS IN OTHER GROUPS:
     IOWA STATE UNIVERSITY:
          JOE IVANIC, AARON WEST, LAIMUTIS BYTAUTAS, KLAUS RUEDENBERG
     UNIVERSITY OF TOKYO: KIMIHIKO HIRAO, TAKAHITO NAKAJIMA,
          TAKAO TSUNEDA, MUNEAKI KAMIYA, SUSUMU YANAGISAWA,
          KIYOSHI YAGI, MAHITO CHIBA, SEIKEN TOKURA, NAOAKI KAWAKAMI
     UNIVERSITY OF AARHUS: FRANK JENSEN
     UNIVERSITY OF IOWA: VISVALDAS KAIRYS, HUI LI
     NATIONAL INST. OF STANDARDS AND TECHNOLOGY: WALT STEVENS, DAVID GARMER
     UNIVERSITY OF PISA: BENEDETTA MENNUCCI, JACOPO TOMASI
     UNIVERSITY OF MEMPHIS: HENRY KURTZ, PRAKASHAN KORAMBATH
     UNIVERSITY OF ALBERTA: TOBY ZENG, MARIUSZ KLOBUKOWSKI
     UNIVERSITY OF NEW ENGLAND: MARK SPACKMAN
     MIE UNIVERSITY: HIROAKI UMEDA
     NAT. INST. OF ADVANCED INDUSTRIAL SCIENCE AND TECHNOLOGY: KAZUO KITAURA
     MICHIGAN STATE UNIVERSITY:
          KAROL KOWALSKI, MARTA WLOCH, JEFFREY GOUR, JESSE LUTZ,
          WEI LI, JUN SHEN, J. EMILIANO DEUSTUA, PIOTR PIECUCH
     UNIVERSITY OF MINNESOTA:
          YINAN SHU
     UNIVERSITY OF SILESIA: MONIKA MUSIAL, STANISLAW KUCHARSKI
     FACULTES UNIVERSITAIRES NOTRE-DAME DE LA PAIX:
          OLIVIER QUINET, BENOIT CHAMPAGNE
     UNIVERSITY OF CALIFORNIA - SANTA BARBARA: BERNARD KIRTMAN
     INSTITUTE FOR MOLECULAR SCIENCE:
          KAZUYA ISHIMURA, MICHIO KATOUDA, AND SHIGERU NAGASE
     UNIVERSITY OF NOTRE DAME: ANNA POMOGAEVA, DAN CHIPMAN
     KYUSHU UNIVERSITY:
          HARUYUKI NAKANO,
          FENG LONG GU, JACEK KORCHOWIEC, MARCIN MAKOWSKI, AND YURIKO AOKI,
          HIROTOSHI MORI AND EISAKU MIYOSHI
     PENNSYLVANIA STATE UNIVERSITY:
          TZVETELIN IORDANOV, CHET SWALINA, JONATHAN SKONE,
          SHARON HAMMES-SCHIFFER
     WASEDA UNIVERSITY:
          MASATO KOBAYASHI, TOMOKO AKAMA, TSUGUKI TOUMA,
          TAKESHI YOSHIKAWA, YASUHIRO IKABATA, JUNJI SEINO,
          YUYA NAKAJIMA, HIROMI NAKAI
     NANJING UNIVERSITY: SHUHUA LI
     UNIVERSITY OF NEBRASKA:
          PEIFENG SU, DEJUN SI, NANDUN THELLAMUREGE, YALI WANG, HUI LI
     UNIVERSITY OF ZURICH: ROBERTO PEVERATI, KIM BALDRIDGE
     N. COPERNICUS UNIVERSITY AND JACKSON STATE UNIVERSITY:
          MARIA BARYSZ
     UNIVERSITY OF COPENHAGEN: Jimmy Kromann, CASPER STEINMANN
     TOKYO INSTITUTE OF TECHNOLOGY: HIROYA NAKATA
     NAGOYA UNIVERSITY: YOSHIO NISHIMOTO, STEPHAN IRLE
     MOSCOW STATE UNIVERSITY: VLADIMIR MIRONOV

 EXECUTION OF GAMESS BEGUN Wed Nov 16 19:03:41 2022

            ECHO OF THE FIRST FEW INPUT CARDS -
 INPUT CARD> $system kdiag=3 mwords=100 memddi=1000 parall=.t. $end                         
 INPUT CARD> $contrl runtyp=energy ispher=1 $end                                            
 INPUT CARD> $contrl icut=9 itol=20 inttyp=rysquad qmttol=1.0d-05 nosym=1 $end              
 INPUT CARD> $scf    npunch=2 conv=1.0d-06 dirscf=.t.      $end                             
 INPUT CARD> $contrl scftyp=mcscf  mult=2 maxit=200 icharg=1 mplevl=2 $end                  
 INPUT CARD> $guess  guess=moread norb=29 purify=.t. $end                                   
 INPUT CARD> $basis  gbasis=ccd $end                                                        
 INPUT CARD> $mcscf  cistep=gmcci fullnr=.t. finci=mos                                      
 INPUT CARD>         acurcy=1.d-6 maxit=100 $end                                            
 INPUT CARD> $trans  dirtrf=.t. $end                                                        
 INPUT CARD> $mrmp   mrpt=gmcpt rdvecs=.f. $end                                             
 INPUT CARD> $gmcpt  nmofzc=0 nmodoc=1 nmoact=7 nelact=7 stsym(1)=A                         
 INPUT CARD>         reftyp=ormas nspace=1 mstart(1)=2 mine(1)=7 maxe(1)=7                  
 INPUT CARD>         kstate(1)=1,1,1                                                        
 INPUT CARD>         wstate(1)=1,1,1                                                        
 INPUT CARD>         iwgt=0 thrwgt=-1.0 krot=.f. kszdoe=.f. knospn=.f.                      
 INPUT CARD>         thrde=-1.0 edshft=0.02 $end                                            
 INPUT CARD> $data                                                                          
 INPUT CARD> NH3+ 3 states calculation at NH3 structure.                                    
 INPUT CARD> c1                                                                             
 INPUT CARD>N 7.0 -0.043602426 0.018686709000000003 -0.1693810622                           
 INPUT CARD>H 1.0 -0.22357188600000005 1.0530926288 0.09548895510000002                     
 INPUT CARD>H 1.0 0.005704050999999988 -1.0938235318 0.23265336610000004                    
 INPUT CARD>H 1.0 0.823735246 -0.21892721800000003 0.4412441521                             
 INPUT CARD>$end                                                                            
 INPUT CARD>--- OPTIMIZED RHF      MO-S --- GENERATED AT Mon Nov 14 16:47:08 2022           
 INPUT CARD>E=      -56.3825050291, E(NUC)=   11.8429239490                                 
 INPUT CARD> $VEC                                                                           
 INPUT CARD> 1  1-1.00134066E+00-2.25158504E-03 3.44925845E-03 0.00000000E+00 0.00000000E+00
 INPUT CARD> 1  2-2.13170927E-03 0.00000000E+00 0.00000000E+00 6.57129898E-04-6.87950443E-05
 INPUT CARD> 1  3-6.87950443E-05 1.37590089E-04 0.00000000E+00 0.00000000E+00 0.00000000E+00
 INPUT CARD> 1  4 3.25502815E-04-4.84772356E-04 3.62525460E-04-6.27912517E-04-3.45956485E-04
 INPUT CARD> 1  5 3.25502815E-04-4.84772356E-04 3.62525460E-04 6.27912517E-04-3.45956485E-04
 INPUT CARD> 1  6 3.25502815E-04-4.84772356E-04-7.25050921E-04 0.00000000E+00-3.45956485E-04
 INPUT CARD> 2  1 1.31286642E-02-4.05911371E-01-2.82090992E-01 0.00000000E+00 0.00000000E+00
 INPUT CARD> 2  2-7.71489043E-02 0.00000000E+00 0.00000000E+00 9.73717494E-03 6.62450916E-04
 INPUT CARD> 2  3 6.62450916E-04-1.32490183E-03 0.00000000E+00 0.00000000E+00 0.00000000E+00
 INPUT CARD> 2  4-1.96090317E-01-1.96656153E-02-1.74855877E-02 3.02859263E-02 8.68214399E-03
 INPUT CARD> 2  5-1.96090317E-01-1.96656153E-02-1.74855877E-02-3.02859263E-02 8.68214399E-03
 INPUT CARD> 2  6-1.96090317E-01-1.96656153E-02 3.49711754E-02 0.00000000E+00 8.68214399E-03
 INPUT CARD> 3  1 0.00000000E+00 0.00000000E+00 0.00000000E+00 4.48608762E-01 0.00000000E+00
 INPUT CARD> 3  2 0.00000000E+00 2.18692520E-01 0.00000000E+00 0.00000000E+00 1.30198027E-02
 INPUT CARD> 3  3-1.30198027E-02 0.00000000E+00 0.00000000E+00 2.71832968E-02 0.00000000E+00
 INPUT CARD> 3  4-1.85332726E-01-7.03958951E-02 8.47929477E-03 1.95242443E-02 8.32835058E-03
 INPUT CARD> 3  5-1.85332726E-01-7.03958951E-02 8.47929477E-03-1.95242443E-02 8.32835058E-03
 INPUT CARD> 3  6 3.70665453E-01 1.40791790E-01-2.53376884E-02 0.00000000E+00-1.66567012E-02
 INPUT CARD> 4  1 0.00000000E+00 0.00000000E+00 0.00000000E+00 0.00000000E+00 4.48608762E-01
 INPUT CARD> 4  2 0.00000000E+00 0.00000000E+00 2.18692520E-01 0.00000000E+00 0.00000000E+00
 INPUT CARD> 4  3 0.00000000E+00 0.00000000E+00-1.50339731E-02 0.00000000E+00 2.71832968E-02
 INPUT CARD> 4  4 3.21005698E-01 1.21929267E-01 1.95242443E-02-1.40653607E-02-1.44251263E-02
  100000000 WORDS OF MEMORY AVAILABLE

     BASIS OPTIONS
     -------------
     GBASIS=CCD          IGAUSS=       0      POLAR=NONE    
     NDFUNC=       0     NFFUNC=       0     DIFFSP=       F
     NPFUNC=       0      DIFFS=       F     BASNAM=        


     RUN TITLE
     ---------
  NH3+ 3 states calculation at NH3 structure.                                    

 THE POINT GROUP OF THE MOLECULE IS C1      
 THE ORDER OF THE PRINCIPAL AXIS IS     0

 ATOM      ATOMIC                      COORDINATES (BOHR)
           CHARGE         X                   Y                   Z
 N           7.0    -0.0823966375        0.0353127596       -0.3200837951
 H           1.0    -0.4224896031        1.9900565081        0.1804479600
 H           1.0     0.0107790934       -2.0670267540        0.4396511121
 H           1.0     1.5566339014       -0.4137124533        0.8338305412

          INTERNUCLEAR DISTANCES (ANGS.)
          ------------------------------

                1 N          2 H          3 H          4 H     

   1 N       0.0000000    1.0828392 *  1.1839518 *  1.0870134 *
   2 H       1.0828392 *  0.0000000    2.1634765 *  1.6835776 *
   3 H       1.1839518 *  2.1634765 *  0.0000000    1.2157832 *
   4 H       1.0870134 *  1.6835776 *  1.2157832 *  0.0000000  

  * ... LESS THAN  3.000


     ATOMIC BASIS SET
     ----------------
 THE CONTRACTED PRIMITIVE FUNCTIONS HAVE BEEN UNNORMALIZED
 THE CONTRACTED BASIS FUNCTIONS ARE NOW NORMALIZED TO UNITY

  SHELL TYPE  PRIMITIVE        EXPONENT          CONTRACTION COEFFICIENT(S)

 N         

      1   S       1          9046.0000000    0.000699617413
      1   S       2          1357.0000000    0.005386054630
      1   S       3           309.3000000    0.027391021189
      1   S       4            87.7300000    0.103150591982
      1   S       5            28.5600000    0.278570663317
      1   S       6            10.2100000    0.448294849454
      1   S       7             3.8380000    0.278085928395
      1   S       8             0.7466000    0.015431561233

      2   S       9          9046.0000000   -0.000304990096
      2   S      10          1357.0000000   -0.002408026379
      2   S      11           309.3000000   -0.011944448725
      2   S      12            87.7300000   -0.048925992909
      2   S      13            28.5600000   -0.134472724725
      2   S      14            10.2100000   -0.315112577700
      2   S      15             3.8380000   -0.242857832550
      2   S      16             0.7466000    1.094382206854

      3   S      17             0.2248000    1.000000000000

      4   P      18            13.5500000    0.058905676772
      4   P      19             2.9170000    0.320461106714
      4   P      20             0.7973000    0.753042061792

      5   P      21             0.2185000    1.000000000000

      6   D      22             0.8170000    1.000000000000

 H         

      7   S      23            13.0100000    0.033498726390
      7   S      24             1.9620000    0.234800801174
      7   S      25             0.4446000    0.813682957883

      8   S      26             0.1220000    1.000000000000

      9   P      27             0.7270000    1.000000000000

 H         

     10   S      28            13.0100000    0.033498726390
     10   S      29             1.9620000    0.234800801174
     10   S      30             0.4446000    0.813682957883

     11   S      31             0.1220000    1.000000000000

     12   P      32             0.7270000    1.000000000000

 H         

     13   S      33            13.0100000    0.033498726390
     13   S      34             1.9620000    0.234800801174
     13   S      35             0.4446000    0.813682957883

     14   S      36             0.1220000    1.000000000000

     15   P      37             0.7270000    1.000000000000

 TOTAL NUMBER OF BASIS SET SHELLS             =   15
 NUMBER OF CARTESIAN GAUSSIAN BASIS FUNCTIONS =   30
 NOTE: THIS RUN WILL RESTRICT THE MO VARIATION SPACE TO SPHERICAL HARMONICS.
 THE NUMBER OF ORBITALS KEPT IN THE VARIATIONAL SPACE WILL BE PRINTED LATER.
 NUMBER OF ELECTRONS                          =    9
 CHARGE OF MOLECULE                           =    1
 SPIN MULTIPLICITY                            =    2
 NUMBER OF OCCUPIED ORBITALS (ALPHA)          =    5
 NUMBER OF OCCUPIED ORBITALS (BETA )          =    4
 TOTAL NUMBER OF ATOMS                        =    4
 THE NUCLEAR REPULSION ENERGY IS       10.9514608714

     $CONTRL OPTIONS
     ---------------
 SCFTYP=MCSCF        RUNTYP=ENERGY       EXETYP=RUN     
 MPLEVL=       2     CITYP =NONE         CCTYP =NONE         VBTYP =NONE    
 DFTTYP=NONE         TDDFT =NONE    
 MULT  =       2     ICHARG=       1     NZVAR =       0     COORD =UNIQUE  
 PP    =NONE         RELWFN=NONE         LOCAL =NONE         NUMGRD=       F
 ISPHER=       1     NOSYM =       1     MAXIT =     200     UNITS =ANGS    
 PLTORB=       F     MOLPLT=       F     AIMPAC=       F     FRIEND=        
 NPRINT=       7     IREST =       0     GEOM  =INPUT   
 NORMF =       0     NORMP =       0     ITOL  =      20     ICUT  =       9
 INTTYP=RYSQUAD      GRDTYP=BEST         QMTTOL= 1.0E-05

     $SYSTEM OPTIONS
     ---------------
  REPLICATED MEMORY=   100000000 WORDS (ON EVERY NODE).
 DISTRIBUTED MEMDDI=        1000 MILLION WORDS IN AGGREGATE,
 MEMDDI DISTRIBUTED OVER   1 PROCESSORS IS  1000000000 WORDS/PROCESSOR.
 TOTAL MEMORY REQUESTED ON EACH PROCESSOR=  1100000000 WORDS.
 TIMLIM=      525600.00 MINUTES, OR     365.0 DAYS.
 PARALL= T  BALTYP=  DLB     KDIAG=    3  COREFL= F
 MXSEQ2=     300 MXSEQ3=     150  mem10=         0

          ----------------
          PROPERTIES INPUT
          ----------------

     MOMENTS            FIELD           POTENTIAL          DENSITY
 IEMOM =       1   IEFLD =       0   IEPOT =       0   IEDEN =       0
 WHERE =COMASS     WHERE =NUCLEI     WHERE =NUCLEI     WHERE =NUCLEI  
 OUTPUT=BOTH       OUTPUT=BOTH       OUTPUT=BOTH       OUTPUT=BOTH    
 IEMINT=       0   IEFINT=       0                     IEDINT=       0
                                                       MORB  =       0

     -------------------------------
     INTEGRAL TRANSFORMATION OPTIONS
     -------------------------------
     NWORD  =            0
     CUTOFF = 1.0E-09     MPTRAN =       0
     DIRTRF =       T     AOINTS =DUP     

          ----------------------
          MCSCF INPUT PARAMETERS
          ----------------------
 CONVERGER SELECTION: FOCAS = F  SOSCF = F  FULLNR = T  QUD = F  JACOBI = F
 SECULAR EQUATION METHOD CISTEP = GMCCI   
 --- GENERAL INPUT OPTIONS:
 MAXIT =     100  MICIT =       1  ACURCY= 1.000E-06
 DAMP  =   0.000  CANONC=       T  ENGTOL= 1.000E-10
 EKT   =       F  NPUNCH=       2  NWORD =         0
 REGENERATE CI AFTER CONVERGENCE = NONE    
 DIABATIZATION AFTER CONVERGENCE =        F
 --- INPUT FOR FULLNR CONVERGER:
 METHOD=DM2       FORS  =       F  DROPC =       T
 LINSER=       F  FCORE =       F  NORB  =      30

          ----------------------
          INTEGRAL INPUT OPTIONS
          ----------------------
 NOPK  =       1 NORDER=       0 SCHWRZ=       T

 ------------------------------------------
 MULTIREFERENCE PERTURBATION THEORY CONTROL
 ------------------------------------------
 MRPT=GMCPT    READ CONVERGED MCSCF VECTORS= F


     ------------------------------------------
     THE POINT GROUP IS C1 , NAXIS= 1, ORDER= 1
     ------------------------------------------

 -- VARIATIONAL SPACE WILL BE RESTRICTED TO PURE SPHERICAL HARMONICS ONLY --
 AFTER EXCLUDING CONTAMINANT COMBINATIONS FROM THE CARTESIAN GAUSSIAN BASIS
 SET, THE NUMBER OF SPHERICAL HARMONICS KEPT IN THE VARIATION SPACE IS   29

     DIMENSIONS OF THE SYMMETRY SUBSPACES ARE
 A   =   29

 ..... DONE SETTING UP THE RUN .....
 CPU     0: STEP CPU TIME=     0.04 TOTAL CPU TIME=          0.0 (      0.0 MIN)
 TOTAL WALL CLOCK TIME=          0.1 SECONDS, CPU UTILIZATION IS    80.00%

          ********************
          1 ELECTRON INTEGRALS
          ********************
 TIME TO DO   DIPOLE INTEGRALS=      0.00
 ...... END OF ONE-ELECTRON INTEGRALS ......
 CPU     0: STEP CPU TIME=     0.00 TOTAL CPU TIME=          0.0 (      0.0 MIN)
 TOTAL WALL CLOCK TIME=          0.1 SECONDS, CPU UTILIZATION IS    80.00%

          -------------
          GUESS OPTIONS
          -------------
          GUESS =MOREAD            NORB  =      29          NORDER=       0
          MIX   =       F          PRTMO =       F          PUNMO =       F
          TOLZ  = 1.0E-08          TOLE  = 1.0E-05
          SYMDEN=       F          PURIFY=       T

 INITIAL GUESS ORBITALS GENERATED BY MOREAD   ROUTINE.

 STATISTICS FOR GENERATION OF SYMMETRY ORBITAL -Q- MATRIX
 NUMBER OF CARTESIAN ATOMIC ORBITALS=         30
 NUMBER OF SPHERICAL CONTAMINANTS DROPPED=     1
 NUMBER OF LINEARLY DEPENDENT MOS DROPPED=     0
 TOTAL NUMBER OF MOS IN VARIATION SPACE=      29
 ORBITAL PURIFICATION WILL OCCUR

 SYMMETRIES FOR INITIAL GUESS ORBITALS FOLLOW.   BOTH SET(S).
     5 ORBITALS ARE OCCUPIED (    1 CORE ORBITALS).
     1=A        2=A        3=A        4=A        5=A        6=A        7=A   
     8=A        9=A       10=A       11=A       12=A       13=A       14=A   
    15=A       16=A       17=A       18=A       19=A       20=A       21=A   
    22=A       23=A       24=A       25=A       26=A       27=A       28=A   
    29=A   
 ...... END OF INITIAL ORBITAL SELECTION ......
 CPU     0: STEP CPU TIME=     0.01 TOTAL CPU TIME=          0.0 (      0.0 MIN)
 TOTAL WALL CLOCK TIME=          0.1 SECONDS, CPU UTILIZATION IS   100.00%

                    ----------------------
                    AO INTEGRAL TECHNOLOGY
                    ----------------------
     S,P,L SHELL ROTATED AXIS INTEGRALS, REPROGRAMMED BY
        KAZUYA ISHIMURA (IMS) AND JOSE SIERRA (SYNSTAR).
     S,P,D,L SHELL ROTATED AXIS INTEGRALS PROGRAMMED BY
        KAZUYA ISHIMURA (INSTITUTE FOR MOLECULAR SCIENCE).
     S,P,D,F,G SHELL TO TOTAL QUARTET ANGULAR MOMENTUM SUM 5,
        ERIC PROGRAM BY GRAHAM FLETCHER (ELORET AND NASA ADVANCED
        SUPERCOMPUTING DIVISION, AMES RESEARCH CENTER).
     S,P,D,F,G,L SHELL GENERAL RYS QUADRATURE PROGRAMMED BY
        MICHEL DUPUIS (PACIFIC NORTHWEST NATIONAL LABORATORY).

          --------------------
          2 ELECTRON INTEGRALS
          --------------------

 DIRECT SCF METHOD SKIPS INTEGRAL STORAGE ON DISK.
 DIRECT TRANSFORMATION SKIPS AO INTEGRAL STORAGE ON DISK.
  ...... END OF TWO-ELECTRON INTEGRALS .....
 STEP CPU TIME =     0.02 TOTAL CPU TIME =          0.1 (      0.0 MIN)
 TOTAL WALL CLOCK TIME=          0.1 SECONDS, CPU UTILIZATION IS    87.50%
 DDI: Creating Array [0] - 900 x 36 = 32400 words.
 DDI: Creating Array [1] - 21 x 288 = 6048 words.
 DDI: Creating Array [2] - 36 x 36 = 1296 words.
 DDI: Creating Array [3] - 465 x 36 = 16740 words.

          -----------------
          MCSCF CALCULATION
          -----------------

 ----- NUCLEAR ENERGY ----- =        10.9514608714

     -------------------------------------------------
     GMC-PT/GMC-QDPT or general MCSCF input parameters
     -------------------------------------------------
 # of frozen core orbs. =         0 ->         0
 # of doubly occ. orbs. =         1
 # of active      orbs. =         7
 # of virtual     orbs. =        21
 # of active electrons  =         7
 # of states in CI      =         3
 Highest state in CI    =         3
 kstate =  1 1 1
 avecoe =  0.333 0.333 0.333
 State symmetry           = A           
 Assigned symmetry number = 1

 <<<Act. MO sym.: 1111111

 <<<Division of 1-ext.:  0
 <<<Division of 2-ext.:  0

 *** Reference space

 Reference type: ORMAS (= Occupation restricted multiple active space)
 # of orbitals          =  7
 # of minimum electrons =  7
 # of maximum electrons =  7
 State symmetry    =    1 (input)
 2*Sz              =    1 (input)
 Spin multiplicity =    2 (input)
 Dimension of reference space =      1225  (from      3432 walks)

 Dimension of reference space =      1225  (from      1225 walks)

 <<<Ionized spaces for Ref-CI:
      0:         1225 /   -1-0:         1960 /  0-1-0:         2891

 EVALUATING EXCHANGE INTEGRALS FOR DIRECT INTEGRAL TRANSFORMATION
 SCHWARZ INEQUALITY OVERHEAD:       465 INTEGRALS, T=        0.00

     --------------------------------------------
     PARTIAL TWO ELECTRON INTEGRAL TRANSFORMATION
     --------------------------------------------

 NUMBER OF CORE MOLECULAR ORBITALS     =    1
 NUMBER OF OCCUPIED MOLECULAR ORBITALS =    8
 TOTAL NUMBER OF MOLECULAR ORBITALS    =   29
 TOTAL NUMBER OF ATOMIC ORBITALS       =   30
 THRESHOLD FOR KEEPING TRANSFORMED 2E- INTEGRALS = 1.000E-09

 -------------------------------     ------------------------------
 DISTRIBUTED DATA TRANSFORMATION     PROGRAM WRITTEN BY G. FLETCHER
 -------------------------------     ------------------------------

 THE DISTRIBUTED MEMORY REQUIRED FOR THIS STEP IS MEMDDI=         1 MWORDS
 CREATING DISTRIBUTED STORAGE FOR [VIR OCC|VIR OCC] INTEGRALS
 CREATING DISTRIBUTED STORAGE FOR [VIR OCC|OCC OCC] INTEGRALS
 CREATING DISTRIBUTED STORAGE FOR [OCC OCC|OCC OCC] INTEGRALS
 CREATING DISTRIBUTED STORAGE FOR [VIR VIR|OCC OCC] INTEGRALS
 FOR    1 PROCESSORS, THE REPLICATED MEMORY NEEDED IS       73700 WORDS.
 SCHWARZ INEQUALITY OVERHEAD:       465 INTEGRALS, T=        0.00

      DIRECT 4-INDEX TRANSFORMATION 
      SCHWARZ INEQUALITY TEST SKIPPED          0 INTEGRAL BLOCKS
 ----- FROZEN CORE ENERGY =       -47.5768784407
 ... END OF INTEGRAL TRANSFORMATION ...
 CPU     0: STEP CPU TIME=     0.21 TOTAL CPU TIME=          0.3 (      0.0 MIN)
 TOTAL WALL CLOCK TIME=          0.3 SECONDS, CPU UTILIZATION IS    96.55%

     --------------------------------     -----------------------------
     MCHF NEWTON-RAPHSON OPTIMIZATION     CODE WRITTEN BY MICHEL DUPUIS
     --------------------------------     -----------------------------
     PARALLEL VERSION WRITTEN BY G. FLETCHER (ELORET)
     NASA ADVANCED SUPERCOMPUTING DIVISION, AMES RESEARCH CENTER

 NUMBER OF INDEPENDENT ORBITAL ROTATION PARAMETERS =   175
 ..... DONE SOLVING NEWTON-RAPHSON EQUATIONS .....
 CPU     0: STEP CPU TIME=     0.77 TOTAL CPU TIME=          1.0 (      0.0 MIN)
 TOTAL WALL CLOCK TIME=          1.1 SECONDS, CPU UTILIZATION IS    99.06%
 ..... DONE WITH NTN-RPH ORBITAL ROTATIONS ..... 
 CPU     0: STEP CPU TIME=     0.00 TOTAL CPU TIME=          1.0 (      0.0 MIN)
 TOTAL WALL CLOCK TIME=          1.1 SECONDS, CPU UTILIZATION IS    99.06%
 MAXIMUM MEMORY USED BY NTN-RPH CODE WAS     57645 WORDS.

 ITER     TOTAL ENERGY      DEL(E)  LAGRANGIAN ASYMMETRY   SQCDF  MICIT   DAMP
   1      -55.585194577 -0.585194577  0.116988    9    3 9.733E-02  1   0.0000
   2      -55.647769837 -0.062575260  0.019650   12    5 4.607E-01  1   0.0000
   3      -55.684591662 -0.036821824  0.014289   11    6 2.302E-01  1   0.0176
   4      -55.701540628 -0.016948967  0.004963   11    6 4.573E-02  1   0.0062
   5      -55.703875541 -0.002334913  0.001312   13    5 1.276E-03  1   0.0000
   6      -55.703954066 -0.000078525  0.000562   13    5 1.175E-04  1   0.0000
   7      -55.703963627 -0.000009560  0.000252   13    5 2.602E-05  1   0.0000
   8      -55.703965746 -0.000002119  0.000118   13    5 6.851E-06  1   0.0000
   9      -55.703966287 -0.000000541  0.000057   22    5 1.956E-06  1   0.0000
  10      -55.703966436 -0.000000149  0.000029   22    5 5.884E-07  1   0.0000
  11      -55.703966479 -0.000000043  0.000015   22    5 1.840E-07  1   0.0000
  12      -55.703966492 -0.000000013  0.000008   22    5 5.939E-08  1   0.0000
  13      -55.703966496 -0.000000004  0.000004   22    5 1.974E-08  1   0.0000
  14      -55.703966498 -0.000000001  0.000002   22    5 6.714E-09  1   0.0000
  15      -55.703966498 -0.000000000  0.000001   12    8 2.340E-09  1   0.0000
  16      -55.703966498 -0.000000000  0.000001   12    8 8.233E-10  1   0.0000

          --------------------
          LAGRANGIAN CONVERGED
          --------------------

 FINAL MCSCF ENERGY IS      -55.7039664983 AFTER  16 ITERATIONS

 -MCCI- BASED ON OPTIMIZED ORBITALS
 ----------------------------------

 PLEASE NOTE: IF THE ACTIVE ORBITALS ARE CANONICALIZED BELOW,
 THE FOLLOWING CI EXPANSION COEFFICIENTS AND THE DENSITY DO NOT
 CORRESPOND TO THE PRINTED ORBITALS.  THE PRINTED EXPANSIONS MATCH
 THE ORBITALS USED DURING THE LAST ITERATION.  IF YOU WISH TO SEE
 CI EXPANSIONS BASED ON THE CANONICAL (OR NATURAL) ORBITALS, YOU
 MUST RUN A CI CALCULATION WITH THAT ORBITAL CHOICE READ IN $VEC.

 Averaged energy =     -55.703966498

 State #    1  Energy =     -55.841408669  S =  0.500

      Det      Coef    Occupancy (Ignoring core)
      ---      ----    --------- --------- -----
        1   -0.878059  11110001110000
        5    0.073498  01111001110000
        8    0.150560  10110101110000
       17    0.123016  11010011110000
       71    0.334313  11110001011000
       76    0.055187  11100101011000
       78   -0.052276  10110101011000
      211   -0.053297  11110000110100
      386   -0.095373  11110001010010
      393   -0.073295  10110101010010
      701   -0.102724  11110001100001

 State #    2  Energy =     -55.721561555  S =  0.500

      Det      Coef    Occupancy (Ignoring core)
      ---      ----    --------- --------- -----
        1    0.310828  11110001110000
       17   -0.052671  11010011110000
       36   -0.378897  11110001101000
       43    0.051507  10110101101000
       71    0.810639  11110001011000
       74   -0.082767  10111001011000
       75   -0.064267  01111001011000
       76    0.050800  11100101011000
       78   -0.106847  10110101011000
       87   -0.091004  11010011011000
      386    0.093623  11110001010010
      806   -0.075994  11110001001001

 State #    3  Energy =     -55.548929271  S =  0.500

      Det      Coef    Occupancy (Ignoring core)
      ---      ----    --------- --------- -----
        1    0.104414  11110001110000
       36    0.875418  11110001101000
       43   -0.091616  10110101101000
       52   -0.053031  11010011101000
       71    0.360920  11110001011000
      246    0.056011  11110001001100
      281    0.078361  11110000101100
      456    0.118236  11110001001010
      463    0.072601  10110101001010

 DENSITY MATRIX OVER ACTIVE MO-S

             1           2           3           4           5

    1    1.9718579
    2    0.0304290   1.6144414
    3    0.0014551  -0.0066105   1.6320023
    4   -0.0029382   0.0107808   0.0025642   1.6481222
    5    0.1132231  -0.0897437  -0.0004009   0.0217006   0.0404334
    6    0.0124608  -0.1877430  -0.0121119   0.0881495   0.0169618
    7   -0.0120226   0.0008064   0.1431883  -0.0012761  -0.0042822

             6           7

    6    0.0586595
    7   -0.0049947   0.0344834

 FORMING THE "STANDARD FOCK OPERATOR" IN DIRECT AO INTEGRAL MODE...
 ONLY THE    1 CORE AND   21 VIRTUAL ORBITALS WILL BE CANONICALIZED

          ----------------------
          MCSCF NATURAL ORBITALS
          ----------------------

                      1          2          3          4          5
                  -15.9786     1.9803     1.6539     1.6474     1.6373
                     A          A          A          A          A   
    1  N  1  S    1.001049   0.009358  -0.008196   0.003350  -0.003333
    2  N  1  S   -0.001994   0.433537  -0.146017   0.117271  -0.067786
    3  N  1  S   -0.006359   0.333995  -0.240672   0.160427  -0.105271
    4  N  1  X    0.000101   0.055298  -0.142145  -0.205619   0.480624
    5  N  1  Y    0.000148  -0.005714   0.154707   0.369303   0.248533
    6  N  1  Z    0.001087   0.084068   0.559293  -0.168755  -0.012200
    7  N  1  X   -0.000044   0.006931  -0.109062  -0.082191   0.280148
    8  N  1  Y    0.000034  -0.005047   0.073234   0.129784   0.133405
    9  N  1  Z   -0.000552   0.015707   0.378985  -0.088540  -0.039392
   10  N  1 XX   -0.000115  -0.002668  -0.013577  -0.003464   0.014146
   11  N  1 YY    0.000251   0.003109  -0.008046   0.010984  -0.013764
   12  N  1 ZZ   -0.000136  -0.000441   0.021623  -0.007520  -0.000382
   13  N  1 XY   -0.000173  -0.002388   0.000115   0.001829   0.000210
   14  N  1 XZ    0.000148   0.002902   0.000658  -0.011869   0.020748
   15  N  1 YZ    0.000004  -0.002181   0.005601   0.015456   0.010114
   16  H  2  S   -0.001658   0.161621   0.197694   0.309391   0.045551
   17  H  2  S    0.000610  -0.000136   0.042637   0.040459  -0.009819
   18  H  2  X   -0.000188   0.009004   0.000964   0.001158   0.021831
   19  H  2  Y    0.000887  -0.030633  -0.022597  -0.034886  -0.005968
   20  H  2  Z    0.000273  -0.002503   0.016770  -0.015225  -0.001192
   21  H  3  S   -0.001296   0.158030   0.022096  -0.246400  -0.258639
   22  H  3  S    0.000340  -0.001120   0.021007  -0.033509  -0.098740
   23  H  3  X   -0.000005   0.000964  -0.002834  -0.012068   0.016974
   24  H  3  Y   -0.000675   0.027823   0.003315  -0.030469  -0.025320
   25  H  3  Z    0.000317  -0.005678   0.023149   0.001658   0.007315
   26  H  4  S   -0.001728   0.214982   0.079299  -0.251319   0.284759
   27  H  4  S    0.000280   0.009581   0.025547  -0.044792   0.105261
   28  H  4  X    0.000817  -0.032367  -0.018508   0.022053  -0.013051
   29  H  4  Y   -0.000197   0.007394   0.004791   0.015849   0.016270
   30  H  4  Z    0.000545  -0.018322   0.020044   0.008886  -0.020755

                      6          7          8
                    0.0357     0.0254     0.0199
                     A          A          A   
    1  N  1  S   -0.127524  -0.110461   0.112151
    2  N  1  S   -0.440265  -0.419708   0.345320
    3  N  1  S   -0.014718  -0.219253   0.010634
    4  N  1  X    0.539837  -0.540451  -0.047563
    5  N  1  Y    0.227747   0.224540   0.863690
    6  N  1  Z   -0.224572  -0.563010   0.203508
    7  N  1  X   -0.080127  -0.070129  -0.005225
    8  N  1  Y   -0.018691   0.079249   0.072650
    9  N  1  Z    0.060942   0.024991  -0.076159
   10  N  1 XX   -0.065293   0.001639   0.009035
   11  N  1 YY    0.070758  -0.002364  -0.022165
   12  N  1 ZZ   -0.005465   0.000726   0.013130
   13  N  1 XY   -0.016173  -0.029847  -0.037325
   14  N  1 XZ    0.005448   0.043147  -0.015613
   15  N  1 YZ   -0.014243  -0.024755  -0.045437
   16  H  2  S    0.374100   0.076763  -0.742955
   17  H  2  S    0.069722  -0.018752  -0.153042
   18  H  2  X   -0.008451   0.007834  -0.019860
   19  H  2  Y   -0.037975  -0.017563   0.074101
   20  H  2  Z   -0.001868   0.006019  -0.029529
   21  H  3  S    0.651388   0.230630   0.339265
   22  H  3  S    0.196090   0.001383   0.115054
   23  H  3  X   -0.019897   0.030736   0.011859
   24  H  3  Y    0.063622   0.027204   0.027292
   25  H  3  Z    0.004363   0.031386   0.008854
   26  H  4  S   -0.325343   0.759333  -0.090331
   27  H  4  S   -0.161007   0.168872  -0.038870
   28  H  4  X   -0.001955  -0.057643   0.012868
   29  H  4  Y   -0.020912  -0.018768  -0.043969
   30  H  4  Z    0.025340  -0.002454   0.002775

          ------------------------
          MCSCF OPTIMIZED ORBITALS
          ------------------------

                      1          2          3          4          5
                  -15.9786     0.0000     0.0000     0.0000     0.0000
                     A          A          A          A          A   
    1  N  1  S    1.001049  -0.001762   0.014062  -0.005305  -0.014070
    2  N  1  S   -0.001994   0.397718  -0.009643   0.006935  -0.192362
    3  N  1  S   -0.006359   0.331089  -0.114211   0.006392  -0.274006
    4  N  1  X    0.000101   0.020832   0.446627   0.050001  -0.035303
    5  N  1  Y    0.000148   0.002941  -0.000157   0.388704   0.024056
    6  N  1  Z    0.001087   0.050434   0.015835   0.003125   0.582198
    7  N  1  X   -0.000044  -0.018637   0.299286   0.062716  -0.082760
    8  N  1  Y    0.000034  -0.005392   0.038313   0.189039   0.024066
    9  N  1  Z   -0.000552   0.024000  -0.053701   0.013014   0.390833
   10  N  1 XX   -0.000115  -0.006466   0.023795   0.002956  -0.015331
   11  N  1 YY    0.000251   0.007237  -0.025196  -0.001667  -0.007062
   12  N  1 ZZ   -0.000136  -0.000771   0.001401  -0.001290   0.022394
   13  N  1 XY   -0.000173  -0.003752  -0.001243   0.005373  -0.000069
   14  N  1 XZ    0.000148   0.003572   0.023415   0.002952   0.003590
   15  N  1 YZ    0.000004  -0.003159  -0.001379   0.023560   0.000881
   16  H  2  S   -0.001658   0.199649  -0.214315   0.368437   0.116927
   17  H  2  S    0.000610   0.006375  -0.050612   0.047995   0.033869
   18  H  2  X   -0.000188   0.008059   0.018429   0.014958  -0.000016
   19  H  2  Y    0.000887  -0.034900   0.021531  -0.041392  -0.012885
   20  H  2  Z    0.000273  -0.002190   0.003461  -0.005792   0.020826
   21  H  3  S   -0.001296   0.195547  -0.138373  -0.381954   0.122196
   22  H  3  S    0.000340   0.010089  -0.087150  -0.091118   0.039489
   23  H  3  X   -0.000005  -0.000116   0.024583  -0.001455  -0.000955
   24  H  3  Y   -0.000675   0.031506  -0.009637  -0.041637   0.014959
   25  H  3  Z    0.000317  -0.004347   0.001906   0.010386   0.020756
   26  H  4  S   -0.001728   0.210094   0.427092  -0.007477   0.117488
   27  H  4  S    0.000280   0.003405   0.130139   0.036758   0.025733
   28  H  4  X    0.000817  -0.033634  -0.022578   0.004733  -0.023130
   29  H  4  Y   -0.000197   0.005999   0.005336   0.027099  -0.000586
   30  H  4  Z    0.000545  -0.015657  -0.029222  -0.000107   0.017773

                      6          7          8          9         10
                    0.0000     0.0000     0.0000     0.1397     0.2049
                     A          A          A          A          A   
    1  N  1  S    0.189595  -0.047922   0.050489  -0.113691   0.026378
    2  N  1  S    0.697249  -0.135797   0.130138  -0.170146   0.027579
    3  N  1  S    0.203640   0.122332  -0.021857   1.178347  -0.351087
    4  N  1  X    0.073180   0.817223   0.073832  -0.047963  -0.004560
    5  N  1  Y   -0.049826  -0.126356   0.948810   0.016853   0.170341
    6  N  1  Z    0.633186   0.109496   0.051554  -0.167620   0.040848
    7  N  1  X    0.078509   0.024097  -0.033175   0.203929   0.163610
    8  N  1  Y   -0.031844  -0.072727   0.088442  -0.119311  -0.797870
    9  N  1  Z   -0.066205   0.017535  -0.048330   0.378807  -0.037742
   10  N  1 XX    0.036423  -0.049198  -0.012338  -0.023131   0.035214
   11  N  1 YY   -0.042994   0.057414   0.001811   0.060800  -0.063880
   12  N  1 ZZ    0.006571  -0.008216   0.010527  -0.037669   0.028666
   13  N  1 XY    0.021197   0.013179  -0.043442  -0.045470   0.007031
   14  N  1 XZ   -0.042177  -0.017205  -0.007603   0.064577   0.022501
   15  N  1 YZ    0.013825   0.013096  -0.048240  -0.030381  -0.085118
   16  H  2  S   -0.463592   0.349670  -0.537060   0.291198  -0.549007
   17  H  2  S   -0.066091   0.086711  -0.119358  -0.557284   1.912830
   18  H  2  X   -0.007697  -0.005383  -0.019251  -0.035612   0.010239
   19  H  2  Y    0.053375  -0.029026   0.051873   0.065660  -0.121036
   20  H  2  Z   -0.012286  -0.000383  -0.028237  -0.019802  -0.067308
   21  H  3  S   -0.426994   0.264908   0.524366   0.430118   0.227467
   22  H  3  S   -0.072286   0.114822   0.164430  -0.907313  -0.763596
   23  H  3  X   -0.010492  -0.033764   0.008152   0.050060   0.018363
   24  H  3  Y   -0.046485   0.024211   0.045797  -0.048329  -0.039260
   25  H  3  Z   -0.024270  -0.018711   0.014371   0.041689   0.062722
   26  H  4  S   -0.440697  -0.664705  -0.104376   0.316551   0.177010
   27  H  4  S   -0.057878  -0.207577  -0.066204  -0.881956  -0.560822
   28  H  4  X    0.048509   0.030965   0.005364   0.061724   0.007280
   29  H  4  Y    0.013530   0.004784  -0.048075  -0.091229  -0.007383
   30  H  4  Z   -0.010636   0.016166   0.010659   0.065875   0.031781

                     11         12         13         14         15
                    0.2490     0.5308     0.5947     0.7019     0.8291
                     A          A          A          A          A   
    1  N  1  S    0.022815   0.095719  -0.006086   0.058640  -0.412949
    2  N  1  S    0.052513   0.142596   0.105725   0.133857  -0.944098
    3  N  1  S   -0.130905  -0.525531   0.521925  -0.141368   1.502237
    4  N  1  X    0.004024  -0.602359  -0.345801  -0.061769  -0.038155
    5  N  1  Y    0.058539  -0.030844  -0.023174  -0.489814   0.006155
    6  N  1  Z    0.026502   0.493732  -0.513616   0.013672   0.276590
    7  N  1  X   -0.337906   1.007897   1.106541  -0.075408  -0.009159
    8  N  1  Y   -0.332293  -0.091604  -0.144413   1.860534   0.096324
    9  N  1  Z   -0.131297  -0.574388   1.028918  -0.149965  -0.254731
   10  N  1 XX   -0.064033   0.014772   0.003089  -0.038826  -0.016895
   11  N  1 YY    0.076576   0.006831  -0.028151   0.009629   0.022464
   12  N  1 ZZ   -0.012544  -0.021603   0.025062   0.029197  -0.005569
   13  N  1 XY    0.021213  -0.017419   0.060494   0.042925   0.161551
   14  N  1 XZ   -0.064100   0.008670  -0.010474  -0.005540   0.058090
   15  N  1 YZ   -0.019663   0.001479   0.007759  -0.109855   0.021517
   16  H  2  S    0.141906   0.390471  -0.277939  -0.649504  -0.156185
   17  H  2  S   -0.306412   0.334057   0.359187  -0.516910  -0.405215
   18  H  2  X    0.029920   0.003358   0.107337   0.037192   0.235547
   19  H  2  Y   -0.015897  -0.041608  -0.020526   0.197872   0.090844
   20  H  2  Z   -0.002964  -0.041346   0.074183  -0.161678   0.096344
   21  H  3  S    0.556498   0.241146  -0.182648   0.609716   0.162891
   22  H  3  S   -1.858737   0.383754   0.344793   0.582656  -0.305038
   23  H  3  X   -0.039205   0.064601  -0.126298  -0.051930  -0.351550
   24  H  3  Y   -0.057695   0.013128  -0.083023   0.237014  -0.121590
   25  H  3  Z   -0.001521  -0.087193   0.011301   0.179533  -0.013512
   26  H  4  S   -0.628063  -0.075987  -0.707412   0.039108   0.134818
   27  H  4  S    2.141508  -0.524071  -0.754430   0.008172  -0.184300
   28  H  4  X   -0.085357   0.059390   0.126832  -0.167971   0.092452
   29  H  4  Y   -0.011096  -0.073264   0.084002  -0.067973   0.350715
   30  H  4  Z   -0.046791  -0.001647   0.110573   0.064715   0.143211

                     16         17         18         19         20
                    1.0295     1.0577     1.1815     1.3200     1.3950
                     A          A          A          A          A   
    1  N  1  S   -0.364697  -0.399427   0.087837  -0.228390  -0.311238
    2  N  1  S   -0.766225  -0.841713   0.188593  -0.491942  -0.664061
    3  N  1  S    1.473413   1.739773  -0.375649   0.799195   1.109937
    4  N  1  X   -0.060621  -0.050243   0.007971   0.007928   0.025315
    5  N  1  Y    0.102595  -0.166896  -0.256014   0.028171   0.000455
    6  N  1  Z    0.096069   0.043703  -0.034100  -0.032062  -0.057135
    7  N  1  X    0.429550   0.275519  -0.339833  -0.401304   0.390269
    8  N  1  Y   -0.407918   0.773864   0.949232   0.191634   0.045412
    9  N  1  Z   -0.071858   0.406509  -0.243561   0.333185   0.600446
   10  N  1 XX   -0.160480   0.156569  -0.080601   0.106868  -0.089130
   11  N  1 YY   -0.093022  -0.073948   0.015372   0.047924   0.082912
   12  N  1 ZZ    0.253503  -0.082621   0.065229  -0.154792   0.006218
   13  N  1 XY   -0.075431  -0.126197  -0.059857   0.108393  -0.093686
   14  N  1 XZ   -0.052849  -0.191196   0.156419   0.026528  -0.081601
   15  N  1 YZ    0.014685  -0.023543   0.170746  -0.002886  -0.045229
   16  H  2  S    0.002128  -0.573975  -0.404639  -0.290154  -0.322239
   17  H  2  S   -0.105316  -0.438325  -0.177641  -0.157117  -0.045419
   18  H  2  X   -0.021521  -0.447479   0.018967   0.734752  -0.208783
   19  H  2  Y   -0.004722   0.021019  -0.174661   0.136552  -0.056615
   20  H  2  Z    0.255508   0.165945   0.449157  -0.043669  -0.593165
   21  H  3  S   -0.441036   0.132985   0.561343  -0.161775  -0.338436
   22  H  3  S   -0.143189  -0.002979   0.121947  -0.013062   0.141414
   23  H  3  X    0.212461   0.083338   0.412829   0.432663   0.110472
   24  H  3  Y    0.066510  -0.151910  -0.258193   0.046789   0.077345
   25  H  3  Z    0.379211   0.011730  -0.398239  -0.161756  -0.639521
   26  H  4  S   -0.428114  -0.358573   0.189035  -0.146851  -0.370044
   27  H  4  S   -0.231907  -0.271871   0.124031  -0.019548  -0.297832
   28  H  4  X   -0.249039   0.310642  -0.241283   0.097402  -0.027136
   29  H  4  Y   -0.234455  -0.119018   0.215025  -0.311944  -0.018693
   30  H  4  Z    0.380928  -0.386894   0.122631  -0.329557   0.389576

                     21         22         23         24         25
                    1.6075     1.7516     1.8364     2.0098     2.0661
                     A          A          A          A          A   
    1  N  1  S    0.094935  -0.169635   0.022786   0.101940   0.045546
    2  N  1  S    0.144531  -0.459571   0.049434   0.210767   0.104944
    3  N  1  S   -0.739037  -0.507326   0.143704  -0.158046   0.024106
    4  N  1  X    0.105966  -0.296556  -0.189129   0.114733   0.052179
    5  N  1  Y   -0.036995   0.104931   0.507156   0.199161   0.088048
    6  N  1  Z   -0.008946  -0.241419  -0.067926   0.071896   0.042349
    7  N  1  X   -0.038178   0.118492  -0.054918  -0.000999  -0.232533
    8  N  1  Y    0.815245  -0.221951   0.461381   0.015527  -0.047693
    9  N  1  Z   -0.337934  -0.130768   0.036769  -0.196858   0.191775
   10  N  1 XX   -0.136520   0.025595   0.035469   0.221886  -0.722976
   11  N  1 YY    0.090990   0.119825  -0.108103   0.156627  -0.003655
   12  N  1 ZZ    0.045530  -0.145420   0.072634  -0.378513   0.726631
   13  N  1 XY    0.024641  -0.089283   0.036914   0.457637  -0.216089
   14  N  1 XZ   -0.044076   0.282957   0.026383  -0.142896   0.092015
   15  N  1 YZ   -0.072420   0.044307  -0.249303  -0.011503  -0.089330
   16  H  2  S   -0.241694   0.128149  -0.135476   0.008261  -0.051257
   17  H  2  S    0.083073   0.165020  -0.534982  -0.001629  -0.041772
   18  H  2  X    0.051861  -0.068690  -0.201164  -0.289822   0.089774
   19  H  2  Y   -0.448291  -0.430236   0.856389   0.134322   0.223672
   20  H  2  Z    0.519202  -0.037206   0.422011   0.221162  -0.096484
   21  H  3  S    0.252766  -0.063675   0.044615   0.212403   0.077180
   22  H  3  S    0.544802   0.208278   0.138487   0.338623   0.142116
   23  H  3  X   -0.406518  -0.013743  -0.150041   0.671958   0.337633
   24  H  3  Y    0.596885   0.589640   0.206431   0.592128   0.253022
   25  H  3  Z   -0.342477   0.124425  -0.528779   0.153226   0.015855
   26  H  4  S    0.361845  -0.125077  -0.017572  -0.086946  -0.062046
   27  H  4  S   -0.235185   0.203895   0.306083  -0.319421  -0.136288
   28  H  4  X    0.237524  -0.484648  -0.388345   0.392002   0.660861
   29  H  4  Y   -0.411491   0.485083  -0.042300   0.478075   0.456917
   30  H  4  Z    0.061923  -0.483355  -0.186701   0.380067  -0.368018

                     26         27         28         29
                    2.2562     2.4876     2.6326     3.0674
                     A          A          A          A   
    1  N  1  S   -0.109656  -0.007600  -0.177540  -0.100164
    2  N  1  S   -0.202717   0.037623  -0.201531  -0.100708
    3  N  1  S    0.517562   0.819629   2.092909   1.159463
    4  N  1  X   -0.025538   0.058487   0.287939  -0.267985
    5  N  1  Y   -0.051045   0.333699  -0.103923   0.203040
    6  N  1  Z   -0.012011   0.116172   0.282438   0.035605
    7  N  1  X    0.297345   0.175001   0.815137  -0.371019
    8  N  1  Y    0.069606   1.152995  -0.560764   0.344115
    9  N  1  Z    0.341933   0.244597   0.659896   0.064790
   10  N  1 XX   -0.325441   0.109469   0.147502  -0.921312
   11  N  1 YY    0.069118   0.030892   0.248152   1.520858
   12  N  1 ZZ    0.256323  -0.140361  -0.395654  -0.599546
   13  N  1 XY    0.858009  -0.334155  -0.414552  -0.107311
   14  N  1 XZ    0.481812   0.306127   0.976205  -0.389938
   15  N  1 YZ    0.162892   1.044157  -0.584963   0.079938
   16  H  2  S   -0.101788  -0.961746  -0.217807  -1.108805
   17  H  2  S   -0.017522  -0.417590   0.030005  -0.322285
   18  H  2  X   -0.569871  -0.131349  -0.118121  -0.187806
   19  H  2  Y   -0.115902   0.831613   0.132156   0.886175
   20  H  2  Z   -0.199753  -0.085721   0.206103   0.380779
   21  H  3  S   -0.193095   0.511240  -0.659465  -0.680422
   22  H  3  S   -0.089865   0.356347  -0.129121  -0.182555
   23  H  3  X   -0.000149  -0.192650   0.015631  -0.044738
   24  H  3  Y   -0.239095   0.577961  -0.411386  -0.751124
   25  H  3  Z   -0.039720  -0.026336   0.212789   0.356189
   26  H  4  S   -0.195360  -0.385450  -1.314269   0.625293
   27  H  4  S   -0.044590  -0.232671  -0.530944   0.154264
   28  H  4  X    0.009750   0.316620   0.846355  -0.535596
   29  H  4  Y   -0.539024  -0.288918  -0.198973   0.053828
   30  H  4  Z   -0.291662   0.206845   0.614089  -0.364557
 .....DONE WITH MCSCF ITERATIONS.....
 CPU     0: STEP CPU TIME=    11.06 TOTAL CPU TIME=         12.1 (      0.2 MIN)
 TOTAL WALL CLOCK TIME=         12.1 SECONDS, CPU UTILIZATION IS    99.84%

     ----------------------------------------------------------------
     PROPERTY VALUES FOR THE MCSCF SELF-CONSISTENT FIELD WAVEFUNCTION
     ----------------------------------------------------------------

          -----------------
          ENERGY COMPONENTS
          -----------------

         WAVEFUNCTION NORMALIZATION =       1.0000000000

                ONE ELECTRON ENERGY =     -93.5110186155
                TWO ELECTRON ENERGY =      26.8555912458
           NUCLEAR REPULSION ENERGY =      10.9514608714
                                      ------------------
                       TOTAL ENERGY =     -55.7039664983

 ELECTRON-ELECTRON POTENTIAL ENERGY =      26.8555912458
  NUCLEUS-ELECTRON POTENTIAL ENERGY =    -149.1521141044
   NUCLEUS-NUCLEUS POTENTIAL ENERGY =      10.9514608714
                                      ------------------
             TOTAL POTENTIAL ENERGY =    -111.3450619872
               TOTAL KINETIC ENERGY =      55.6410954888
                 VIRIAL RATIO (V/T) =       2.0011299384

          ---------------------------------------
          MULLIKEN AND LOWDIN POPULATION ANALYSES
          ---------------------------------------

     ATOMIC MULLIKEN POPULATION IN EACH MOLECULAR ORBITAL

                      1          2          3          4          5

                  2.000000   1.980300   1.653936   1.647433   1.637283

    1             2.000569   1.368025   1.501808   0.903317   1.177989
    2            -0.000204   0.163909   0.116568   0.334934   0.014617
    3            -0.000107   0.161149   0.007558   0.210145   0.223199
    4            -0.000258   0.287217   0.028002   0.199037   0.221478

                      6          7          8

                  0.035686   0.025443   0.019919

    1             0.014769   0.013589   0.010829
    2             0.004425   0.000029   0.007436
    3             0.014038   0.001284   0.001475
    4             0.002453   0.010542   0.000178
 WARNING! MCSCF POPULATIONS SHOWN ABOVE ARE FOR THE NATURAL ORBITALS.
 IGNORE THE ABOVE DATA FOR MCSCF FUNCTIONS WHICH ARE NOT OF -FORS- TYPE.
 THE FOLLOWING POPULATIONS ARE CORRECT FOR ANY MCSCF WAVEFUNCTION.

               ----- POPULATIONS IN EACH AO -----
                             MULLIKEN      LOWDIN
              1  N  1  S      2.00220     1.90508
              2  N  1  S      0.81809     0.57966
              3  N  1  S      0.71607     0.42047
              4  N  1  X      0.74743     0.69200
              5  N  1  Y      0.62406     0.54368
              6  N  1  Z      0.85170     0.80274
              7  N  1  X      0.40779     0.47471
              8  N  1  Y      0.27950     0.39836
              9  N  1  Z      0.52753     0.56707
             10  N  1 XX      0.00062     0.15363
             11  N  1 YY      0.00568     0.19355
             12  N  1 ZZ      0.00032     0.14511
             13  N  1 XY      0.00549     0.00156
             14  N  1 XZ      0.00443     0.01073
             15  N  1 YZ      0.00000     0.00814
             16  H  2  S      0.55187     0.43347
             17  H  2  S      0.03507     0.15070
             18  H  2  X      0.00966     0.02188
             19  H  2  Y      0.03491     0.05964
             20  H  2  Z      0.01021     0.02714
             21  H  3  S      0.51093     0.39542
             22  H  3  S      0.05734     0.15442
             23  H  3  X      0.00935     0.02721
             24  H  3  Y      0.03031     0.04936
             25  H  3  Z      0.01082     0.02509
             26  H  4  S      0.62877     0.48381
             27  H  4  S      0.05994     0.15200
             28  H  4  X      0.02786     0.05161
             29  H  4  Y      0.01226     0.02989
             30  H  4  Z      0.01981     0.04184

          ----- MULLIKEN ATOMIC OVERLAP POPULATIONS -----
          (OFF-DIAGONAL ELEMENTS NEED TO BE MULTIPLIED BY 2)

             1           2           3           4

    1    6.1876763
    2    0.2941696   0.3574950
    3    0.2449267  -0.0053285   0.3887195
    4    0.2641224  -0.0046219  -0.0095756   0.4987238

          TOTAL MULLIKEN AND LOWDIN ATOMIC POPULATIONS
       ATOM         MULL.POP.    CHARGE          LOW.POP.     CHARGE
    1 N             6.990895    0.009105         6.896497    0.103503
    2 H             0.641714    0.358286         0.692827    0.307173
    3 H             0.618742    0.381258         0.651515    0.348485
    4 H             0.748649    0.251351         0.759161    0.240839

          MULLIKEN SPHERICAL HARMONIC POPULATIONS
       ATOM           S       P       D      F      G      H      I    TOTAL
    1 N             3.54    3.44    0.02   0.00   0.00   0.00   0.00    6.99
    2 H             0.59    0.05    0.00   0.00   0.00   0.00   0.00    0.64
    3 H             0.57    0.05    0.00   0.00   0.00   0.00   0.00    0.62
    4 H             0.69    0.06    0.00   0.00   0.00   0.00   0.00    0.75

          ---------------------
          ELECTROSTATIC MOMENTS
          ---------------------

 POINT   1           X           Y           Z (BOHR)    CHARGE
                 0.000004   -0.000002   -0.177185        1.00 (A.U.)
         DX          DY          DZ         /D/  (DEBYE)
     0.880189   -0.389017    2.138400    2.344957
 ...... END OF PROPERTY EVALUATION ......
 CPU     0: STEP CPU TIME=     0.01 TOTAL CPU TIME=         12.1 (      0.2 MIN)
 TOTAL WALL CLOCK TIME=         12.1 SECONDS, CPU UTILIZATION IS    99.92%

     -------------------------------------------------
     GMC-PT/GMC-QDPT or general MCSCF input parameters
     -------------------------------------------------
 # of frozen core orbs. =         0 ->         0
 # of doubly occ. orbs. =         1
 # of active      orbs. =         7
 # of virtual     orbs. =        21
 # of active electrons  =         7
 # of states in CI      =         3
 Highest state in CI    =         3
 kstate =  1 1 1
 avecoe =  0.333 0.333 0.333
 State symmetry           = A           
 Assigned symmetry number = 1

 <<<Act. MO sym.: 1111111

 <<<Division of 1-ext.:  0
 <<<Division of 2-ext.:  0

     ------------------------
     Orbital canonicalization
     ------------------------

 MOs are canonicalized for core, virtual, and invariant-active orbital spaces.
 This is a part of the GMC-QDPT calculation.
 SCHWARZ INEQUALITY OVERHEAD:       465 INTEGRALS, T=        0.00
 DIRECT TRANSFORMATION SKIPS AO INTEGRAL STORAGE ON DISK.

 Averaged energy =     -55.703966498

 State #    1  Energy =     -55.841408669  S =  0.500
 State #    2  Energy =     -55.721561555  S =  0.500
 State #    3  Energy =     -55.548929271  S =  0.500

 Orbital energies for filled orbital space
  -15.978568
 Orbital energies for active orbital space
   -1.487261  -0.805007  -0.975175  -0.716455   0.113584
    0.275621   0.380799
 Orbital energies for external orbital space
    0.139660   0.204877   0.248958   0.530781   0.594680
    0.701920   0.829128   1.029460   1.057699   1.181537
    1.319966   1.395047   1.607464   1.751627   1.836413
    2.009772   2.066133   2.256241   2.487579   2.632575
    3.067398

 Zero values mean non-canonical orbitals.
 ... done with orbital canonicalization ...
 CPU     0: STEP CPU TIME=     0.65 TOTAL CPU TIME=         12.8 (      0.2 MIN)
 TOTAL WALL CLOCK TIME=         12.8 SECONDS, CPU UTILIZATION IS    99.84%

     --------------------------------------------
     PARTIAL TWO ELECTRON INTEGRAL TRANSFORMATION
     --------------------------------------------

 NUMBER OF CORE MOLECULAR ORBITALS     =    0
 NUMBER OF OCCUPIED MOLECULAR ORBITALS =    8
 TOTAL NUMBER OF MOLECULAR ORBITALS    =   29
 TOTAL NUMBER OF ATOMIC ORBITALS       =   30
 THRESHOLD FOR KEEPING TRANSFORMED 2E- INTEGRALS = 1.000E-09
 AO INTEGRALS WILL BE CALCULATED IN DIRECT MODE...
 DIRECT TRANSFORMATION SKIPS AO INTEGRAL STORAGE ON DISK.
 SCHWARZ INEQUALITY OVERHEAD:       465 INTEGRALS, T=        0.00

 PLAN A: REQUIREMENTS FOR FULLY IN-MEMORY TRANSFORMATION:
 # OF WORDS AVAILABLE =            100000000
 # OF WORDS NEEDED    =               221798

 PARALLEL ONLY WORKS WITH THE SEGMENTED ALGORITHM.
 ADJUSTING MEMORY TO USE SEGMENTED ALGORITHM.


 PLAN B: REQUIREMENTS FOR THE SEGMENTED TRANSFORMATION:
       MINIMUM=         124148 WORDS FOR 1 MOLECULAR ORBITAL PER PASS
       MAXIMUM=         221798 WORDS FOR ALL MOLECULAR ORBITALS IN 1 PASS
              (          13950 EXTRA WORDS INCLUDES 1 EXTRA ORBITAL/PASS)
 THIS RUN USES=         221798 WORDS,
 DISTRIBUTING   1 PASSES EACH CONTAINING     8 ORBITALS OVER   1 PROCESSORS.

 CHOOSING SEGMENTED PARTIAL TRANSFORMATION...
 DIRECT TRANSFORMATION SKIPS AO INTEGRAL STORAGE ON DISK.
 PASS #   1 TOOK        0.05 SECONDS.
 TOTAL NUMBER OF TRANSFORMED 2E- INTEGRALS KEPT =        29226
 ... END OF INTEGRAL TRANSFORMATION ...
 CPU     0: STEP CPU TIME=     0.05 TOTAL CPU TIME=         12.8 (      0.2 MIN)
 TOTAL WALL CLOCK TIME=         12.8 SECONDS, CPU UTILIZATION IS    99.92%

     --------     ------------------------------------------
     GMC-QDPT     Program written by H.Nakano (Kyushu Univ.)
     --------     ------------------------------------------

 *** Reference space

 Reference type: ORMAS (= Occupation restricted multiple active space)
 # of orbitals          =  7
 # of minimum electrons =  7
 # of maximum electrons =  7
 State symmetry    =    1 (input)
 2*Sz              =    1 (input)
 Spin multiplicity =    2 (input)
 Dimension of reference space =      1225  (from      3432 walks)

 Dimension of reference space =      1225  (from      1225 walks)

 <<<Ionized spaces for Ref-CI:
      0:         1225 /   -1-0:         1960 /  0-1-0:         2891

 ***                    ***
 *** Reference space CI ***
 ***                    ***

 Converged after   31 iterations

 Reference wavefunctions:

 State #    1  Energy =     -55.841408669  S =  0.500

      Det      Coef    Occupancy (Ignoring core)
      ---      ----    --------- --------- -----
        1   -0.969430  11110001110000
       71   -0.105987  11110001011000
      393   -0.059091  10110101010010
      717   -0.051905  11010011100001

 State #    2  Energy =     -55.721561555  S =  0.500

      Det      Coef    Occupancy (Ignoring core)
      ---      ----    --------- --------- -----
        1   -0.110730  11110001110000
       71    0.972977  11110001011000
      822   -0.053337  11010011001001

 State #    3  Energy =     -55.548929271  S =  0.500

      Det      Coef    Occupancy (Ignoring core)
      ---      ----    --------- --------- -----
       36   -0.973764  11110001101000
      249   -0.050348  10111001001100
      463   -0.060989  10110101001010

 Davidson method: CPU/Wall time =           0.43 /           0.43 sec.

 Oscillator strength (invalid if E(1)/=E(GS)):
 -----------------------------------------
   State                        f
 -----------------------------------------
     2     F(REF-CI)=        0.0024032679
     3     F(REF-CI)=        0.0050851675
 -----------------------------------------

 Dipole moment matrix elements, x, y, z, in A.U.

 Dimension of ionized spaces for PT:
 (N-2) space:         1715 /  (N-1) space:         2842 /  N space:         2891
 (N+1) space:         2842 /  (N+2) space:         1715

 <<<Ionized spaces for internal:
         0:         1225 /      -1-0:         1960 /     0-1-0:         2891
  -1-0-1-0:         2842 / 0-1-0-1-0:         3381

 Diagonal elements of averaged one-particle density matrix:
       2       3       4       5       6       7       8
  0.9927  0.9839  0.9860  0.9900  0.0209  0.0147  0.0118
  0.9874  0.6564  0.6613  0.6608  0.0146  0.0111  0.0084

 Orbital energies:
 -------- Doubly-occupied orbitals (highest several orbs.) -------
             1
 -1.597857D+01
 -------- Active orbitals ----------------------------------------
             2            3            4            5            6
 -1.487261D+00-8.050074D-01-9.751753D-01-7.164550D-01 1.135840D-01
             7            8
  2.756215D-01 3.807988D-01
 -------- External orbitals (lowest several orbs.) ---------------
             9           10           11           12           13
  1.396605D-01 2.048766D-01 2.489583D-01 5.307806D-01 5.946800D-01
            14           15           16           17           18
  7.019196D-01 8.291278D-01 1.029460D+00 1.057699D+00 1.181537D+00

 *** Quasi-degeneracy checking

 === Det (|Ci| > 1.0D-01 and dE < 5.0D-03)

 # of small denominators (single excitations)
 State       dEmin  dE < 5.0D-03  dE < 5.0D-04  dE < 5.0D-05  dE < 5.0D-06
 ----- ----------- ------------- ------------- ------------- -------------
     1    5.00D-03             0             0             0             0
     2    5.00D-03             0             0             0             0
     3    5.00D-03             0             0             0             0

 # of small denominators (double excitations)
 State       dEmin  dE < 5.0D-03  dE < 5.0D-04  dE < 5.0D-05  dE < 5.0D-06
 ----- ----------- ------------- ------------- ------------- -------------
     1    5.00D-03             0             0             0             0
     2    5.00D-03             0             0             0             0
     3    5.00D-03             0             0             0             0

 *** Zeroth-Order Setup (Granovsky's zeroth-order vectors)
 Zeroth-order effective Hamiltonian
  (= Sum_i e(i)*<I|a+(i)a(i)|J> ):
                   1            2            3
     1 -7.141969D+00
     2 -1.682281D-02-7.072922D+00
     3  3.500164D-04-7.135990D-03-6.892349D+00

 Zeroth-order vectors:
 State #    1
       MC st            1           2           3
       Coeff    9.743D-01   2.252D-01   4.995D-03
 State #    2
       MC st            2           1           3
       Coeff   -9.735D-01   2.252D-01  -3.970D-02
 State #    3
       MC st            3           2           1
       Coeff    9.992D-01  -3.980D-02   4.079D-03

 *** GMC-QDPT computation

 (Integral reading:  CPU/Wall time =           0.00 /           0.01 sec.)

 One-external:
   0 -ionized terms: CPU/Wall time =           0.03 /           0.02 sec.
 (-1)-ionized terms: CPU/Wall time =           0.08 /           0.09 sec.
 (+1)-ionized terms: CPU/Wall time =           0.03 /           0.03 sec.
 (+1)-ionized terms: CPU/Wall time =           0.00 /           0.00 sec.
 (+2)-ionized terms: CPU/Wall time =           0.01 /           0.00 sec.

 Internal:
 # of macro loops for internal contribution =         1 (input)
 Loop:    1
 Dimension of internal CISD space     =         0  (after screening)
 Space construction: CPU/Wall time =           0.01 /           0.02 sec.
 Internal terms:     CPU/Wall time =           0.00 /           0.00 sec.

 Two-external:
   0 -ionized terms: CPU/Wall time =           0.06 /           0.06 sec.
 (-1)-ionized terms: CPU/Wall time =           1.01 /           1.00 sec.
 (-2)-ionized terms: CPU/Wall time =           0.16 /           0.17 sec.

 Total time:         CPU/Wall time =           1.39 /           1.39 sec.

 ***                  ***
 *** GMC-QDPT Results ***
 ***                  ***

 Diagonal elements of effective Hamiltonian:
 Heff(  1) =   -55.93520678
 Heff(  2) =   -55.83408580
 Heff(  3) =   -55.66031548

 Off-diagonal elements of effective Hamiltonian:
                   1            2
     2 -2.342858D-02
     3  1.000133D-03-6.541668D-03

 ******** GMC-QDPT energies ********
 ----------------------------------------------------------------------------
   State                        1st order                           2nd order
 ----------------------------------------------------------------------------
     1     E(REF-CI)=      -55.8414086694   E(GMC-QDPT2)=      -55.9403718276
     2     E(REF-CI)=      -55.7215615549   E(GMC-QDPT2)=      -55.8291796537
     3     E(REF-CI)=      -55.5489292707   E(GMC-QDPT2)=      -55.6600565739
 ----------------------------------------------------------------------------

 Excitation energies (invalid if E(1)/=E(GS)):
 ----------------------------------------------------------------------------
   State                        1st order                           2nd order
 ----------------------------------------------------------------------------

     TZ Sorted GMC-PT ENERGIES:
         1      -55.9403718276
         2      -55.8291796537
         3      -55.6600565739
     2     E(REF-CI)=        3.2612078 eV   E(GMC-QDPT2)=        3.0256947 eV
     3     E(REF-CI)=        7.9587739 eV   E(GMC-QDPT2)=        7.6277705 eV
 ----------------------------------------------------------------------------

 Main characters of perturbed GMC-QDPT states:

 State #    1  Energy =     -55.940371828  S =  0.500

      Det      Coef    Occupancy (Ignoring core)
      ---      ----    --------- --------- -----
        1   -0.970497  11110001110000
       71   -0.096084  11110001011000
      393   -0.059230  10110101010010
      717   -0.051923  11010011100001

 State #    2  Energy =     -55.829179654  S =  0.500

      Det      Coef    Occupancy (Ignoring core)
      ---      ----    --------- --------- -----
        1   -0.100814  11110001110000
       71    0.974030  11110001011000
      822   -0.053382  11010011001001

 State #    3  Energy =     -55.660056574  S =  0.500

      Det      Coef    Occupancy (Ignoring core)
      ---      ----    --------- --------- -----
       36   -0.973773  11110001101000
      249   -0.050362  10111001001100
      463   -0.060960  10110101001010

 <<<Max |V/de| = 2.756D-02  Thresh = 1.000D+00

 Oscillator strength (invalid if E(1)/=E(GS)):
 ----------------------------------------------------------------------------
   State                        1st order                           2nd order
 ----------------------------------------------------------------------------
     2     F(REF-CI)=        0.0024032679     F(GMC-PT2)=        0.0023173262
     3     F(REF-CI)=        0.0050851675     F(GMC-PT2)=        0.0049924672
 ----------------------------------------------------------------------------

 Dipole moment matrix elements, x, y, z, in A.U.
States    1    1        0.3132405297       -0.1567045129        0.6543416035
States    1    2       -0.0036570184        0.0320792841       -0.1738350996
States    1    3       -0.0385035406        0.1423525925        0.0704875718
States    2    1       -0.0036570184        0.0320792841       -0.1738350996
States    2    2        0.3686142768        0.0386473931        0.3489693064
States    2    3        0.0596842037        0.1389800754        0.0011963177
States    3    1       -0.0385035406        0.1423525925        0.0704875718
States    3    2        0.0596842037        0.1389800754        0.0011963177
States    3    3        0.4780519157       -0.3651982172        0.2849197855

 Oscillator strength (valid only when positive): 
 ----------------------------------------------------------------------------
  States                        1st order                           2nd order
 ----------------------------------------------------------------------------
  1  1     F(REF-CI)=        0.0000000000     F(GMC-PT2)=        0.0000000000
  1  2     F(REF-CI)=       -0.0024032679     F(GMC-PT2)=       -0.0023173262
  1  3     F(REF-CI)=       -0.0050851675     F(GMC-PT2)=       -0.0049924672
  2  1     F(REF-CI)=        0.0024032679     F(GMC-PT2)=        0.0023173262
  2  2     F(REF-CI)=        0.0000000000     F(GMC-PT2)=        0.0000000000
  2  3     F(REF-CI)=       -0.0026814138     F(GMC-PT2)=       -0.0025795889
  3  1     F(REF-CI)=        0.0050851675     F(GMC-PT2)=        0.0049924672
  3  2     F(REF-CI)=        0.0026814138     F(GMC-PT2)=        0.0025795889
  3  3     F(REF-CI)=        0.0000000000     F(GMC-PT2)=        0.0000000000
 CPU     0: STEP CPU TIME=     1.90 TOTAL CPU TIME=         14.7 (      0.2 MIN)
 TOTAL WALL CLOCK TIME=         14.7 SECONDS, CPU UTILIZATION IS    99.93%

     !!! DIABATIZATION FOR REF CI STATES !!!

 *******************************************************
          $DMO GROUP FOUND IN THE INPUT.
        DIABATIZATION OF ADIABATIC STATES BEGINS.
     PROGRAMMED BY TAO ZENG (CARLETON UNIVERSITY).
               Email: toby.zeng@carleton.ca
     See T. Zeng, J. Chem. Phys. 2017, 146, 144103
 *******************************************************

 *************************************************************************
     STEP 1: TRANSFORMATION OF ADIABATIC STATES TO THE DMO REPRESENTATION
         See Atchity and Ruedenberg, J. Chem. Phys. 1999, 111, 2910
 *************************************************************************

Read in Diabatic Molecualr Orbitals:

                      1          2          3          4          5

    1  N  1  S    0.008609   0.000000   0.000000  -0.013219   0.279491
    2  N  1  S    0.442914  -0.000000   0.000000  -0.184329   0.867803
    3  N  1  S    0.276913   0.000000  -0.000000  -0.288315   0.144236
    4  N  1  X   -0.000000   0.493155  -0.024636  -0.000000  -0.000000
    5  N  1  Y    0.000000   0.024636   0.493155  -0.000000   0.000000
    6  N  1  Z    0.090197   0.000000   0.000000   0.593421   0.705309
    7  N  1  X   -0.000000   0.210628  -0.010522   0.000000   0.000000
    8  N  1  Y    0.000000   0.010522   0.210628  -0.000000  -0.000000
    9  N  1  Z   -0.004381   0.000000   0.000000   0.381592  -0.106092
   10  N  1 XX   -0.000457   0.010719  -0.000535  -0.012387   0.006153
   11  N  1 YY   -0.000457  -0.010719   0.000535  -0.012387   0.006153
   12  N  1 ZZ    0.000914  -0.000000   0.000000   0.024773  -0.012306
   13  N  1 XY    0.000000  -0.000618  -0.012377  -0.000000   0.000000
   14  N  1 XZ   -0.000000   0.026529  -0.001325  -0.000000   0.000000
   15  N  1 YZ    0.000000   0.001325   0.026529  -0.000000   0.000000
   16  H  2  S    0.194462  -0.176074   0.343485   0.112865  -0.523343
   17  H  2  S    0.003574  -0.023812   0.046452   0.024014  -0.054445
   18  H  2  X    0.018760   0.009101   0.022834   0.009336  -0.039151
   19  H  2  Y   -0.032493   0.022287  -0.020044  -0.016171   0.067811
   20  H  2  Z   -0.009251   0.008464  -0.016511   0.018769  -0.010566
   21  H  3  S    0.194462  -0.209430  -0.324227   0.112865  -0.523343
   22  H  3  S    0.003574  -0.028322  -0.043847   0.024014  -0.054445
   23  H  3  X    0.018760   0.006781  -0.023627   0.009336  -0.039151
   24  H  3  Y    0.032493  -0.024174  -0.017723   0.016171  -0.067811
   25  H  3  Z   -0.009251   0.010067   0.015585   0.018769  -0.010566
   26  H  4  S    0.194462   0.385503  -0.019258   0.112865  -0.523343
   27  H  4  S    0.003574   0.052134  -0.002604   0.024014  -0.054445
   28  H  4  X   -0.037519  -0.032295   0.001613  -0.018672   0.078302
   29  H  4  Y    0.000000   0.001067   0.021353  -0.000000   0.000000
   30  H  4  Z   -0.009251  -0.018530   0.000926   0.018769  -0.010566

                      6          7

    1  N  1  S    0.000000  -0.000000
    2  N  1  S    0.000000  -0.000000
    3  N  1  S   -0.000000   0.000000
    4  N  1  X   -0.930415  -0.002083
    5  N  1  Y   -0.002083   0.930415
    6  N  1  Z   -0.000000   0.000000
    7  N  1  X   -0.046866  -0.000105
    8  N  1  Y   -0.000105   0.046866
    9  N  1  Z   -0.000000   0.000000
   10  N  1 XX    0.001538   0.000003
   11  N  1 YY   -0.001538  -0.000003
   12  N  1 ZZ   -0.000000   0.000000
   13  N  1 XY   -0.000004   0.001776
   14  N  1 XZ    0.039985   0.000090
   15  N  1 YZ    0.000090  -0.039985
   16  H  2  S   -0.362630  -0.631354
   17  H  2  S   -0.065964  -0.114846
   18  H  2  X    0.002763  -0.037520
   19  H  2  Y    0.037435   0.040736
   20  H  2  Z    0.001882   0.003276
   21  H  3  S   -0.365454   0.629724
   22  H  3  S   -0.066477   0.114549
   23  H  3  X    0.002595   0.037532
   24  H  3  Y   -0.037617   0.040567
   25  H  3  Z    0.001896  -0.003268
   26  H  4  S    0.728084   0.001630
   27  H  4  S    0.132441   0.000297
   28  H  4  X   -0.062317  -0.000140
   29  H  4  Y    0.000055  -0.024345
   30  H  4  Z   -0.003778  -0.000008

NUMBER OF SUB ACTIVE SPACES:   1
ROTATE ACTIVE MOS TO DMOS IN EACH SUB-SPACE

SPACE  1:

OVERLAP BETWEEN ORTHONORMAL AND PRE-ORTHONORMAL REF. DMOS

             1           2           3           4           5

    1    0.9718315   0.0379676  -0.0047387  -0.0094813   0.0048307
    2    0.0379676   0.8886082  -0.0372751   0.0453146  -0.0630164
    3   -0.0047387  -0.0372751   1.0250682  -0.0163322   0.0418610
    4   -0.0094813   0.0453146  -0.0163322   0.9939482  -0.0127242
    5    0.0048307  -0.0630164   0.0418610  -0.0127242   1.1481099
    6    0.0018328  -0.0693179  -0.0475109   0.0461625   0.0339154
    7   -0.0019271   0.0263669  -0.0413217   0.0275936  -0.0551748

             6           7

    1    0.0018328  -0.0019271
    2   -0.0693179   0.0263669
    3   -0.0475109  -0.0413217
    4    0.0461625   0.0275936
    5    0.0339154  -0.0551748
    6    1.0825405   0.0008517
    7    0.0008517   1.0470624
REFERENCE DMOS AFTER ORTHONORMALIZATION:

                      1          2          3          4          5

    1  N  1  S    0.006883   0.016388  -0.009370  -0.011033   0.245319
    2  N  1  S    0.448707   0.039711  -0.029198  -0.174224   0.757824
    3  N  1  S    0.281065   0.011275  -0.006922  -0.287224   0.122560
    4  N  1  X   -0.018018   0.492149  -0.047235   0.016317   0.052943
    5  N  1  Y    0.002937   0.026796   0.518449  -0.018631   0.025446
    6  N  1  Z    0.095501   0.004409  -0.016670   0.607140   0.623642
    7  N  1  X   -0.009381   0.236656  -0.003932  -0.009308   0.013654
    8  N  1  Y    0.000368   0.019515   0.208963   0.000558  -0.004339
    9  N  1  Z    0.000771  -0.026500   0.007602   0.385183  -0.090098
   10  N  1 XX   -0.001157   0.013383  -0.000357  -0.013144   0.005903
   11  N  1 YY   -0.000164  -0.011297  -0.000320  -0.011833   0.004714
   12  N  1 ZZ    0.001321  -0.002086   0.000677   0.024977  -0.010617
   13  N  1 XY   -0.000010  -0.001251  -0.012118  -0.000143   0.000451
   14  N  1 XZ   -0.001402   0.033271   0.001631  -0.003303   0.000547
   15  N  1 YZ   -0.000070   0.003514   0.024687   0.001185  -0.002537
   16  H  2  S    0.214610  -0.245139   0.310108   0.157767  -0.499582
   17  H  2  S    0.005601  -0.032258   0.039579   0.031551  -0.053842
   18  H  2  X    0.019267   0.008786   0.023048   0.009900  -0.036365
   19  H  2  Y   -0.035297   0.032789  -0.018126  -0.020358   0.062393
   20  H  2  Z   -0.009684   0.007864  -0.015148   0.017993  -0.007943
   21  H  3  S    0.217011  -0.339458  -0.302183   0.121750  -0.424673
   22  H  3  S    0.006075  -0.046368  -0.041132   0.025250  -0.041158
   23  H  3  X    0.019402   0.002516  -0.020008   0.007702  -0.031703
   24  H  3  Y    0.035458  -0.038353  -0.016151   0.018079  -0.057724
   25  H  3  Z   -0.009663   0.011152   0.016208   0.018410  -0.009197
   26  H  4  S    0.184189   0.449563   0.049734   0.057516  -0.455843
   27  H  4  S    0.001317   0.064861   0.007775   0.014912  -0.047953
   28  H  4  X   -0.037646  -0.034319  -0.005541  -0.014062   0.068553
   29  H  4  Y   -0.000036   0.002648   0.020149   0.000763  -0.001702
   30  H  4  Z   -0.008379  -0.022617   0.000500   0.019980  -0.010069

                      6          7

    1  N  1  S   -0.006599   0.012453
    2  N  1  S   -0.015845   0.043211
    3  N  1  S    0.008340   0.013981
    4  N  1  X   -0.832347  -0.013243
    5  N  1  Y    0.021821   0.910201
    6  N  1  Z   -0.046052   0.016307
    7  N  1  X   -0.028322  -0.005244
    8  N  1  Y    0.010394   0.052263
    9  N  1  Z   -0.014956  -0.013918
   10  N  1 XX    0.002639   0.000305
   11  N  1 YY   -0.001801   0.000830
   12  N  1 ZZ   -0.000838  -0.001135
   13  N  1 XY   -0.000625   0.001277
   14  N  1 XZ    0.039265  -0.000607
   15  N  1 YZ    0.001450  -0.037469
   16  H  2  S   -0.328023  -0.614387
   17  H  2  S   -0.060843  -0.110918
   18  H  2  X    0.004841  -0.037290
   19  H  2  Y    0.034825   0.041095
   20  H  2  Z    0.001074   0.001422
   21  H  3  S   -0.365293   0.573152
   22  H  3  S   -0.066064   0.106175
   23  H  3  X    0.002286   0.033152
   24  H  3  Y   -0.036964   0.035650
   25  H  3  Z    0.002700  -0.003752
   26  H  4  S    0.715082  -0.033580
   27  H  4  S    0.127705  -0.004064
   28  H  4  X   -0.061494   0.004476
   29  H  4  Y    0.001143  -0.022633
   30  H  4  Z   -0.005438  -0.000487

 -------------------------------------------
       MAXIMIZING MORMO OVERLAP TERM        
 -------------------------------------------
   SWEEP    VALUE       PROGRESS
     0     5.02129
     1     6.94148     1.92018134
     2     6.94611     0.00463819
     3     6.94611     0.00000035
     4     6.94611     0.00000000
     5     6.94611     0.00000000
 THE ROTATION IS DONE
ACTIVE ORBITALS AFTER MORMO:

                      1          2          3          4          5

    1  N  1  S    0.004854   0.029367  -0.008179  -0.012348   0.191328
    2  N  1  S    0.421111   0.073455  -0.012886  -0.190299   0.692519
    3  N  1  S    0.337282  -0.070450  -0.013868  -0.268742   0.200962
    4  N  1  X    0.001267   0.433172  -0.054207   0.044090   0.024100
    5  N  1  Y    0.008539   0.007992   0.504520  -0.015058   0.030092
    6  N  1  Z    0.081509   0.035173  -0.024063   0.603975   0.613696
    7  N  1  X   -0.029061   0.313192   0.020259  -0.061634   0.054356
    8  N  1  Y   -0.006328   0.052821   0.200279   0.016407  -0.020443
    9  N  1  Z    0.029534  -0.076145   0.023607   0.386277  -0.073323
   10  N  1 XX   -0.006112   0.029047   0.000540  -0.015872   0.034974
   11  N  1 YY    0.006241  -0.029461  -0.001110  -0.005852  -0.041733
   12  N  1 ZZ   -0.000130   0.000414   0.000570   0.021724   0.006759
   13  N  1 XY   -0.003243   0.002104  -0.001785   0.002587   0.018383
   14  N  1 XZ    0.001237   0.020518   0.003491   0.002573  -0.044114
   15  N  1 YZ   -0.002883   0.003436   0.016007   0.003298   0.011444
   16  H  2  S    0.188683  -0.200602   0.322745   0.124554  -0.479565
   17  H  2  S    0.005448  -0.050108   0.036292   0.037834  -0.069865
   18  H  2  X    0.006995   0.020225   0.011483   0.000692  -0.010106
   19  H  2  Y   -0.033603   0.019691  -0.037768  -0.012733   0.055103
   20  H  2  Z   -0.002610   0.001509  -0.008081   0.021381  -0.014916
   21  H  3  S    0.187889  -0.236497  -0.296132   0.105462  -0.408142
   22  H  3  S    0.011623  -0.111853  -0.065981   0.036355  -0.060597
   23  H  3  X   -0.001247   0.023838   0.000245  -0.002449  -0.011341
   24  H  3  Y    0.030430  -0.019623  -0.033791   0.013271  -0.045988
   25  H  3  Z   -0.004753  -0.000331   0.014983   0.018372  -0.022779
   26  H  4  S    0.181969   0.404991   0.015973   0.081712  -0.478473
   27  H  4  S   -0.002552   0.133568   0.035464   0.018271  -0.067991
   28  H  4  X   -0.031437  -0.018644   0.002038  -0.020421   0.051803
   29  H  4  Y    0.006017   0.011033   0.019416   0.001463   0.010560
   30  H  4  Z   -0.014612  -0.032034   0.003854   0.016843  -0.007424

                      6          7

    1  N  1  S    0.039081   0.044494
    2  N  1  S    0.097366   0.093191
    3  N  1  S   -0.139309  -0.061370
    4  N  1  X   -0.830184   0.002732
    5  N  1  Y   -0.003700   0.902521
    6  N  1  Z   -0.083387   0.022579
    7  N  1  X   -0.035291  -0.034701
    8  N  1  Y    0.050696   0.075749
    9  N  1  Z    0.014034  -0.037353
   10  N  1 XX    0.048102  -0.008990
   11  N  1 YY   -0.056537  -0.002754
   12  N  1 ZZ    0.008435   0.011744
   13  N  1 XY   -0.008813  -0.045981
   14  N  1 XZ    0.017947  -0.002438
   15  N  1 YZ   -0.009302  -0.052467
   16  H  2  S   -0.297213  -0.589058
   17  H  2  S   -0.072250  -0.129599
   18  H  2  X    0.006166  -0.018886
   19  H  2  Y    0.024291   0.056668
   20  H  2  Z    0.005328  -0.025496
   21  H  3  S   -0.280220   0.557239
   22  H  3  S   -0.120812   0.162532
   23  H  3  X    0.032266   0.013352
   24  H  3  Y   -0.024721   0.050321
   25  H  3  Z    0.017832   0.016891
   26  H  4  S    0.673909   0.014026
   27  H  4  S    0.210352  -0.038386
   28  H  4  X   -0.033012  -0.002938
   29  H  4  Y   -0.001592  -0.051626
   30  H  4  Z   -0.015329   0.008645

Actually Used Diabatic Molecualr Orbitals:

                      1          2          3          4          5

    1  N  1  S    0.004854   0.029367  -0.008179  -0.012348   0.191328
    2  N  1  S    0.421111   0.073455  -0.012886  -0.190299   0.692519
    3  N  1  S    0.337282  -0.070450  -0.013868  -0.268742   0.200962
    4  N  1  X    0.001267   0.433172  -0.054207   0.044090   0.024100
    5  N  1  Y    0.008539   0.007992   0.504520  -0.015058   0.030092
    6  N  1  Z    0.081509   0.035173  -0.024063   0.603975   0.613696
    7  N  1  X   -0.029061   0.313192   0.020259  -0.061634   0.054356
    8  N  1  Y   -0.006328   0.052821   0.200279   0.016407  -0.020443
    9  N  1  Z    0.029534  -0.076145   0.023607   0.386277  -0.073323
   10  N  1 XX   -0.006112   0.029047   0.000540  -0.015872   0.034974
   11  N  1 YY    0.006241  -0.029461  -0.001110  -0.005852  -0.041733
   12  N  1 ZZ   -0.000130   0.000414   0.000570   0.021724   0.006759
   13  N  1 XY   -0.003243   0.002104  -0.001785   0.002587   0.018383
[...]
 IN DIRECT MAX. DIABATIZATION FOR GMC-QDPT

 DIRECT MAXIMIZATION (DM) WITHOUT TRUNCATING ADIABATS
 EXPANSIONS INTO THE REFERENCE CONFIGURATION SPACE
 --------------------------------------------------

 -------------------------------------------
 - DM DIABT PT HAMILTONIAN MATRIX ELEMENTS -
 -------------------------------------------
                                            
 --- DIABATIC ENERGIES (DIAGONAL ELEMENT) ---       HARTREE            EV
 STATE #  1'S GMC-PT-LEVEL DIABATIC ENERGY=     -55.917572810       0.000000000
 STATE #  2'S GMC-PT-LEVEL DIABATIC ENERGY=     -55.830889633       2.358769375
 STATE #  3'S GMC-PT-LEVEL DIABATIC ENERGY=     -55.681145612       6.433511743

 --- DIABATIC COUPLINGS (OFF DIAGONAL ELEMENTS)---  HATREE            EV
 STATE #  1 &  2'S GMC-PT-LEVEL COUPLING  =      -0.049959211      -1.359459385
 STATE #  1 &  3'S GMC-PT-LEVEL COUPLING  =       0.023686625       0.644545896
 STATE #  2 &  3'S GMC-PT-LEVEL COUPLING  =      -0.050606354      -1.377069021

 ---------------------------------------
     - ROTATION TO DIABATIC STATES -    
 ---------------------------------------
 ROWS=ADIABATIC, COLUMNS=DIABATIC STATES

             1           2           3

    1    0.9101536   0.4142645  -0.0022916
    2   -0.3868425   0.8518598   0.3531114
    3    0.1482337  -0.3204992   0.9355785

 ---------------------------------------
          - DIABATIC STATES -           
 ---------------------------------------

 State #    1  Energy =     -55.917572810

      Det      Coef        Coefp    Occupancy (Ignoring core)
      ---      ----        ----    --------- --------- -----
        1    0.920748   -0.920748  222+000
        8   -0.171350    0.171350  2-2+0+0
      386    0.139590   -0.139590  2+2+0-0
        4   -0.126785    0.126785  2-2++00
      176    0.121695   -0.121695  2+2+-00
        6    0.094497   -0.094497  22200+0
      393   -0.065675   -0.065675  202+020
      717   -0.064312   -0.064312  220+002
        7   -0.060715   -0.060715  22-+0+0
      351    0.058524    0.058524  22++0-0
        3    0.053211    0.053211  22-++00
      141   -0.052004   -0.052004  22++-00
      708    0.046519   -0.046519  2-++0+-
      402    0.041692   -0.041692  2+-+0-+
      215   -0.037991   -0.037991  022+200
      705   -0.036366   -0.036366  -2+++0-
       18    0.036121   -0.036121  2-2+00+
      227   -0.035684   -0.035684  +2-+-0+
        5    0.035081    0.035081  -22++00
      391    0.032018   -0.032018  2+20020
      143   -0.031812   -0.031812  220+200
       76    0.031760    0.031760  2+2-0+0
      736   -0.031145    0.031145  2+2+00-
      218    0.031059   -0.031059  +-2+-+0
      390    0.031002   -0.031002  -+2++-0
      212    0.030740    0.030740  +220200
       16    0.030142   -0.030142  222000+
      113   -0.029402    0.029402  +-220+0
       11    0.029020   -0.029020  2-20++0
     1051   -0.028296   -0.028296  2+++0--
       51   -0.027267    0.027267  22+-00+
      387   -0.026745    0.026745  2+20+-0
       13   -0.026133   -0.026133  2--+++0
      424   -0.026098   -0.026098  +-2++-0
      183   -0.024949    0.024949  202+-+0
      147    0.024593   -0.024593  220+-+0
       29   -0.024547   -0.024547  2--+0++
      389    0.024213    0.024213  202++-0
      702    0.023745    0.023745  22+0+0-
      561   -0.023460   -0.023460  2+++--0
      353   -0.023454   -0.023454  220++-0
      773    0.023380   -0.023380  +2-++0-
      159    0.023091   -0.023091  -2++-0+
      184   -0.022948   -0.022948  -+2+-+0
      122    0.021877    0.021877  +2-200+
      701    0.021084    0.021084  22++00-

 State #    2  Energy =     -55.830889633

      Det      Coef        Coefp    Occupancy (Ignoring core)
      ---      ----        ----    --------- --------- -----
       71   -0.919111    0.919111  2+22000
       74    0.164249   -0.164249  2022+00
       78    0.136602   -0.136602  20220+0
       76    0.132353    0.132353  2+2-0+0
      386   -0.116109    0.116109  2+2+0-0
      106    0.086899    0.086899  +222000
      456    0.070303    0.070303  2++20-0
       77   -0.068278    0.068278  2+-20+0
      822    0.061701   -0.061701  2+02002
       73    0.056150   -0.056150  2+-2+00
      246   -0.054215   -0.054215  2++2-00
      813    0.051101   -0.051101  20+20+-
      113    0.048672   -0.048672  +-220+0
       81    0.046870    0.046870  202-++0
       36    0.042446    0.042446  22+2000
      393   -0.039309   -0.039309  202+020
      323   -0.038641    0.038641  +022-+0
      736   -0.038411    0.038411  2+2+00-
      806    0.037921    0.037921  2++200-
       86    0.037352    0.037352  2+2-00+
       99   -0.037293    0.037293  20-20++
       75   -0.037229   -0.037229  -+22+00
      320    0.037202    0.037202  0+22200
      810   -0.037075   -0.037075  -++2+0-
      183   -0.035138    0.035138  202+-+0
       88   -0.035021    0.035021  202200+
      180   -0.034116    0.034116  -+2+200
      332   -0.033649    0.033649  ++-2-0+
      177    0.033044   -0.033044  2+20200
      317    0.032933   -0.032933  ++2-200
      248    0.031370   -0.031370  2+02200
       79   -0.030258   -0.030258  -+220+0
       83   -0.029781    0.029781  20-2++0
      109    0.029391   -0.029391  +-22+00
       87   -0.028811    0.028811  2+-200+
       38   -0.028210    0.028210  2202+00
       42   -0.028107    0.028107  22020+0
      529    0.026257    0.026257  +022+-0
      252   -0.025702   -0.025702  2+02-+0
      807   -0.024350    0.024350  2++-+0-
      192   -0.023247    0.023247  2+-+-0+
      458    0.022504   -0.022504  2+02+-0
      878    0.021851    0.021851  ++-2+0-
      534    0.021829    0.021829  0+22020
      264    0.021725   -0.021725  -++2-0+
        6    0.020556   -0.020556  22200+0

 State #    3  Energy =     -55.681145612

      Det      Coef        Coefp    Occupancy (Ignoring core)
      ---      ----        ----    --------- --------- -----
       36   -0.921690   -0.921690  22+2000
      246   -0.140388   -0.140388  2++2-00
      456   -0.138101   -0.138101  2++20-0
       43    0.121580    0.121580  2-+20+0
       39    0.104487    0.104487  2-+2+00
      351   -0.101813   -0.101813  22++0-0
       41    0.086145   -0.086145  22+-0+0
      463    0.073461   -0.073461  20+2020
       42    0.062369   -0.062369  22020+0
       52    0.058864   -0.058864  220200+
      472   -0.051320   -0.051320  2+020-+
       38   -0.047664    0.047664  2202+00
       71   -0.046615    0.046615  2+22000
      281    0.043892   -0.043892  +2+2-00
      112   -0.042480   -0.042480  +2-20+0
      121   -0.040459    0.040459  +22-00+
      285    0.039586   -0.039586  02+2200
       51    0.038976   -0.038976  22+-00+
       64    0.037203   -0.037203  2-020++
      461    0.036787   -0.036787  2++-020
      358   -0.036641    0.036641  2-++020
      297    0.036183   -0.036183  +202-0+
       73    0.035900   -0.035900  2+-2+00
       46    0.035692   -0.035692  2-+-++0
      460   -0.034913   -0.034913  -++2+-0
      701   -0.034646   -0.034646  22++00-
      806    0.034459    0.034459  2++200-
      282    0.034415    0.034415  +2+-200
      561    0.034413    0.034413  2+++--0
      457   -0.034047    0.034047  2++-+-0
      142    0.033419    0.033419  22+0200
      145   -0.032995   -0.032995  -2++200
      148   -0.032360   -0.032360  2-++-+0
       37   -0.031378    0.031378  22+-+00
      491    0.031351   -0.031351  +2+20-0
      288   -0.031065   -0.031065  +-+2-+0
      108   -0.030872   -0.030872  +2-2+00
       53   -0.030865   -0.030865  2-+200+
       16   -0.029747    0.029747  222000+
      254    0.027264   -0.027264  -++2-+0
        3    0.024651    0.024651  22-++00
      157    0.024127   -0.024127  220+-0+
      494    0.023327   -0.023327  +-+2+-0
      771    0.022217    0.022217  +22+00-
      253    0.022091    0.022091  20+2-+0
      716    0.021485    0.021485  22+0002
      843   -0.020771   -0.020771  +202+0-
       48    0.020577   -0.020577  2-02++0

 ---------------------------------------
      - DIABATIC STATES IN CMO -        
 ---------------------------------------

 State #    1  Energy =     -55.917572810

      Det      Coef        Coefp    Occupancy (Ignoring core)
      ---      ----        ----    --------- --------- -----
        1    0.845496   -0.845496  222+000
       71    0.460521   -0.460521  2+22000
       36   -0.148776   -0.148776  22+2000
      179   -0.054518   -0.054518  202+200
      393   -0.048804   -0.048804  202+020
      717   -0.047507   -0.047507  220+002
      177   -0.046711    0.046711  2+20200
      106   -0.035423   -0.035423  +222000
      143   -0.035218   -0.035218  220+200
      183    0.033542   -0.033542  202+-+0
      180    0.032775   -0.032775  -+2+200
       17    0.031851    0.031851  22-+00+
        8   -0.031801    0.031801  2-2+0+0
        2    0.031751   -0.031751  2220+00
      192    0.028123   -0.028123  2+-+-0+
      822   -0.028029    0.028029  2+02002
      212    0.026266    0.026266  +220200
      392   -0.025751   -0.025751  2+-+020
        7    0.025722    0.025722  22-+0+0
      358    0.025594   -0.025594  2-++020
      182    0.025546   -0.025546  2+-+-+0
      429   -0.024535   -0.024535  022+020
      389   -0.023805   -0.023805  202++-0
      357   -0.023653   -0.023653  220+020
       74   -0.023302    0.023302  2022+00
      702    0.023034    0.023034  22+0+0-
      248   -0.022865    0.022865  2+02200
      113   -0.022715    0.022715  +-220+0
      215   -0.022214   -0.022214  022+200
       76    0.021888    0.021888  2+2-0+0
      109   -0.021819    0.021819  +-22+00
      227   -0.021716   -0.021716  +2-+-0+
      112    0.021638    0.021638  +2-20+0
      394   -0.021553    0.021553  -+2+020
      705   -0.021491   -0.021491  -2+++0-
       18    0.020369   -0.020369  2-2+00+
      156   -0.020316    0.020316  22+0-0+
      428    0.020196    0.020196  +-2+020

 State #    2  Energy =     -55.830889633

      Det      Coef        Coefp    Occupancy (Ignoring core)
      ---      ----        ----    --------- --------- -----
       71   -0.781876    0.781876  2+22000
        1    0.485341   -0.485341  222+000
       36    0.334774    0.334774  22+2000
      822    0.048764   -0.048764  2+02002
      248    0.043589   -0.043589  2+02200
      109    0.040776   -0.040776  +-22+00
        2    0.036851   -0.036851  2220+00
      393   -0.035780   -0.035780  202+020
      113    0.029153   -0.029153  +-220+0
      249   -0.029081    0.029081  20+2200
      143   -0.027174   -0.027174  220+200
      807   -0.026552    0.026552  2++-+0-
       38   -0.025877    0.025877  2202+00
      534    0.025374    0.025374  0+22020
       74    0.023657   -0.023657  2022+00
      317    0.023295   -0.023295  ++2-200
      111    0.022546   -0.022546  +22-0+0
      823   -0.022124    0.022124  20+2002
       53   -0.021651   -0.021651  2-+200+
       75   -0.021245   -0.021245  -+22+00
      177    0.021098   -0.021098  2+20200
      717   -0.021032   -0.021032  220+002
       87    0.020917   -0.020917  2+-200+
      320    0.020653    0.020653  0+22200
      810   -0.020648   -0.020648  -++2+0-
       99   -0.020644    0.020644  20-20++

 State #    3  Energy =     -55.681145612

      Det      Coef        Coefp    Occupancy (Ignoring core)
      ---      ----        ----    --------- --------- -----
       36   -0.902570   -0.902570  22+2000
       71   -0.367681    0.367681  2+22000
      463    0.067806   -0.067806  20+2020
      108   -0.046379   -0.046379  +2-2+00
      142    0.043906    0.043906  22+0200
      249    0.041583   -0.041583  20+2200
        1    0.040908   -0.040908  222+000
        3    0.040751    0.040751  22-++00
      462    0.039626   -0.039626  2+02020
      459    0.038461   -0.038461  20+2+-0
       37   -0.035044    0.035044  22+-+00
      121   -0.033902    0.033902  +22-00+
      145   -0.028688   -0.028688  -2++200
       72   -0.028502   -0.028502  2+2-+00
      253   -0.028066   -0.028066  20+2-+0
      282    0.027837    0.027837  +2+-200
      464    0.027283    0.027283  -++2020
      144    0.026826   -0.026826  2-++200
      113   -0.026686    0.026686  +-220+0
      499    0.026664   -0.026664  02+2020
        4    0.026523   -0.026523  2-2++00
      285    0.026247   -0.026247  02+2200
       40    0.026149   -0.026149  -2+2+00
       52    0.024936   -0.024936  220200+
      157    0.024351   -0.024351  220+-0+
       88   -0.023507    0.023507  202200+
      247   -0.022543    0.022543  2++-200
      284    0.022462   -0.022462  +-+2200
      716    0.021685    0.021685  22+0002
      457   -0.021474    0.021474  2++-+-0
      498   -0.021454    0.021454  +-+2020
       64    0.021362   -0.021362  2-020++
      472   -0.020941   -0.020941  2+020-+
      771    0.020614    0.020614  +22+00-
      281    0.020229   -0.020229  +2+2-00

 ---------------------------------------
    -DIABATIC STATES IN PROTOTYPES-     
 ---------------------------------------

     STATE:    1
 Group Ref#    Coefficients
     1    1    0.941475
     2    2    0.006707
     3    3    0.005734

WEIGHT OF LISTED PROTOTYPES:   88.65%

     STATE:    2
 Group Ref#    Coefficients
     1    1    0.006724
     2    2    0.939100
     3    3    0.003275

WEIGHT OF LISTED PROTOTYPES:   88.20%

     STATE:    3
 Group Ref#    Coefficients
     1    1    0.005790
     2    2    0.003298
     3    3    0.932401

WEIGHT OF LISTED PROTOTYPES:   86.94%

     DIRECT MAX. DIABATIZATION FINISHED    
 CPU     0: STEP CPU TIME=     0.25 TOTAL CPU TIME=         15.0 (      0.2 MIN)
 TOTAL WALL CLOCK TIME=         15.0 SECONDS, CPU UTILIZATION IS    99.93%

DIABATS FOR SPIN-ORBIT CALCULATION ARE READY

TRANSITION DIPOLES BETWEEN ADIABATS (in A.U.):

STATE PAIR      X         Y         Z
    1    1  0.313241 -0.156705  0.654342
    2    1 -0.003657  0.032079 -0.173835
    2    2  0.368614  0.038647  0.348969
    3    1 -0.038504  0.142353  0.070488
    3    2  0.059684  0.138980  0.001196
    3    3  0.478052 -0.365198  0.284920


TRANSITION DIPOLES BETWEEN DIABATS (in A.U.):

STATE PAIR      X         Y         Z
    1    1  0.310487 -0.132168  0.741818
    2    1 -0.004524 -0.032733 -0.004676
    2    2  0.345406 -0.127402  0.252735
    3    1 -0.037130  0.032881 -0.005928
    3    2 -0.007427  0.276222  0.022016
    3    3  0.504014 -0.223686  0.293677

TRANSITION DIPOLES BETWEEN DIRECT MAX. DIABATS (in A.U.):

STATE PAIR      X         Y         Z
    1    1  0.310489 -0.132169  0.741818
    2    1 -0.004523 -0.032742 -0.004672
    2    2  0.345406 -0.127409  0.252735
    3    1 -0.037136  0.032881 -0.005915
    3    2 -0.007429  0.276222  0.022015
    3    3  0.504012 -0.223677  0.293677
 No $TRANST Group Found.
 Quit without doing spin-orbit coupling
 ..... DONE WITH MP2 ENERGY .....
 CPU     0: STEP CPU TIME=     0.00 TOTAL CPU TIME=         15.0 (      0.2 MIN)
 TOTAL WALL CLOCK TIME=         15.0 SECONDS, CPU UTILIZATION IS    99.93%
            100000000  WORDS OF DYNAMIC MEMORY USED
 EXECUTION OF GAMESS TERMINATED NORMALLY Wed Nov 16 19:03:56 2022
 DDI: 715512 bytes (0.7 MB / 0 MWords) used by master data server.

 ----------------------------------------
 CPU timing information for all processes
 ========================================
 0: 14.588 + 0.391 = 14.980
 ----------------------------------------
Note: The following floating-point exceptions are signalling: IEEE_DENORMAL
 ddikick.x: exited gracefully.
unset echo
----- accounting info -----
Files used on the master node io002 were:
-rw-r--r-- 1 bsonghao nooijen   20727 Nov 16 19:03 /scratch/bsonghao/nh3_diabatization_2d_at_mode_7_8_dist-0.3_0.7.F05
-rw-r--r-- 1 bsonghao nooijen  363520 Nov 16 19:03 /scratch/bsonghao/nh3_diabatization_2d_at_mode_7_8_dist-0.3_0.7.F09
-rw-r--r-- 1 bsonghao nooijen 1995920 Nov 16 19:03 /scratch/bsonghao/nh3_diabatization_2d_at_mode_7_8_dist-0.3_0.7.F10
-rw-r--r-- 1 bsonghao nooijen  131264 Nov 16 19:03 /scratch/bsonghao/nh3_diabatization_2d_at_mode_7_8_dist-0.3_0.7.F13
-rw-r--r-- 1 bsonghao nooijen  180312 Nov 16 19:03 /scratch/bsonghao/nh3_diabatization_2d_at_mode_7_8_dist-0.3_0.7.F15
-rw-r--r-- 1 bsonghao nooijen       0 Nov 16 19:03 /scratch/bsonghao/nh3_diabatization_2d_at_mode_7_8_dist-0.3_0.7.F16
-rw-r--r-- 1 bsonghao nooijen    9808 Nov 16 19:03 /scratch/bsonghao/nh3_diabatization_2d_at_mode_7_8_dist-0.3_0.7.F70
-rw-r--r-- 1 bsonghao nooijen    9808 Nov 16 19:03 /scratch/bsonghao/nh3_diabatization_2d_at_mode_7_8_dist-0.3_0.7.F71
-rw-r--r-- 1 bsonghao nooijen   19608 Nov 16 19:03 /scratch/bsonghao/nh3_diabatization_2d_at_mode_7_8_dist-0.3_0.7.F72
-rw-r--r-- 1 bsonghao nooijen   19608 Nov 16 19:03 /scratch/bsonghao/nh3_diabatization_2d_at_mode_7_8_dist-0.3_0.7.F73
-rw-r--r-- 1 bsonghao nooijen 1920824 Nov 16 19:03 /scratch/bsonghao/nh3_diabatization_2d_at_mode_7_8_dist-0.3_0.7.F74
-rw-r--r-- 1 bsonghao nooijen       0 Nov 16 19:03 /scratch/bsonghao/nh3_diabatization_2d_at_mode_7_8_dist-0.3_0.7.F75
-rw-r--r-- 1 bsonghao nooijen   58848 Nov 16 19:03 /scratch/bsonghao/nh3_diabatization_2d_at_mode_7_8_dist-0.3_0.7.F76
-rw-r--r-- 1 bsonghao nooijen       0 Nov 16 19:03 /scratch/bsonghao/nh3_diabatization_2d_at_mode_7_8_dist-0.3_0.7.F77
-rw-r--r-- 1 bsonghao nooijen    1864 Nov 16 19:03 /scratch/bsonghao/nh3_diabatization_2d_at_mode_7_8_dist-0.3_0.7.F78
-rw-r--r-- 1 bsonghao nooijen   39208 Nov 16 19:03 /scratch/bsonghao/nh3_diabatization_2d_at_mode_7_8_dist-0.3_0.7.F79
-rw-r--r-- 1 bsonghao nooijen     104 Nov 16 19:03 /scratch/bsonghao/nh3_diabatization_2d_at_mode_7_8_dist-0.3_0.7.F80
-rw-r--r-- 1 bsonghao nooijen   13472 Nov 16 19:03 /scratch/bsonghao/nh3_diabatization_2d_at_mode_7_8_dist-0.3_0.7.F81
-rw-r--r-- 1 bsonghao nooijen      16 Nov 16 19:03 /scratch/bsonghao/nh3_diabatization_2d_at_mode_7_8_dist-0.3_0.7.F82
-rw-r--r-- 1 bsonghao nooijen   19216 Nov 16 19:03 /scratch/bsonghao/nh3_diabatization_2d_at_mode_7_8_dist-0.3_0.7.F83
-rw-r--r-- 1 bsonghao nooijen   29712 Nov 16 19:03 /scratch/bsonghao/nh3_diabatization_2d_at_mode_7_8_dist-0.3_0.7.F84
-rw-r--r-- 1 bsonghao nooijen  401576 Nov 16 19:03 /scratch/bsonghao/nh3_diabatization_2d_at_mode_7_8_dist-0.3_0.7.F85
-rw-r--r-- 1 bsonghao nooijen  903672 Nov 16 19:03 /scratch/bsonghao/nh3_diabatization_2d_at_mode_7_8_dist-0.3_0.7.F86
-rw-r--r-- 1 bsonghao nooijen     656 Nov 16 19:03 /scratch/bsonghao/nh3_diabatization_2d_at_mode_7_8_dist-0.3_0.7.F87
-rw-r--r-- 1 bsonghao nooijen   41872 Nov 16 19:03 /scratch/bsonghao/nh3_diabatization_2d_at_mode_7_8_dist-0.3_0.7.F88
-rw-r--r-- 1 bsonghao nooijen     240 Nov 16 19:03 /scratch/bsonghao/nh3_diabatization_2d_at_mode_7_8_dist-0.3_0.7.F89
-rw-r--r-- 1 bsonghao nooijen       0 Nov 16 19:03 /scratch/bsonghao/nh3_diabatization_2d_at_mode_7_8_dist-0.3_0.7.F90
-rw-r--r-- 1 bsonghao nooijen   13760 Nov 16 19:03 /scratch/bsonghao/nh3_diabatization_2d_at_mode_7_8_dist-0.3_0.7.F91
-rw-r--r-- 1 bsonghao nooijen   22776 Nov 16 19:03 /scratch/bsonghao/nh3_diabatization_2d_at_mode_7_8_dist-0.3_0.7.F92
-rw-r--r-- 1 bsonghao nooijen   23168 Nov 16 19:03 /scratch/bsonghao/nh3_diabatization_2d_at_mode_7_8_dist-0.3_0.7.F93
-rw-r--r-- 1 bsonghao nooijen   22776 Nov 16 19:03 /scratch/bsonghao/nh3_diabatization_2d_at_mode_7_8_dist-0.3_0.7.F94
-rw-r--r-- 1 bsonghao nooijen   13760 Nov 16 19:03 /scratch/bsonghao/nh3_diabatization_2d_at_mode_7_8_dist-0.3_0.7.F95
-rw-r--r-- 1 bsonghao nooijen   29440 Nov 16 19:03 /scratch/bsonghao/nh3_diabatization_2d_at_mode_7_8_dist-0.3_0.7.F96
-rw-r--r-- 1 bsonghao nooijen    1184 Nov 16 19:03 /scratch/bsonghao/nh3_diabatization_2d_at_mode_7_8_dist-0.3_0.7.F97
-rw-r--r-- 1 bsonghao nooijen    9808 Nov 16 19:03 /scratch/bsonghao/nh3_diabatization_2d_at_mode_7_8_dist-0.3_0.7.F98
-rw-r--r-- 1 bsonghao nooijen   30264 Nov 16 19:03 /scratch/bsonghao/nh3_diabatization_2d_at_mode_7_8_dist-0.3_0.7.F99
ls: No match.
ls: No match.
ls: No match.
Wed 16 Nov 2022 07:03:59 PM EST
0.303u 0.027s 0:18.35 1.7%	0+0k 48+224io 0pf+0w
