----- GAMESS execution script 'rungms' -----
This job is running on host io002
under operating system Linux at Wed 16 Nov 2022 06:58:24 PM EST
Available scratch disk space (Kbyte units) at beginning of the job is
Filesystem       1K-blocks       Used   Available Use% Mounted on
/dev/sdc1      15378471580 3278917120 11318349060  23% /scratch
GAMESS temporary binary files will be written to /scratch/bsonghao
GAMESS supplementary output files will be written to /home/bsonghao/.gamess_ascii_files/267638
Copying input file nh3_diabatization_2d_at_mode_7_8_dist-0.3_-0.5.inp to your run's scratch directory...
cp nh3_diabatization_2d_at_mode_7_8_dist-0.3_-0.5.inp /scratch/bsonghao/nh3_diabatization_2d_at_mode_7_8_dist-0.3_-0.5.F05
unset echo
/home/bjb2chen/gamess/ddikick.x /home/bjb2chen/gamess/gamess.00.x nh3_diabatization_2d_at_mode_7_8_dist-0.3_-0.5 -ddi 1 1 io002 -scr /scratch/bsonghao

 Distributed Data Interface kickoff program.
 Initiating 1 compute processes on 1 nodes to run the following command:
 /home/bjb2chen/gamess/gamess.00.x nh3_diabatization_2d_at_mode_7_8_dist-0.3_-0.5 

          ******************************************************
          *         GAMESS VERSION = 02 AUG 2018 (R2)         *
          *             FROM IOWA STATE UNIVERSITY             *
          * M.W.SCHMIDT, K.K.BALDRIDGE, J.A.BOATZ, S.T.ELBERT, *
          *   M.S.GORDON, J.H.JENSEN, S.KOSEKI, N.MATSUNAGA,   *
          *          K.A.NGUYEN, S.J.SU, T.L.WINDUS,           *
          *       TOGETHER WITH M.DUPUIS, J.A.MONTGOMERY       *
          *         J.COMPUT.CHEM.  14, 1347-1363(1993)        *
          **************** 64 BIT LINUX VERSION ****************

  SINCE 1993, STUDENTS AND POSTDOCS WORKING AT IOWA STATE UNIVERSITY
  AND ALSO IN THEIR VARIOUS JOBS AFTER LEAVING ISU HAVE MADE IMPORTANT
  CONTRIBUTIONS TO THE CODE:
     IVANA ADAMOVIC, CHRISTINE AIKENS, YURI ALEXEEV, POOJA ARORA,
     ANDREY ASADCHEV, ROB BELL, PRADIPTA BANDYOPADHYAY, JONATHAN BENTZ,
     BRETT BODE, KURT BRORSEN, CALEB CARLIN, GALINA CHABAN, WEI CHEN,
     CHEOL HO CHOI, PAUL DAY, ALBERT DEFUSCO, NUWAN DESILVA, TIM DUDLEY,
     DMITRI FEDOROV, ALEX FINDLATER, GRAHAM FLETCHER, MARK FREITAG,
     KURT GLAESEMANN, ANASTASIA GUININA,
     DAN KEMP, GRANT MERRILL, NORIYUKI MINEZAWA, JONATHAN MULLIN,
     TAKESHI NAGATA, SEAN NEDD, HEATHER NETZLOFF, BOSILJKA NJEGIC, RYAN OLSON,
     MIKE PAK, BUU PHAM,
     SPENCER PRUITT, LUKE ROSKOP, JIM SHOEMAKER, LYUDMILA SLIPCHENKO,
     TONY SMITH, SAROM SOK LEANG, JIE SONG, TETSUYA TAKETSUGU, SIMON WEBB,
     PENG XU, SOOHAENG YOO, FEDERICO ZAHARIEV

  ADDITIONAL CODE HAS BEEN PROVIDED BY COLLABORATORS IN OTHER GROUPS:
     IOWA STATE UNIVERSITY:
          JOE IVANIC, AARON WEST, LAIMUTIS BYTAUTAS, KLAUS RUEDENBERG
     UNIVERSITY OF TOKYO: KIMIHIKO HIRAO, TAKAHITO NAKAJIMA,
          TAKAO TSUNEDA, MUNEAKI KAMIYA, SUSUMU YANAGISAWA,
          KIYOSHI YAGI, MAHITO CHIBA, SEIKEN TOKURA, NAOAKI KAWAKAMI
     UNIVERSITY OF AARHUS: FRANK JENSEN
     UNIVERSITY OF IOWA: VISVALDAS KAIRYS, HUI LI
     NATIONAL INST. OF STANDARDS AND TECHNOLOGY: WALT STEVENS, DAVID GARMER
     UNIVERSITY OF PISA: BENEDETTA MENNUCCI, JACOPO TOMASI
     UNIVERSITY OF MEMPHIS: HENRY KURTZ, PRAKASHAN KORAMBATH
     UNIVERSITY OF ALBERTA: TOBY ZENG, MARIUSZ KLOBUKOWSKI
     UNIVERSITY OF NEW ENGLAND: MARK SPACKMAN
     MIE UNIVERSITY: HIROAKI UMEDA
     NAT. INST. OF ADVANCED INDUSTRIAL SCIENCE AND TECHNOLOGY: KAZUO KITAURA
     MICHIGAN STATE UNIVERSITY:
          KAROL KOWALSKI, MARTA WLOCH, JEFFREY GOUR, JESSE LUTZ,
          WEI LI, JUN SHEN, J. EMILIANO DEUSTUA, PIOTR PIECUCH
     UNIVERSITY OF MINNESOTA:
          YINAN SHU
     UNIVERSITY OF SILESIA: MONIKA MUSIAL, STANISLAW KUCHARSKI
     FACULTES UNIVERSITAIRES NOTRE-DAME DE LA PAIX:
          OLIVIER QUINET, BENOIT CHAMPAGNE
     UNIVERSITY OF CALIFORNIA - SANTA BARBARA: BERNARD KIRTMAN
     INSTITUTE FOR MOLECULAR SCIENCE:
          KAZUYA ISHIMURA, MICHIO KATOUDA, AND SHIGERU NAGASE
     UNIVERSITY OF NOTRE DAME: ANNA POMOGAEVA, DAN CHIPMAN
     KYUSHU UNIVERSITY:
          HARUYUKI NAKANO,
          FENG LONG GU, JACEK KORCHOWIEC, MARCIN MAKOWSKI, AND YURIKO AOKI,
          HIROTOSHI MORI AND EISAKU MIYOSHI
     PENNSYLVANIA STATE UNIVERSITY:
          TZVETELIN IORDANOV, CHET SWALINA, JONATHAN SKONE,
          SHARON HAMMES-SCHIFFER
     WASEDA UNIVERSITY:
          MASATO KOBAYASHI, TOMOKO AKAMA, TSUGUKI TOUMA,
          TAKESHI YOSHIKAWA, YASUHIRO IKABATA, JUNJI SEINO,
          YUYA NAKAJIMA, HIROMI NAKAI
     NANJING UNIVERSITY: SHUHUA LI
     UNIVERSITY OF NEBRASKA:
          PEIFENG SU, DEJUN SI, NANDUN THELLAMUREGE, YALI WANG, HUI LI
     UNIVERSITY OF ZURICH: ROBERTO PEVERATI, KIM BALDRIDGE
     N. COPERNICUS UNIVERSITY AND JACKSON STATE UNIVERSITY:
          MARIA BARYSZ
     UNIVERSITY OF COPENHAGEN: Jimmy Kromann, CASPER STEINMANN
     TOKYO INSTITUTE OF TECHNOLOGY: HIROYA NAKATA
     NAGOYA UNIVERSITY: YOSHIO NISHIMOTO, STEPHAN IRLE
     MOSCOW STATE UNIVERSITY: VLADIMIR MIRONOV

 EXECUTION OF GAMESS BEGUN Wed Nov 16 18:58:24 2022

            ECHO OF THE FIRST FEW INPUT CARDS -
 INPUT CARD> $system kdiag=3 mwords=100 memddi=1000 parall=.t. $end                         
 INPUT CARD> $contrl runtyp=energy ispher=1 $end                                            
 INPUT CARD> $contrl icut=9 itol=20 inttyp=rysquad qmttol=1.0d-05 nosym=1 $end              
 INPUT CARD> $scf    npunch=2 conv=1.0d-06 dirscf=.t.      $end                             
 INPUT CARD> $contrl scftyp=mcscf  mult=2 maxit=200 icharg=1 mplevl=2 $end                  
 INPUT CARD> $guess  guess=moread norb=29 purify=.t. $end                                   
 INPUT CARD> $basis  gbasis=ccd $end                                                        
 INPUT CARD> $mcscf  cistep=gmcci fullnr=.t. finci=mos                                      
 INPUT CARD>         acurcy=1.d-6 maxit=100 $end                                            
 INPUT CARD> $trans  dirtrf=.t. $end                                                        
 INPUT CARD> $mrmp   mrpt=gmcpt rdvecs=.f. $end                                             
 INPUT CARD> $gmcpt  nmofzc=0 nmodoc=1 nmoact=7 nelact=7 stsym(1)=A                         
 INPUT CARD>         reftyp=ormas nspace=1 mstart(1)=2 mine(1)=7 maxe(1)=7                  
 INPUT CARD>         kstate(1)=1,1,1                                                        
 INPUT CARD>         wstate(1)=1,1,1                                                        
 INPUT CARD>         iwgt=0 thrwgt=-1.0 krot=.f. kszdoe=.f. knospn=.f.                      
 INPUT CARD>         thrde=-1.0 edshft=0.02 $end                                            
 INPUT CARD> $data                                                                          
 INPUT CARD> NH3+ 3 states calculation at NH3 structure.                                    
 INPUT CARD> c1                                                                             
 INPUT CARD>N 7.0 0.03114459 0.018686709000000003 -0.1693804142                             
 INPUT CARD>H 1.0 -0.834531066 0.5945409608000001 0.25387019909999997                       
 INPUT CARD>H 1.0 -0.6052551049999999 -0.6352718758 0.39103463410000006                     
 INPUT CARD>H 1.0 1.00702375 -0.21892724200000002 0.12447171610000002                       
 INPUT CARD>$end                                                                            
 INPUT CARD>--- OPTIMIZED RHF      MO-S --- GENERATED AT Mon Nov 14 16:47:08 2022           
 INPUT CARD>E=      -56.3825050291, E(NUC)=   11.8429239490                                 
 INPUT CARD> $VEC                                                                           
 INPUT CARD> 1  1-1.00134066E+00-2.25158504E-03 3.44925845E-03 0.00000000E+00 0.00000000E+00
 INPUT CARD> 1  2-2.13170927E-03 0.00000000E+00 0.00000000E+00 6.57129898E-04-6.87950443E-05
 INPUT CARD> 1  3-6.87950443E-05 1.37590089E-04 0.00000000E+00 0.00000000E+00 0.00000000E+00
 INPUT CARD> 1  4 3.25502815E-04-4.84772356E-04 3.62525460E-04-6.27912517E-04-3.45956485E-04
 INPUT CARD> 1  5 3.25502815E-04-4.84772356E-04 3.62525460E-04 6.27912517E-04-3.45956485E-04
 INPUT CARD> 1  6 3.25502815E-04-4.84772356E-04-7.25050921E-04 0.00000000E+00-3.45956485E-04
 INPUT CARD> 2  1 1.31286642E-02-4.05911371E-01-2.82090992E-01 0.00000000E+00 0.00000000E+00
 INPUT CARD> 2  2-7.71489043E-02 0.00000000E+00 0.00000000E+00 9.73717494E-03 6.62450916E-04
 INPUT CARD> 2  3 6.62450916E-04-1.32490183E-03 0.00000000E+00 0.00000000E+00 0.00000000E+00
 INPUT CARD> 2  4-1.96090317E-01-1.96656153E-02-1.74855877E-02 3.02859263E-02 8.68214399E-03
 INPUT CARD> 2  5-1.96090317E-01-1.96656153E-02-1.74855877E-02-3.02859263E-02 8.68214399E-03
 INPUT CARD> 2  6-1.96090317E-01-1.96656153E-02 3.49711754E-02 0.00000000E+00 8.68214399E-03
 INPUT CARD> 3  1 0.00000000E+00 0.00000000E+00 0.00000000E+00 4.48608762E-01 0.00000000E+00
 INPUT CARD> 3  2 0.00000000E+00 2.18692520E-01 0.00000000E+00 0.00000000E+00 1.30198027E-02
 INPUT CARD> 3  3-1.30198027E-02 0.00000000E+00 0.00000000E+00 2.71832968E-02 0.00000000E+00
 INPUT CARD> 3  4-1.85332726E-01-7.03958951E-02 8.47929477E-03 1.95242443E-02 8.32835058E-03
 INPUT CARD> 3  5-1.85332726E-01-7.03958951E-02 8.47929477E-03-1.95242443E-02 8.32835058E-03
 INPUT CARD> 3  6 3.70665453E-01 1.40791790E-01-2.53376884E-02 0.00000000E+00-1.66567012E-02
 INPUT CARD> 4  1 0.00000000E+00 0.00000000E+00 0.00000000E+00 0.00000000E+00 4.48608762E-01
 INPUT CARD> 4  2 0.00000000E+00 0.00000000E+00 2.18692520E-01 0.00000000E+00 0.00000000E+00
 INPUT CARD> 4  3 0.00000000E+00 0.00000000E+00-1.50339731E-02 0.00000000E+00 2.71832968E-02
 INPUT CARD> 4  4 3.21005698E-01 1.21929267E-01 1.95242443E-02-1.40653607E-02-1.44251263E-02
  100000000 WORDS OF MEMORY AVAILABLE

     BASIS OPTIONS
     -------------
     GBASIS=CCD          IGAUSS=       0      POLAR=NONE    
     NDFUNC=       0     NFFUNC=       0     DIFFSP=       F
     NPFUNC=       0      DIFFS=       F     BASNAM=        


     RUN TITLE
     ---------
  NH3+ 3 states calculation at NH3 structure.                                    

 THE POINT GROUP OF THE MOLECULE IS C1      
 THE ORDER OF THE PRINCIPAL AXIS IS     0

 ATOM      ATOMIC                      COORDINATES (BOHR)
           CHARGE         X                   Y                   Z
 N           7.0     0.0588547411        0.0353127596       -0.3200825705
 H           1.0    -1.5770350430        1.1235195044        0.4797451127
 H           1.0    -1.1437663011       -1.2004897730        0.7389483102
 H           1.0     1.9029989506       -0.4137124986        0.2352174367

          INTERNUCLEAR DISTANCES (ANGS.)
          ------------------------------

                1 N          2 H          3 H          4 H     

   1 N       0.0000000    1.1225612 *  1.0708555 *  1.0464940 *
   2 H       1.1225612 *  0.0000000    1.2584996 *  2.0173742 *
   3 H       1.0708555 *  1.2584996 *  0.0000000    1.6863694 *
   4 H       1.0464940 *  2.0173742 *  1.6863694 *  0.0000000  

  * ... LESS THAN  3.000


     ATOMIC BASIS SET
     ----------------
 THE CONTRACTED PRIMITIVE FUNCTIONS HAVE BEEN UNNORMALIZED
 THE CONTRACTED BASIS FUNCTIONS ARE NOW NORMALIZED TO UNITY

  SHELL TYPE  PRIMITIVE        EXPONENT          CONTRACTION COEFFICIENT(S)

 N         

      1   S       1          9046.0000000    0.000699617413
      1   S       2          1357.0000000    0.005386054630
      1   S       3           309.3000000    0.027391021189
      1   S       4            87.7300000    0.103150591982
      1   S       5            28.5600000    0.278570663317
      1   S       6            10.2100000    0.448294849454
      1   S       7             3.8380000    0.278085928395
      1   S       8             0.7466000    0.015431561233

      2   S       9          9046.0000000   -0.000304990096
      2   S      10          1357.0000000   -0.002408026379
      2   S      11           309.3000000   -0.011944448725
      2   S      12            87.7300000   -0.048925992909
      2   S      13            28.5600000   -0.134472724725
      2   S      14            10.2100000   -0.315112577700
      2   S      15             3.8380000   -0.242857832550
      2   S      16             0.7466000    1.094382206854

      3   S      17             0.2248000    1.000000000000

      4   P      18            13.5500000    0.058905676772
      4   P      19             2.9170000    0.320461106714
      4   P      20             0.7973000    0.753042061792

      5   P      21             0.2185000    1.000000000000

      6   D      22             0.8170000    1.000000000000

 H         

      7   S      23            13.0100000    0.033498726390
      7   S      24             1.9620000    0.234800801174
      7   S      25             0.4446000    0.813682957883

      8   S      26             0.1220000    1.000000000000

      9   P      27             0.7270000    1.000000000000

 H         

     10   S      28            13.0100000    0.033498726390
     10   S      29             1.9620000    0.234800801174
     10   S      30             0.4446000    0.813682957883

     11   S      31             0.1220000    1.000000000000

     12   P      32             0.7270000    1.000000000000

 H         

     13   S      33            13.0100000    0.033498726390
     13   S      34             1.9620000    0.234800801174
     13   S      35             0.4446000    0.813682957883

     14   S      36             0.1220000    1.000000000000

     15   P      37             0.7270000    1.000000000000

 TOTAL NUMBER OF BASIS SET SHELLS             =   15
 NUMBER OF CARTESIAN GAUSSIAN BASIS FUNCTIONS =   30
 NOTE: THIS RUN WILL RESTRICT THE MO VARIATION SPACE TO SPHERICAL HARMONICS.
 THE NUMBER OF ORBITALS KEPT IN THE VARIATIONAL SPACE WILL BE PRINTED LATER.
 NUMBER OF ELECTRONS                          =    9
 CHARGE OF MOLECULE                           =    1
 SPIN MULTIPLICITY                            =    2
 NUMBER OF OCCUPIED ORBITALS (ALPHA)          =    5
 NUMBER OF OCCUPIED ORBITALS (BETA )          =    4
 TOTAL NUMBER OF ATOMS                        =    4
 THE NUCLEAR REPULSION ENERGY IS       11.2952105648

     $CONTRL OPTIONS
     ---------------
 SCFTYP=MCSCF        RUNTYP=ENERGY       EXETYP=RUN     
 MPLEVL=       2     CITYP =NONE         CCTYP =NONE         VBTYP =NONE    
 DFTTYP=NONE         TDDFT =NONE    
 MULT  =       2     ICHARG=       1     NZVAR =       0     COORD =UNIQUE  
 PP    =NONE         RELWFN=NONE         LOCAL =NONE         NUMGRD=       F
 ISPHER=       1     NOSYM =       1     MAXIT =     200     UNITS =ANGS    
 PLTORB=       F     MOLPLT=       F     AIMPAC=       F     FRIEND=        
 NPRINT=       7     IREST =       0     GEOM  =INPUT   
 NORMF =       0     NORMP =       0     ITOL  =      20     ICUT  =       9
 INTTYP=RYSQUAD      GRDTYP=BEST         QMTTOL= 1.0E-05

     $SYSTEM OPTIONS
     ---------------
  REPLICATED MEMORY=   100000000 WORDS (ON EVERY NODE).
 DISTRIBUTED MEMDDI=        1000 MILLION WORDS IN AGGREGATE,
 MEMDDI DISTRIBUTED OVER   1 PROCESSORS IS  1000000000 WORDS/PROCESSOR.
 TOTAL MEMORY REQUESTED ON EACH PROCESSOR=  1100000000 WORDS.
 TIMLIM=      525600.00 MINUTES, OR     365.0 DAYS.
 PARALL= T  BALTYP=  DLB     KDIAG=    3  COREFL= F
 MXSEQ2=     300 MXSEQ3=     150  mem10=         0

          ----------------
          PROPERTIES INPUT
          ----------------

     MOMENTS            FIELD           POTENTIAL          DENSITY
 IEMOM =       1   IEFLD =       0   IEPOT =       0   IEDEN =       0
 WHERE =COMASS     WHERE =NUCLEI     WHERE =NUCLEI     WHERE =NUCLEI  
 OUTPUT=BOTH       OUTPUT=BOTH       OUTPUT=BOTH       OUTPUT=BOTH    
 IEMINT=       0   IEFINT=       0                     IEDINT=       0
                                                       MORB  =       0

     -------------------------------
     INTEGRAL TRANSFORMATION OPTIONS
     -------------------------------
     NWORD  =            0
     CUTOFF = 1.0E-09     MPTRAN =       0
     DIRTRF =       T     AOINTS =DUP     

          ----------------------
          MCSCF INPUT PARAMETERS
          ----------------------
 CONVERGER SELECTION: FOCAS = F  SOSCF = F  FULLNR = T  QUD = F  JACOBI = F
 SECULAR EQUATION METHOD CISTEP = GMCCI   
 --- GENERAL INPUT OPTIONS:
 MAXIT =     100  MICIT =       1  ACURCY= 1.000E-06
 DAMP  =   0.000  CANONC=       T  ENGTOL= 1.000E-10
 EKT   =       F  NPUNCH=       2  NWORD =         0
 REGENERATE CI AFTER CONVERGENCE = NONE    
 DIABATIZATION AFTER CONVERGENCE =        F
 --- INPUT FOR FULLNR CONVERGER:
 METHOD=DM2       FORS  =       F  DROPC =       T
 LINSER=       F  FCORE =       F  NORB  =      30

          ----------------------
          INTEGRAL INPUT OPTIONS
          ----------------------
 NOPK  =       1 NORDER=       0 SCHWRZ=       T

 ------------------------------------------
 MULTIREFERENCE PERTURBATION THEORY CONTROL
 ------------------------------------------
 MRPT=GMCPT    READ CONVERGED MCSCF VECTORS= F


     ------------------------------------------
     THE POINT GROUP IS C1 , NAXIS= 1, ORDER= 1
     ------------------------------------------

 -- VARIATIONAL SPACE WILL BE RESTRICTED TO PURE SPHERICAL HARMONICS ONLY --
 AFTER EXCLUDING CONTAMINANT COMBINATIONS FROM THE CARTESIAN GAUSSIAN BASIS
 SET, THE NUMBER OF SPHERICAL HARMONICS KEPT IN THE VARIATION SPACE IS   29

     DIMENSIONS OF THE SYMMETRY SUBSPACES ARE
 A   =   29

 ..... DONE SETTING UP THE RUN .....
 CPU     0: STEP CPU TIME=     0.03 TOTAL CPU TIME=          0.0 (      0.0 MIN)
 TOTAL WALL CLOCK TIME=          0.0 SECONDS, CPU UTILIZATION IS    60.00%

          ********************
          1 ELECTRON INTEGRALS
          ********************
 TIME TO DO   DIPOLE INTEGRALS=      0.00
 ...... END OF ONE-ELECTRON INTEGRALS ......
 CPU     0: STEP CPU TIME=     0.00 TOTAL CPU TIME=          0.0 (      0.0 MIN)
 TOTAL WALL CLOCK TIME=          0.0 SECONDS, CPU UTILIZATION IS    60.00%

          -------------
          GUESS OPTIONS
          -------------
          GUESS =MOREAD            NORB  =      29          NORDER=       0
          MIX   =       F          PRTMO =       F          PUNMO =       F
          TOLZ  = 1.0E-08          TOLE  = 1.0E-05
          SYMDEN=       F          PURIFY=       T

 INITIAL GUESS ORBITALS GENERATED BY MOREAD   ROUTINE.

 STATISTICS FOR GENERATION OF SYMMETRY ORBITAL -Q- MATRIX
 NUMBER OF CARTESIAN ATOMIC ORBITALS=         30
 NUMBER OF SPHERICAL CONTAMINANTS DROPPED=     1
 NUMBER OF LINEARLY DEPENDENT MOS DROPPED=     0
 TOTAL NUMBER OF MOS IN VARIATION SPACE=      29
 ORBITAL PURIFICATION WILL OCCUR

 SYMMETRIES FOR INITIAL GUESS ORBITALS FOLLOW.   BOTH SET(S).
     5 ORBITALS ARE OCCUPIED (    1 CORE ORBITALS).
     1=A        2=A        3=A        4=A        5=A        6=A        7=A   
     8=A        9=A       10=A       11=A       12=A       13=A       14=A   
    15=A       16=A       17=A       18=A       19=A       20=A       21=A   
    22=A       23=A       24=A       25=A       26=A       27=A       28=A   
    29=A   
 ...... END OF INITIAL ORBITAL SELECTION ......
 CPU     0: STEP CPU TIME=     0.01 TOTAL CPU TIME=          0.0 (      0.0 MIN)
 TOTAL WALL CLOCK TIME=          0.1 SECONDS, CPU UTILIZATION IS    66.67%

                    ----------------------
                    AO INTEGRAL TECHNOLOGY
                    ----------------------
     S,P,L SHELL ROTATED AXIS INTEGRALS, REPROGRAMMED BY
        KAZUYA ISHIMURA (IMS) AND JOSE SIERRA (SYNSTAR).
     S,P,D,L SHELL ROTATED AXIS INTEGRALS PROGRAMMED BY
        KAZUYA ISHIMURA (INSTITUTE FOR MOLECULAR SCIENCE).
     S,P,D,F,G SHELL TO TOTAL QUARTET ANGULAR MOMENTUM SUM 5,
        ERIC PROGRAM BY GRAHAM FLETCHER (ELORET AND NASA ADVANCED
        SUPERCOMPUTING DIVISION, AMES RESEARCH CENTER).
     S,P,D,F,G,L SHELL GENERAL RYS QUADRATURE PROGRAMMED BY
        MICHEL DUPUIS (PACIFIC NORTHWEST NATIONAL LABORATORY).

          --------------------
          2 ELECTRON INTEGRALS
          --------------------

 DIRECT SCF METHOD SKIPS INTEGRAL STORAGE ON DISK.
 DIRECT TRANSFORMATION SKIPS AO INTEGRAL STORAGE ON DISK.
  ...... END OF TWO-ELECTRON INTEGRALS .....
 STEP CPU TIME =     0.02 TOTAL CPU TIME =          0.1 (      0.0 MIN)
 TOTAL WALL CLOCK TIME=          0.1 SECONDS, CPU UTILIZATION IS    75.00%
 DDI: Creating Array [0] - 900 x 36 = 32400 words.
 DDI: Creating Array [1] - 21 x 288 = 6048 words.
 DDI: Creating Array [2] - 36 x 36 = 1296 words.
 DDI: Creating Array [3] - 465 x 36 = 16740 words.

          -----------------
          MCSCF CALCULATION
          -----------------

 ----- NUCLEAR ENERGY ----- =        11.2952105648

     -------------------------------------------------
     GMC-PT/GMC-QDPT or general MCSCF input parameters
     -------------------------------------------------
 # of frozen core orbs. =         0 ->         0
 # of doubly occ. orbs. =         1
 # of active      orbs. =         7
 # of virtual     orbs. =        21
 # of active electrons  =         7
 # of states in CI      =         3
 Highest state in CI    =         3
 kstate =  1 1 1
 avecoe =  0.333 0.333 0.333
 State symmetry           = A           
 Assigned symmetry number = 1

 <<<Act. MO sym.: 1111111

 <<<Division of 1-ext.:  0
 <<<Division of 2-ext.:  0

 *** Reference space

 Reference type: ORMAS (= Occupation restricted multiple active space)
 # of orbitals          =  7
 # of minimum electrons =  7
 # of maximum electrons =  7
 State symmetry    =    1 (input)
 2*Sz              =    1 (input)
 Spin multiplicity =    2 (input)
 Dimension of reference space =      1225  (from      3432 walks)

 Dimension of reference space =      1225  (from      1225 walks)

 <<<Ionized spaces for Ref-CI:
      0:         1225 /   -1-0:         1960 /  0-1-0:         2891

 EVALUATING EXCHANGE INTEGRALS FOR DIRECT INTEGRAL TRANSFORMATION
 SCHWARZ INEQUALITY OVERHEAD:       465 INTEGRALS, T=        0.00

     --------------------------------------------
     PARTIAL TWO ELECTRON INTEGRAL TRANSFORMATION
     --------------------------------------------

 NUMBER OF CORE MOLECULAR ORBITALS     =    1
 NUMBER OF OCCUPIED MOLECULAR ORBITALS =    8
 TOTAL NUMBER OF MOLECULAR ORBITALS    =   29
 TOTAL NUMBER OF ATOMIC ORBITALS       =   30
 THRESHOLD FOR KEEPING TRANSFORMED 2E- INTEGRALS = 1.000E-09

 -------------------------------     ------------------------------
 DISTRIBUTED DATA TRANSFORMATION     PROGRAM WRITTEN BY G. FLETCHER
 -------------------------------     ------------------------------

 THE DISTRIBUTED MEMORY REQUIRED FOR THIS STEP IS MEMDDI=         1 MWORDS
 CREATING DISTRIBUTED STORAGE FOR [VIR OCC|VIR OCC] INTEGRALS
 CREATING DISTRIBUTED STORAGE FOR [VIR OCC|OCC OCC] INTEGRALS
 CREATING DISTRIBUTED STORAGE FOR [OCC OCC|OCC OCC] INTEGRALS
 CREATING DISTRIBUTED STORAGE FOR [VIR VIR|OCC OCC] INTEGRALS
 FOR    1 PROCESSORS, THE REPLICATED MEMORY NEEDED IS       73700 WORDS.
 SCHWARZ INEQUALITY OVERHEAD:       465 INTEGRALS, T=        0.00

      DIRECT 4-INDEX TRANSFORMATION 
      SCHWARZ INEQUALITY TEST SKIPPED          0 INTEGRAL BLOCKS
 ----- FROZEN CORE ENERGY =       -47.6744788827
 ... END OF INTEGRAL TRANSFORMATION ...
 CPU     0: STEP CPU TIME=     0.22 TOTAL CPU TIME=          0.3 (      0.0 MIN)
 TOTAL WALL CLOCK TIME=          0.3 SECONDS, CPU UTILIZATION IS    93.33%

     --------------------------------     -----------------------------
     MCHF NEWTON-RAPHSON OPTIMIZATION     CODE WRITTEN BY MICHEL DUPUIS
     --------------------------------     -----------------------------
     PARALLEL VERSION WRITTEN BY G. FLETCHER (ELORET)
     NASA ADVANCED SUPERCOMPUTING DIVISION, AMES RESEARCH CENTER

 NUMBER OF INDEPENDENT ORBITAL ROTATION PARAMETERS =   175
 ..... DONE SOLVING NEWTON-RAPHSON EQUATIONS .....
 CPU     0: STEP CPU TIME=     0.71 TOTAL CPU TIME=          1.0 (      0.0 MIN)
 TOTAL WALL CLOCK TIME=          1.0 SECONDS, CPU UTILIZATION IS    99.00%
 ..... DONE WITH NTN-RPH ORBITAL ROTATIONS ..... 
 CPU     0: STEP CPU TIME=     0.00 TOTAL CPU TIME=          1.0 (      0.0 MIN)
 TOTAL WALL CLOCK TIME=          1.0 SECONDS, CPU UTILIZATION IS    99.00%
 MAXIMUM MEMORY USED BY NTN-RPH CODE WAS     57645 WORDS.

 ITER     TOTAL ENERGY      DEL(E)  LAGRANGIAN ASYMMETRY   SQCDF  MICIT   DAMP
   1      -55.626721031 -0.626721031  0.121767   13    3 1.232E-01  1   0.0000
   2      -55.675186260 -0.048465229  0.020800   12    5 4.561E-01  1   0.0000
   3      -55.710084714 -0.034898454  0.013196   11    6 2.247E-01  1   0.0219
   4      -55.725384737 -0.015300023  0.004532   11    6 4.281E-02  1   0.0051
   5      -55.727372119 -0.001987382  0.000699   12    5 1.149E-03  1   0.0000
   6      -55.727428650 -0.000056531  0.000266   14    5 9.249E-05  1   0.0000
   7      -55.727434422 -0.000005771  0.000116   22    5 1.638E-05  1   0.0000
   8      -55.727435513 -0.000001092  0.000057   22    5 3.635E-06  1   0.0000
   9      -55.727435761 -0.000000248  0.000030   22    5 9.375E-07  1   0.0000
  10      -55.727435826 -0.000000064  0.000016   22    5 2.704E-07  1   0.0000
  11      -55.727435844 -0.000000018  0.000009   22    5 8.421E-08  1   0.0000
  12      -55.727435850 -0.000000006  0.000005   22    5 2.761E-08  1   0.0000
  13      -55.727435851 -0.000000002  0.000003   22    5 9.390E-09  1   0.0000
  14      -55.727435852 -0.000000001  0.000002   22    5 3.279E-09  1   0.0000
  15      -55.727435852 -0.000000000  0.000001   12    7 1.164E-09  1   0.0000
  16      -55.727435852 -0.000000000  0.000001   12    7 4.200E-10  1   0.0000

          --------------------
          LAGRANGIAN CONVERGED
          --------------------

 FINAL MCSCF ENERGY IS      -55.7274358523 AFTER  16 ITERATIONS

 -MCCI- BASED ON OPTIMIZED ORBITALS
 ----------------------------------

 PLEASE NOTE: IF THE ACTIVE ORBITALS ARE CANONICALIZED BELOW,
 THE FOLLOWING CI EXPANSION COEFFICIENTS AND THE DENSITY DO NOT
 CORRESPOND TO THE PRINTED ORBITALS.  THE PRINTED EXPANSIONS MATCH
 THE ORBITALS USED DURING THE LAST ITERATION.  IF YOU WISH TO SEE
 CI EXPANSIONS BASED ON THE CANONICAL (OR NATURAL) ORBITALS, YOU
 MUST RUN A CI CALCULATION WITH THAT ORBITAL CHOICE READ IN $VEC.

 Averaged energy =     -55.727435852

 State #    1  Energy =     -55.865410762  S =  0.500

      Det      Coef    Occupancy (Ignoring core)
      ---      ----    --------- --------- -----
        1    0.922142  11110001110000
        5   -0.067721  01111001110000
        8   -0.132670  10110101110000
       17   -0.130903  11010011110000
       36   -0.191867  11110001101000
       71    0.114579  11110001011000
      211    0.051083  11110000110100
      386    0.109392  11110001010010
      701    0.091642  11110001100001
      717    0.074375  11010011100001

 State #    2  Energy =     -55.738181066  S =  0.500

      Det      Coef    Occupancy (Ignoring core)
      ---      ----    --------- --------- -----
        1    0.198888  11110001110000
       36    0.934492  11110001101000
       40   -0.064612  01111001101000
       43   -0.102774  10110101101000
       52   -0.086091  11010011101000
       71   -0.105505  11110001011000
      281    0.054693  11110000101100
      456    0.097271  11110001001010
      463    0.051843  10110101001010

 State #    3  Energy =     -55.578715729  S =  0.500

      Det      Coef    Occupancy (Ignoring core)
      ---      ----    --------- --------- -----
        1    0.088996  11110001110000
       36   -0.130071  11110001101000
       71   -0.950941  11110001011000
       78    0.068054  10110101011000
       87    0.080069  11010011011000
      316   -0.075215  11110000011100
      806    0.098848  11110001001001
      822    0.080675  11010011001001

 DENSITY MATRIX OVER ACTIVE MO-S

             1           2           3           4           5

    1    1.9755180
    2   -0.0101608   1.6347206
    3   -0.0154386  -0.0012355   1.6276741
    4    0.0007583  -0.0014402  -0.0040496   1.6533249
    5    0.1046057   0.0241358   0.0358443   0.0243629   0.0308376
    6    0.0065767  -0.1557164  -0.0083583  -0.0273662  -0.0019523
    7    0.0070705  -0.0002034   0.1453978   0.0378244   0.0073544

             6           7

    6    0.0350918
    7   -0.0034230   0.0428330

 FORMING THE "STANDARD FOCK OPERATOR" IN DIRECT AO INTEGRAL MODE...
 ONLY THE    1 CORE AND   21 VIRTUAL ORBITALS WILL BE CANONICALIZED

          ----------------------
          MCSCF NATURAL ORBITALS
          ----------------------

                      1          2          3          4          5
                  -15.9838     1.9819     1.6555     1.6494     1.6413
                     A          A          A          A          A   
    1  N  1  S    1.001158   0.008874  -0.009544   0.002656   0.002511
    2  N  1  S   -0.001889   0.435778  -0.158308   0.098160   0.051028
    3  N  1  S   -0.006289   0.316561  -0.256046   0.133147   0.077659
    4  N  1  X    0.000110  -0.027015   0.179266   0.440358   0.040893
    5  N  1  Y   -0.000090  -0.029463   0.033919  -0.033912   0.532540
    6  N  1  Z    0.001136   0.090100   0.568624  -0.153261  -0.005256
    7  N  1  X    0.000014  -0.003085   0.097392   0.150487   0.027872
    8  N  1  Y   -0.000027   0.001073   0.041340  -0.007398   0.288859
    9  N  1  Z   -0.000510   0.013354   0.378485  -0.081260   0.019328
   10  N  1 XX    0.000399   0.002623  -0.009783   0.007088   0.005285
   11  N  1 YY   -0.000206  -0.002906  -0.012770  -0.000064  -0.004901
   12  N  1 ZZ   -0.000194   0.000283   0.022553  -0.007024  -0.000385
   13  N  1 XY   -0.000147  -0.000950  -0.001818  -0.005318  -0.013903
   14  N  1 XZ   -0.000080  -0.002753   0.004868   0.020816   0.002596
   15  N  1 YZ   -0.000108  -0.000745  -0.001829   0.000517   0.024211
   16  H  2  S   -0.001591   0.171383   0.040853  -0.259163   0.267714
   17  H  2  S    0.000386  -0.000726   0.022604  -0.035419   0.081471
   18  H  2  X   -0.000656   0.024720   0.007464  -0.015801   0.029331
   19  H  2  Y    0.000507  -0.018576  -0.003208   0.027626  -0.001830
   20  H  2  Z    0.000403  -0.007359   0.022746   0.004985  -0.010727
   21  H  3  S   -0.001806   0.208260   0.069467  -0.222258  -0.313751
   22  H  3  S    0.000283   0.007824   0.021020  -0.031666  -0.091038
   23  H  3  X   -0.000593   0.023453   0.012173   0.003354  -0.022714
   24  H  3  Y   -0.000637   0.024671   0.012369  -0.026219  -0.008990
   25  H  3  Z    0.000513  -0.015669   0.020865   0.006601   0.019515
   26  H  4  S   -0.001936   0.170964   0.195257   0.327237  -0.009706
   27  H  4  S    0.000626  -0.000753   0.037748   0.037085   0.008814
   28  H  4  X    0.001018  -0.033861  -0.021564  -0.032434   0.009137
   29  H  4  Y   -0.000200   0.005225   0.006755   0.010331   0.018440
   30  H  4  Z    0.000351  -0.003442   0.015961  -0.017579  -0.000208

                      6          7          8
                    0.0303     0.0228     0.0187
                     A          A          A   
    1  N  1  S    0.104937  -0.158503   0.124331
    2  N  1  S    0.348617  -0.555333   0.373589
    3  N  1  S    0.007717  -0.199895  -0.004070
    4  N  1  X    0.105302   0.430183   0.816696
    5  N  1  Y    0.700874   0.270371  -0.319587
    6  N  1  Z    0.167668  -0.599186   0.193154
    7  N  1  X   -0.010919   0.089782   0.074509
    8  N  1  Y   -0.040734   0.025466  -0.027550
    9  N  1  Z   -0.041307   0.051987  -0.063131
   10  N  1 XX   -0.035119   0.030500   0.010044
   11  N  1 YY    0.032316  -0.033721  -0.019249
   12  N  1 ZZ    0.002803   0.003221   0.009205
   13  N  1 XY    0.049541   0.006440   0.025035
   14  N  1 XZ    0.008314  -0.045683  -0.037379
   15  N  1 YZ   -0.012510  -0.020655   0.027130
   16  H  2  S   -0.659435   0.344708   0.329728
   17  H  2  S   -0.169606   0.030679   0.097597
   18  H  2  X   -0.061977   0.019012   0.010193
   19  H  2  Y    0.023986  -0.048118  -0.025463
   20  H  2  Z    0.003322   0.027186   0.006865
   21  H  3  S    0.441246   0.724620  -0.043053
   22  H  3  S    0.154599   0.129286  -0.014652
   23  H  3  X    0.022587   0.024322  -0.039742
   24  H  3  Y    0.003043   0.068910   0.009855
   25  H  3  Z   -0.022413   0.003807   0.003521
   26  H  4  S   -0.314492   0.157176  -0.803222
   27  H  4  S   -0.050383  -0.005773  -0.146597
   28  H  4  X    0.026916  -0.030032   0.082637
   29  H  4  Y   -0.018959   0.002724  -0.014447
   30  H  4  Z    0.002737   0.005778  -0.022072

          ------------------------
          MCSCF OPTIMIZED ORBITALS
          ------------------------

                      1          2          3          4          5
                  -15.9838     0.0000     0.0000     0.0000     0.0000
                     A          A          A          A          A   
    1  N  1  S    1.001158  -0.002466  -0.010110  -0.004184  -0.014498
    2  N  1  S   -0.001889   0.400138   0.011237   0.009489  -0.191960
    3  N  1  S   -0.006289   0.312646   0.055288   0.061136  -0.281913
    4  N  1  X    0.000110  -0.005894   0.384534   0.025725   0.035338
    5  N  1  Y   -0.000090  -0.011526   0.000594   0.460100   0.016219
    6  N  1  Z    0.001136   0.051711  -0.000705  -0.006757   0.582113
    7  N  1  X    0.000014   0.005681   0.162613   0.024778   0.050741
    8  N  1  Y   -0.000027   0.014165   0.014497   0.290758   0.038542
    9  N  1  Z   -0.000510   0.016370   0.031462   0.025781   0.387717
   10  N  1 XX    0.000399   0.005163   0.003231   0.007908  -0.010545
   11  N  1 YY   -0.000206  -0.005226  -0.001691  -0.007693  -0.012855
   12  N  1 ZZ   -0.000194   0.000064  -0.001540  -0.000215   0.023400
   13  N  1 XY   -0.000147  -0.002852  -0.009370  -0.017927  -0.001859
   14  N  1 XZ   -0.000080  -0.003944   0.025723   0.001312  -0.000845
   15  N  1 YZ   -0.000108  -0.000808  -0.001120   0.025824  -0.002274
   16  H  2  S   -0.001591   0.202216  -0.259610   0.329223   0.122354
   17  H  2  S    0.000386   0.005808  -0.031835   0.098842   0.033844
   18  H  2  X   -0.000656   0.027622  -0.013130   0.034389   0.012892
   19  H  2  Y    0.000507  -0.020361   0.028996  -0.004000  -0.011130
   20  H  2  Z    0.000403  -0.006489   0.009584  -0.010926   0.020383
   21  H  3  S   -0.001806   0.213186  -0.229323  -0.361875   0.121469
   22  H  3  S    0.000283   0.005897  -0.031891  -0.105589   0.025984
   23  H  3  X   -0.000593   0.023702   0.007930  -0.026391   0.011126
   24  H  3  Y   -0.000637   0.026567  -0.025187  -0.009909   0.019145
   25  H  3  Z    0.000513  -0.014014   0.013006   0.021983   0.018405
   26  H  4  S   -0.001936   0.204211   0.437922  -0.008712   0.118221
   27  H  4  S    0.000626   0.003400   0.060691   0.010591   0.029301
   28  H  4  X    0.001018  -0.037413  -0.043179   0.010212  -0.013986
   29  H  4  Y   -0.000200   0.006960   0.013709   0.019380   0.004115
   30  H  4  Z    0.000351  -0.003438  -0.010505  -0.000058   0.020372

                      6          7          8          9         10
                    0.0000     0.0000     0.0000     0.1393     0.2005
                     A          A          A          A          A   
    1  N  1  S    0.216254   0.067719   0.009424  -0.125118   0.013001
    2  N  1  S    0.752650   0.178640   0.033634  -0.187396   0.009194
    3  N  1  S    0.190327  -0.078962  -0.055557   1.295519  -0.232798
    4  N  1  X   -0.080278   0.967080   0.009607   0.033633   0.134542
    5  N  1  Y   -0.039836  -0.084066   0.855854   0.027814  -0.060175
    6  N  1  Z    0.656639  -0.017477  -0.079727  -0.182772   0.009883
    7  N  1  X   -0.055904   0.117720   0.001587  -0.182337  -0.777643
    8  N  1  Y   -0.038384  -0.017963   0.006197  -0.090583   0.166858
    9  N  1  Z   -0.072787  -0.034472   0.008174   0.414849   0.013768
   10  N  1 XX   -0.037179   0.015868  -0.024501   0.078804  -0.055434
   11  N  1 YY    0.035773  -0.026203   0.022947  -0.036080   0.031555
   12  N  1 ZZ    0.001407   0.010334   0.001553  -0.042723   0.023878
   13  N  1 XY    0.020982   0.031694   0.038507  -0.021607   0.031257
   14  N  1 XZ    0.032009  -0.048048   0.003422  -0.052234  -0.100289
   15  N  1 YZ    0.021557   0.015159  -0.023261  -0.031980   0.014720
   16  H  2  S   -0.448113   0.315559  -0.547948   0.376805   0.202896
   17  H  2  S   -0.062662   0.074362  -0.161918  -0.921563  -0.754279
   18  H  2  X   -0.035980   0.006564  -0.049614  -0.084547  -0.035398
   19  H  2  Y    0.042849  -0.035580   0.012796  -0.000986   0.014849
   20  H  2  Z   -0.020375   0.018402   0.009280   0.039481   0.070769
   21  H  3  S   -0.464224   0.279616   0.616625   0.275657   0.220375
   22  H  3  S   -0.057035   0.055460   0.177255  -0.822500  -0.759662
   23  H  3  X   -0.023027  -0.023111   0.037378  -0.104833  -0.010289
   24  H  3  Y   -0.054574   0.033586   0.021765  -0.016031  -0.017189
   25  H  3  Z   -0.010990   0.003113  -0.017789   0.060814   0.047487
   26  H  4  S   -0.483500  -0.679644  -0.009482   0.308859  -0.534990
   27  H  4  S   -0.057232  -0.137740  -0.005244  -0.676356   1.921381
   28  H  4  X    0.058938   0.064074  -0.007684   0.088465  -0.111712
   29  H  4  Y   -0.013182  -0.013528  -0.010472  -0.004525   0.034767
   30  H  4  Z   -0.010572  -0.018303   0.010943  -0.016473  -0.075338

                     11         12         13         14         15
                    0.2312     0.5330     0.5862     0.6586     0.8153
                     A          A          A          A          A   
    1  N  1  S    0.023041  -0.087956  -0.001016  -0.005625  -0.397875
    2  N  1  S    0.048456  -0.104655  -0.108012  -0.051178  -0.908244
    3  N  1  S   -0.144066   0.653105  -0.473537  -0.075182   1.525639
    4  N  1  X    0.046071  -0.269606  -0.052599  -0.396499   0.052858
    5  N  1  Y   -0.021958  -0.459477  -0.437104   0.218593  -0.010400
    6  N  1  Z    0.032741  -0.511549   0.438758   0.176996   0.279469
    7  N  1  X   -0.121268   0.674960   0.274105   1.839200  -0.096347
    8  N  1  Y    0.469013   0.810985   1.197287  -0.635253   0.073898
    9  N  1  Z   -0.110474   0.691580  -0.867085  -0.440959  -0.173428
   10  N  1 XX    0.014649  -0.023691   0.066978  -0.015045  -0.079745
   11  N  1 YY   -0.008315   0.003271  -0.038845   0.008149   0.119760
   12  N  1 ZZ   -0.006335   0.020421  -0.028133   0.006896  -0.040014
   13  N  1 XY   -0.087085  -0.019435   0.018917  -0.035844  -0.071344
   14  N  1 XZ    0.003436   0.011559  -0.006885  -0.068647   0.028691
   15  N  1 YZ    0.070280   0.015868  -0.003738   0.021692  -0.057331
   16  H  2  S    0.555054  -0.274925   0.028809   0.704220   0.073648
   17  H  2  S   -1.844627  -0.409618  -0.556509   0.530280  -0.364684
   18  H  2  X   -0.036811   0.018230  -0.079099   0.207305   0.050856
   19  H  2  Y    0.058963   0.079434  -0.114042  -0.100557   0.398240
   20  H  2  Z    0.015447   0.088325  -0.002274   0.107344  -0.086713
   21  H  3  S   -0.593776   0.015854   0.689826   0.299974   0.112200
   22  H  3  S    2.020498   0.592816   0.769317   0.105551  -0.206535
   23  H  3  X    0.042457   0.109799  -0.007008   0.045268   0.225370
   24  H  3  Y    0.072737  -0.002420   0.133328   0.141889  -0.343455
   25  H  3  Z   -0.041353  -0.007363  -0.104187   0.053728   0.054134
   26  H  4  S    0.077719  -0.497339   0.362315  -0.568470  -0.090462
   27  H  4  S   -0.112760  -0.426002  -0.182990  -0.718174  -0.338035
   28  H  4  X   -0.028151   0.062992   0.033094   0.176135  -0.015904
   29  H  4  Y   -0.030736  -0.022112   0.099119  -0.109912  -0.173073
   30  H  4  Z   -0.008406   0.058751  -0.053898  -0.133432   0.160606

                     16         17         18         19         20
                    0.9985     1.0603     1.2378     1.3635     1.4554
                     A          A          A          A          A   
    1  N  1  S   -0.428565  -0.261382  -0.033139  -0.308632  -0.377253
    2  N  1  S   -0.903006  -0.548867  -0.067358  -0.655685  -0.786706
    3  N  1  S    1.787791   1.223818   0.118837   1.116766   1.421117
    4  N  1  X    0.084255  -0.041752  -0.210286   0.009881   0.015580
    5  N  1  Y    0.019875   0.087690   0.143111  -0.019812  -0.056464
    6  N  1  Z    0.117934   0.049170  -0.025909  -0.026622  -0.033189
    7  N  1  X   -0.408727   0.204491   1.038803   0.496132  -0.428746
    8  N  1  Y   -0.168010  -0.492526  -0.325563   0.183772  -0.333093
    9  N  1  Z   -0.070409   0.336814  -0.037442   0.436140   0.703199
   10  N  1 XX   -0.052234   0.055273   0.061507   0.023459   0.109159
   11  N  1 YY   -0.189752   0.030016  -0.061153   0.151114  -0.061340
   12  N  1 ZZ    0.241986  -0.085290  -0.000354  -0.174573  -0.047819
   13  N  1 XY    0.001836   0.186304   0.021616  -0.023442  -0.016288
   14  N  1 XZ    0.028196   0.040803   0.045659  -0.010519   0.010430
   15  N  1 YZ    0.030708   0.251618  -0.132253  -0.002674   0.108571
   16  H  2  S   -0.393159   0.026318   0.493310  -0.222570  -0.475822
   17  H  2  S   -0.194370  -0.003176   0.128326  -0.011905   0.043808
   18  H  2  X   -0.060392   0.001305  -0.561191  -0.138376   0.008871
   19  H  2  Y   -0.198363   0.082079  -0.216275  -0.312625  -0.070507
   20  H  2  Z    0.374236   0.187598  -0.440888  -0.240786  -0.516404
   21  H  3  S   -0.438717  -0.301217   0.053061  -0.159033  -0.526333
   22  H  3  S   -0.252079  -0.228625   0.056668  -0.044292  -0.320219
   23  H  3  X   -0.055030  -0.295668   0.205405  -0.449291   0.030797
   24  H  3  Y    0.267851  -0.192551   0.029230   0.094948  -0.017570
   25  H  3  Z    0.358688  -0.451630  -0.007311  -0.394149   0.359714
   26  H  4  S   -0.112947  -0.328457  -0.534467  -0.467104  -0.264866
   27  H  4  S   -0.203401  -0.266688  -0.266178  -0.226865  -0.031929
   28  H  4  X   -0.003249   0.211001  -0.119247  -0.198299   0.123059
   29  H  4  Y    0.017880   0.466221   0.293514  -0.623056   0.281621
   30  H  4  Z    0.273607   0.054432   0.400203  -0.010475  -0.703510

                     21         22         23         24         25
                    1.6183     1.8557     1.8735     1.9827     2.0664
                     A          A          A          A          A   
    1  N  1  S    0.144285   0.121603   0.020729  -0.113770   0.007969
    2  N  1  S    0.284701   0.367957   0.048845  -0.241023   0.001422
    3  N  1  S   -0.613765   0.992195   0.279969   0.132443  -0.251184
    4  N  1  X   -0.122153  -0.248911   0.580636  -0.102871  -0.110452
    5  N  1  Y   -0.195891  -0.081445  -0.069747   0.248273   0.029857
    6  N  1  Z    0.028764   0.274042  -0.030775  -0.081328  -0.024585
    7  N  1  X    0.663609   0.011463   0.252655   0.004433  -0.140096
    8  N  1  Y   -0.422012   0.109156  -0.164993  -0.169405  -0.153112
    9  N  1  Z   -0.284732   0.353483   0.078068   0.118637  -0.331706
   10  N  1 XX   -0.034211  -0.158579  -0.182243   0.137895  -0.061604
   11  N  1 YY   -0.088596   0.041374   0.231326  -0.241363   0.862233
   12  N  1 ZZ    0.122807   0.117205  -0.049083   0.103468  -0.800628
   13  N  1 XY   -0.095313   0.086149   0.053980   0.230857   0.100893
   14  N  1 XZ   -0.016657   0.139122  -0.181952  -0.053096   0.232725
   15  N  1 YZ    0.180581   0.221489   0.103605  -0.135500   0.050135
   16  H  2  S    0.298474  -0.157965  -0.015650  -0.130728   0.046085
   17  H  2  S    0.439041  -0.397997   0.093786  -0.334331  -0.038217
   18  H  2  X    0.492847  -0.807315   0.123244  -0.057298   0.007615
   19  H  2  Y    0.143082   0.346042  -0.029226   0.961692   0.030136
   20  H  2  Z   -0.466977   0.063328  -0.464185  -0.137457   0.239438
   21  H  3  S    0.371331  -0.112089  -0.081589   0.024131   0.055069
   22  H  3  S   -0.259298  -0.142242   0.253770   0.349569  -0.023957
   23  H  3  X   -0.613230  -0.525305   0.136482  -0.097457  -0.017286
   24  H  3  Y    0.015227  -0.179117   0.427208   0.854013   0.462696
   25  H  3  Z    0.314628   0.406546  -0.086484  -0.200945   0.498706
   26  H  4  S   -0.175787  -0.173702  -0.107786  -0.034114   0.154500
   27  H  4  S    0.008018  -0.172141  -0.502526   0.003530   0.157938
   28  H  4  X   -0.226123   0.444693   0.905514  -0.226839  -0.262594
   29  H  4  Y    0.210424  -0.319216  -0.100465  -0.041938   0.238408
   30  H  4  Z    0.442297  -0.196086   0.401266  -0.146765   0.090162

                     26         27         28         29
                    2.2894     2.5986     2.6315     3.0230
                     A          A          A          A   
    1  N  1  S   -0.090341  -0.021676  -0.126812   0.028147
    2  N  1  S   -0.147603   0.062492  -0.137655  -0.029849
    3  N  1  S    0.717192   1.533919   1.561689  -1.019528
    4  N  1  X   -0.037599   0.238742  -0.387075  -0.326947
    5  N  1  Y   -0.012067  -0.316159  -0.040686  -0.245833
    6  N  1  Z    0.051742   0.235151   0.213418  -0.074853
    7  N  1  X   -0.023785   0.540206  -1.260972  -0.516999
    8  N  1  Y   -0.419897  -0.762301  -0.025545  -0.357765
    9  N  1  Z    0.392997   0.371546   0.470557  -0.054239
   10  N  1 XX   -0.524400   0.785428   0.308036  -0.949971
   11  N  1 YY    0.317406  -0.355473   0.055152   0.421259
   12  N  1 ZZ    0.206994  -0.429955  -0.363188   0.528712
   13  N  1 XY   -0.610787   0.432265  -0.057111   1.176669
   14  N  1 XZ    0.030416   0.288271  -1.248229  -0.300272
   15  N  1 YZ   -0.707270  -0.783219  -0.103743  -0.419811
   16  H  2  S   -0.135767   0.300463  -0.991625   0.767640
   17  H  2  S   -0.007787   0.273106  -0.305090   0.221478
   18  H  2  X   -0.085297   0.440982  -0.547078   0.574686
   19  H  2  Y    0.079470  -0.070691   0.379700  -0.480433
   20  H  2  Z    0.091089   0.029639   0.275487  -0.422266
   21  H  3  S   -0.325975  -0.847017  -1.007138  -0.751914
   22  H  3  S   -0.178095  -0.381824  -0.359249  -0.232711
   23  H  3  X   -0.577043  -0.505220  -0.336263  -0.414553
   24  H  3  Y    0.098651  -0.439770  -0.506651  -0.473308
   25  H  3  Z   -0.225664   0.465169   0.407221   0.371373
   26  H  4  S   -0.200293  -1.102990   0.303554   1.101848
   27  H  4  S   -0.061155  -0.392561   0.218362   0.316088
   28  H  4  X    0.257928   0.850942  -0.223269  -0.839643
   29  H  4  Y    0.565757  -0.249159   0.169503   0.121046
   30  H  4  Z   -0.238361   0.223986   0.227516  -0.407405
 .....DONE WITH MCSCF ITERATIONS.....
 CPU     0: STEP CPU TIME=    10.36 TOTAL CPU TIME=         11.4 (      0.2 MIN)
 TOTAL WALL CLOCK TIME=         11.4 SECONDS, CPU UTILIZATION IS    99.82%

     ----------------------------------------------------------------
     PROPERTY VALUES FOR THE MCSCF SELF-CONSISTENT FIELD WAVEFUNCTION
     ----------------------------------------------------------------

          -----------------
          ENERGY COMPONENTS
          -----------------

         WAVEFUNCTION NORMALIZATION =       1.0000000000

                ONE ELECTRON ENERGY =     -94.0953847576
                TWO ELECTRON ENERGY =      27.0727383405
           NUCLEAR REPULSION ENERGY =      11.2952105648
                                      ------------------
                       TOTAL ENERGY =     -55.7274358523

 ELECTRON-ELECTRON POTENTIAL ENERGY =      27.0727383405
  NUCLEUS-ELECTRON POTENTIAL ENERGY =    -149.8530436124
   NUCLEUS-NUCLEUS POTENTIAL ENERGY =      11.2952105648
                                      ------------------
             TOTAL POTENTIAL ENERGY =    -111.4850947071
               TOTAL KINETIC ENERGY =      55.7576588548
                 VIRIAL RATIO (V/T) =       1.9994579578

          ---------------------------------------
          MULLIKEN AND LOWDIN POPULATION ANALYSES
          ---------------------------------------

     ATOMIC MULLIKEN POPULATION IN EACH MOLECULAR ORBITAL

                      1          2          3          4          5

                  2.000000   1.981945   1.655496   1.649385   1.641311

    1             2.000762   1.344189   1.512096   0.904450   1.132021
    2            -0.000186   0.186272   0.010680   0.224102   0.225400
    3            -0.000283   0.270645   0.023126   0.158989   0.275416
    4            -0.000293   0.180839   0.109594   0.361844   0.008475

                      6          7          8

                  0.030334   0.022815   0.018713

    1             0.013622   0.012193   0.010006
    2             0.010464   0.002162   0.001186
    3             0.003892   0.008140   0.000050
    4             0.002357   0.000319   0.007472
 WARNING! MCSCF POPULATIONS SHOWN ABOVE ARE FOR THE NATURAL ORBITALS.
 IGNORE THE ABOVE DATA FOR MCSCF FUNCTIONS WHICH ARE NOT OF -FORS- TYPE.
 THE FOLLOWING POPULATIONS ARE CORRECT FOR ANY MCSCF WAVEFUNCTION.

               ----- POPULATIONS IN EACH AO -----
                             MULLIKEN      LOWDIN
              1  N  1  S      2.00241     1.90098
              2  N  1  S      0.82102     0.57721
              3  N  1  S      0.67888     0.40587
              4  N  1  X      0.64444     0.56172
              5  N  1  Y      0.73240     0.67297
              6  N  1  Z      0.86759     0.81455
              7  N  1  X      0.24708     0.37844
              8  N  1  Y      0.39425     0.45696
              9  N  1  Z      0.52422     0.56149
             10  N  1 XX      0.00054     0.18535
             11  N  1 YY      0.00145     0.15158
             12  N  1 ZZ      0.00402     0.14303
             13  N  1 XY      0.00612     0.01171
             14  N  1 XZ      0.00492     0.01292
             15  N  1 YZ      0.00000     0.00803
             16  H  2  S      0.55801     0.43036
             17  H  2  S      0.04810     0.14924
             18  H  2  X      0.02410     0.04115
             19  H  2  Y      0.01717     0.03823
             20  H  2  Z      0.01269     0.03022
             21  H  3  S      0.62761     0.48275
             22  H  3  S      0.05319     0.14654
             23  H  3  X      0.01880     0.03348
             24  H  3  Y      0.02189     0.04662
             25  H  3  Z      0.01849     0.04117
             26  H  4  S      0.58432     0.45581
             27  H  4  S      0.02973     0.14587
             28  H  4  X      0.03557     0.06018
             29  H  4  Y      0.00957     0.02412
             30  H  4  Z      0.01141     0.03144

          ----- MULLIKEN ATOMIC OVERLAP POPULATIONS -----
          (OFF-DIAGONAL ELEMENTS NEED TO BE MULTIPLIED BY 2)

             1           2           3           4

    1    6.0678131
    2    0.2702207   0.4060603
    3    0.2826669  -0.0103915   0.4727891
    4    0.3086388  -0.0058091  -0.0050912   0.3728683

          TOTAL MULLIKEN AND LOWDIN ATOMIC POPULATIONS
       ATOM         MULL.POP.    CHARGE          LOW.POP.     CHARGE
    1 N             6.929339    0.070661         6.842798    0.157202
    2 H             0.660080    0.339920         0.689211    0.310789
    3 H             0.739973    0.260027         0.750569    0.249431
    4 H             0.670607    0.329393         0.717422    0.282578

          MULLIKEN SPHERICAL HARMONIC POPULATIONS
       ATOM           S       P       D      F      G      H      I    TOTAL
    1 N             3.50    3.41    0.02   0.00   0.00   0.00   0.00    6.93
    2 H             0.61    0.05    0.00   0.00   0.00   0.00   0.00    0.66
    3 H             0.68    0.06    0.00   0.00   0.00   0.00   0.00    0.74
    4 H             0.61    0.06    0.00   0.00   0.00   0.00   0.00    0.67

          ---------------------
          ELECTROSTATIC MOMENTS
          ---------------------

 POINT   1           X           Y           Z (BOHR)    CHARGE
                -0.000003   -0.000002   -0.177185        1.00 (A.U.)
         DX          DY          DZ         /D/  (DEBYE)
    -0.588614   -0.342311    2.154957    2.259974
 ...... END OF PROPERTY EVALUATION ......
 CPU     0: STEP CPU TIME=     0.01 TOTAL CPU TIME=         11.4 (      0.2 MIN)
 TOTAL WALL CLOCK TIME=         11.4 SECONDS, CPU UTILIZATION IS    99.82%

     -------------------------------------------------
     GMC-PT/GMC-QDPT or general MCSCF input parameters
     -------------------------------------------------
 # of frozen core orbs. =         0 ->         0
 # of doubly occ. orbs. =         1
 # of active      orbs. =         7
 # of virtual     orbs. =        21
 # of active electrons  =         7
 # of states in CI      =         3
 Highest state in CI    =         3
 kstate =  1 1 1
 avecoe =  0.333 0.333 0.333
 State symmetry           = A           
 Assigned symmetry number = 1

 <<<Act. MO sym.: 1111111

 <<<Division of 1-ext.:  0
 <<<Division of 2-ext.:  0

     ------------------------
     Orbital canonicalization
     ------------------------

 MOs are canonicalized for core, virtual, and invariant-active orbital spaces.
 This is a part of the GMC-QDPT calculation.
 SCHWARZ INEQUALITY OVERHEAD:       465 INTEGRALS, T=        0.00
 DIRECT TRANSFORMATION SKIPS AO INTEGRAL STORAGE ON DISK.

 Averaged energy =     -55.727435852

 State #    1  Energy =     -55.865410762  S =  0.500
 State #    2  Energy =     -55.738181066  S =  0.500
 State #    3  Energy =     -55.578715729  S =  0.500

 Orbital energies for filled orbital space
  -15.983808
 Orbital energies for active orbital space
   -1.509229  -0.992551  -0.828572  -0.737763   0.317570
    0.409997   0.191270
 Orbital energies for external orbital space
    0.139253   0.200509   0.231208   0.532996   0.586235
    0.658567   0.815306   0.998482   1.060322   1.237822
    1.363526   1.455433   1.618297   1.855692   1.873509
    1.982694   2.066448   2.289425   2.598611   2.631459
    3.022969

 Zero values mean non-canonical orbitals.
 ... done with orbital canonicalization ...
 CPU     0: STEP CPU TIME=     0.61 TOTAL CPU TIME=         12.0 (      0.2 MIN)
 TOTAL WALL CLOCK TIME=         12.0 SECONDS, CPU UTILIZATION IS    99.83%

     --------------------------------------------
     PARTIAL TWO ELECTRON INTEGRAL TRANSFORMATION
     --------------------------------------------

 NUMBER OF CORE MOLECULAR ORBITALS     =    0
 NUMBER OF OCCUPIED MOLECULAR ORBITALS =    8
 TOTAL NUMBER OF MOLECULAR ORBITALS    =   29
 TOTAL NUMBER OF ATOMIC ORBITALS       =   30
 THRESHOLD FOR KEEPING TRANSFORMED 2E- INTEGRALS = 1.000E-09
 AO INTEGRALS WILL BE CALCULATED IN DIRECT MODE...
 DIRECT TRANSFORMATION SKIPS AO INTEGRAL STORAGE ON DISK.
 SCHWARZ INEQUALITY OVERHEAD:       465 INTEGRALS, T=        0.00

 PLAN A: REQUIREMENTS FOR FULLY IN-MEMORY TRANSFORMATION:
 # OF WORDS AVAILABLE =            100000000
 # OF WORDS NEEDED    =               221798

 PARALLEL ONLY WORKS WITH THE SEGMENTED ALGORITHM.
 ADJUSTING MEMORY TO USE SEGMENTED ALGORITHM.


 PLAN B: REQUIREMENTS FOR THE SEGMENTED TRANSFORMATION:
       MINIMUM=         124148 WORDS FOR 1 MOLECULAR ORBITAL PER PASS
       MAXIMUM=         221798 WORDS FOR ALL MOLECULAR ORBITALS IN 1 PASS
              (          13950 EXTRA WORDS INCLUDES 1 EXTRA ORBITAL/PASS)
 THIS RUN USES=         221798 WORDS,
 DISTRIBUTING   1 PASSES EACH CONTAINING     8 ORBITALS OVER   1 PROCESSORS.

 CHOOSING SEGMENTED PARTIAL TRANSFORMATION...
 DIRECT TRANSFORMATION SKIPS AO INTEGRAL STORAGE ON DISK.
 PASS #   1 TOOK        0.04 SECONDS.
 TOTAL NUMBER OF TRANSFORMED 2E- INTEGRALS KEPT =        29226
 ... END OF INTEGRAL TRANSFORMATION ...
 CPU     0: STEP CPU TIME=     0.04 TOTAL CPU TIME=         12.0 (      0.2 MIN)
 TOTAL WALL CLOCK TIME=         12.0 SECONDS, CPU UTILIZATION IS    99.83%

     --------     ------------------------------------------
     GMC-QDPT     Program written by H.Nakano (Kyushu Univ.)
     --------     ------------------------------------------

 *** Reference space

 Reference type: ORMAS (= Occupation restricted multiple active space)
 # of orbitals          =  7
 # of minimum electrons =  7
 # of maximum electrons =  7
 State symmetry    =    1 (input)
 2*Sz              =    1 (input)
 Spin multiplicity =    2 (input)
 Dimension of reference space =      1225  (from      3432 walks)

 Dimension of reference space =      1225  (from      1225 walks)

 <<<Ionized spaces for Ref-CI:
      0:         1225 /   -1-0:         1960 /  0-1-0:         2891

 ***                    ***
 *** Reference space CI ***
 ***                    ***

 Converged after   31 iterations

 Reference wavefunctions:

 State #    1  Energy =     -55.865410762  S =  0.500

      Det      Coef    Occupancy (Ignoring core)
      ---      ----    --------- --------- -----
        1    0.974248  11110001110000
       36    0.074847  11110001101000
      393    0.057213  10110101010010
      717    0.063478  11010011100001

 State #    2  Energy =     -55.738181066  S =  0.500

      Det      Coef    Occupancy (Ignoring core)
      ---      ----    --------- --------- -----
        1   -0.078317  11110001110000
       36    0.979129  11110001101000
      463    0.057780  10110101001010

 State #    3  Energy =     -55.578715729  S =  0.500

      Det      Coef    Occupancy (Ignoring core)
      ---      ----    --------- --------- -----
       71   -0.977496  11110001011000
      248    0.050129  11011001001100
      822    0.064143  11010011001001

 Davidson method: CPU/Wall time =           0.43 /           0.43 sec.

 Oscillator strength (invalid if E(1)/=E(GS)):
 -----------------------------------------
   State                        f
 -----------------------------------------
     2     F(REF-CI)=        0.0013501424
     3     F(REF-CI)=        0.0033387748
 -----------------------------------------

 Dipole moment matrix elements, x, y, z, in A.U.

 Dimension of ionized spaces for PT:
 (N-2) space:         1715 /  (N-1) space:         2842 /  N space:         2891
 (N+1) space:         2842 /  (N+2) space:         1715

 <<<Ionized spaces for internal:
         0:         1225 /      -1-0:         1960 /     0-1-0:         2891
  -1-0-1-0:         2842 / 0-1-0-1-0:         3381

 Diagonal elements of averaged one-particle density matrix:
       2       3       4       5       6       7       8
  0.9933  0.9877  0.9853  0.9919  0.0130  0.0110  0.0177
  0.9885  0.6616  0.6569  0.6625  0.0101  0.0079  0.0125

 Orbital energies:
 -------- Doubly-occupied orbitals (highest several orbs.) -------
             1
 -1.598381D+01
 -------- Active orbitals ----------------------------------------
             2            3            4            5            6
 -1.509229D+00-9.925515D-01-8.285718D-01-7.377628D-01 3.175697D-01
             7            8
  4.099975D-01 1.912699D-01
 -------- External orbitals (lowest several orbs.) ---------------
             9           10           11           12           13
  1.392526D-01 2.005091D-01 2.312078D-01 5.329956D-01 5.862353D-01
            14           15           16           17           18
  6.585666D-01 8.153065D-01 9.984823D-01 1.060322D+00 1.237822D+00

 *** Quasi-degeneracy checking

 === Det (|Ci| > 1.0D-01 and dE < 5.0D-03)

 # of small denominators (single excitations)
 State       dEmin  dE < 5.0D-03  dE < 5.0D-04  dE < 5.0D-05  dE < 5.0D-06
 ----- ----------- ------------- ------------- ------------- -------------
     1    5.00D-03             0             0             0             0
     2    5.00D-03             0             0             0             0
     3    5.00D-03             0             0             0             0

 # of small denominators (double excitations)
 State       dEmin  dE < 5.0D-03  dE < 5.0D-04  dE < 5.0D-05  dE < 5.0D-06
 ----- ----------- ------------- ------------- ------------- -------------
     1    5.00D-03             0             0             0             0
     2    5.00D-03             0             0             0             0
     3    5.00D-03             0             0             0             0

 *** Zeroth-Order Setup (Granovsky's zeroth-order vectors)
 Zeroth-order effective Hamiltonian
  (= Sum_i e(i)*<I|a+(i)a(i)|J> ):
                   1            2            3
     1 -7.292582D+00
     2  1.221775D-02-7.223700D+00
     3  1.558081D-03 3.994058D-03-7.048920D+00

 Zeroth-order vectors:
 State #    1
       MC st            1           2           3
       Coeff    9.855D-01  -1.694D-01  -3.495D-03
 State #    2
       MC st            2           1           3
       Coeff   -9.853D-01  -1.693D-01   2.430D-02
 State #    3
       MC st            3           2           1
       Coeff    9.997D-01   2.336D-02   7.561D-03

 *** GMC-QDPT computation

 (Integral reading:  CPU/Wall time =           0.00 /           0.00 sec.)

 One-external:
   0 -ionized terms: CPU/Wall time =           0.03 /           0.04 sec.
 (-1)-ionized terms: CPU/Wall time =           0.09 /           0.08 sec.
 (+1)-ionized terms: CPU/Wall time =           0.02 /           0.03 sec.
 (+1)-ionized terms: CPU/Wall time =           0.01 /           0.00 sec.
 (+2)-ionized terms: CPU/Wall time =           0.00 /           0.01 sec.

 Internal:
 # of macro loops for internal contribution =         1 (input)
 Loop:    1
 Dimension of internal CISD space     =         0  (after screening)
 Space construction: CPU/Wall time =           0.02 /           0.01 sec.
 Internal terms:     CPU/Wall time =           0.00 /           0.00 sec.

 Two-external:
   0 -ionized terms: CPU/Wall time =           0.06 /           0.06 sec.
 (-1)-ionized terms: CPU/Wall time =           1.00 /           1.00 sec.
 (-2)-ionized terms: CPU/Wall time =           0.17 /           0.17 sec.

 Total time:         CPU/Wall time =           1.40 /           1.40 sec.

 ***                  ***
 *** GMC-QDPT Results ***
 ***                  ***

 Diagonal elements of effective Hamiltonian:
 Heff(  1) =   -55.96069868
 Heff(  2) =   -55.84922071
 Heff(  3) =   -55.69005342

 Off-diagonal elements of effective Hamiltonian:
                   1            2
     2  1.886430D-02
     3 -1.019467D-03 3.762497D-03

 ******** GMC-QDPT energies ********
 ----------------------------------------------------------------------------
   State                        1st order                           2nd order
 ----------------------------------------------------------------------------
     1     E(REF-CI)=      -55.8654107618   E(GMC-QDPT2)=      -55.9638139306
     2     E(REF-CI)=      -55.7381810661   E(GMC-QDPT2)=      -55.8461955726
     3     E(REF-CI)=      -55.5787157290   E(GMC-QDPT2)=      -55.6899633071
 ----------------------------------------------------------------------------

 Excitation energies (invalid if E(1)/=E(GS)):
 ----------------------------------------------------------------------------
   State                        1st order                           2nd order
 ----------------------------------------------------------------------------

     TZ Sorted GMC-PT ENERGIES:
         1      -55.9638139306
         2      -55.8461955726
         3      -55.6899633071
     2     E(REF-CI)=        3.4620981 eV   E(GMC-QDPT2)=        3.2005602 eV
     3     E(REF-CI)=        7.8013732 eV   E(GMC-QDPT2)=        7.4518589 eV
 ----------------------------------------------------------------------------

 Main characters of perturbed GMC-QDPT states:

 State #    1  Energy =     -55.963813931  S =  0.500

      Det      Coef    Occupancy (Ignoring core)
      ---      ----    --------- --------- -----
        1    0.974756  11110001110000
       36    0.068205  11110001101000
      393    0.057211  10110101010010
      717    0.063345  11010011100001

 State #    2  Energy =     -55.846195573  S =  0.500

      Det      Coef    Occupancy (Ignoring core)
      ---      ----    --------- --------- -----
        1   -0.071687  11110001110000
       36    0.979627  11110001101000
      463    0.057802  10110101001010

 State #    3  Energy =     -55.689963307  S =  0.500

      Det      Coef    Occupancy (Ignoring core)
      ---      ----    --------- --------- -----
       71   -0.977505  11110001011000
      248    0.050110  11011001001100
      822    0.064153  11010011001001

 <<<Max |V/de| = 2.556D-02  Thresh = 1.000D+00

 Oscillator strength (invalid if E(1)/=E(GS)):
 ----------------------------------------------------------------------------
   State                        1st order                           2nd order
 ----------------------------------------------------------------------------
     2     F(REF-CI)=        0.0013501424     F(GMC-PT2)=        0.0013051824
     3     F(REF-CI)=        0.0033387748     F(GMC-PT2)=        0.0032611296
 ----------------------------------------------------------------------------

 Dipole moment matrix elements, x, y, z, in A.U.
States    1    1       -0.2582113290       -0.1314350578        0.7108299731
States    1    2       -0.0261027737       -0.0228994746        0.1242553620
States    1    3        0.1132752645       -0.0311330961        0.0637344678
States    2    1       -0.0261027737       -0.0228994746        0.1242553620
States    2    2       -0.0810949753       -0.2215085839        0.2951574471
States    2    3       -0.0957389875        0.1501168602       -0.0017186714
States    3    1        0.1132752645       -0.0311330961        0.0637344678
States    3    2       -0.0957389875        0.1501168602       -0.0017186714
States    3    3       -0.5366079522       -0.1853778230        0.2626726772

 Oscillator strength (valid only when positive): 
 ----------------------------------------------------------------------------
  States                        1st order                           2nd order
 ----------------------------------------------------------------------------
  1  1     F(REF-CI)=        0.0000000000     F(GMC-PT2)=        0.0000000000
  1  2     F(REF-CI)=       -0.0013501424     F(GMC-PT2)=       -0.0013051824
  1  3     F(REF-CI)=       -0.0033387748     F(GMC-PT2)=       -0.0032611296
  2  1     F(REF-CI)=        0.0013501424     F(GMC-PT2)=        0.0013051824
  2  2     F(REF-CI)=        0.0000000000     F(GMC-PT2)=        0.0000000000
  2  3     F(REF-CI)=       -0.0034007399     F(GMC-PT2)=       -0.0033021230
  3  1     F(REF-CI)=        0.0033387748     F(GMC-PT2)=        0.0032611296
  3  2     F(REF-CI)=        0.0034007399     F(GMC-PT2)=        0.0033021230
  3  3     F(REF-CI)=        0.0000000000     F(GMC-PT2)=        0.0000000000
 CPU     0: STEP CPU TIME=     1.91 TOTAL CPU TIME=         13.9 (      0.2 MIN)
 TOTAL WALL CLOCK TIME=         13.9 SECONDS, CPU UTILIZATION IS    99.93%

     !!! DIABATIZATION FOR REF CI STATES !!!

 *******************************************************
          $DMO GROUP FOUND IN THE INPUT.
        DIABATIZATION OF ADIABATIC STATES BEGINS.
     PROGRAMMED BY TAO ZENG (CARLETON UNIVERSITY).
               Email: toby.zeng@carleton.ca
     See T. Zeng, J. Chem. Phys. 2017, 146, 144103
 *******************************************************

 *************************************************************************
     STEP 1: TRANSFORMATION OF ADIABATIC STATES TO THE DMO REPRESENTATION
         See Atchity and Ruedenberg, J. Chem. Phys. 1999, 111, 2910
 *************************************************************************

Read in Diabatic Molecualr Orbitals:

                      1          2          3          4          5

    1  N  1  S    0.008609   0.000000   0.000000  -0.013219   0.279491
    2  N  1  S    0.442914  -0.000000   0.000000  -0.184329   0.867803
    3  N  1  S    0.276913   0.000000  -0.000000  -0.288315   0.144236
    4  N  1  X   -0.000000   0.493155  -0.024636  -0.000000  -0.000000
    5  N  1  Y    0.000000   0.024636   0.493155  -0.000000   0.000000
    6  N  1  Z    0.090197   0.000000   0.000000   0.593421   0.705309
    7  N  1  X   -0.000000   0.210628  -0.010522   0.000000   0.000000
    8  N  1  Y    0.000000   0.010522   0.210628  -0.000000  -0.000000
    9  N  1  Z   -0.004381   0.000000   0.000000   0.381592  -0.106092
   10  N  1 XX   -0.000457   0.010719  -0.000535  -0.012387   0.006153
   11  N  1 YY   -0.000457  -0.010719   0.000535  -0.012387   0.006153
   12  N  1 ZZ    0.000914  -0.000000   0.000000   0.024773  -0.012306
   13  N  1 XY    0.000000  -0.000618  -0.012377  -0.000000   0.000000
   14  N  1 XZ   -0.000000   0.026529  -0.001325  -0.000000   0.000000
   15  N  1 YZ    0.000000   0.001325   0.026529  -0.000000   0.000000
   16  H  2  S    0.194462  -0.176074   0.343485   0.112865  -0.523343
   17  H  2  S    0.003574  -0.023812   0.046452   0.024014  -0.054445
   18  H  2  X    0.018760   0.009101   0.022834   0.009336  -0.039151
   19  H  2  Y   -0.032493   0.022287  -0.020044  -0.016171   0.067811
   20  H  2  Z   -0.009251   0.008464  -0.016511   0.018769  -0.010566
   21  H  3  S    0.194462  -0.209430  -0.324227   0.112865  -0.523343
   22  H  3  S    0.003574  -0.028322  -0.043847   0.024014  -0.054445
   23  H  3  X    0.018760   0.006781  -0.023627   0.009336  -0.039151
   24  H  3  Y    0.032493  -0.024174  -0.017723   0.016171  -0.067811
   25  H  3  Z   -0.009251   0.010067   0.015585   0.018769  -0.010566
   26  H  4  S    0.194462   0.385503  -0.019258   0.112865  -0.523343
   27  H  4  S    0.003574   0.052134  -0.002604   0.024014  -0.054445
   28  H  4  X   -0.037519  -0.032295   0.001613  -0.018672   0.078302
   29  H  4  Y    0.000000   0.001067   0.021353  -0.000000   0.000000
   30  H  4  Z   -0.009251  -0.018530   0.000926   0.018769  -0.010566

                      6          7

    1  N  1  S    0.000000  -0.000000
    2  N  1  S    0.000000  -0.000000
    3  N  1  S   -0.000000   0.000000
    4  N  1  X   -0.930415  -0.002083
    5  N  1  Y   -0.002083   0.930415
    6  N  1  Z   -0.000000   0.000000
    7  N  1  X   -0.046866  -0.000105
    8  N  1  Y   -0.000105   0.046866
    9  N  1  Z   -0.000000   0.000000
   10  N  1 XX    0.001538   0.000003
   11  N  1 YY   -0.001538  -0.000003
   12  N  1 ZZ   -0.000000   0.000000
   13  N  1 XY   -0.000004   0.001776
   14  N  1 XZ    0.039985   0.000090
   15  N  1 YZ    0.000090  -0.039985
   16  H  2  S   -0.362630  -0.631354
   17  H  2  S   -0.065964  -0.114846
   18  H  2  X    0.002763  -0.037520
   19  H  2  Y    0.037435   0.040736
   20  H  2  Z    0.001882   0.003276
   21  H  3  S   -0.365454   0.629724
   22  H  3  S   -0.066477   0.114549
   23  H  3  X    0.002595   0.037532
   24  H  3  Y   -0.037617   0.040567
   25  H  3  Z    0.001896  -0.003268
   26  H  4  S    0.728084   0.001630
   27  H  4  S    0.132441   0.000297
   28  H  4  X   -0.062317  -0.000140
   29  H  4  Y    0.000055  -0.024345
   30  H  4  Z   -0.003778  -0.000008

NUMBER OF SUB ACTIVE SPACES:   1
ROTATE ACTIVE MOS TO DMOS IN EACH SUB-SPACE

SPACE  1:

OVERLAP BETWEEN ORTHONORMAL AND PRE-ORTHONORMAL REF. DMOS

             1           2           3           4           5

    1    0.9835547  -0.0188906  -0.0195729  -0.0057141   0.0010484
    2   -0.0188906   1.0307424  -0.0313160  -0.0312084   0.0621137
    3   -0.0195729  -0.0313160   0.9138814  -0.0207452   0.0258376
    4   -0.0057141  -0.0312084  -0.0207452   0.9959902  -0.0075727
    5    0.0010484   0.0621137   0.0258376  -0.0075727   1.0985765
    6    0.0028528   0.0428948  -0.0281769  -0.0403067   0.0289888
    7    0.0000770   0.0168238   0.0623022   0.0182328   0.0362196

             6           7

    1    0.0028528   0.0000770
    2    0.0428948   0.0168238
    3   -0.0281769   0.0623022
    4   -0.0403067   0.0182328
    5    0.0289888   0.0362196
    6    1.0248607  -0.0139439
    7   -0.0139439   1.0520350
REFERENCE DMOS AFTER ORTHONORMALIZATION:

                      1          2          3          4          5

    1  N  1  S    0.007986  -0.015426  -0.007547  -0.012075   0.255831
    2  N  1  S    0.447325  -0.043923  -0.017756  -0.179006   0.792711
    3  N  1  S    0.279463  -0.010967  -0.005136  -0.287973   0.130165
    4  N  1  X    0.011761   0.516168  -0.036786  -0.021883  -0.003244
    5  N  1  Y    0.010025   0.026245   0.484100  -0.004121  -0.041769
    6  N  1  Z    0.094115  -0.018843  -0.000930   0.601478   0.648087
    7  N  1  X    0.004067   0.207300  -0.005373   0.004204  -0.010023
    8  N  1  Y    0.004913   0.017110   0.229579   0.004978  -0.007524
    9  N  1  Z   -0.001589   0.017085   0.012788   0.383975  -0.095512
   10  N  1 XX   -0.000368   0.009689  -0.000658  -0.012091   0.004976
   11  N  1 YY   -0.000761  -0.011116  -0.000343  -0.012822   0.006189
   12  N  1 ZZ    0.001129   0.001428   0.001001   0.024913  -0.011165
   13  N  1 XY   -0.000297  -0.001082  -0.013786  -0.000380   0.000309
   14  N  1 XZ    0.000387   0.024388   0.000677   0.002303  -0.002393
   15  N  1 YZ    0.000702   0.002928   0.031903   0.001509   0.000403
   16  H  2  S    0.206386  -0.099751   0.423940   0.114685  -0.451162
   17  H  2  S    0.004906  -0.013434   0.058029   0.024149  -0.044684
   18  H  2  X    0.020010   0.013035   0.029737   0.011069  -0.035914
   19  H  2  Y   -0.033531   0.014156  -0.025795  -0.015421   0.059297
   20  H  2  Z   -0.009478   0.008504  -0.017492   0.018629  -0.009739
   21  H  3  S    0.188268  -0.177722  -0.395617   0.071806  -0.468797
   22  H  3  S    0.002350  -0.024970  -0.056636   0.017219  -0.048801
   23  H  3  X    0.018772   0.007823  -0.026462   0.008329  -0.036768
   24  H  3  Y    0.032488  -0.018734  -0.021209   0.012804  -0.060588
   25  H  3  Z   -0.008705   0.011341   0.018382   0.019650  -0.010483
   26  H  4  S    0.205162   0.384561   0.035421   0.151979  -0.517582
   27  H  4  S    0.004549   0.049654   0.005075   0.030597  -0.055788
   28  H  4  X   -0.038933  -0.034738  -0.004644  -0.022068   0.074957
   29  H  4  Y    0.000551   0.002224   0.025168   0.001064   0.000094
   30  H  4  Z   -0.009596  -0.016989   0.000805   0.018127  -0.008496

                      6          7

    1  N  1  S   -0.007404  -0.008004
    2  N  1  S   -0.029668  -0.022861
    3  N  1  S   -0.015457   0.000764
    4  N  1  X   -0.931533  -0.019913
    5  N  1  Y    0.022831   0.857119
    6  N  1  Z    0.005385  -0.032316
    7  N  1  X   -0.054164  -0.003543
    8  N  1  Y    0.006309   0.030934
    9  N  1  Z    0.017387  -0.004166
   10  N  1 XX    0.000461  -0.000068
   11  N  1 YY   -0.001719   0.000181
   12  N  1 ZZ    0.001259  -0.000113
   13  N  1 XY   -0.000326   0.002513
   14  N  1 XZ    0.038173   0.000203
   15  N  1 YZ    0.000344  -0.039979
   16  H  2  S   -0.329666  -0.614477
   17  H  2  S   -0.061531  -0.112083
   18  H  2  X    0.003867  -0.036539
   19  H  2  Y    0.033561   0.038695
   20  H  2  Z    0.002089   0.004055
   21  H  3  S   -0.335824   0.635278
   22  H  3  S   -0.061786   0.113199
   23  H  3  X    0.003313   0.038281
   24  H  3  Y   -0.033811   0.041530
   25  H  3  Z    0.002916  -0.004316
   26  H  4  S    0.715591   0.017957
   27  H  4  S    0.130090   0.002302
   28  H  4  X   -0.062390  -0.002324
   29  H  4  Y    0.000354  -0.024684
   30  H  4  Z   -0.001971   0.000169

 -------------------------------------------
       MAXIMIZING MORMO OVERLAP TERM        
 -------------------------------------------
   SWEEP    VALUE       PROGRESS
     0     5.61974
     1     6.95813     1.33839222
     2     6.96837     0.01023905
     3     6.96837     0.00000064
     4     6.96837     0.00000000
     5     6.96837     0.00000000
 THE ROTATION IS DONE
ACTIVE ORBITALS AFTER MORMO:

                      1          2          3          4          5

    1  N  1  S    0.006789  -0.020103  -0.013970  -0.012148   0.218651
    2  N  1  S    0.431037  -0.042611  -0.036729  -0.186844   0.746391
    3  N  1  S    0.318461   0.018003   0.042342  -0.276909   0.182445
    4  N  1  X    0.008008   0.509120  -0.041448  -0.029269   0.009885
    5  N  1  Y   -0.001682   0.015211   0.445841  -0.019619  -0.027914
    6  N  1  Z    0.085286  -0.034030  -0.013532   0.600628   0.636993
    7  N  1  X    0.008648   0.183096   0.010161   0.037497  -0.036768
    8  N  1  Y    0.019414   0.038519   0.290747   0.029489  -0.027739
    9  N  1  Z    0.018607   0.049097   0.035755   0.384362  -0.079814
   10  N  1 XX    0.003798   0.008695   0.008342  -0.011930  -0.035322
   11  N  1 YY   -0.004254  -0.009211  -0.008274  -0.010900   0.033861
   12  N  1 ZZ    0.000456   0.000517  -0.000068   0.022830   0.001461
   13  N  1 XY   -0.002172  -0.009009  -0.019944  -0.003340   0.021543
   14  N  1 XZ   -0.002523   0.016820   0.000305   0.001660   0.030781
   15  N  1 YZ    0.000691   0.001320   0.024850  -0.002450   0.023503
   16  H  2  S    0.188328  -0.144640   0.359126   0.106805  -0.439913
   17  H  2  S    0.005390  -0.005541   0.103674   0.031321  -0.056236
   18  H  2  X    0.026659  -0.005750   0.036935   0.012218  -0.036202
   19  H  2  Y   -0.018496   0.020063  -0.006248  -0.009016   0.043272
   20  H  2  Z   -0.006961   0.013310  -0.011296   0.018639  -0.018981
   21  H  3  S    0.186702  -0.190352  -0.352633   0.089688  -0.487738
   22  H  3  S    0.001845  -0.029964  -0.106187   0.019844  -0.060918
   23  H  3  X    0.022289   0.004152  -0.026052   0.010786  -0.026241
   24  H  3  Y    0.024131  -0.017049  -0.008035   0.015946  -0.055869
   25  H  3  Z   -0.013533   0.017038   0.022168   0.017612  -0.008605
   26  H  4  S    0.186917   0.386110   0.002144   0.126222  -0.504567
   27  H  4  S    0.001440   0.049213   0.014408   0.032957  -0.061668
   28  H  4  X   -0.035084  -0.038264   0.009286  -0.014126   0.061970
   29  H  4  Y    0.006977   0.014571   0.019432   0.003772  -0.012561
   30  H  4  Z   -0.003986  -0.011103   0.002193   0.020989  -0.012705

                      6          7

    1  N  1  S   -0.055994   0.006310
    2  N  1  S   -0.123598   0.021367
    3  N  1  S    0.112662  -0.058064
    4  N  1  X   -0.910457  -0.026831
    5  N  1  Y    0.025755   0.867406
    6  N  1  Z    0.027231  -0.059521
    7  N  1  X   -0.100937   0.001097
    8  N  1  Y    0.006704   0.013884
    9  N  1  Z    0.013271   0.022006
   10  N  1 XX   -0.015755  -0.025445
   11  N  1 YY    0.027348   0.023723
   12  N  1 ZZ   -0.011594   0.001722
   13  N  1 XY   -0.032585   0.036437
   14  N  1 XZ    0.052392   0.006330
   15  N  1 YZ   -0.013491  -0.023438
   16  H  2  S   -0.359309  -0.559359
   17  H  2  S   -0.078008  -0.163093
   18  H  2  X   -0.009365  -0.049273
   19  H  2  Y    0.041265   0.014854
   20  H  2  Z   -0.019186   0.008927
   21  H  3  S   -0.355065   0.591791
   22  H  3  S   -0.068604   0.172151
   23  H  3  X    0.021188   0.038209
   24  H  3  Y   -0.041025   0.019715
   25  H  3  Z   -0.002776  -0.016664
   26  H  4  S    0.698372   0.032265
   27  H  4  S    0.139317   0.003324
   28  H  4  X   -0.065196  -0.011435
   29  H  4  Y    0.014201  -0.009113
   30  H  4  Z    0.014505   0.012140

Actually Used Diabatic Molecualr Orbitals:

                      1          2          3          4          5

    1  N  1  S    0.006789  -0.020103  -0.013970  -0.012148   0.218651
    2  N  1  S    0.431037  -0.042611  -0.036729  -0.186844   0.746391
    3  N  1  S    0.318461   0.018003   0.042342  -0.276909   0.182445
    4  N  1  X    0.008008   0.509120  -0.041448  -0.029269   0.009885
    5  N  1  Y   -0.001682   0.015211   0.445841  -0.019619  -0.027914
    6  N  1  Z    0.085286  -0.034030  -0.013532   0.600628   0.636993
    7  N  1  X    0.008648   0.183096   0.010161   0.037497  -0.036768
    8  N  1  Y    0.019414   0.038519   0.290747   0.029489  -0.027739
    9  N  1  Z    0.018607   0.049097   0.035755   0.384362  -0.079814
   10  N  1 XX    0.003798   0.008695   0.008342  -0.011930  -0.035322
   11  N  1 YY   -0.004254  -0.009211  -0.008274  -0.010900   0.033861
   12  N  1 ZZ    0.000456   0.000517  -0.000068   0.022830   0.001461
   13  N  1 XY   -0.002172  -0.009009  -0.019944  -0.003340   0.021543
   14  N  1 XZ   -0.002523   0.016820   0.000305   0.001660   0.030781
   15  N  1 YZ    0.000691   0.001320   0.024850  -0.002450   0.023503
   16  H  2  S    0.188328  -0.144640   0.359126   0.106805  -0.439913
[...]
       58    0.020355   -0.020355  2-02+0+

 ---------------------------------------
    -DIABATIC STATES IN PROTOTYPES-     
 ---------------------------------------

     STATE:    1
 Group Ref#    Coefficients
     1    1    0.967018
     2    2    0.000855
     3    3   -0.004217

WEIGHT OF LISTED PROTOTYPES:   93.51%

     STATE:    2
 Group Ref#    Coefficients
     1    1    0.000855
     2    2    0.962594
     3    3    0.001469

WEIGHT OF LISTED PROTOTYPES:   92.66%

     STATE:    3
 Group Ref#    Coefficients
     1    1   -0.004217
     2    2    0.001469
     3    3    0.967044

WEIGHT OF LISTED PROTOTYPES:   93.52%

 --------------------------------------------------
 IN DIRECT MAX. DIABATIZATION FOR GMC-QDPT

 DIRECT MAXIMIZATION (DM) WITHOUT TRUNCATING ADIABATS
 EXPANSIONS INTO THE REFERENCE CONFIGURATION SPACE
 --------------------------------------------------

 -------------------------------------------
 - DM DIABT PT HAMILTONIAN MATRIX ELEMENTS -
 -------------------------------------------
                                            
 --- DIABATIC ENERGIES (DIAGONAL ELEMENT) ---       HARTREE            EV
 STATE #  1'S GMC-PT-LEVEL DIABATIC ENERGY=     -55.952135011       0.000000000
 STATE #  2'S GMC-PT-LEVEL DIABATIC ENERGY=     -55.699875280       6.864336891
 STATE #  3'S GMC-PT-LEVEL DIABATIC ENERGY=     -55.847962519       2.834677866

 --- DIABATIC COUPLINGS (OFF DIAGONAL ELEMENTS)---  HATREE            EV
 STATE #  1 &  2'S GMC-PT-LEVEL COUPLING  =       0.037760763       1.027522688
 STATE #  1 &  3'S GMC-PT-LEVEL COUPLING  =       0.022334871       0.607762784
 STATE #  2 &  3'S GMC-PT-LEVEL COUPLING  =      -0.029641534      -0.806587235

 ---------------------------------------
     - ROTATION TO DIABATIC STATES -    
 ---------------------------------------
 ROWS=ADIABATIC, COLUMNS=DIABATIC STATES

             1           2           3

    1   -0.9602334   0.1628465   0.2267880
    2   -0.2487643  -0.1302314  -0.9597688
    3   -0.1267601  -0.9780188   0.1655629

 ---------------------------------------
          - DIABATIC STATES -           
 ---------------------------------------

 State #    1  Energy =     -55.952135011

      Det      Coef        Coefp    Occupancy (Ignoring core)
      ---      ----        ----    --------- --------- -----
        1    0.947637   -0.947637  222+000
       17    0.139401    0.139401  22-+00+
      701   -0.106842   -0.106842  22++00-
        4    0.089182   -0.089182  2-2++00
      176   -0.086659    0.086659  2+2+-00
      717   -0.073610   -0.073610  220+002
      393   -0.064064   -0.064064  202+020
        6   -0.057322    0.057322  22200+0
        3    0.053132    0.053132  22-++00
      141   -0.050659   -0.050659  22++-00
      402    0.043277   -0.043277  2+-+0-+
       16    0.041799   -0.041799  222000+
      708    0.039808   -0.039808  2-++0+-
      351    0.037979    0.037979  22++0-0
        7   -0.037223   -0.037223  22-+0+0
      215   -0.036992   -0.036992  022+200
      227   -0.034376   -0.034376  +2-+-0+
      705   -0.033861   -0.033861  -2+++0-
      390    0.033623   -0.033623  -+2++-0
      218    0.033200   -0.033200  +-2+-+0
       51   -0.032560    0.032560  22+-00+
      212    0.029658    0.029658  +220200
      192    0.028986   -0.028986  2+-+-0+
      122    0.028730    0.028730  +2-200+
      704    0.027445   -0.027445  2-+++0-
       18    0.025902   -0.025902  2-2+00+
      773    0.025235   -0.025235  +2-++0-
       76    0.025146    0.025146  2+2-0+0
      702    0.025131    0.025131  22+0+0-
      159    0.024120   -0.024120  -2++-0+
     1051   -0.024073   -0.024073  2+++0--
      736   -0.023846    0.023846  2+2+00-
      143   -0.023134   -0.023134  220+200
      424   -0.023098   -0.023098  +-2++-0
      113   -0.022955    0.022955  +-220+0
      387   -0.022481    0.022481  2+20+-0
      179   -0.021995   -0.021995  202+200
      184   -0.021954   -0.021954  -+2+-+0
      706    0.021954    0.021954  22+00+-
        5    0.021447    0.021447  -22++00
       29   -0.021134   -0.021134  2--+0++
        2    0.020702   -0.020702  2220+00

 State #    2  Energy =     -55.699875280

      Det      Coef        Coefp    Occupancy (Ignoring core)
      ---      ----        ----    --------- --------- -----
       71   -0.950091    0.950091  2+22000
      806   -0.108750   -0.108750  2++200-
       87    0.095532   -0.095532  2+-200+
      822    0.077931   -0.077931  2+02002
      246   -0.061614   -0.061614  2++2-00
       74   -0.061072    0.061072  2022+00
       73    0.060502   -0.060502  2+-2+00
      386    0.056499   -0.056499  2+2+0-0
       78   -0.054631    0.054631  20220+0
      736   -0.050098    0.050098  2+2+00-
       76   -0.049308   -0.049308  2+2-0+0
       86    0.048479    0.048479  2+2-00+
      106   -0.048254   -0.048254  +222000
       77   -0.048182    0.048182  2+-20+0
      813    0.047992   -0.047992  20+20+-
       36    0.046246    0.046246  22+2000
      122    0.044706    0.044706  +2-200+
      456    0.042333    0.042333  2++20-0
      111    0.039937   -0.039937  +22-0+0
      332   -0.037765    0.037765  ++-2-0+
      320    0.037625    0.037625  0+22200
      810   -0.036549   -0.036549  -++2+0-
      317    0.031973   -0.031973  ++2-200
       99   -0.031841    0.031841  20-20++
      323   -0.031385    0.031385  +022-+0
      180   -0.031297    0.031297  -+2+200
      807   -0.030191    0.030191  2++-+0-
      177    0.030178   -0.030178  2+20200
      192   -0.029201    0.029201  2+-+-0+
       38   -0.029076    0.029076  2202+00
        6    0.027641   -0.027641  22200+0
      248    0.027014   -0.027014  2+02200
      264    0.026469   -0.026469  -++2-0+
      878    0.025703    0.025703  ++-2+0-
      841   -0.025499    0.025499  +2+200-
      316    0.025279    0.025279  ++22-00
       90    0.025169    0.025169  2+--+0+
       51    0.023366   -0.023366  22+-00+
      809    0.023330   -0.023330  20+2+0-
      183   -0.022886    0.022886  202+-+0
      391    0.021859   -0.021859  2+20020
      811   -0.021142    0.021142  2++-0+-
      911    0.020944    0.020944  2+++-0-
      109   -0.020879    0.020879  +-22+00
      421   -0.020357   -0.020357  +22+0-0
       72   -0.020346   -0.020346  2+2-+00

 State #    3  Energy =     -55.847962519

      Det      Coef        Coefp    Occupancy (Ignoring core)
      ---      ----        ----    --------- --------- -----
       36   -0.949973   -0.949973  22+2000
       39   -0.121630   -0.121630  2-+2+00
      246    0.097086    0.097086  2++2-00
       41   -0.087295    0.087295  22+-0+0
       52   -0.086837    0.086837  220200+
      351    0.079285    0.079285  22++0-0
      463    0.061512   -0.061512  20+2020
       38   -0.051788    0.051788  2202+00
      701   -0.046845   -0.046845  22++00-
      472   -0.046807   -0.046807  2+020-+
       51    0.046379   -0.046379  22+-00+
      106   -0.045566   -0.045566  +222000
       71   -0.045112    0.045112  2+22000
      285    0.036536   -0.036536  02+2200
      297    0.035057   -0.035057  +202-0+
       42    0.034297   -0.034297  22020+0
      456    0.034077    0.034077  2++20-0
      460   -0.034018   -0.034018  -++2+-0
      288   -0.033284   -0.033284  +-+2-+0
       53   -0.032600   -0.032600  2-+200+
       64    0.031828   -0.031828  2-020++
      157    0.031587   -0.031587  220+-0+
      123    0.031426   -0.031426  +-2200+
      145   -0.031255   -0.031255  -2++200
      282    0.030663    0.030663  +2+-200
      142    0.030297    0.030297  22+0200
       43   -0.030228   -0.030228  2-+20+0
      121   -0.030078    0.030078  +22-00+
      262   -0.028433   -0.028433  2+02-0+
       55   -0.027669   -0.027669  220-+0+
      367    0.026112   -0.026112  220+0-+
       73    0.024544   -0.024544  2+-2+00
      494    0.023198   -0.023198  +-+2+-0
      457   -0.023062    0.023062  2++-+-0
      716    0.023017    0.023017  22+0002
      148   -0.022795   -0.022795  2-++-+0
       16   -0.022580    0.022580  222000+
      843   -0.022510   -0.022510  +202+0-
      806    0.022407    0.022407  2++200-
       86    0.022174    0.022174  2+2-00+
      249    0.021290   -0.021290  20+2200
      254    0.020952   -0.020952  -++2-+0
      859    0.020740   -0.020740  02+2002
       58    0.020655   -0.020655  2-02+0+

 ---------------------------------------
      - DIABATIC STATES IN CMO -        
 ---------------------------------------

 State #    1  Energy =     -55.952135011

      Det      Coef        Coefp    Occupancy (Ignoring core)
      ---      ----        ----    --------- --------- -----
        1    0.918446   -0.918446  222+000
       36   -0.307271   -0.307271  22+2000
       71   -0.125959    0.125959  2+22000
      717   -0.065764   -0.065764  220+002
      393   -0.056059   -0.056059  202+020
      143   -0.043086   -0.043086  220+200
        8   -0.036473    0.036473  2-2+0+0
      716    0.032442    0.032442  22+0002
      106   -0.031651   -0.031651  +222000
        3   -0.031141   -0.031141  22-++00
      753   -0.030892   -0.030892  202+002
      708    0.030566   -0.030566  2-++0+-
      703    0.030539    0.030539  220++0-
       16    0.029562   -0.029562  222000+
      215   -0.029015   -0.029015  022+200
      719   -0.028705   -0.028705  -2++002
      704    0.025328   -0.025328  2-+++0-
      213   -0.024334    0.024334  +2-+200
      157   -0.024199    0.024199  220+-0+
      787    0.023889   -0.023889  +2-+002
      122    0.023792    0.023792  +2-200+
        4   -0.022556    0.022556  2-2++00
       17    0.022343    0.022343  22-+00+
      145    0.022301    0.022301  -2++200
      402    0.022125   -0.022125  2+-+0-+
       76    0.021460    0.021460  2+2-0+0
       37    0.021197   -0.021197  22+-+00
      789   -0.021101   -0.021101  022+002
      401    0.020904    0.020904  2+200-+
      179   -0.020606   -0.020606  202+200
       52   -0.020369    0.020369  220200+
      463    0.020106   -0.020106  20+2020
      192    0.020039   -0.020039  2+-+-0+

 State #    2  Energy =     -55.699875280

      Det      Coef        Coefp    Occupancy (Ignoring core)
      ---      ----        ----    --------- --------- -----
       71   -0.958166    0.958166  2+22000
        1   -0.165865    0.165865  222+000
       36   -0.101670   -0.101670  22+2000
      822    0.064167   -0.064167  2+02002
      248    0.046174   -0.046174  2+02200
      122    0.036204    0.036204  +2-200+
      111    0.035101   -0.035101  +22-0+0
      751    0.031866   -0.031866  2+20002
      320    0.030705    0.030705  0+22200
      808   -0.028845    0.028845  2+02+0-
      123   -0.028344    0.028344  +-2200+
      262    0.027831    0.027831  2+02-0+
       18    0.026927   -0.026927  2-2+00+
       51    0.026191   -0.026191  22+-00+
      108   -0.026159   -0.026159  +2-2+00
      824   -0.026062   -0.026062  -++2002
      892    0.025711    0.025711  ++-2002
      752    0.025333    0.025333  2+-+002
      318   -0.024834   -0.024834  ++-2200
      894    0.024026    0.024026  0+22002
      821   -0.023971    0.023971  2++-002
       38   -0.023924    0.023924  2202+00
      107    0.023667   -0.023667  +22-+00
      250    0.023501    0.023501  -++2200
      809    0.023383   -0.023383  20+2+0-
      391    0.023364   -0.023364  2+20020
      813    0.022966   -0.022966  20+20+-
       78   -0.022644    0.022644  20220+0
       17   -0.022396   -0.022396  22-+00+
      177    0.022023   -0.022023  2+20200
       76    0.021856    0.021856  2+2-0+0
      421   -0.021374   -0.021374  +22+0-0
      743    0.020834    0.020834  202+0+-
      249   -0.020160    0.020160  20+2200

 State #    3  Energy =     -55.847962519

      Det      Coef        Coefp    Occupancy (Ignoring core)
      ---      ----        ----    --------- --------- -----
       36   -0.927253   -0.927253  22+2000
        1   -0.290239    0.290239  222+000
       71    0.147585   -0.147585  2+22000
      463    0.052458   -0.052458  20+2020
      823    0.034060   -0.034060  20+2002
      123    0.031467   -0.031467  +-2200+
      262   -0.030486   -0.030486  2+02-0+
      248   -0.030410    0.030410  2+02200
      285    0.029706   -0.029706  02+2200
      249    0.026407   -0.026407  20+2200
      142    0.025609    0.025609  22+0200
      143    0.025404    0.025404  220+200
      157    0.025064   -0.025064  220+-0+
      122    0.024516    0.024516  +2-200+
      857   -0.023303   -0.023303  +202002
      716    0.023189    0.023189  22+0002
      859    0.023149   -0.023149  02+2002
       16   -0.022729    0.022729  222000+
      471    0.022716    0.022716  2++-0-+
      472   -0.022237   -0.022237  2+020-+
      283    0.022133    0.022133  +202200
      356    0.022130    0.022130  22+0020
       55   -0.021665   -0.021665  220-+0+
       58    0.020355   -0.020355  2-02+0+

 ---------------------------------------
    -DIABATIC STATES IN PROTOTYPES-     
 ---------------------------------------

     STATE:    1
 Group Ref#    Coefficients
     1    1    0.967018
     2    2    0.000853
     3    3   -0.004217

WEIGHT OF LISTED PROTOTYPES:   93.51%

     STATE:    2
 Group Ref#    Coefficients
     1    1    0.000857
     2    2    0.962594
     3    3    0.001472

WEIGHT OF LISTED PROTOTYPES:   92.66%

     STATE:    3
 Group Ref#    Coefficients
     1    1   -0.004217
     2    2    0.001465
     3    3    0.967044

WEIGHT OF LISTED PROTOTYPES:   93.52%

     DIRECT MAX. DIABATIZATION FINISHED    
 CPU     0: STEP CPU TIME=     0.24 TOTAL CPU TIME=         14.2 (      0.2 MIN)
 TOTAL WALL CLOCK TIME=         14.2 SECONDS, CPU UTILIZATION IS    99.86%

DIABATS FOR SPIN-ORBIT CALCULATION ARE READY

TRANSITION DIPOLES BETWEEN ADIABATS (in A.U.):

STATE PAIR      X         Y         Z
    1    1 -0.258211 -0.131435  0.710830
    2    1 -0.026103 -0.022899  0.124255
    2    2 -0.081095 -0.221509  0.295157
    3    1  0.113275 -0.031133  0.063734
    3    2 -0.095739  0.150117 -0.001719
    3    3 -0.536608 -0.185378  0.262673


TRANSITION DIPOLES BETWEEN DIABATS (in A.U.):

STATE PAIR      X         Y         Z
    1    1 -0.242657 -0.146928  0.752675
    2    1  0.048185 -0.001136 -0.000430
    2    2 -0.580863 -0.135432  0.249099
    3    1 -0.003423 -0.022260  0.005562
    3    2 -0.037808  0.145472 -0.016473
    3    3 -0.052395 -0.255961  0.266887

TRANSITION DIPOLES BETWEEN DIRECT MAX. DIABATS (in A.U.):

STATE PAIR      X         Y         Z
    1    1 -0.242657 -0.146928  0.752675
    2    1  0.048185 -0.001136 -0.000429
    2    2 -0.580863 -0.135431  0.249099
    3    1 -0.003423 -0.022261  0.005562
    3    2 -0.037806  0.145471 -0.016473
    3    3 -0.052395 -0.255962  0.266887
 No $TRANST Group Found.
 Quit without doing spin-orbit coupling
 ..... DONE WITH MP2 ENERGY .....
 CPU     0: STEP CPU TIME=     0.01 TOTAL CPU TIME=         14.2 (      0.2 MIN)
 TOTAL WALL CLOCK TIME=         14.2 SECONDS, CPU UTILIZATION IS    99.93%
            100000000  WORDS OF DYNAMIC MEMORY USED
 EXECUTION OF GAMESS TERMINATED NORMALLY Wed Nov 16 18:58:38 2022
 DDI: 715512 bytes (0.7 MB / 0 MWords) used by master data server.

 ----------------------------------------
 CPU timing information for all processes
 ========================================
 0: 13.853 + 0.320 = 14.173
 ----------------------------------------
Note: The following floating-point exceptions are signalling: IEEE_DENORMAL
 ddikick.x: exited gracefully.
unset echo
----- accounting info -----
Files used on the master node io002 were:
-rw-r--r-- 1 bsonghao nooijen   20728 Nov 16 18:58 /scratch/bsonghao/nh3_diabatization_2d_at_mode_7_8_dist-0.3_-0.5.F05
-rw-r--r-- 1 bsonghao nooijen  363520 Nov 16 18:58 /scratch/bsonghao/nh3_diabatization_2d_at_mode_7_8_dist-0.3_-0.5.F09
-rw-r--r-- 1 bsonghao nooijen 1995920 Nov 16 18:58 /scratch/bsonghao/nh3_diabatization_2d_at_mode_7_8_dist-0.3_-0.5.F10
-rw-r--r-- 1 bsonghao nooijen  131264 Nov 16 18:58 /scratch/bsonghao/nh3_diabatization_2d_at_mode_7_8_dist-0.3_-0.5.F13
-rw-r--r-- 1 bsonghao nooijen  180312 Nov 16 18:58 /scratch/bsonghao/nh3_diabatization_2d_at_mode_7_8_dist-0.3_-0.5.F15
-rw-r--r-- 1 bsonghao nooijen       0 Nov 16 18:58 /scratch/bsonghao/nh3_diabatization_2d_at_mode_7_8_dist-0.3_-0.5.F16
-rw-r--r-- 1 bsonghao nooijen    9808 Nov 16 18:58 /scratch/bsonghao/nh3_diabatization_2d_at_mode_7_8_dist-0.3_-0.5.F70
-rw-r--r-- 1 bsonghao nooijen    9808 Nov 16 18:58 /scratch/bsonghao/nh3_diabatization_2d_at_mode_7_8_dist-0.3_-0.5.F71
-rw-r--r-- 1 bsonghao nooijen   19608 Nov 16 18:58 /scratch/bsonghao/nh3_diabatization_2d_at_mode_7_8_dist-0.3_-0.5.F72
-rw-r--r-- 1 bsonghao nooijen   19608 Nov 16 18:58 /scratch/bsonghao/nh3_diabatization_2d_at_mode_7_8_dist-0.3_-0.5.F73
-rw-r--r-- 1 bsonghao nooijen 1920824 Nov 16 18:58 /scratch/bsonghao/nh3_diabatization_2d_at_mode_7_8_dist-0.3_-0.5.F74
-rw-r--r-- 1 bsonghao nooijen       0 Nov 16 18:58 /scratch/bsonghao/nh3_diabatization_2d_at_mode_7_8_dist-0.3_-0.5.F75
-rw-r--r-- 1 bsonghao nooijen   58848 Nov 16 18:58 /scratch/bsonghao/nh3_diabatization_2d_at_mode_7_8_dist-0.3_-0.5.F76
-rw-r--r-- 1 bsonghao nooijen       0 Nov 16 18:58 /scratch/bsonghao/nh3_diabatization_2d_at_mode_7_8_dist-0.3_-0.5.F77
-rw-r--r-- 1 bsonghao nooijen    1864 Nov 16 18:58 /scratch/bsonghao/nh3_diabatization_2d_at_mode_7_8_dist-0.3_-0.5.F78
-rw-r--r-- 1 bsonghao nooijen   39208 Nov 16 18:58 /scratch/bsonghao/nh3_diabatization_2d_at_mode_7_8_dist-0.3_-0.5.F79
-rw-r--r-- 1 bsonghao nooijen     104 Nov 16 18:58 /scratch/bsonghao/nh3_diabatization_2d_at_mode_7_8_dist-0.3_-0.5.F80
-rw-r--r-- 1 bsonghao nooijen   13472 Nov 16 18:58 /scratch/bsonghao/nh3_diabatization_2d_at_mode_7_8_dist-0.3_-0.5.F81
-rw-r--r-- 1 bsonghao nooijen      16 Nov 16 18:58 /scratch/bsonghao/nh3_diabatization_2d_at_mode_7_8_dist-0.3_-0.5.F82
-rw-r--r-- 1 bsonghao nooijen   19216 Nov 16 18:58 /scratch/bsonghao/nh3_diabatization_2d_at_mode_7_8_dist-0.3_-0.5.F83
-rw-r--r-- 1 bsonghao nooijen   29712 Nov 16 18:58 /scratch/bsonghao/nh3_diabatization_2d_at_mode_7_8_dist-0.3_-0.5.F84
-rw-r--r-- 1 bsonghao nooijen  401576 Nov 16 18:58 /scratch/bsonghao/nh3_diabatization_2d_at_mode_7_8_dist-0.3_-0.5.F85
-rw-r--r-- 1 bsonghao nooijen  903672 Nov 16 18:58 /scratch/bsonghao/nh3_diabatization_2d_at_mode_7_8_dist-0.3_-0.5.F86
-rw-r--r-- 1 bsonghao nooijen     656 Nov 16 18:58 /scratch/bsonghao/nh3_diabatization_2d_at_mode_7_8_dist-0.3_-0.5.F87
-rw-r--r-- 1 bsonghao nooijen   37328 Nov 16 18:58 /scratch/bsonghao/nh3_diabatization_2d_at_mode_7_8_dist-0.3_-0.5.F88
-rw-r--r-- 1 bsonghao nooijen     240 Nov 16 18:58 /scratch/bsonghao/nh3_diabatization_2d_at_mode_7_8_dist-0.3_-0.5.F89
-rw-r--r-- 1 bsonghao nooijen       0 Nov 16 18:58 /scratch/bsonghao/nh3_diabatization_2d_at_mode_7_8_dist-0.3_-0.5.F90
-rw-r--r-- 1 bsonghao nooijen   13760 Nov 16 18:58 /scratch/bsonghao/nh3_diabatization_2d_at_mode_7_8_dist-0.3_-0.5.F91
-rw-r--r-- 1 bsonghao nooijen   22776 Nov 16 18:58 /scratch/bsonghao/nh3_diabatization_2d_at_mode_7_8_dist-0.3_-0.5.F92
-rw-r--r-- 1 bsonghao nooijen   23168 Nov 16 18:58 /scratch/bsonghao/nh3_diabatization_2d_at_mode_7_8_dist-0.3_-0.5.F93
-rw-r--r-- 1 bsonghao nooijen   22776 Nov 16 18:58 /scratch/bsonghao/nh3_diabatization_2d_at_mode_7_8_dist-0.3_-0.5.F94
-rw-r--r-- 1 bsonghao nooijen   13760 Nov 16 18:58 /scratch/bsonghao/nh3_diabatization_2d_at_mode_7_8_dist-0.3_-0.5.F95
-rw-r--r-- 1 bsonghao nooijen   29440 Nov 16 18:58 /scratch/bsonghao/nh3_diabatization_2d_at_mode_7_8_dist-0.3_-0.5.F96
-rw-r--r-- 1 bsonghao nooijen    1184 Nov 16 18:58 /scratch/bsonghao/nh3_diabatization_2d_at_mode_7_8_dist-0.3_-0.5.F97
-rw-r--r-- 1 bsonghao nooijen    9808 Nov 16 18:58 /scratch/bsonghao/nh3_diabatization_2d_at_mode_7_8_dist-0.3_-0.5.F98
-rw-r--r-- 1 bsonghao nooijen   30264 Nov 16 18:58 /scratch/bsonghao/nh3_diabatization_2d_at_mode_7_8_dist-0.3_-0.5.F99
ls: No match.
ls: No match.
ls: No match.
Wed 16 Nov 2022 06:58:41 PM EST
0.293u 0.043s 0:17.54 1.8%	0+0k 48+224io 0pf+0w
