----- GAMESS execution script 'rungms' -----
This job is running on host io002
under operating system Linux at Wed 16 Nov 2022 08:09:10 PM EST
Available scratch disk space (Kbyte units) at beginning of the job is
Filesystem       1K-blocks       Used   Available Use% Mounted on
/dev/sdc1      15378471580 3278917120 11318349060  23% /scratch
GAMESS temporary binary files will be written to /scratch/bsonghao
GAMESS supplementary output files will be written to /home/bsonghao/.gamess_ascii_files/267638
Copying input file nh3_diabatization_2d_at_mode_7_8_dist0.6_0.0.inp to your run's scratch directory...
cp nh3_diabatization_2d_at_mode_7_8_dist0.6_0.0.inp /scratch/bsonghao/nh3_diabatization_2d_at_mode_7_8_dist0.6_0.0.F05
unset echo
/home/bjb2chen/gamess/ddikick.x /home/bjb2chen/gamess/gamess.00.x nh3_diabatization_2d_at_mode_7_8_dist0.6_0.0 -ddi 1 1 io002 -scr /scratch/bsonghao

 Distributed Data Interface kickoff program.
 Initiating 1 compute processes on 1 nodes to run the following command:
 /home/bjb2chen/gamess/gamess.00.x nh3_diabatization_2d_at_mode_7_8_dist0.6_0.0 

          ******************************************************
          *         GAMESS VERSION = 02 AUG 2018 (R2)         *
          *             FROM IOWA STATE UNIVERSITY             *
          * M.W.SCHMIDT, K.K.BALDRIDGE, J.A.BOATZ, S.T.ELBERT, *
          *   M.S.GORDON, J.H.JENSEN, S.KOSEKI, N.MATSUNAGA,   *
          *          K.A.NGUYEN, S.J.SU, T.L.WINDUS,           *
          *       TOGETHER WITH M.DUPUIS, J.A.MONTGOMERY       *
          *         J.COMPUT.CHEM.  14, 1347-1363(1993)        *
          **************** 64 BIT LINUX VERSION ****************

  SINCE 1993, STUDENTS AND POSTDOCS WORKING AT IOWA STATE UNIVERSITY
  AND ALSO IN THEIR VARIOUS JOBS AFTER LEAVING ISU HAVE MADE IMPORTANT
  CONTRIBUTIONS TO THE CODE:
     IVANA ADAMOVIC, CHRISTINE AIKENS, YURI ALEXEEV, POOJA ARORA,
     ANDREY ASADCHEV, ROB BELL, PRADIPTA BANDYOPADHYAY, JONATHAN BENTZ,
     BRETT BODE, KURT BRORSEN, CALEB CARLIN, GALINA CHABAN, WEI CHEN,
     CHEOL HO CHOI, PAUL DAY, ALBERT DEFUSCO, NUWAN DESILVA, TIM DUDLEY,
     DMITRI FEDOROV, ALEX FINDLATER, GRAHAM FLETCHER, MARK FREITAG,
     KURT GLAESEMANN, ANASTASIA GUININA,
     DAN KEMP, GRANT MERRILL, NORIYUKI MINEZAWA, JONATHAN MULLIN,
     TAKESHI NAGATA, SEAN NEDD, HEATHER NETZLOFF, BOSILJKA NJEGIC, RYAN OLSON,
     MIKE PAK, BUU PHAM,
     SPENCER PRUITT, LUKE ROSKOP, JIM SHOEMAKER, LYUDMILA SLIPCHENKO,
     TONY SMITH, SAROM SOK LEANG, JIE SONG, TETSUYA TAKETSUGU, SIMON WEBB,
     PENG XU, SOOHAENG YOO, FEDERICO ZAHARIEV

  ADDITIONAL CODE HAS BEEN PROVIDED BY COLLABORATORS IN OTHER GROUPS:
     IOWA STATE UNIVERSITY:
          JOE IVANIC, AARON WEST, LAIMUTIS BYTAUTAS, KLAUS RUEDENBERG
     UNIVERSITY OF TOKYO: KIMIHIKO HIRAO, TAKAHITO NAKAJIMA,
          TAKAO TSUNEDA, MUNEAKI KAMIYA, SUSUMU YANAGISAWA,
          KIYOSHI YAGI, MAHITO CHIBA, SEIKEN TOKURA, NAOAKI KAWAKAMI
     UNIVERSITY OF AARHUS: FRANK JENSEN
     UNIVERSITY OF IOWA: VISVALDAS KAIRYS, HUI LI
     NATIONAL INST. OF STANDARDS AND TECHNOLOGY: WALT STEVENS, DAVID GARMER
     UNIVERSITY OF PISA: BENEDETTA MENNUCCI, JACOPO TOMASI
     UNIVERSITY OF MEMPHIS: HENRY KURTZ, PRAKASHAN KORAMBATH
     UNIVERSITY OF ALBERTA: TOBY ZENG, MARIUSZ KLOBUKOWSKI
     UNIVERSITY OF NEW ENGLAND: MARK SPACKMAN
     MIE UNIVERSITY: HIROAKI UMEDA
     NAT. INST. OF ADVANCED INDUSTRIAL SCIENCE AND TECHNOLOGY: KAZUO KITAURA
     MICHIGAN STATE UNIVERSITY:
          KAROL KOWALSKI, MARTA WLOCH, JEFFREY GOUR, JESSE LUTZ,
          WEI LI, JUN SHEN, J. EMILIANO DEUSTUA, PIOTR PIECUCH
     UNIVERSITY OF MINNESOTA:
          YINAN SHU
     UNIVERSITY OF SILESIA: MONIKA MUSIAL, STANISLAW KUCHARSKI
     FACULTES UNIVERSITAIRES NOTRE-DAME DE LA PAIX:
          OLIVIER QUINET, BENOIT CHAMPAGNE
     UNIVERSITY OF CALIFORNIA - SANTA BARBARA: BERNARD KIRTMAN
     INSTITUTE FOR MOLECULAR SCIENCE:
          KAZUYA ISHIMURA, MICHIO KATOUDA, AND SHIGERU NAGASE
     UNIVERSITY OF NOTRE DAME: ANNA POMOGAEVA, DAN CHIPMAN
     KYUSHU UNIVERSITY:
          HARUYUKI NAKANO,
          FENG LONG GU, JACEK KORCHOWIEC, MARCIN MAKOWSKI, AND YURIKO AOKI,
          HIROTOSHI MORI AND EISAKU MIYOSHI
     PENNSYLVANIA STATE UNIVERSITY:
          TZVETELIN IORDANOV, CHET SWALINA, JONATHAN SKONE,
          SHARON HAMMES-SCHIFFER
     WASEDA UNIVERSITY:
          MASATO KOBAYASHI, TOMOKO AKAMA, TSUGUKI TOUMA,
          TAKESHI YOSHIKAWA, YASUHIRO IKABATA, JUNJI SEINO,
          YUYA NAKAJIMA, HIROMI NAKAI
     NANJING UNIVERSITY: SHUHUA LI
     UNIVERSITY OF NEBRASKA:
          PEIFENG SU, DEJUN SI, NANDUN THELLAMUREGE, YALI WANG, HUI LI
     UNIVERSITY OF ZURICH: ROBERTO PEVERATI, KIM BALDRIDGE
     N. COPERNICUS UNIVERSITY AND JACKSON STATE UNIVERSITY:
          MARIA BARYSZ
     UNIVERSITY OF COPENHAGEN: Jimmy Kromann, CASPER STEINMANN
     TOKYO INSTITUTE OF TECHNOLOGY: HIROYA NAKATA
     NAGOYA UNIVERSITY: YOSHIO NISHIMOTO, STEPHAN IRLE
     MOSCOW STATE UNIVERSITY: VLADIMIR MIRONOV

 EXECUTION OF GAMESS BEGUN Wed Nov 16 20:09:10 2022

            ECHO OF THE FIRST FEW INPUT CARDS -
 INPUT CARD> $system kdiag=3 mwords=100 memddi=1000 parall=.t. $end                         
 INPUT CARD> $contrl runtyp=energy ispher=1 $end                                            
 INPUT CARD> $contrl icut=9 itol=20 inttyp=rysquad qmttol=1.0d-05 nosym=1 $end              
 INPUT CARD> $scf    npunch=2 conv=1.0d-06 dirscf=.t.      $end                             
 INPUT CARD> $contrl scftyp=mcscf  mult=2 maxit=200 icharg=1 mplevl=2 $end                  
 INPUT CARD> $guess  guess=moread norb=29 purify=.t. $end                                   
 INPUT CARD> $basis  gbasis=ccd $end                                                        
 INPUT CARD> $mcscf  cistep=gmcci fullnr=.t. finci=mos                                      
 INPUT CARD>         acurcy=1.d-6 maxit=100 $end                                            
 INPUT CARD> $trans  dirtrf=.t. $end                                                        
 INPUT CARD> $mrmp   mrpt=gmcpt rdvecs=.f. $end                                             
 INPUT CARD> $gmcpt  nmofzc=0 nmodoc=1 nmoact=7 nelact=7 stsym(1)=A                         
 INPUT CARD>         reftyp=ormas nspace=1 mstart(1)=2 mine(1)=7 maxe(1)=7                  
 INPUT CARD>         kstate(1)=1,1,1                                                        
 INPUT CARD>         wstate(1)=1,1,1                                                        
 INPUT CARD>         iwgt=0 thrwgt=-1.0 krot=.f. kszdoe=.f. knospn=.f.                      
 INPUT CARD>         thrde=-1.0 edshft=0.02 $end                                            
 INPUT CARD> $data                                                                          
 INPUT CARD> NH3+ 3 states calculation at NH3 structure.                                    
 INPUT CARD> c1                                                                             
 INPUT CARD>N 7.0 0.0 -0.037373418000000005 -0.1693806842                                   
 INPUT CARD>H 1.0 -0.23605082799999996 0.8467005118 0.3936246561000001                      
 INPUT CARD>H 1.0 -0.6946027300000001 -0.7652386918 0.11929580609999998                     
 INPUT CARD>H 1.0 0.93065354 0.43785446400000005 0.2564602221                               
 INPUT CARD>$end                                                                            
 INPUT CARD>--- OPTIMIZED RHF      MO-S --- GENERATED AT Mon Nov 14 16:47:08 2022           
 INPUT CARD>E=      -56.3825050291, E(NUC)=   11.8429239490                                 
 INPUT CARD> $VEC                                                                           
 INPUT CARD> 1  1-1.00134066E+00-2.25158504E-03 3.44925845E-03 0.00000000E+00 0.00000000E+00
 INPUT CARD> 1  2-2.13170927E-03 0.00000000E+00 0.00000000E+00 6.57129898E-04-6.87950443E-05
 INPUT CARD> 1  3-6.87950443E-05 1.37590089E-04 0.00000000E+00 0.00000000E+00 0.00000000E+00
 INPUT CARD> 1  4 3.25502815E-04-4.84772356E-04 3.62525460E-04-6.27912517E-04-3.45956485E-04
 INPUT CARD> 1  5 3.25502815E-04-4.84772356E-04 3.62525460E-04 6.27912517E-04-3.45956485E-04
 INPUT CARD> 1  6 3.25502815E-04-4.84772356E-04-7.25050921E-04 0.00000000E+00-3.45956485E-04
 INPUT CARD> 2  1 1.31286642E-02-4.05911371E-01-2.82090992E-01 0.00000000E+00 0.00000000E+00
 INPUT CARD> 2  2-7.71489043E-02 0.00000000E+00 0.00000000E+00 9.73717494E-03 6.62450916E-04
 INPUT CARD> 2  3 6.62450916E-04-1.32490183E-03 0.00000000E+00 0.00000000E+00 0.00000000E+00
 INPUT CARD> 2  4-1.96090317E-01-1.96656153E-02-1.74855877E-02 3.02859263E-02 8.68214399E-03
 INPUT CARD> 2  5-1.96090317E-01-1.96656153E-02-1.74855877E-02-3.02859263E-02 8.68214399E-03
 INPUT CARD> 2  6-1.96090317E-01-1.96656153E-02 3.49711754E-02 0.00000000E+00 8.68214399E-03
 INPUT CARD> 3  1 0.00000000E+00 0.00000000E+00 0.00000000E+00 4.48608762E-01 0.00000000E+00
 INPUT CARD> 3  2 0.00000000E+00 2.18692520E-01 0.00000000E+00 0.00000000E+00 1.30198027E-02
 INPUT CARD> 3  3-1.30198027E-02 0.00000000E+00 0.00000000E+00 2.71832968E-02 0.00000000E+00
 INPUT CARD> 3  4-1.85332726E-01-7.03958951E-02 8.47929477E-03 1.95242443E-02 8.32835058E-03
 INPUT CARD> 3  5-1.85332726E-01-7.03958951E-02 8.47929477E-03-1.95242443E-02 8.32835058E-03
 INPUT CARD> 3  6 3.70665453E-01 1.40791790E-01-2.53376884E-02 0.00000000E+00-1.66567012E-02
 INPUT CARD> 4  1 0.00000000E+00 0.00000000E+00 0.00000000E+00 0.00000000E+00 4.48608762E-01
 INPUT CARD> 4  2 0.00000000E+00 0.00000000E+00 2.18692520E-01 0.00000000E+00 0.00000000E+00
 INPUT CARD> 4  3 0.00000000E+00 0.00000000E+00-1.50339731E-02 0.00000000E+00 2.71832968E-02
 INPUT CARD> 4  4 3.21005698E-01 1.21929267E-01 1.95242443E-02-1.40653607E-02-1.44251263E-02
  100000000 WORDS OF MEMORY AVAILABLE

     BASIS OPTIONS
     -------------
     GBASIS=CCD          IGAUSS=       0      POLAR=NONE    
     NDFUNC=       0     NFFUNC=       0     DIFFSP=       F
     NPFUNC=       0      DIFFS=       F     BASNAM=        


     RUN TITLE
     ---------
  NH3+ 3 states calculation at NH3 structure.                                    

 THE POINT GROUP OF THE MOLECULE IS C1      
 THE ORDER OF THE PRINCIPAL AXIS IS     0

 ATOM      ATOMIC                      COORDINATES (BOHR)
           CHARGE         X                   Y                   Z
 N           7.0     0.0000000000       -0.0706255192       -0.3200830808
 H           1.0    -0.4460713841        1.6000319610        0.7438427420
 H           1.0    -1.3126088300       -1.4460914427        0.2254363850
 H           1.0     1.7586801801        0.8274249595        0.4846395465

          INTERNUCLEAR DISTANCES (ANGS.)
          ------------------------------

                1 N          2 H          3 H          4 H     

   1 N       0.0000000    1.0743750 *  1.0467067 *  1.1284051 *
   2 H       1.0743750 *  0.0000000    1.6981973 *  1.2438522 *
   3 H       1.0467067 *  1.6981973 *  0.0000000    2.0267474 *
   4 H       1.1284051 *  1.2438522 *  2.0267474 *  0.0000000  

  * ... LESS THAN  3.000


     ATOMIC BASIS SET
     ----------------
 THE CONTRACTED PRIMITIVE FUNCTIONS HAVE BEEN UNNORMALIZED
 THE CONTRACTED BASIS FUNCTIONS ARE NOW NORMALIZED TO UNITY

  SHELL TYPE  PRIMITIVE        EXPONENT          CONTRACTION COEFFICIENT(S)

 N         

      1   S       1          9046.0000000    0.000699617413
      1   S       2          1357.0000000    0.005386054630
      1   S       3           309.3000000    0.027391021189
      1   S       4            87.7300000    0.103150591982
      1   S       5            28.5600000    0.278570663317
      1   S       6            10.2100000    0.448294849454
      1   S       7             3.8380000    0.278085928395
      1   S       8             0.7466000    0.015431561233

      2   S       9          9046.0000000   -0.000304990096
      2   S      10          1357.0000000   -0.002408026379
      2   S      11           309.3000000   -0.011944448725
      2   S      12            87.7300000   -0.048925992909
      2   S      13            28.5600000   -0.134472724725
      2   S      14            10.2100000   -0.315112577700
      2   S      15             3.8380000   -0.242857832550
      2   S      16             0.7466000    1.094382206854

      3   S      17             0.2248000    1.000000000000

      4   P      18            13.5500000    0.058905676772
      4   P      19             2.9170000    0.320461106714
      4   P      20             0.7973000    0.753042061792

      5   P      21             0.2185000    1.000000000000

      6   D      22             0.8170000    1.000000000000

 H         

      7   S      23            13.0100000    0.033498726390
      7   S      24             1.9620000    0.234800801174
      7   S      25             0.4446000    0.813682957883

      8   S      26             0.1220000    1.000000000000

      9   P      27             0.7270000    1.000000000000

 H         

     10   S      28            13.0100000    0.033498726390
     10   S      29             1.9620000    0.234800801174
     10   S      30             0.4446000    0.813682957883

     11   S      31             0.1220000    1.000000000000

     12   P      32             0.7270000    1.000000000000

 H         

     13   S      33            13.0100000    0.033498726390
     13   S      34             1.9620000    0.234800801174
     13   S      35             0.4446000    0.813682957883

     14   S      36             0.1220000    1.000000000000

     15   P      37             0.7270000    1.000000000000

 TOTAL NUMBER OF BASIS SET SHELLS             =   15
 NUMBER OF CARTESIAN GAUSSIAN BASIS FUNCTIONS =   30
 NOTE: THIS RUN WILL RESTRICT THE MO VARIATION SPACE TO SPHERICAL HARMONICS.
 THE NUMBER OF ORBITALS KEPT IN THE VARIATIONAL SPACE WILL BE PRINTED LATER.
 NUMBER OF ELECTRONS                          =    9
 CHARGE OF MOLECULE                           =    1
 SPIN MULTIPLICITY                            =    2
 NUMBER OF OCCUPIED ORBITALS (ALPHA)          =    5
 NUMBER OF OCCUPIED ORBITALS (BETA )          =    4
 TOTAL NUMBER OF ATOMS                        =    4
 THE NUCLEAR REPULSION ENERGY IS       11.2676225480

     $CONTRL OPTIONS
     ---------------
 SCFTYP=MCSCF        RUNTYP=ENERGY       EXETYP=RUN     
 MPLEVL=       2     CITYP =NONE         CCTYP =NONE         VBTYP =NONE    
 DFTTYP=NONE         TDDFT =NONE    
 MULT  =       2     ICHARG=       1     NZVAR =       0     COORD =UNIQUE  
 PP    =NONE         RELWFN=NONE         LOCAL =NONE         NUMGRD=       F
 ISPHER=       1     NOSYM =       1     MAXIT =     200     UNITS =ANGS    
 PLTORB=       F     MOLPLT=       F     AIMPAC=       F     FRIEND=        
 NPRINT=       7     IREST =       0     GEOM  =INPUT   
 NORMF =       0     NORMP =       0     ITOL  =      20     ICUT  =       9
 INTTYP=RYSQUAD      GRDTYP=BEST         QMTTOL= 1.0E-05

     $SYSTEM OPTIONS
     ---------------
  REPLICATED MEMORY=   100000000 WORDS (ON EVERY NODE).
 DISTRIBUTED MEMDDI=        1000 MILLION WORDS IN AGGREGATE,
 MEMDDI DISTRIBUTED OVER   1 PROCESSORS IS  1000000000 WORDS/PROCESSOR.
 TOTAL MEMORY REQUESTED ON EACH PROCESSOR=  1100000000 WORDS.
 TIMLIM=      525600.00 MINUTES, OR     365.0 DAYS.
 PARALL= T  BALTYP=  DLB     KDIAG=    3  COREFL= F
 MXSEQ2=     300 MXSEQ3=     150  mem10=         0

          ----------------
          PROPERTIES INPUT
          ----------------

     MOMENTS            FIELD           POTENTIAL          DENSITY
 IEMOM =       1   IEFLD =       0   IEPOT =       0   IEDEN =       0
 WHERE =COMASS     WHERE =NUCLEI     WHERE =NUCLEI     WHERE =NUCLEI  
 OUTPUT=BOTH       OUTPUT=BOTH       OUTPUT=BOTH       OUTPUT=BOTH    
 IEMINT=       0   IEFINT=       0                     IEDINT=       0
                                                       MORB  =       0

     -------------------------------
     INTEGRAL TRANSFORMATION OPTIONS
     -------------------------------
     NWORD  =            0
     CUTOFF = 1.0E-09     MPTRAN =       0
     DIRTRF =       T     AOINTS =DUP     

          ----------------------
          MCSCF INPUT PARAMETERS
          ----------------------
 CONVERGER SELECTION: FOCAS = F  SOSCF = F  FULLNR = T  QUD = F  JACOBI = F
 SECULAR EQUATION METHOD CISTEP = GMCCI   
 --- GENERAL INPUT OPTIONS:
 MAXIT =     100  MICIT =       1  ACURCY= 1.000E-06
 DAMP  =   0.000  CANONC=       T  ENGTOL= 1.000E-10
 EKT   =       F  NPUNCH=       2  NWORD =         0
 REGENERATE CI AFTER CONVERGENCE = NONE    
 DIABATIZATION AFTER CONVERGENCE =        F
 --- INPUT FOR FULLNR CONVERGER:
 METHOD=DM2       FORS  =       F  DROPC =       T
 LINSER=       F  FCORE =       F  NORB  =      30

          ----------------------
          INTEGRAL INPUT OPTIONS
          ----------------------
 NOPK  =       1 NORDER=       0 SCHWRZ=       T

 ------------------------------------------
 MULTIREFERENCE PERTURBATION THEORY CONTROL
 ------------------------------------------
 MRPT=GMCPT    READ CONVERGED MCSCF VECTORS= F


     ------------------------------------------
     THE POINT GROUP IS C1 , NAXIS= 1, ORDER= 1
     ------------------------------------------

 -- VARIATIONAL SPACE WILL BE RESTRICTED TO PURE SPHERICAL HARMONICS ONLY --
 AFTER EXCLUDING CONTAMINANT COMBINATIONS FROM THE CARTESIAN GAUSSIAN BASIS
 SET, THE NUMBER OF SPHERICAL HARMONICS KEPT IN THE VARIATION SPACE IS   29

     DIMENSIONS OF THE SYMMETRY SUBSPACES ARE
 A   =   29

 ..... DONE SETTING UP THE RUN .....
 CPU     0: STEP CPU TIME=     0.03 TOTAL CPU TIME=          0.0 (      0.0 MIN)
 TOTAL WALL CLOCK TIME=          0.0 SECONDS, CPU UTILIZATION IS    75.00%

          ********************
          1 ELECTRON INTEGRALS
          ********************
 TIME TO DO   DIPOLE INTEGRALS=      0.00
 ...... END OF ONE-ELECTRON INTEGRALS ......
 CPU     0: STEP CPU TIME=     0.00 TOTAL CPU TIME=          0.0 (      0.0 MIN)
 TOTAL WALL CLOCK TIME=          0.0 SECONDS, CPU UTILIZATION IS    60.00%

          -------------
          GUESS OPTIONS
          -------------
          GUESS =MOREAD            NORB  =      29          NORDER=       0
          MIX   =       F          PRTMO =       F          PUNMO =       F
          TOLZ  = 1.0E-08          TOLE  = 1.0E-05
          SYMDEN=       F          PURIFY=       T

 INITIAL GUESS ORBITALS GENERATED BY MOREAD   ROUTINE.

 STATISTICS FOR GENERATION OF SYMMETRY ORBITAL -Q- MATRIX
 NUMBER OF CARTESIAN ATOMIC ORBITALS=         30
 NUMBER OF SPHERICAL CONTAMINANTS DROPPED=     1
 NUMBER OF LINEARLY DEPENDENT MOS DROPPED=     0
 TOTAL NUMBER OF MOS IN VARIATION SPACE=      29
 ORBITAL PURIFICATION WILL OCCUR

 SYMMETRIES FOR INITIAL GUESS ORBITALS FOLLOW.   BOTH SET(S).
     5 ORBITALS ARE OCCUPIED (    1 CORE ORBITALS).
     1=A        2=A        3=A        4=A        5=A        6=A        7=A   
     8=A        9=A       10=A       11=A       12=A       13=A       14=A   
    15=A       16=A       17=A       18=A       19=A       20=A       21=A   
    22=A       23=A       24=A       25=A       26=A       27=A       28=A   
    29=A   
 ...... END OF INITIAL ORBITAL SELECTION ......
 CPU     0: STEP CPU TIME=     0.01 TOTAL CPU TIME=          0.0 (      0.0 MIN)
 TOTAL WALL CLOCK TIME=          0.0 SECONDS, CPU UTILIZATION IS    80.00%

                    ----------------------
                    AO INTEGRAL TECHNOLOGY
                    ----------------------
     S,P,L SHELL ROTATED AXIS INTEGRALS, REPROGRAMMED BY
        KAZUYA ISHIMURA (IMS) AND JOSE SIERRA (SYNSTAR).
     S,P,D,L SHELL ROTATED AXIS INTEGRALS PROGRAMMED BY
        KAZUYA ISHIMURA (INSTITUTE FOR MOLECULAR SCIENCE).
     S,P,D,F,G SHELL TO TOTAL QUARTET ANGULAR MOMENTUM SUM 5,
        ERIC PROGRAM BY GRAHAM FLETCHER (ELORET AND NASA ADVANCED
        SUPERCOMPUTING DIVISION, AMES RESEARCH CENTER).
     S,P,D,F,G,L SHELL GENERAL RYS QUADRATURE PROGRAMMED BY
        MICHEL DUPUIS (PACIFIC NORTHWEST NATIONAL LABORATORY).

          --------------------
          2 ELECTRON INTEGRALS
          --------------------

 DIRECT SCF METHOD SKIPS INTEGRAL STORAGE ON DISK.
 DIRECT TRANSFORMATION SKIPS AO INTEGRAL STORAGE ON DISK.
  ...... END OF TWO-ELECTRON INTEGRALS .....
 STEP CPU TIME =     0.02 TOTAL CPU TIME =          0.1 (      0.0 MIN)
 TOTAL WALL CLOCK TIME=          0.1 SECONDS, CPU UTILIZATION IS    85.71%
 DDI: Creating Array [0] - 900 x 36 = 32400 words.
 DDI: Creating Array [1] - 21 x 288 = 6048 words.
 DDI: Creating Array [2] - 36 x 36 = 1296 words.
 DDI: Creating Array [3] - 465 x 36 = 16740 words.

          -----------------
          MCSCF CALCULATION
          -----------------

 ----- NUCLEAR ENERGY ----- =        11.2676225480

     -------------------------------------------------
     GMC-PT/GMC-QDPT or general MCSCF input parameters
     -------------------------------------------------
 # of frozen core orbs. =         0 ->         0
 # of doubly occ. orbs. =         1
 # of active      orbs. =         7
 # of virtual     orbs. =        21
 # of active electrons  =         7
 # of states in CI      =         3
 Highest state in CI    =         3
 kstate =  1 1 1
 avecoe =  0.333 0.333 0.333
 State symmetry           = A           
 Assigned symmetry number = 1

 <<<Act. MO sym.: 1111111

 <<<Division of 1-ext.:  0
 <<<Division of 2-ext.:  0

 *** Reference space

 Reference type: ORMAS (= Occupation restricted multiple active space)
 # of orbitals          =  7
 # of minimum electrons =  7
 # of maximum electrons =  7
 State symmetry    =    1 (input)
 2*Sz              =    1 (input)
 Spin multiplicity =    2 (input)
 Dimension of reference space =      1225  (from      3432 walks)

 Dimension of reference space =      1225  (from      1225 walks)

 <<<Ionized spaces for Ref-CI:
      0:         1225 /   -1-0:         1960 /  0-1-0:         2891

 EVALUATING EXCHANGE INTEGRALS FOR DIRECT INTEGRAL TRANSFORMATION
 SCHWARZ INEQUALITY OVERHEAD:       465 INTEGRALS, T=        0.00

     --------------------------------------------
     PARTIAL TWO ELECTRON INTEGRAL TRANSFORMATION
     --------------------------------------------

 NUMBER OF CORE MOLECULAR ORBITALS     =    1
 NUMBER OF OCCUPIED MOLECULAR ORBITALS =    8
 TOTAL NUMBER OF MOLECULAR ORBITALS    =   29
 TOTAL NUMBER OF ATOMIC ORBITALS       =   30
 THRESHOLD FOR KEEPING TRANSFORMED 2E- INTEGRALS = 1.000E-09

 -------------------------------     ------------------------------
 DISTRIBUTED DATA TRANSFORMATION     PROGRAM WRITTEN BY G. FLETCHER
 -------------------------------     ------------------------------

 THE DISTRIBUTED MEMORY REQUIRED FOR THIS STEP IS MEMDDI=         1 MWORDS
 CREATING DISTRIBUTED STORAGE FOR [VIR OCC|VIR OCC] INTEGRALS
 CREATING DISTRIBUTED STORAGE FOR [VIR OCC|OCC OCC] INTEGRALS
 CREATING DISTRIBUTED STORAGE FOR [OCC OCC|OCC OCC] INTEGRALS
 CREATING DISTRIBUTED STORAGE FOR [VIR VIR|OCC OCC] INTEGRALS
 FOR    1 PROCESSORS, THE REPLICATED MEMORY NEEDED IS       73700 WORDS.
 SCHWARZ INEQUALITY OVERHEAD:       465 INTEGRALS, T=        0.00

      DIRECT 4-INDEX TRANSFORMATION 
      SCHWARZ INEQUALITY TEST SKIPPED          0 INTEGRAL BLOCKS
 ----- FROZEN CORE ENERGY =       -47.6661454546
 ... END OF INTEGRAL TRANSFORMATION ...
 CPU     0: STEP CPU TIME=     0.22 TOTAL CPU TIME=          0.3 (      0.0 MIN)
 TOTAL WALL CLOCK TIME=          0.3 SECONDS, CPU UTILIZATION IS    96.55%

     --------------------------------     -----------------------------
     MCHF NEWTON-RAPHSON OPTIMIZATION     CODE WRITTEN BY MICHEL DUPUIS
     --------------------------------     -----------------------------
     PARALLEL VERSION WRITTEN BY G. FLETCHER (ELORET)
     NASA ADVANCED SUPERCOMPUTING DIVISION, AMES RESEARCH CENTER

 NUMBER OF INDEPENDENT ORBITAL ROTATION PARAMETERS =   175
 ..... DONE SOLVING NEWTON-RAPHSON EQUATIONS .....
 CPU     0: STEP CPU TIME=     0.71 TOTAL CPU TIME=          1.0 (      0.0 MIN)
 TOTAL WALL CLOCK TIME=          1.0 SECONDS, CPU UTILIZATION IS    99.00%
 ..... DONE WITH NTN-RPH ORBITAL ROTATIONS ..... 
 CPU     0: STEP CPU TIME=     0.00 TOTAL CPU TIME=          1.0 (      0.0 MIN)
 TOTAL WALL CLOCK TIME=          1.0 SECONDS, CPU UTILIZATION IS    99.00%
 MAXIMUM MEMORY USED BY NTN-RPH CODE WAS     57645 WORDS.

 ITER     TOTAL ENERGY      DEL(E)  LAGRANGIAN ASYMMETRY   SQCDF  MICIT   DAMP
   1      -55.622401173 -0.622401173  0.115305   12    5 1.204E-01  1   0.0000
   2      -55.671923739 -0.049522566  0.020631   12    5 4.565E-01  1   0.0000
   3      -55.707012464 -0.035088725  0.013290   11    6 2.261E-01  1   0.0216
   4      -55.722482338 -0.015469875  0.004568   11    6 4.355E-02  1   0.0052
   5      -55.724512459 -0.002030121  0.000780   23    5 1.182E-03  1   0.0000
   6      -55.724570977 -0.000058518  0.000341   23    5 9.678E-05  1   0.0000
   7      -55.724577055 -0.000006078  0.000155   23    5 1.752E-05  1   0.0000
   8      -55.724578226 -0.000001171  0.000076   23    5 3.963E-06  1   0.0000
   9      -55.724578497 -0.000000271  0.000039   23    5 1.038E-06  1   0.0000
  10      -55.724578568 -0.000000071  0.000021   23    5 3.026E-07  1   0.0000
  11      -55.724578589 -0.000000021  0.000011   23    5 9.493E-08  1   0.0000
  12      -55.724578595 -0.000000006  0.000006   23    5 3.132E-08  1   0.0000
  13      -55.724578597 -0.000000002  0.000003   23    5 1.072E-08  1   0.0000
  14      -55.724578598 -0.000000001  0.000002   23    5 3.768E-09  1   0.0000
  15      -55.724578598 -0.000000000  0.000001   23    5 1.350E-09  1   0.0000
  16      -55.724578598 -0.000000000  0.000001   23    5 4.872E-10  1   0.0000

          --------------------
          LAGRANGIAN CONVERGED
          --------------------

 FINAL MCSCF ENERGY IS      -55.7245785984 AFTER  16 ITERATIONS

 -MCCI- BASED ON OPTIMIZED ORBITALS
 ----------------------------------

 PLEASE NOTE: IF THE ACTIVE ORBITALS ARE CANONICALIZED BELOW,
 THE FOLLOWING CI EXPANSION COEFFICIENTS AND THE DENSITY DO NOT
 CORRESPOND TO THE PRINTED ORBITALS.  THE PRINTED EXPANSIONS MATCH
 THE ORBITALS USED DURING THE LAST ITERATION.  IF YOU WISH TO SEE
 CI EXPANSIONS BASED ON THE CANONICAL (OR NATURAL) ORBITALS, YOU
 MUST RUN A CI CALCULATION WITH THAT ORBITAL CHOICE READ IN $VEC.

 Averaged energy =     -55.724578598

 State #    1  Energy =     -55.862218530  S =  0.500

      Det      Coef    Occupancy (Ignoring core)
      ---      ----    --------- --------- -----
        1    0.920368  11110001110000
        5   -0.068172  01111001110000
        8   -0.128845  10110101110000
       17    0.135031  11010011110000
       36    0.210338  11110001101000
       71    0.090349  11110001011000
      211    0.051300  11110000110100
      386    0.101959  11110001010010
      393    0.056819  10110101010010
      701   -0.098940  11110001100001
      717    0.062489  11010011100001

 State #    2  Energy =     -55.738299977  S =  0.500

      Det      Coef    Occupancy (Ignoring core)
      ---      ----    --------- --------- -----
        1   -0.203154  11110001110000
       36    0.627404  11110001101000
       43   -0.067761  10110101101000
       52    0.062161  11010011101000
       71    0.698481  11110001011000
       78   -0.065340  10110101011000
       87    0.076999  11010011011000
      456    0.065718  11110001001010
      806    0.071812  11110001001001

 State #    3  Energy =     -55.573217288  S =  0.500

      Det      Coef    Occupancy (Ignoring core)
      ---      ----    --------- --------- -----
        1    0.092645  11110001110000
       36   -0.697061  11110001101000
       43    0.062105  10110101101000
       52   -0.050211  11010011101000
       71    0.658377  11110001011000
       87    0.058608  11010011011000
      281   -0.054803  11110000101100
      316    0.053778  11110000011100
      456   -0.064850  11110001001010
      806    0.078488  11110001001001

 DENSITY MATRIX OVER ACTIVE MO-S

             1           2           3           4           5

    1    1.9752158
    2   -0.0066168   1.6308026
    3    0.0176537   0.0041596   1.6306644
    4    0.0006280  -0.0025576   0.0036662   1.6531257
    5    0.1052313   0.0151662  -0.0432432   0.0219351   0.0314722
    6   -0.0101986  -0.1454314  -0.0134823  -0.0127472  -0.0047726
    7   -0.0006452   0.0077969  -0.1568058   0.0466893   0.0063138

             6           7

    6    0.0368475
    7   -0.0049007   0.0418719

 FORMING THE "STANDARD FOCK OPERATOR" IN DIRECT AO INTEGRAL MODE...
 ONLY THE    1 CORE AND   21 VIRTUAL ORBITALS WILL BE CANONICALIZED

          ----------------------
          MCSCF NATURAL ORBITALS
          ----------------------

                      1          2          3          4          5
                  -15.9837     1.9817     1.6554     1.6493     1.6409
                     A          A          A          A          A   
    1  N  1  S    1.001148   0.008862  -0.009431  -0.002840   0.002520
    2  N  1  S   -0.001892   0.435524  -0.155593  -0.103740   0.050073
    3  N  1  S   -0.006287   0.318521  -0.252741  -0.140670   0.076396
    4  N  1  X   -0.000141  -0.012034  -0.066644   0.241886   0.445272
    5  N  1  Y   -0.000053   0.038535  -0.181109   0.362381  -0.298108
    6  N  1  Z    0.001136   0.089478   0.564860   0.164636  -0.002750
    7  N  1  X   -0.000030   0.002459  -0.015544   0.078008   0.240632
    8  N  1  Y   -0.000006   0.002725  -0.108742   0.124667  -0.168315
    9  N  1  Z   -0.000517   0.013843   0.376950   0.088374   0.020715
   10  N  1 XX    0.000048  -0.000810  -0.010482  -0.006155   0.007910
   11  N  1 YY    0.000146   0.000603  -0.011851  -0.001343  -0.007653
   12  N  1 ZZ   -0.000194   0.000207   0.022334   0.007498  -0.000256
   13  N  1 XY    0.000378   0.003412   0.002543  -0.006153   0.011943
   14  N  1 XZ   -0.000053   0.000779  -0.004265   0.009572   0.019772
   15  N  1 YZ    0.000121   0.002838  -0.003620   0.018257  -0.014076
   16  H  2  S   -0.001787   0.208000   0.065571   0.229690  -0.308698
   17  H  2  S    0.000281   0.007855   0.020979   0.033187  -0.092899
   18  H  2  X   -0.000244   0.009281   0.004199   0.024262   0.004322
   19  H  2  Y    0.000830  -0.032680  -0.016497  -0.011272   0.023761
   20  H  2  Z    0.000512  -0.015726   0.021023  -0.006579   0.019440
   21  H  3  S   -0.001928   0.170408   0.202000  -0.322467  -0.014147
   22  H  3  S    0.000631  -0.000805   0.038516  -0.036062   0.008317
   23  H  3  X   -0.000683   0.021340   0.017148  -0.025136   0.011069
   24  H  3  Y   -0.000779   0.026605   0.015621  -0.022549  -0.017440
   25  H  3  Z    0.000346  -0.003301   0.015675   0.017673   0.000031
   26  H  4  S   -0.001562   0.170672   0.035465   0.257395   0.268723
   27  H  4  S    0.000377  -0.000752   0.022043   0.035317   0.084465
   28  H  4  X    0.000750  -0.028064  -0.005710  -0.031796  -0.016210
   29  H  4  Y    0.000319  -0.012333  -0.004793  -0.000221  -0.024715
   30  H  4  Z    0.000400  -0.007352   0.022918  -0.004383  -0.010581

                      6          7          8
                    0.0307     0.0232     0.0187
                     A          A          A   
    1  N  1  S   -0.105906  -0.153395  -0.126171
    2  N  1  S   -0.353880  -0.541896  -0.378486
    3  N  1  S   -0.011475  -0.202461   0.006391
    4  N  1  X   -0.555871   0.030951   0.679390
    5  N  1  Y    0.425643  -0.513701   0.551932
    6  N  1  Z   -0.176085  -0.593811  -0.191682
    7  N  1  X    0.032519  -0.025767   0.060975
    8  N  1  Y   -0.033136  -0.091502   0.052746
    9  N  1  Z    0.041739   0.047660   0.065530
   10  N  1 XX    0.021627  -0.023264   0.030907
   11  N  1 YY   -0.018723   0.020371  -0.020728
   12  N  1 ZZ   -0.002904   0.002893  -0.010178
   13  N  1 XY    0.059871   0.028029  -0.001173
   14  N  1 XZ    0.015097   0.005024  -0.041835
   15  N  1 YZ    0.002150   0.049612  -0.018632
   16  H  2  S   -0.428668   0.729784   0.036893
   17  H  2  S   -0.156490   0.133654   0.014807
   18  H  2  X    0.010492   0.046882  -0.028673
   19  H  2  Y    0.020218  -0.054757  -0.028939
   20  H  2  Z    0.022900   0.003409  -0.003709
   21  H  3  S    0.311044   0.155473   0.804575
   22  H  3  S    0.049527  -0.005966   0.147288
   23  H  3  X    0.029465   0.017086   0.054061
   24  H  3  Y    0.013710   0.024219   0.064057
   25  H  3  Z   -0.002631   0.005423   0.022672
   26  H  4  S    0.666507   0.326727  -0.324575
   27  H  4  S    0.175411   0.025502  -0.097564
   28  H  4  X   -0.051799  -0.049287   0.026782
   29  H  4  Y   -0.042414   0.008906  -0.003998
   30  H  4  Z   -0.002804   0.027624  -0.006949

          ------------------------
          MCSCF OPTIMIZED ORBITALS
          ------------------------

                      1          2          3          4          5
                  -15.9837     0.0000     0.0000     0.0000     0.0000
                     A          A          A          A          A   
    1  N  1  S    1.001148  -0.002377   0.002745   0.011166  -0.014184
    2  N  1  S   -0.001892   0.399970   0.000556  -0.014364  -0.191292
    3  N  1  S   -0.006287   0.314290   0.016527  -0.081744  -0.281656
    4  N  1  X   -0.000141  -0.007275   0.425360  -0.073285  -0.004589
    5  N  1  Y   -0.000053   0.010914  -0.008389   0.417051  -0.039613
    6  N  1  Z    0.001136   0.051573  -0.005324   0.005061   0.582532
    7  N  1  X   -0.000030   0.009569   0.236878  -0.087957   0.007294
    8  N  1  Y   -0.000006  -0.011705  -0.049568   0.217621  -0.064664
    9  N  1  Z   -0.000517   0.017083   0.001706  -0.041555   0.387746
   10  N  1 XX    0.000048  -0.000505   0.003869  -0.011123  -0.010794
   11  N  1 YY    0.000146   0.000529  -0.004661   0.009678  -0.012515
   12  N  1 ZZ   -0.000194  -0.000024   0.000792   0.001444   0.023308
   13  N  1 XY    0.000378   0.006867   0.009471  -0.015702   0.002142
   14  N  1 XZ   -0.000053   0.001357   0.025613  -0.001615  -0.001602
   15  N  1 YZ    0.000121   0.003915   0.001356   0.025600   0.001803
   16  H  2  S   -0.001787   0.212720  -0.155238   0.398446   0.121140
   17  H  2  S    0.000281   0.005776  -0.069055   0.089432   0.026178
   18  H  2  X   -0.000244   0.010846   0.019193   0.017588   0.010979
   19  H  2  Y    0.000830  -0.033789   0.018678  -0.021116  -0.019181
   20  H  2  Z    0.000512  -0.014021   0.010049  -0.023642   0.018400
   21  H  3  S   -0.001928   0.203876  -0.264733  -0.349032   0.117834
   22  H  3  S    0.000631   0.003391  -0.026969  -0.055195   0.029434
   23  H  3  X   -0.000683   0.024645  -0.010403  -0.034107   0.010442
   24  H  3  Y   -0.000779   0.028801  -0.033034  -0.013890   0.009776
   25  H  3  Z    0.000346  -0.003291   0.005957   0.008235   0.020398
   26  H  4  S   -0.001562   0.201714   0.417718   0.016580   0.122246
   27  H  4  S    0.000377   0.006037   0.101324  -0.034233   0.034277
   28  H  4  X    0.000750  -0.031029  -0.034983  -0.013683  -0.015863
   29  H  4  Y    0.000319  -0.013968  -0.021224   0.018693  -0.005749
   30  H  4  Z    0.000400  -0.006432  -0.014370  -0.001462   0.020389

                      6          7          8          9         10
                    0.0000     0.0000     0.0000     0.1375     0.2004
                     A          A          A          A          A   
    1  N  1  S    0.213112  -0.036821  -0.061119  -0.122093   0.015336
    2  N  1  S    0.746090  -0.090275  -0.166486  -0.182207   0.012474
    3  N  1  S    0.193073   0.006257   0.098699   1.272569  -0.258033
    4  N  1  X    0.007802   0.919838  -0.018565   0.006469  -0.120174
    5  N  1  Y    0.090665   0.151002   0.893001  -0.043368  -0.087350
    6  N  1  Z    0.652548  -0.053388   0.061792  -0.177378   0.013566
    7  N  1  X   -0.004004   0.047389   0.058496   0.017490   0.533365
    8  N  1  Y    0.068947   0.055868   0.077120   0.207434   0.589478
    9  N  1  Z   -0.070545   0.029622   0.024644   0.404008   0.007531
   10  N  1 XX    0.002069   0.010065   0.042592   0.006789  -0.014935
   11  N  1 YY   -0.004088  -0.004281  -0.033001   0.035344  -0.010395
   12  N  1 ZZ    0.002019  -0.005784  -0.009591  -0.042133   0.025330
   13  N  1 XY   -0.047733  -0.036860   0.023348   0.068594  -0.059798
   14  N  1 XZ    0.002191  -0.039777  -0.015957  -0.000330   0.062394
   15  N  1 YZ   -0.038587  -0.014039  -0.031685   0.061970   0.078385
   16  H  2  S   -0.461694   0.311975  -0.600038   0.286083   0.216172
   17  H  2  S   -0.057192   0.108714  -0.155660  -0.833665  -0.742098
   18  H  2  X   -0.035811  -0.025559  -0.031459   0.042374  -0.008255
   19  H  2  Y    0.046102  -0.035870   0.023663   0.098070   0.016412
   20  H  2  Z   -0.011097  -0.016383   0.008580   0.060432   0.047381
   21  H  3  S   -0.482636   0.414785   0.538469   0.306398  -0.536419
   22  H  3  S   -0.057353   0.081406   0.111661  -0.654633   1.925078
   23  H  3  X   -0.040712   0.023365   0.037352  -0.046099   0.087250
   24  H  3  Y   -0.043864   0.039432   0.030889  -0.073178   0.080687
   25  H  3  Z   -0.010394   0.020319   0.008254  -0.017921  -0.074808
   26  H  4  S   -0.445512  -0.622519   0.093679   0.382180   0.200254
   27  H  4  S   -0.063029  -0.176541   0.044907  -0.918688  -0.737739
   28  H  4  X    0.054162   0.048397   0.004726   0.037579   0.028351
   29  H  4  Y    0.009547   0.021885  -0.032893   0.074772   0.023988
   30  H  4  Z   -0.020764  -0.004004  -0.020418   0.040220   0.070307

                     11         12         13         14         15
                    0.2336     0.5323     0.5850     0.6599     0.8204
                     A          A          A          A          A   
    1  N  1  S    0.022170   0.090633  -0.002325  -0.000028  -0.417668
    2  N  1  S    0.047044   0.108886   0.099065   0.036037  -0.951284
    3  N  1  S   -0.137985  -0.671111   0.479846   0.081596   1.601321
    4  N  1  X   -0.042451   0.259013   0.354016  -0.393979  -0.034123
    5  N  1  Y   -0.028187  -0.455446  -0.280731  -0.230076  -0.044042
    6  N  1  Z    0.030884   0.524185  -0.432207  -0.168213   0.283430
    7  N  1  X    0.465612  -0.344478  -0.875090   1.475361   0.091843
    8  N  1  Y   -0.127867   0.960232   0.878518   1.263709   0.043122
    9  N  1  Z   -0.107191  -0.710854   0.860790   0.430508  -0.174057
   10  N  1 XX    0.062762  -0.010817   0.026844  -0.028604   0.120219
   11  N  1 YY   -0.056318   0.031565  -0.053294   0.038289  -0.083155
   12  N  1 ZZ   -0.006444  -0.020748   0.026450  -0.009686  -0.037064
   13  N  1 XY    0.054624   0.004919  -0.041729  -0.006760  -0.061816
   14  N  1 XZ    0.057789  -0.007319  -0.000297  -0.055186  -0.061325
   15  N  1 YZ   -0.037904   0.015897  -0.006644  -0.048478   0.006515
   16  H  2  S   -0.597642  -0.004517  -0.686679  -0.285347   0.106197
   17  H  2  S    2.032035  -0.561737  -0.791878  -0.099613  -0.217384
   18  H  2  X    0.043935   0.060072  -0.114104  -0.101992  -0.398528
   19  H  2  Y   -0.072162   0.090708   0.067152   0.117291  -0.018186
   20  H  2  Z   -0.040254   0.000144   0.106413  -0.057433   0.064712
   21  H  3  S    0.078320   0.501369  -0.339763   0.573424  -0.104273
   22  H  3  S   -0.114827   0.415974   0.198574   0.706543  -0.360627
   23  H  3  X   -0.012616   0.051767  -0.066817   0.182404  -0.145471
   24  H  3  Y    0.039621   0.043067   0.078947   0.096372   0.090917
   25  H  3  Z   -0.007506  -0.056891   0.053334   0.135668   0.156504
   26  H  4  S    0.559275   0.271940  -0.031417  -0.694046   0.074060
   27  H  4  S   -1.863382   0.399568   0.550134  -0.537181  -0.366290
   28  H  4  X    0.071170  -0.059919   0.064696   0.191997   0.313884
   29  H  4  Y    0.000331   0.057380  -0.119020   0.133371  -0.237900
   30  H  4  Z    0.013779  -0.090739   0.002514  -0.111294  -0.072792

                     16         17         18         19         20
                    1.0027     1.0649     1.2347     1.3558     1.4531
                     A          A          A          A          A   
    1  N  1  S   -0.410329  -0.266661   0.033337  -0.298426  -0.378077
    2  N  1  S   -0.863305  -0.559768   0.067698  -0.634735  -0.790274
    3  N  1  S    1.708145   1.238376  -0.120622   1.082383   1.406621
    4  N  1  X   -0.028720   0.103951  -0.225982  -0.026854  -0.055162
    5  N  1  Y   -0.082659  -0.004532  -0.113055   0.005924   0.006389
    6  N  1  Z    0.112397   0.046204   0.027351  -0.024743  -0.037534
    7  N  1  X    0.077382  -0.555633   0.790340  -0.078423  -0.075243
    8  N  1  Y    0.448134   0.042708   0.761143  -0.517893   0.528170
    9  N  1  Z   -0.077037   0.333359   0.042082   0.421238   0.699940
   10  N  1 XX   -0.160506  -0.108786   0.040876   0.137507  -0.009407
   11  N  1 YY   -0.084605   0.191246  -0.040344   0.031299   0.054783
   12  N  1 ZZ    0.245110  -0.082460  -0.000531  -0.168806  -0.045377
   13  N  1 XY    0.070962  -0.077958  -0.050216  -0.053880   0.097085
   14  N  1 XZ    0.010646   0.196750   0.149715   0.007590   0.089495
   15  N  1 YZ   -0.040450  -0.161273  -0.031598   0.008114  -0.060431
   16  H  2  S   -0.434406  -0.302766  -0.062189  -0.145830  -0.522941
   17  H  2  S   -0.240189  -0.226491  -0.061751  -0.043894  -0.313427
   18  H  2  X    0.273400  -0.010680   0.069258   0.312445  -0.019119
   19  H  2  Y   -0.089134   0.342919   0.195405   0.351577  -0.024382
   20  H  2  Z    0.362715  -0.450353   0.002651  -0.390606   0.350626
   21  H  3  S   -0.092516  -0.348563   0.539926  -0.452432  -0.263544
   22  H  3  S   -0.186611  -0.279913   0.269585  -0.222631  -0.036446
   23  H  3  X    0.018614   0.306329  -0.284770  -0.448297   0.181285
   24  H  3  Y   -0.003588  -0.417376   0.020373   0.485689  -0.242177
   25  H  3  Z    0.272720   0.064789  -0.403766  -0.011622  -0.699968
   26  H  4  S   -0.397717   0.041101  -0.493575  -0.222676  -0.473161
   27  H  4  S   -0.182561   0.003042  -0.123518  -0.007192   0.051167
   28  H  4  X   -0.151268   0.066614  -0.089452  -0.207043  -0.076735
   29  H  4  Y    0.159182  -0.018643  -0.594686   0.255619   0.040863
   30  H  4  Z    0.375739   0.182391   0.451517  -0.225855  -0.521149

                     21         22         23         24         25
                    1.6166     1.8448     1.8739     1.9914     2.0588
                     A          A          A          A          A   
    1  N  1  S   -0.144679   0.120907  -0.036387  -0.105840   0.005580
    2  N  1  S   -0.284912   0.366637  -0.086338  -0.219745   0.026759
    3  N  1  S    0.620754   0.953343  -0.306450   0.176744   0.222108
    4  N  1  X    0.101555   0.061087   0.357474   0.242372  -0.095153
    5  N  1  Y   -0.206537   0.285203   0.452734  -0.040461  -0.070044
    6  N  1  Z   -0.028698   0.273769   0.016602  -0.069528   0.030580
    7  N  1  X    0.692451   0.106581   0.260725  -0.138899   0.078689
    8  N  1  Y    0.363106  -0.045619   0.153787   0.050856  -0.211153
    9  N  1  Z    0.290241   0.337346  -0.084357   0.150873   0.308718
   10  N  1 XX    0.002309  -0.059858  -0.084015  -0.373020  -0.527625
   11  N  1 YY    0.120052  -0.049481   0.048007   0.198241  -0.263207
   12  N  1 ZZ   -0.122362   0.109339   0.036008   0.174778   0.790832
   13  N  1 XY   -0.079384  -0.134983   0.236575   0.103021   0.503079
   14  N  1 XZ   -0.166442   0.118119  -0.194873  -0.068469   0.081513
   15  N  1 YZ    0.078301  -0.240095  -0.091639   0.121112   0.202357
   16  H  2  S   -0.380605  -0.096641   0.074786   0.039477  -0.052961
   17  H  2  S    0.266085  -0.172559  -0.237803   0.354218  -0.006303
   18  H  2  X   -0.300351   0.081118  -0.282622   0.775502  -0.480317
   19  H  2  Y   -0.517431   0.570698   0.288722  -0.309365   0.248985
   20  H  2  Z   -0.315417   0.426950   0.064738  -0.224642  -0.472775
   21  H  3  S    0.176235  -0.154755   0.114544  -0.049684  -0.146014
   22  H  3  S   -0.012941  -0.139950   0.509841  -0.026649  -0.151252
   23  H  3  X   -0.307228  -0.455835   0.572360   0.012819  -0.340697
   24  H  3  Y   -0.087516  -0.198363   0.746065   0.191313  -0.112231
   25  H  3  Z   -0.439674  -0.217548  -0.399610  -0.144454  -0.082951
   26  H  4  S   -0.292019  -0.145275   0.019263  -0.155562  -0.021438
   27  H  4  S   -0.445483  -0.389702  -0.086148  -0.340335   0.061946
   28  H  4  X    0.129514   0.669984   0.074764   0.885823  -0.096095
   29  H  4  Y    0.506974   0.537631   0.062914  -0.418625   0.069559
   30  H  4  Z    0.461443   0.088472   0.460472  -0.171828  -0.209177

                     26         27         28         29
                    2.2844     2.5944     2.6321     3.0207
                     A          A          A          A   
    1  N  1  S    0.091688  -0.001425  -0.132014  -0.031516
    2  N  1  S    0.149522   0.084579  -0.134323   0.025652
    3  N  1  S   -0.728383   1.276287   1.747017   1.056121
    4  N  1  X   -0.003537  -0.404038   0.095473   0.033807
    5  N  1  Y   -0.035547  -0.097657   0.343265  -0.400882
    6  N  1  Z   -0.051825   0.200211   0.241774   0.077840
    7  N  1  X    0.357817  -0.990130   0.467365   0.027090
    8  N  1  Y   -0.238476  -0.246312   1.082177  -0.617490
    9  N  1  Z   -0.397246   0.294303   0.516394   0.062409
   10  N  1 XX   -0.549369  -0.430367   0.077712   0.796739
   11  N  1 YY    0.755243   0.798424   0.333594  -0.258957
   12  N  1 ZZ   -0.205874  -0.368057  -0.411306  -0.537782
   13  N  1 XY    0.106535   0.320080   0.205266   1.276016
   14  N  1 XZ    0.630897  -0.875868   0.413728   0.201869
   15  N  1 YZ   -0.340757  -0.023597   1.145040  -0.454178
   16  H  2  S    0.328532  -0.687953  -1.118508   0.725360
   17  H  2  S    0.181506  -0.327110  -0.410437   0.222445
   18  H  2  X   -0.382494  -0.088602  -0.274038   0.195834
   19  H  2  Y   -0.452124   0.576216   0.644062  -0.579965
   20  H  2  Z    0.224302   0.406832   0.474070  -0.360236
   21  H  3  S    0.203895  -1.118453   0.144658  -1.118846
   22  H  3  S    0.066570  -0.416558   0.159854  -0.320805
   23  H  3  X   -0.355458  -0.676879   0.158617  -0.530573
   24  H  3  Y    0.515050  -0.609572   0.024250  -0.677367
   25  H  3  Z    0.235833   0.175470   0.258517   0.405862
   26  H  4  S    0.138504   0.438550  -0.914654  -0.760853
   27  H  4  S    0.003755   0.315233  -0.257283  -0.217851
   28  H  4  X   -0.113927  -0.368982   0.536263   0.702626
   29  H  4  Y   -0.018019  -0.384376   0.245240   0.261640
   30  H  4  Z   -0.085113  -0.014295   0.271069   0.419906
 .....DONE WITH MCSCF ITERATIONS.....
 CPU     0: STEP CPU TIME=    10.45 TOTAL CPU TIME=         11.4 (      0.2 MIN)
 TOTAL WALL CLOCK TIME=         11.4 SECONDS, CPU UTILIZATION IS    99.91%

     ----------------------------------------------------------------
     PROPERTY VALUES FOR THE MCSCF SELF-CONSISTENT FIELD WAVEFUNCTION
     ----------------------------------------------------------------

          -----------------
          ENERGY COMPONENTS
          -----------------

         WAVEFUNCTION NORMALIZATION =       1.0000000000

                ONE ELECTRON ENERGY =     -94.0446811962
                TWO ELECTRON ENERGY =      27.0524800499
           NUCLEAR REPULSION ENERGY =      11.2676225480
                                      ------------------
                       TOTAL ENERGY =     -55.7245785984

 ELECTRON-ELECTRON POTENTIAL ENERGY =      27.0524800499
  NUCLEUS-ELECTRON POTENTIAL ENERGY =    -149.7926409781
   NUCLEUS-NUCLEUS POTENTIAL ENERGY =      11.2676225480
                                      ------------------
             TOTAL POTENTIAL ENERGY =    -111.4725383802
               TOTAL KINETIC ENERGY =      55.7479597818
                 VIRIAL RATIO (V/T) =       1.9995805912

          ---------------------------------------
          MULLIKEN AND LOWDIN POPULATION ANALYSES
          ---------------------------------------

     ATOMIC MULLIKEN POPULATION IN EACH MOLECULAR ORBITAL

                      1          2          3          4          5

                  2.000000   1.981734   1.655401   1.649310   1.640863

    1             2.000746   1.346671   1.506580   0.905099   1.138873
    2            -0.000277   0.270292   0.021568   0.169290   0.265989
    3            -0.000291   0.179674   0.117543   0.353210   0.008795
    4            -0.000178   0.185097   0.009710   0.221712   0.227207

                      6          7          8

                  0.030723   0.023247   0.018723

    1             0.013718   0.012404   0.010009
    2             0.003714   0.008496   0.000047
    3             0.002352   0.000321   0.007515
    4             0.010938   0.002026   0.001152
 WARNING! MCSCF POPULATIONS SHOWN ABOVE ARE FOR THE NATURAL ORBITALS.
 IGNORE THE ABOVE DATA FOR MCSCF FUNCTIONS WHICH ARE NOT OF -FORS- TYPE.
 THE FOLLOWING POPULATIONS ARE CORRECT FOR ANY MCSCF WAVEFUNCTION.

               ----- POPULATIONS IN EACH AO -----
                             MULLIKEN      LOWDIN
              1  N  1  S      2.00239     1.90133
              2  N  1  S      0.82057     0.57742
              3  N  1  S      0.68236     0.40701
              4  N  1  X      0.69305     0.62287
              5  N  1  Y      0.68382     0.61221
              6  N  1  Z      0.86562     0.81307
              7  N  1  X      0.34104     0.42962
              8  N  1  Y      0.30394     0.40900
              9  N  1  Z      0.52440     0.56174
             10  N  1 XX      0.00054     0.16948
             11  N  1 YY      0.00172     0.16848
             12  N  1 ZZ      0.00373     0.14312
             13  N  1 XY      0.00464     0.01086
             14  N  1 XZ      0.00629     0.00765
             15  N  1 YZ      0.00000     0.01302
             16  H  2  S      0.62620     0.48214
             17  H  2  S      0.05385     0.14710
             18  H  2  X      0.01293     0.03407
             19  H  2  Y      0.02766     0.04656
             20  H  2  Z      0.01847     0.04098
             21  H  3  S      0.58307     0.45359
             22  H  3  S      0.02958     0.14603
             23  H  3  X      0.02121     0.04142
             24  H  3  Y      0.02395     0.04254
             25  H  3  Z      0.01130     0.03122
             26  H  4  S      0.55474     0.42782
             27  H  4  S      0.04924     0.14973
             28  H  4  X      0.02798     0.05029
             29  H  4  Y      0.01310     0.02970
             30  H  4  Z      0.01261     0.02994

          ----- MULLIKEN ATOMIC OVERLAP POPULATIONS -----
          (OFF-DIAGONAL ELEMENTS NEED TO BE MULTIPLIED BY 2)

             1           2           3           4

    1    6.0785044
    2    0.2802010   0.4744658
    3    0.3082826  -0.0050343   0.3716342
    4    0.2671117  -0.0105147  -0.0057635   0.4068303

          TOTAL MULLIKEN AND LOWDIN ATOMIC POPULATIONS
       ATOM         MULL.POP.    CHARGE          LOW.POP.     CHARGE
    1 N             6.934100    0.065900         6.846876    0.153124
    2 H             0.739118    0.260882         0.750845    0.249155
    3 H             0.669119    0.330881         0.714801    0.285199
    4 H             0.657664    0.342336         0.687478    0.312522

          MULLIKEN SPHERICAL HARMONIC POPULATIONS
       ATOM           S       P       D      F      G      H      I    TOTAL
    1 N             3.51    3.41    0.02   0.00   0.00   0.00   0.00    6.93
    2 H             0.68    0.06    0.00   0.00   0.00   0.00   0.00    0.74
    3 H             0.61    0.06    0.00   0.00   0.00   0.00   0.00    0.67
    4 H             0.60    0.05    0.00   0.00   0.00   0.00   0.00    0.66

          ---------------------
          ELECTROSTATIC MOMENTS
          ---------------------

 POINT   1           X           Y           Z (BOHR)    CHARGE
                -0.000000    0.000004   -0.177185        1.00 (A.U.)
         DX          DY          DZ         /D/  (DEBYE)
     0.009114    0.705899    2.156684    2.269287
 ...... END OF PROPERTY EVALUATION ......
 CPU     0: STEP CPU TIME=     0.01 TOTAL CPU TIME=         11.5 (      0.2 MIN)
 TOTAL WALL CLOCK TIME=         11.4 SECONDS, CPU UTILIZATION IS   100.00%

     -------------------------------------------------
     GMC-PT/GMC-QDPT or general MCSCF input parameters
     -------------------------------------------------
 # of frozen core orbs. =         0 ->         0
 # of doubly occ. orbs. =         1
 # of active      orbs. =         7
 # of virtual     orbs. =        21
 # of active electrons  =         7
 # of states in CI      =         3
 Highest state in CI    =         3
 kstate =  1 1 1
 avecoe =  0.333 0.333 0.333
 State symmetry           = A           
 Assigned symmetry number = 1

 <<<Act. MO sym.: 1111111

 <<<Division of 1-ext.:  0
 <<<Division of 2-ext.:  0

     ------------------------
     Orbital canonicalization
     ------------------------

 MOs are canonicalized for core, virtual, and invariant-active orbital spaces.
 This is a part of the GMC-QDPT calculation.
 SCHWARZ INEQUALITY OVERHEAD:       465 INTEGRALS, T=        0.00
 DIRECT TRANSFORMATION SKIPS AO INTEGRAL STORAGE ON DISK.

 Averaged energy =     -55.724578598

 State #    1  Energy =     -55.862218530  S =  0.500
 State #    2  Energy =     -55.738299977  S =  0.500
 State #    3  Energy =     -55.573217288  S =  0.500

 Orbital energies for filled orbital space
  -15.983671
 Orbital energies for active orbital space
   -1.507544  -0.824124  -0.993762  -0.736507   0.308788
    0.409240   0.185530
 Orbital energies for external orbital space
    0.137453   0.200352   0.233599   0.532324   0.584952
    0.659898   0.820404   1.002704   1.064917   1.234702
    1.355829   1.453053   1.616620   1.844823   1.873934
    1.991395   2.058838   2.284429   2.594441   2.632068
    3.020698

 Zero values mean non-canonical orbitals.
 ... done with orbital canonicalization ...
 CPU     0: STEP CPU TIME=     0.62 TOTAL CPU TIME=         12.1 (      0.2 MIN)
 TOTAL WALL CLOCK TIME=         12.1 SECONDS, CPU UTILIZATION IS   100.00%

     --------------------------------------------
     PARTIAL TWO ELECTRON INTEGRAL TRANSFORMATION
     --------------------------------------------

 NUMBER OF CORE MOLECULAR ORBITALS     =    0
 NUMBER OF OCCUPIED MOLECULAR ORBITALS =    8
 TOTAL NUMBER OF MOLECULAR ORBITALS    =   29
 TOTAL NUMBER OF ATOMIC ORBITALS       =   30
 THRESHOLD FOR KEEPING TRANSFORMED 2E- INTEGRALS = 1.000E-09
 AO INTEGRALS WILL BE CALCULATED IN DIRECT MODE...
 DIRECT TRANSFORMATION SKIPS AO INTEGRAL STORAGE ON DISK.
 SCHWARZ INEQUALITY OVERHEAD:       465 INTEGRALS, T=        0.00

 PLAN A: REQUIREMENTS FOR FULLY IN-MEMORY TRANSFORMATION:
 # OF WORDS AVAILABLE =            100000000
 # OF WORDS NEEDED    =               221798

 PARALLEL ONLY WORKS WITH THE SEGMENTED ALGORITHM.
 ADJUSTING MEMORY TO USE SEGMENTED ALGORITHM.


 PLAN B: REQUIREMENTS FOR THE SEGMENTED TRANSFORMATION:
       MINIMUM=         124148 WORDS FOR 1 MOLECULAR ORBITAL PER PASS
       MAXIMUM=         221798 WORDS FOR ALL MOLECULAR ORBITALS IN 1 PASS
              (          13950 EXTRA WORDS INCLUDES 1 EXTRA ORBITAL/PASS)
 THIS RUN USES=         221798 WORDS,
 DISTRIBUTING   1 PASSES EACH CONTAINING     8 ORBITALS OVER   1 PROCESSORS.

 CHOOSING SEGMENTED PARTIAL TRANSFORMATION...
 DIRECT TRANSFORMATION SKIPS AO INTEGRAL STORAGE ON DISK.
 PASS #   1 TOOK        0.04 SECONDS.
 TOTAL NUMBER OF TRANSFORMED 2E- INTEGRALS KEPT =        29226
 ... END OF INTEGRAL TRANSFORMATION ...
 CPU     0: STEP CPU TIME=     0.04 TOTAL CPU TIME=         12.1 (      0.2 MIN)
 TOTAL WALL CLOCK TIME=         12.1 SECONDS, CPU UTILIZATION IS   100.00%

     --------     ------------------------------------------
     GMC-QDPT     Program written by H.Nakano (Kyushu Univ.)
     --------     ------------------------------------------

 *** Reference space

 Reference type: ORMAS (= Occupation restricted multiple active space)
 # of orbitals          =  7
 # of minimum electrons =  7
 # of maximum electrons =  7
 State symmetry    =    1 (input)
 2*Sz              =    1 (input)
 Spin multiplicity =    2 (input)
 Dimension of reference space =      1225  (from      3432 walks)

 Dimension of reference space =      1225  (from      1225 walks)

 <<<Ionized spaces for Ref-CI:
      0:         1225 /   -1-0:         1960 /  0-1-0:         2891

 ***                    ***
 *** Reference space CI ***
 ***                    ***

 Converged after   31 iterations

 Reference wavefunctions:

 State #    1  Energy =     -55.862218530  S =  0.500

      Det      Coef    Occupancy (Ignoring core)
      ---      ----    --------- --------- -----
        1   -0.973710  11110001110000
       71    0.079287  11110001011000
      179   -0.050378  10111001010100
      357   -0.056885  11010101100010
      753   -0.062091  10110011010001

 State #    2  Energy =     -55.738299977  S =  0.500

      Det      Coef    Occupancy (Ignoring core)
      ---      ----    --------- --------- -----
        1    0.082854  11110001110000
       71    0.978609  11110001011000
      462   -0.057464  11010101001010

 State #    3  Energy =     -55.573217288  S =  0.500

      Det      Coef    Occupancy (Ignoring core)
      ---      ----    --------- --------- -----
       36    0.977099  11110001101000
      249    0.051923  10111001001100
      823    0.062700  10110011001001

 Davidson method: CPU/Wall time =           0.43 /           0.44 sec.

 Oscillator strength (invalid if E(1)/=E(GS)):
 -----------------------------------------
   State                        f
 -----------------------------------------
     2     F(REF-CI)=        0.0013457861
     3     F(REF-CI)=        0.0035556349
 -----------------------------------------

 Dipole moment matrix elements, x, y, z, in A.U.

 Dimension of ionized spaces for PT:
 (N-2) space:         1715 /  (N-1) space:         2842 /  N space:         2891
 (N+1) space:         2842 /  (N+2) space:         1715

 <<<Ionized spaces for internal:
         0:         1225 /      -1-0:         1960 /     0-1-0:         2891
  -1-0-1-0:         2842 / 0-1-0-1-0:         3381

 Diagonal elements of averaged one-particle density matrix:
       2       3       4       5       6       7       8
  0.9933  0.9851  0.9876  0.9918  0.0133  0.0110  0.0179
  0.9884  0.6567  0.6617  0.6624  0.0103  0.0079  0.0127

 Orbital energies:
 -------- Doubly-occupied orbitals (highest several orbs.) -------
             1
 -1.598367D+01
 -------- Active orbitals ----------------------------------------
             2            3            4            5            6
 -1.507544D+00-8.241236D-01-9.937621D-01-7.365072D-01 3.087884D-01
             7            8
  4.092403D-01 1.855299D-01
 -------- External orbitals (lowest several orbs.) ---------------
             9           10           11           12           13
  1.374535D-01 2.003518D-01 2.335993D-01 5.323240D-01 5.849523D-01
            14           15           16           17           18
  6.598982D-01 8.204042D-01 1.002704D+00 1.064917D+00 1.234702D+00

 *** Quasi-degeneracy checking

 === Det (|Ci| > 1.0D-01 and dE < 5.0D-03)

 # of small denominators (single excitations)
 State       dEmin  dE < 5.0D-03  dE < 5.0D-04  dE < 5.0D-05  dE < 5.0D-06
 ----- ----------- ------------- ------------- ------------- -------------
     1    5.00D-03             0             0             0             0
     2    5.00D-03             0             0             0             0
     3    5.00D-03             0             0             0             0

 # of small denominators (double excitations)
 State       dEmin  dE < 5.0D-03  dE < 5.0D-04  dE < 5.0D-05  dE < 5.0D-06
 ----- ----------- ------------- ------------- ------------- -------------
     1    5.00D-03             0             0             0             0
     2    5.00D-03             0             0             0             0
     3    5.00D-03             0             0             0             0

 *** Zeroth-Order Setup (Granovsky's zeroth-order vectors)
 Zeroth-order effective Hamiltonian
  (= Sum_i e(i)*<I|a+(i)a(i)|J> ):
                   1            2            3
     1 -7.281108D+00
     2  1.245049D-02-7.215473D+00
     3  1.450058D-03 4.180359D-03-7.034552D+00

 Zeroth-order vectors:
 State #    1
       MC st            1           2           3
       Coeff    9.836D-01  -1.801D-01  -2.706D-03
 State #    2
       MC st            2           1           3
       Coeff   -9.834D-01  -1.800D-01   2.446D-02
 State #    3
       MC st            3           2           1
       Coeff    9.997D-01   2.357D-02   7.067D-03

 *** GMC-QDPT computation

 (Integral reading:  CPU/Wall time =           0.00 /           0.00 sec.)

 One-external:
   0 -ionized terms: CPU/Wall time =           0.04 /           0.03 sec.
 (-1)-ionized terms: CPU/Wall time =           0.08 /           0.09 sec.
 (+1)-ionized terms: CPU/Wall time =           0.03 /           0.02 sec.
 (+1)-ionized terms: CPU/Wall time =           0.00 /           0.00 sec.
 (+2)-ionized terms: CPU/Wall time =           0.00 /           0.01 sec.

 Internal:
 # of macro loops for internal contribution =         1 (input)
 Loop:    1
 Dimension of internal CISD space     =         0  (after screening)
 Space construction: CPU/Wall time =           0.02 /           0.01 sec.
 Internal terms:     CPU/Wall time =           0.00 /           0.00 sec.

 Two-external:
   0 -ionized terms: CPU/Wall time =           0.06 /           0.06 sec.
 (-1)-ionized terms: CPU/Wall time =           1.00 /           1.00 sec.
 (-2)-ionized terms: CPU/Wall time =           0.17 /           0.17 sec.

 Total time:         CPU/Wall time =           1.40 /           1.39 sec.

 ***                  ***
 *** GMC-QDPT Results ***
 ***                  ***

 Diagonal elements of effective Hamiltonian:
 Heff(  1) =   -55.95725793
 Heff(  2) =   -55.84957450
 Heff(  3) =   -55.68458335

 Off-diagonal elements of effective Hamiltonian:
                   1            2
     2  1.950287D-02
     3 -8.086600D-04 3.908130D-03

 ******** GMC-QDPT energies ********
 ----------------------------------------------------------------------------
   State                        1st order                           2nd order
 ----------------------------------------------------------------------------
     1     E(REF-CI)=      -55.8622185303   E(GMC-QDPT2)=      -55.9606891712
     2     E(REF-CI)=      -55.7382999766   E(GMC-QDPT2)=      -55.8462362264
     3     E(REF-CI)=      -55.5732172882   E(GMC-QDPT2)=      -55.6844903858
 ----------------------------------------------------------------------------

 Excitation energies (invalid if E(1)/=E(GS)):
 ----------------------------------------------------------------------------
   State                        1st order                           2nd order
 ----------------------------------------------------------------------------

     TZ Sorted GMC-PT ENERGIES:
         1      -55.9606891712
         2      -55.8462362264
         3      -55.6844903858
     2     E(REF-CI)=        3.3719973 eV   E(GMC-QDPT2)=        3.1144249 eV
     3     E(REF-CI)=        7.8641284 eV   E(GMC-QDPT2)=        7.5157556 eV
 ----------------------------------------------------------------------------

 Main characters of perturbed GMC-QDPT states:

 State #    1  Energy =     -55.960689171  S =  0.500

      Det      Coef    Occupancy (Ignoring core)
      ---      ----    --------- --------- -----
        1   -0.974272  11110001110000
       71    0.072339  11110001011000
      179   -0.050488  10111001010100
      357   -0.056885  11010101100010
      753   -0.061946  10110011010001

 State #    2  Energy =     -55.846236226  S =  0.500

      Det      Coef    Occupancy (Ignoring core)
      ---      ----    --------- --------- -----
        1    0.075917  11110001110000
       71    0.979159  11110001011000
      462   -0.057489  11010101001010

 State #    3  Energy =     -55.684490386  S =  0.500

      Det      Coef    Occupancy (Ignoring core)
      ---      ----    --------- --------- -----
       36    0.977107  11110001101000
      249    0.051904  10111001001100
      823    0.062711  10110011001001

 <<<Max |V/de| = 2.568D-02  Thresh = 1.000D+00

 Oscillator strength (invalid if E(1)/=E(GS)):
 ----------------------------------------------------------------------------
   State                        1st order                           2nd order
 ----------------------------------------------------------------------------
     2     F(REF-CI)=        0.0013457861     F(GMC-PT2)=        0.0013009235
     3     F(REF-CI)=        0.0035556349     F(GMC-PT2)=        0.0034733403
 ----------------------------------------------------------------------------

 Dipole moment matrix elements, x, y, z, in A.U.
States    1    1        0.0215280519        0.2962368321        0.7071741865
States    1    2       -0.0063880834        0.0347831759        0.1256940569
States    1    3       -0.0847939086       -0.0855364484        0.0660058529
States    2    1       -0.0063880834        0.0347831759        0.1256940569
States    2    2       -0.1508094539        0.1916019835        0.2974318693
States    2    3        0.1705283824        0.0037802852       -0.0015657106
States    3    1       -0.0847939086       -0.0855364484        0.0660058529
States    3    2        0.1705283824        0.0037802852       -0.0015657106
States    3    3        0.1185647899        0.5637521170        0.2620228250

 Oscillator strength (valid only when positive): 
 ----------------------------------------------------------------------------
  States                        1st order                           2nd order
 ----------------------------------------------------------------------------
  1  1     F(REF-CI)=        0.0000000000     F(GMC-PT2)=        0.0000000000
  1  2     F(REF-CI)=       -0.0013457861     F(GMC-PT2)=       -0.0013009235
  1  3     F(REF-CI)=       -0.0035556349     F(GMC-PT2)=       -0.0034733403
  2  1     F(REF-CI)=        0.0013457861     F(GMC-PT2)=        0.0013009235
  2  2     F(REF-CI)=        0.0000000000     F(GMC-PT2)=        0.0000000000
  2  3     F(REF-CI)=       -0.0032330721     F(GMC-PT2)=       -0.0031375104
  3  1     F(REF-CI)=        0.0035556349     F(GMC-PT2)=        0.0034733403
  3  2     F(REF-CI)=        0.0032330721     F(GMC-PT2)=        0.0031375104
  3  3     F(REF-CI)=        0.0000000000     F(GMC-PT2)=        0.0000000000
 CPU     0: STEP CPU TIME=     1.89 TOTAL CPU TIME=         14.0 (      0.2 MIN)
 TOTAL WALL CLOCK TIME=         14.0 SECONDS, CPU UTILIZATION IS    99.93%

     !!! DIABATIZATION FOR REF CI STATES !!!

 *******************************************************
          $DMO GROUP FOUND IN THE INPUT.
        DIABATIZATION OF ADIABATIC STATES BEGINS.
     PROGRAMMED BY TAO ZENG (CARLETON UNIVERSITY).
               Email: toby.zeng@carleton.ca
     See T. Zeng, J. Chem. Phys. 2017, 146, 144103
 *******************************************************

 *************************************************************************
     STEP 1: TRANSFORMATION OF ADIABATIC STATES TO THE DMO REPRESENTATION
         See Atchity and Ruedenberg, J. Chem. Phys. 1999, 111, 2910
 *************************************************************************

Read in Diabatic Molecualr Orbitals:

                      1          2          3          4          5

    1  N  1  S    0.008609   0.000000   0.000000  -0.013219   0.279491
    2  N  1  S    0.442914  -0.000000   0.000000  -0.184329   0.867803
    3  N  1  S    0.276913   0.000000  -0.000000  -0.288315   0.144236
    4  N  1  X   -0.000000   0.493155  -0.024636  -0.000000  -0.000000
    5  N  1  Y    0.000000   0.024636   0.493155  -0.000000   0.000000
    6  N  1  Z    0.090197   0.000000   0.000000   0.593421   0.705309
    7  N  1  X   -0.000000   0.210628  -0.010522   0.000000   0.000000
    8  N  1  Y    0.000000   0.010522   0.210628  -0.000000  -0.000000
    9  N  1  Z   -0.004381   0.000000   0.000000   0.381592  -0.106092
   10  N  1 XX   -0.000457   0.010719  -0.000535  -0.012387   0.006153
   11  N  1 YY   -0.000457  -0.010719   0.000535  -0.012387   0.006153
   12  N  1 ZZ    0.000914  -0.000000   0.000000   0.024773  -0.012306
   13  N  1 XY    0.000000  -0.000618  -0.012377  -0.000000   0.000000
   14  N  1 XZ   -0.000000   0.026529  -0.001325  -0.000000   0.000000
   15  N  1 YZ    0.000000   0.001325   0.026529  -0.000000   0.000000
   16  H  2  S    0.194462  -0.176074   0.343485   0.112865  -0.523343
   17  H  2  S    0.003574  -0.023812   0.046452   0.024014  -0.054445
   18  H  2  X    0.018760   0.009101   0.022834   0.009336  -0.039151
   19  H  2  Y   -0.032493   0.022287  -0.020044  -0.016171   0.067811
   20  H  2  Z   -0.009251   0.008464  -0.016511   0.018769  -0.010566
   21  H  3  S    0.194462  -0.209430  -0.324227   0.112865  -0.523343
   22  H  3  S    0.003574  -0.028322  -0.043847   0.024014  -0.054445
   23  H  3  X    0.018760   0.006781  -0.023627   0.009336  -0.039151
   24  H  3  Y    0.032493  -0.024174  -0.017723   0.016171  -0.067811
   25  H  3  Z   -0.009251   0.010067   0.015585   0.018769  -0.010566
   26  H  4  S    0.194462   0.385503  -0.019258   0.112865  -0.523343
   27  H  4  S    0.003574   0.052134  -0.002604   0.024014  -0.054445
   28  H  4  X   -0.037519  -0.032295   0.001613  -0.018672   0.078302
   29  H  4  Y    0.000000   0.001067   0.021353  -0.000000   0.000000
   30  H  4  Z   -0.009251  -0.018530   0.000926   0.018769  -0.010566

                      6          7

    1  N  1  S    0.000000  -0.000000
    2  N  1  S    0.000000  -0.000000
    3  N  1  S   -0.000000   0.000000
    4  N  1  X   -0.930415  -0.002083
    5  N  1  Y   -0.002083   0.930415
    6  N  1  Z   -0.000000   0.000000
    7  N  1  X   -0.046866  -0.000105
    8  N  1  Y   -0.000105   0.046866
    9  N  1  Z   -0.000000   0.000000
   10  N  1 XX    0.001538   0.000003
   11  N  1 YY   -0.001538  -0.000003
   12  N  1 ZZ   -0.000000   0.000000
   13  N  1 XY   -0.000004   0.001776
   14  N  1 XZ    0.039985   0.000090
   15  N  1 YZ    0.000090  -0.039985
   16  H  2  S   -0.362630  -0.631354
   17  H  2  S   -0.065964  -0.114846
   18  H  2  X    0.002763  -0.037520
   19  H  2  Y    0.037435   0.040736
   20  H  2  Z    0.001882   0.003276
   21  H  3  S   -0.365454   0.629724
   22  H  3  S   -0.066477   0.114549
   23  H  3  X    0.002595   0.037532
   24  H  3  Y   -0.037617   0.040567
   25  H  3  Z    0.001896  -0.003268
   26  H  4  S    0.728084   0.001630
   27  H  4  S    0.132441   0.000297
   28  H  4  X   -0.062317  -0.000140
   29  H  4  Y    0.000055  -0.024345
   30  H  4  Z   -0.003778  -0.000008

NUMBER OF SUB ACTIVE SPACES:   1
ROTATE ACTIVE MOS TO DMOS IN EACH SUB-SPACE

SPACE  1:

OVERLAP BETWEEN ORTHONORMAL AND PRE-ORTHONORMAL REF. DMOS

             1           2           3           4           5

    1    0.9827339  -0.0075079   0.0264684  -0.0060145   0.0008964
    2   -0.0075079   0.9671598   0.0684729  -0.0018873  -0.0102214
    3    0.0264684   0.0684729   0.9742780   0.0382043  -0.0681622
    4   -0.0060145  -0.0018873   0.0382043   0.9957560  -0.0079171
    5    0.0008964  -0.0102214  -0.0681622  -0.0079171   1.1040686
    6   -0.0016226  -0.0186913   0.0526854   0.0053673  -0.0482165
    7    0.0022837  -0.0649351   0.0022501  -0.0454186   0.0093354

             6           7

    1   -0.0016226   0.0022837
    2   -0.0186913  -0.0649351
    3    0.0526854   0.0022501
    4    0.0053673  -0.0454186
    5   -0.0482165   0.0093354
    6    1.0347267   0.0182795
    7    0.0182795   1.0453381
REFERENCE DMOS AFTER ORTHONORMALIZATION:

                      1          2          3          4          5

    1  N  1  S    0.008023   0.001517   0.017369  -0.012060   0.254652
    2  N  1  S    0.447756   0.007723   0.047582  -0.178876   0.789093
    3  N  1  S    0.279622   0.001291   0.012292  -0.287990   0.129573
    4  N  1  X    0.002699   0.496410  -0.014927   0.008113  -0.035605
    5  N  1  Y   -0.015232   0.049135   0.504034   0.021821   0.022366
    6  N  1  Z    0.094490   0.009397   0.016855   0.601806   0.645159
    7  N  1  X    0.002248   0.219696  -0.024330   0.002228  -0.001341
    8  N  1  Y   -0.006059  -0.001750   0.218113  -0.006236   0.012539
    9  N  1  Z   -0.001472   0.002350  -0.021576   0.384130  -0.095041
   10  N  1 XX   -0.000442   0.011199  -0.000556  -0.012362   0.005643
   11  N  1 YY   -0.000695  -0.011334   0.002323  -0.012561   0.005469
   12  N  1 ZZ    0.001137   0.000135  -0.001767   0.024923  -0.011112
   13  N  1 XY    0.000350   0.000397  -0.012854   0.000568  -0.000775
   14  N  1 XZ    0.000427   0.028677  -0.005415   0.000119   0.001646
   15  N  1 YZ   -0.000705  -0.003197   0.027844  -0.002822   0.001970
   16  H  2  S    0.188049  -0.258520   0.352401   0.071140  -0.465934
   17  H  2  S    0.002297  -0.037310   0.050074   0.017102  -0.048459
   18  H  2  X    0.018749   0.005462   0.019947   0.006862  -0.033814
   19  H  2  Y   -0.032500   0.028156  -0.019055  -0.013596   0.061844
   20  H  2  Z   -0.008698   0.010324  -0.019073   0.019669  -0.010444
   21  H  3  S    0.205459  -0.161538  -0.350457   0.153472  -0.517691
   22  H  3  S    0.004576  -0.020377  -0.045454   0.030848  -0.055959
   23  H  3  X    0.019977   0.011387  -0.028857   0.012028  -0.037307
   24  H  3  Y    0.033472  -0.022023  -0.020780   0.018696  -0.064857
   25  H  3  Z   -0.009604   0.009170   0.014275   0.018111  -0.008417
   26  H  4  S    0.206743   0.419865  -0.128359   0.114113  -0.447199
   27  H  4  S    0.004946   0.057458  -0.017791   0.024039  -0.044159
   28  H  4  X   -0.039091  -0.035296   0.013911  -0.018850   0.068827
   29  H  4  Y   -0.000577  -0.002065   0.022348  -0.001924   0.001519
   30  H  4  Z   -0.009485  -0.019505   0.001419   0.018638  -0.009723

                      6          7

    1  N  1  S    0.011137  -0.002954
    2  N  1  S    0.036401  -0.016056
    3  N  1  S    0.007621  -0.014360
    4  N  1  X   -0.891956   0.045137
    5  N  1  Y   -0.041670   0.893539
    6  N  1  Z    0.026043   0.020272
    7  N  1  X   -0.040411   0.014410
    8  N  1  Y   -0.011410   0.044085
    9  N  1  Z   -0.005598   0.017832
   10  N  1 XX    0.002042   0.000078
   11  N  1 YY   -0.001468  -0.001280
   12  N  1 ZZ   -0.000574   0.001202
   13  N  1 XY    0.000588   0.001772
   14  N  1 XZ    0.039493   0.001178
   15  N  1 YZ   -0.000601  -0.038638
   16  H  2  S   -0.384131  -0.607231
   17  H  2  S   -0.067374  -0.109941
   18  H  2  X    0.000791  -0.035051
   19  H  2  Y    0.039870   0.038990
   20  H  2  Z    0.002290   0.004743
   21  H  3  S   -0.373645   0.610508
   22  H  3  S   -0.067029   0.111415
   23  H  3  X    0.001752   0.037455
   24  H  3  Y   -0.039458   0.039493
   25  H  3  Z    0.000801  -0.001718
   26  H  4  S    0.696234   0.024243
   27  H  4  S    0.127711   0.003086
   28  H  4  X   -0.058280  -0.002685
   29  H  4  Y   -0.000627  -0.023550
   30  H  4  Z   -0.004637  -0.000224

 -------------------------------------------
       MAXIMIZING MORMO OVERLAP TERM        
 -------------------------------------------
   SWEEP    VALUE       PROGRESS
     0     4.29158
     1     6.83462     2.54303925
     2     6.96652     0.13189832
     3     6.96660     0.00007621
     4     6.96660     0.00000000
     5     6.96660    -0.00000000
     6     6.96660     0.00000000
 THE ROTATION IS DONE
FLIPPING SIGN FOR ORBITAL   7
ACTIVE ORBITALS AFTER MORMO:

                      1          2          3          4          5

    1  N  1  S    0.006756  -0.001887   0.024750  -0.012133   0.215797
    2  N  1  S    0.430588  -0.010441   0.055984  -0.187032   0.740652
    3  N  1  S    0.320129   0.028643  -0.036443  -0.276404   0.184790
    4  N  1  X   -0.005880   0.471170   0.006666  -0.001868  -0.030347
    5  N  1  Y   -0.006271   0.063885   0.481711   0.036066   0.003829
    6  N  1  Z    0.085148   0.006077   0.036908   0.600923   0.632930
    7  N  1  X    0.012738   0.245935  -0.074996   0.006307  -0.004770
    8  N  1  Y   -0.017008  -0.046192   0.231357  -0.048157   0.046315
    9  N  1  Z    0.019546   0.005817  -0.061334   0.384556  -0.077714
   10  N  1 XX   -0.000622   0.008481  -0.007226  -0.008455   0.000570
   11  N  1 YY    0.000214  -0.008122   0.007616  -0.014242  -0.002725
   12  N  1 ZZ    0.000408  -0.000359  -0.000391   0.022698   0.002156
   13  N  1 XY    0.005339   0.009387  -0.021019   0.001194  -0.046074
   14  N  1 XZ    0.001936   0.022110  -0.004490  -0.003112   0.004605
   15  N  1 YZ    0.001932  -0.003575   0.019210  -0.000321  -0.038435
   16  H  2  S    0.186230  -0.212084   0.340729   0.089171  -0.485372
   17  H  2  S    0.001635  -0.080525   0.080529   0.019960  -0.061267
   18  H  2  X    0.009462   0.013857   0.010871   0.008309  -0.035184
   19  H  2  Y   -0.031384   0.020378  -0.017738  -0.017361   0.049627
   20  H  2  Z   -0.013519   0.010658  -0.026132   0.017565  -0.008609
   21  H  3  S    0.186687  -0.191056  -0.335696   0.126697  -0.504742
   22  H  3  S    0.001426  -0.011825  -0.049668   0.033328  -0.062123
   23  H  3  X    0.023516  -0.005445  -0.033772   0.010247  -0.041724
   24  H  3  Y    0.026801  -0.028452  -0.013600   0.010146  -0.046861
   25  H  3  Z   -0.003835   0.007283   0.008307   0.021098  -0.012656
   26  H  4  S    0.188072   0.383383  -0.055171   0.106136  -0.436371
   27  H  4  S    0.005728   0.095851  -0.049285   0.031597  -0.056124
   28  H  4  X   -0.028973  -0.030454  -0.005762  -0.013653   0.054569
   29  H  4  Y   -0.014081  -0.023259   0.018631  -0.006269   0.009568
   30  H  4  Z   -0.006900  -0.016456  -0.006152   0.018567  -0.019259

                      6          7

    1  N  1  S    0.024110  -0.053743
    2  N  1  S    0.046562  -0.122186
    3  N  1  S   -0.007951   0.129923
    4  N  1  X   -0.899399   0.030981
    5  N  1  Y   -0.031935   0.875021
    6  N  1  Z    0.038620   0.051917
    7  N  1  X   -0.036410   0.044911
    8  N  1  Y   -0.036515   0.078804
    9  N  1  Z   -0.026866   0.002779
   10  N  1 XX   -0.006319   0.044032
   11  N  1 YY    0.001465  -0.032557
   12  N  1 ZZ    0.004854  -0.011475
   13  N  1 XY    0.039782   0.017463
   14  N  1 XZ    0.038739  -0.021455
   15  N  1 YZ    0.013831  -0.036216
   16  H  2  S   -0.333574  -0.602288
   17  H  2  S   -0.118418  -0.147167
   18  H  2  X    0.025420  -0.038580
   19  H  2  Y    0.035744   0.022795
   20  H  2  Z    0.016262   0.005825
   21  H  3  S   -0.376677   0.587827
   22  H  3  S   -0.072459   0.119193
   23  H  3  X   -0.020878   0.039768
   24  H  3  Y   -0.036931   0.035592
   25  H  3  Z   -0.018058   0.007151
   26  H  4  S    0.661132  -0.031713
   27  H  4  S    0.183728   0.015893
   28  H  4  X   -0.051821   0.016552
   29  H  4  Y   -0.024987  -0.028959
   30  H  4  Z    0.001838  -0.021317

Actually Used Diabatic Molecualr Orbitals:

                      1          2          3          4          5

    1  N  1  S    0.006756  -0.001887   0.024750  -0.012133   0.215797
    2  N  1  S    0.430588  -0.010441   0.055984  -0.187032   0.740652
    3  N  1  S    0.320129   0.028643  -0.036443  -0.276404   0.184790
    4  N  1  X   -0.005880   0.471170   0.006666  -0.001868  -0.030347
    5  N  1  Y   -0.006271   0.063885   0.481711   0.036066   0.003829
    6  N  1  Z    0.085148   0.006077   0.036908   0.600923   0.632930
    7  N  1  X    0.012738   0.245935  -0.074996   0.006307  -0.004770
    8  N  1  Y   -0.017008  -0.046192   0.231357  -0.048157   0.046315
    9  N  1  Z    0.019546   0.005817  -0.061334   0.384556  -0.077714
   10  N  1 XX   -0.000622   0.008481  -0.007226  -0.008455   0.000570
   11  N  1 YY    0.000214  -0.008122   0.007616  -0.014242  -0.002725
   12  N  1 ZZ    0.000408  -0.000359  -0.000391   0.022698   0.002156
   13  N  1 XY    0.005339   0.009387  -0.021019   0.001194  -0.046074
[...]
      123   -0.043311    0.043311  +-2200+
      462   -0.042089    0.042089  2+02020
      822   -0.030188    0.030188  2+02002
      107   -0.028183    0.028183  +22-+00
      109    0.027896   -0.027896  +-22+00
      716    0.026818    0.026818  22+0002
       52   -0.026182    0.026182  220200+
       74    0.025850   -0.025850  2022+00
      249    0.025822   -0.025822  20+2200
      285    0.024909   -0.024909  02+2200
      821    0.024627   -0.024627  2++-002
       16    0.024346   -0.024346  222000+
      718   -0.023134    0.023134  2-++002
      473    0.023072    0.023072  20+20-+
      824    0.023029    0.023029  -++2002
       89    0.022564    0.022564  -+2200+
       86   -0.022509   -0.022509  2+2-00+
      179   -0.021956   -0.021956  202+200
      111    0.021426   -0.021426  +22-0+0
      809   -0.021116    0.021116  20+2+0-
      876    0.020747    0.020747  ++2200-
      808   -0.020727    0.020727  2+02+0-
      858   -0.020654    0.020654  +-+2002

 ---------------------------------------
    -DIABATIC STATES IN PROTOTYPES-     
 ---------------------------------------

     STATE:    1
 Group Ref#    Coefficients
     1    1    0.964825
     2    2   -0.004226
     3    3    0.001381

WEIGHT OF LISTED PROTOTYPES:   93.09%

     STATE:    2
 Group Ref#    Coefficients
     1    1   -0.004226
     2    2    0.962684
     3    3   -0.002873

WEIGHT OF LISTED PROTOTYPES:   92.68%

     STATE:    3
 Group Ref#    Coefficients
     1    1    0.001381
     2    2   -0.002873
     3    3    0.962558

WEIGHT OF LISTED PROTOTYPES:   92.65%

 --------------------------------------------------
 IN DIRECT MAX. DIABATIZATION FOR GMC-QDPT

 DIRECT MAXIMIZATION (DM) WITHOUT TRUNCATING ADIABATS
 EXPANSIONS INTO THE REFERENCE CONFIGURATION SPACE
 --------------------------------------------------

 -------------------------------------------
 - DM DIABT PT HAMILTONIAN MATRIX ELEMENTS -
 -------------------------------------------
                                            
 --- DIABATIC ENERGIES (DIAGONAL ELEMENT) ---       HARTREE            EV
 STATE #  1'S GMC-PT-LEVEL DIABATIC ENERGY=     -55.948512250       0.000000000
 STATE #  2'S GMC-PT-LEVEL DIABATIC ENERGY=     -55.784711348       4.457249577
 STATE #  3'S GMC-PT-LEVEL DIABATIC ENERGY=     -55.758192185       5.178872753

 --- DIABATIC COUPLINGS (OFF DIAGONAL ELEMENTS)---  HATREE            EV
 STATE #  1 &  2'S GMC-PT-LEVEL COUPLING  =      -0.000380084      -0.010342620
 STATE #  1 &  3'S GMC-PT-LEVEL COUPLING  =      -0.044991211      -1.224273219
 STATE #  2 &  3'S GMC-PT-LEVEL COUPLING  =       0.081286646       2.211922289

 ---------------------------------------
     - ROTATION TO DIABATIC STATES -    
 ---------------------------------------
 ROWS=ADIABATIC, COLUMNS=DIABATIC STATES

             1           2           3

    1    0.9582529  -0.1181900   0.2603507
    2    0.2536042   0.7718592  -0.5830251
    3    0.1320463  -0.6247115  -0.7696098

 ---------------------------------------
          - DIABATIC STATES -           
 ---------------------------------------

 State #    1  Energy =     -55.948512250

      Det      Coef        Coefp    Occupancy (Ignoring core)
      ---      ----        ----    --------- --------- -----
        1    0.945202   -0.945202  222+000
        3   -0.106854   -0.106854  22-++00
      141    0.103313    0.103313  22++-00
       18   -0.082467    0.082467  2-2+00+
        8   -0.082174    0.082174  2-2+0+0
      736    0.080226   -0.080226  2+2+00-
      393   -0.072912   -0.072912  202+020
       16   -0.072641    0.072641  222000+
      717   -0.072215   -0.072215  220+002
        7    0.069881    0.069881  22-+0+0
       17    0.067120    0.067120  22-+00+
      351   -0.064815   -0.064815  22++0-0
      386    0.051890   -0.051890  2+2+0-0
      701   -0.039702   -0.039702  22++00-
      708    0.037790   -0.037790  2-++0+-
      402    0.037574   -0.037574  2+-+0-+
      215   -0.037178   -0.037178  022+200
      218    0.034717   -0.034717  +-2+-+0
      390    0.034442   -0.034442  -+2++-0
      705   -0.033163   -0.033163  -2+++0-
      227   -0.032979   -0.032979  +2-+-0+
       76    0.030283    0.030283  2+2-0+0
      212    0.029788    0.029788  +220200
      179   -0.028626   -0.028626  202+200
       51   -0.027418    0.027418  22+-00+
      122    0.026001    0.026001  +2-200+
      113   -0.025680    0.025680  +-220+0
      773    0.024987   -0.024987  +2-++0-
     1051   -0.024565   -0.024565  2+++0--
      387   -0.024214    0.024214  2+20+-0
      702    0.023746    0.023746  22+0+0-
      424   -0.023600   -0.023600  +-2++-0
      184   -0.023244   -0.023244  -+2+-+0
      159    0.023031   -0.023031  -2++-0+
        5    0.021992    0.021992  -22++00
       29   -0.021565   -0.021565  2--+0++
      738   -0.021014   -0.021014  2+-++0-
      158   -0.020523   -0.020523  2-++-0+

 State #    2  Energy =     -55.784711348

      Det      Coef        Coefp    Occupancy (Ignoring core)
      ---      ----        ----    --------- --------- -----
       71   -0.948154    0.948154  2+22000
      246    0.118332    0.118332  2++2-00
       73   -0.109020    0.109020  2+-2+00
      736    0.086511   -0.086511  2+2+00-
       86   -0.081878   -0.081878  2+2-00+
       77    0.076103   -0.076103  2+-20+0
       88    0.075376   -0.075376  202200+
      822    0.073477   -0.073477  2+02002
      456   -0.070302   -0.070302  2++20-0
       36    0.045273    0.045273  22+2000
      813    0.042839   -0.042839  20+20+-
      320    0.037582    0.037582  0+22200
      111    0.036695   -0.036695  +22-0+0
      810   -0.034608   -0.034608  -++2+0-
      323   -0.034221    0.034221  +022-+0
      332   -0.032952    0.032952  ++-2-0+
       99   -0.032524    0.032524  20-20++
      317    0.031206   -0.031206  ++2-200
      180   -0.031176    0.031176  -+2+200
      177    0.030714   -0.030714  2+20200
       38   -0.030236    0.030236  2202+00
      806   -0.029168   -0.029168  2++200-
      183   -0.028121    0.028121  202+-+0
       74    0.027155   -0.027155  2022+00
      807   -0.026350    0.026350  2++-+0-
      192   -0.026122    0.026122  2+-+-0+
       87    0.026042   -0.026042  2+-200+
       72   -0.025066   -0.025066  2+2-+00
        6    0.025057   -0.025057  22200+0
      878    0.024828    0.024828  ++-2+0-
      391    0.024567   -0.024567  2+20020
       90    0.024165    0.024165  2+--+0+
      264    0.023979   -0.023979  -++2-0+
      113    0.023322   -0.023322  +-220+0
      526   -0.023159   -0.023159  ++220-0
      263   -0.022066   -0.022066  20+2-0+
      911    0.021751    0.021751  2+++-0-
       51    0.021618   -0.021618  22+-00+
       78    0.021602   -0.021602  20220+0
      108   -0.021130   -0.021130  +2-2+00
      122    0.021025    0.021025  +2-200+
      529    0.020171    0.020171  +022+-0

 State #    3  Energy =     -55.758192185

      Det      Coef        Coefp    Occupancy (Ignoring core)
      ---      ----        ----    --------- --------- -----
       36   -0.947046   -0.947046  22+2000
       38    0.111726   -0.111726  2202+00
       53    0.098136    0.098136  2-+200+
      806   -0.091779   -0.091779  2++200-
       51   -0.088952    0.088952  22+-00+
      701    0.084360    0.084360  22++00-
      463    0.074625   -0.074625  20+2020
      106    0.065510    0.065510  +222000
       42   -0.059471    0.059471  22020+0
      456   -0.048187   -0.048187  2++20-0
       71   -0.046061    0.046061  2+22000
       43    0.044879    0.044879  2-+20+0
      472   -0.043626   -0.043626  2+020-+
      285    0.037039   -0.037039  02+2200
      288   -0.036318   -0.036318  +-+2-+0
      460   -0.036212   -0.036212  -++2+-0
      297    0.034412   -0.034412  +202-0+
      123    0.034275   -0.034275  +-2200+
      121   -0.032918    0.032918  +22-00+
       64    0.032403   -0.032403  2-020++
      282    0.031975    0.031975  +2+-200
      145   -0.031872   -0.031872  -2++200
      249    0.031056   -0.031056  20+2200
      142    0.030391    0.030391  22+0200
       39   -0.030371   -0.030371  2-+2+00
      112   -0.028266   -0.028266  +2-20+0
      457   -0.027487    0.027487  2++-+-0
       73    0.027152   -0.027152  2+-2+00
       41   -0.027097    0.027097  22+-0+0
      157    0.026793   -0.026793  220+-0+
      148   -0.026420   -0.026420  2-++-+0
       55   -0.025372   -0.025372  220-+0+
       16   -0.024917    0.024917  222000+
      494    0.024384   -0.024384  +-+2+-0
      254    0.023748   -0.023748  -++2-+0
      109   -0.022609    0.022609  +-22+00
      876   -0.021324   -0.021324  ++2200-
      843   -0.021213   -0.021213  +202+0-
      808    0.020890   -0.020890  2+02+0-
       44    0.020645   -0.020645  -2+20+0
      859    0.020120   -0.020120  02+2002

 ---------------------------------------
      - DIABATIC STATES IN CMO -        
 ---------------------------------------

 State #    1  Energy =     -55.948512250

      Det      Coef        Coefp    Occupancy (Ignoring core)
      ---      ----        ----    --------- --------- -----
        1    0.914736   -0.914736  222+000
       71   -0.315634    0.315634  2+22000
       36    0.130576    0.130576  22+2000
      753   -0.064623   -0.064623  202+002
      357   -0.055655   -0.055655  220+020
      179   -0.044516   -0.044516  202+200
        7   -0.036105   -0.036105  22-+0+0
      751    0.033922   -0.033922  2+20002
      106   -0.032158   -0.032158  +222000
        4   -0.031699    0.031699  2-2++00
      739    0.031146    0.031146  202++0-
      717   -0.030835   -0.030835  220+002
       16    0.030218   -0.030218  222000+
      742   -0.030002   -0.030002  2+-+0+-
      754   -0.029598    0.029598  -+2+002
      215   -0.028622   -0.028622  022+200
      738    0.025041    0.025041  2+-++0-
      214   -0.024644   -0.024644  +-2+200
      193   -0.024581    0.024581  202+-0+
      788    0.024173    0.024173  +-2+002
      123    0.023521   -0.023521  +-2200+
      180    0.022962   -0.022962  -+2+200
        3    0.022821    0.022821  22-++00
       72    0.021852    0.021852  2+2-+00
      789   -0.021524   -0.021524  022+002
       41    0.021261   -0.021261  22+-0+0
      368   -0.021239   -0.021239  2-++0-+
       88   -0.021125    0.021125  202200+
      144    0.021119   -0.021119  2-++200
      143   -0.021098   -0.021098  220+200
      366    0.021061   -0.021061  22+00-+
      178   -0.020646   -0.020646  2+-+200
      462    0.020613   -0.020613  2+02020
       18    0.020470   -0.020470  2-2+00+

 State #    2  Energy =     -55.784711348

      Det      Coef        Coefp    Occupancy (Ignoring core)
      ---      ----        ----    --------- --------- -----
       71   -0.756703    0.756703  2+22000
       36   -0.598951   -0.598951  22+2000
        1   -0.175591    0.175591  222+000
      249    0.051444   -0.051444  20+2200
      122   -0.041354   -0.041354  +2-200+
      263    0.040053    0.040053  20+2-0+
      462    0.035917   -0.035917  2+02020
      248    0.034270   -0.034270  2+02200
      111    0.032647   -0.032647  +22-0+0
      823    0.029147   -0.029147  20+2002
      250   -0.028226   -0.028226  -++2200
       17    0.025018    0.025018  22-+00+
       87   -0.024416    0.024416  2+-200+
       51   -0.023645    0.023645  22+-00+
      320    0.023182    0.023182  0+22200
      751    0.022566   -0.022566  2+20002
      809   -0.022237    0.022237  20+2+0-
      822    0.022149   -0.022149  2+02002
       76    0.021635    0.021635  2+2-0+0
       54    0.021433   -0.021433  -2+200+

 State #    3  Energy =     -55.758192185

      Det      Coef        Coefp    Occupancy (Ignoring core)
      ---      ----        ----    --------- --------- -----
       36   -0.761026   -0.761026  22+2000
       71    0.540363   -0.540363  2+22000
        1    0.295642   -0.295642  222+000
      823    0.055680   -0.055680  20+2002
      123   -0.043311    0.043311  +-2200+
      462   -0.042089    0.042089  2+02020
      822   -0.030188    0.030188  2+02002
      107   -0.028183    0.028183  +22-+00
      109    0.027896   -0.027896  +-22+00
      716    0.026818    0.026818  22+0002
       52   -0.026182    0.026182  220200+
       74    0.025850   -0.025850  2022+00
      249    0.025822   -0.025822  20+2200
      285    0.024909   -0.024909  02+2200
      821    0.024627   -0.024627  2++-002
       16    0.024346   -0.024346  222000+
      718   -0.023134    0.023134  2-++002
      473    0.023072    0.023072  20+20-+
      824    0.023029    0.023029  -++2002
       89    0.022564    0.022564  -+2200+
       86   -0.022509   -0.022509  2+2-00+
      179   -0.021957   -0.021957  202+200
      111    0.021426   -0.021426  +22-0+0
      809   -0.021116    0.021116  20+2+0-
      876    0.020747    0.020747  ++2200-
      808   -0.020727    0.020727  2+02+0-
      858   -0.020654    0.020654  +-+2002

 ---------------------------------------
    -DIABATIC STATES IN PROTOTYPES-     
 ---------------------------------------

     STATE:    1
 Group Ref#    Coefficients
     1    1    0.964825
     2    2   -0.004221
     3    3    0.001379

WEIGHT OF LISTED PROTOTYPES:   93.09%

     STATE:    2
 Group Ref#    Coefficients
     1    1   -0.004231
     2    2    0.962684
     3    3   -0.002873

WEIGHT OF LISTED PROTOTYPES:   92.68%

     STATE:    3
 Group Ref#    Coefficients
     1    1    0.001382
     2    2   -0.002873
     3    3    0.962558

WEIGHT OF LISTED PROTOTYPES:   92.65%

     DIRECT MAX. DIABATIZATION FINISHED    
 CPU     0: STEP CPU TIME=     0.24 TOTAL CPU TIME=         14.2 (      0.2 MIN)
 TOTAL WALL CLOCK TIME=         14.3 SECONDS, CPU UTILIZATION IS    99.86%

DIABATS FOR SPIN-ORBIT CALCULATION ARE READY

TRANSITION DIPOLES BETWEEN ADIABATS (in A.U.):

STATE PAIR      X         Y         Z
    1    1  0.021528  0.296237  0.707174
    2    1 -0.006388  0.034783  0.125694
    2    2 -0.150809  0.191602  0.297432
    3    1 -0.084794 -0.085536  0.066006
    3    2  0.170528  0.003780 -0.001566
    3    3  0.118565  0.563752  0.262023


TRANSITION DIPOLES BETWEEN DIABATS (in A.U.):

STATE PAIR      X         Y         Z
    1    1 -0.001006  0.289684  0.750750
    2    1 -0.003824  0.034461  0.005263
    2    2 -0.219085  0.315678  0.277661
    3    1  0.031975  0.030260 -0.002086
    3    2  0.089374  0.190354 -0.000084
    3    3  0.209374  0.446229  0.238218

TRANSITION DIPOLES BETWEEN DIRECT MAX. DIABATS (in A.U.):

STATE PAIR      X         Y         Z
    1    1 -0.001006  0.289684  0.750750
    2    1 -0.003825  0.034461  0.005261
    2    2 -0.219085  0.315678  0.277660
    3    1  0.031975  0.030261 -0.002085
    3    2  0.089374  0.190354 -0.000084
    3    3  0.209374  0.446229  0.238218
 No $TRANST Group Found.
 Quit without doing spin-orbit coupling
 ..... DONE WITH MP2 ENERGY .....
 CPU     0: STEP CPU TIME=     0.01 TOTAL CPU TIME=         14.2 (      0.2 MIN)
 TOTAL WALL CLOCK TIME=         14.3 SECONDS, CPU UTILIZATION IS    99.93%
            100000000  WORDS OF DYNAMIC MEMORY USED
 EXECUTION OF GAMESS TERMINATED NORMALLY Wed Nov 16 20:09:25 2022
 DDI: 715512 bytes (0.7 MB / 0 MWords) used by master data server.

 ----------------------------------------
 CPU timing information for all processes
 ========================================
 0: 13.902 + 0.356 = 14.258
 ----------------------------------------
Note: The following floating-point exceptions are signalling: IEEE_DENORMAL
 ddikick.x: exited gracefully.
unset echo
----- accounting info -----
Files used on the master node io002 were:
-rw-r--r-- 1 bsonghao nooijen   20715 Nov 16 20:09 /scratch/bsonghao/nh3_diabatization_2d_at_mode_7_8_dist0.6_0.0.F05
-rw-r--r-- 1 bsonghao nooijen  363520 Nov 16 20:09 /scratch/bsonghao/nh3_diabatization_2d_at_mode_7_8_dist0.6_0.0.F09
-rw-r--r-- 1 bsonghao nooijen 1995920 Nov 16 20:09 /scratch/bsonghao/nh3_diabatization_2d_at_mode_7_8_dist0.6_0.0.F10
-rw-r--r-- 1 bsonghao nooijen  131264 Nov 16 20:09 /scratch/bsonghao/nh3_diabatization_2d_at_mode_7_8_dist0.6_0.0.F13
-rw-r--r-- 1 bsonghao nooijen  180312 Nov 16 20:09 /scratch/bsonghao/nh3_diabatization_2d_at_mode_7_8_dist0.6_0.0.F15
-rw-r--r-- 1 bsonghao nooijen       0 Nov 16 20:09 /scratch/bsonghao/nh3_diabatization_2d_at_mode_7_8_dist0.6_0.0.F16
-rw-r--r-- 1 bsonghao nooijen    9808 Nov 16 20:09 /scratch/bsonghao/nh3_diabatization_2d_at_mode_7_8_dist0.6_0.0.F70
-rw-r--r-- 1 bsonghao nooijen    9808 Nov 16 20:09 /scratch/bsonghao/nh3_diabatization_2d_at_mode_7_8_dist0.6_0.0.F71
-rw-r--r-- 1 bsonghao nooijen   19608 Nov 16 20:09 /scratch/bsonghao/nh3_diabatization_2d_at_mode_7_8_dist0.6_0.0.F72
-rw-r--r-- 1 bsonghao nooijen   19608 Nov 16 20:09 /scratch/bsonghao/nh3_diabatization_2d_at_mode_7_8_dist0.6_0.0.F73
-rw-r--r-- 1 bsonghao nooijen 1920824 Nov 16 20:09 /scratch/bsonghao/nh3_diabatization_2d_at_mode_7_8_dist0.6_0.0.F74
-rw-r--r-- 1 bsonghao nooijen       0 Nov 16 20:09 /scratch/bsonghao/nh3_diabatization_2d_at_mode_7_8_dist0.6_0.0.F75
-rw-r--r-- 1 bsonghao nooijen   58848 Nov 16 20:09 /scratch/bsonghao/nh3_diabatization_2d_at_mode_7_8_dist0.6_0.0.F76
-rw-r--r-- 1 bsonghao nooijen       0 Nov 16 20:09 /scratch/bsonghao/nh3_diabatization_2d_at_mode_7_8_dist0.6_0.0.F77
-rw-r--r-- 1 bsonghao nooijen    1864 Nov 16 20:09 /scratch/bsonghao/nh3_diabatization_2d_at_mode_7_8_dist0.6_0.0.F78
-rw-r--r-- 1 bsonghao nooijen   39208 Nov 16 20:09 /scratch/bsonghao/nh3_diabatization_2d_at_mode_7_8_dist0.6_0.0.F79
-rw-r--r-- 1 bsonghao nooijen     104 Nov 16 20:09 /scratch/bsonghao/nh3_diabatization_2d_at_mode_7_8_dist0.6_0.0.F80
-rw-r--r-- 1 bsonghao nooijen   13472 Nov 16 20:09 /scratch/bsonghao/nh3_diabatization_2d_at_mode_7_8_dist0.6_0.0.F81
-rw-r--r-- 1 bsonghao nooijen      16 Nov 16 20:09 /scratch/bsonghao/nh3_diabatization_2d_at_mode_7_8_dist0.6_0.0.F82
-rw-r--r-- 1 bsonghao nooijen   19216 Nov 16 20:09 /scratch/bsonghao/nh3_diabatization_2d_at_mode_7_8_dist0.6_0.0.F83
-rw-r--r-- 1 bsonghao nooijen   29712 Nov 16 20:09 /scratch/bsonghao/nh3_diabatization_2d_at_mode_7_8_dist0.6_0.0.F84
-rw-r--r-- 1 bsonghao nooijen  401576 Nov 16 20:09 /scratch/bsonghao/nh3_diabatization_2d_at_mode_7_8_dist0.6_0.0.F85
-rw-r--r-- 1 bsonghao nooijen  903672 Nov 16 20:09 /scratch/bsonghao/nh3_diabatization_2d_at_mode_7_8_dist0.6_0.0.F86
-rw-r--r-- 1 bsonghao nooijen     656 Nov 16 20:09 /scratch/bsonghao/nh3_diabatization_2d_at_mode_7_8_dist0.6_0.0.F87
-rw-r--r-- 1 bsonghao nooijen   38064 Nov 16 20:09 /scratch/bsonghao/nh3_diabatization_2d_at_mode_7_8_dist0.6_0.0.F88
-rw-r--r-- 1 bsonghao nooijen     240 Nov 16 20:09 /scratch/bsonghao/nh3_diabatization_2d_at_mode_7_8_dist0.6_0.0.F89
-rw-r--r-- 1 bsonghao nooijen       0 Nov 16 20:09 /scratch/bsonghao/nh3_diabatization_2d_at_mode_7_8_dist0.6_0.0.F90
-rw-r--r-- 1 bsonghao nooijen   13760 Nov 16 20:09 /scratch/bsonghao/nh3_diabatization_2d_at_mode_7_8_dist0.6_0.0.F91
-rw-r--r-- 1 bsonghao nooijen   22776 Nov 16 20:09 /scratch/bsonghao/nh3_diabatization_2d_at_mode_7_8_dist0.6_0.0.F92
-rw-r--r-- 1 bsonghao nooijen   23168 Nov 16 20:09 /scratch/bsonghao/nh3_diabatization_2d_at_mode_7_8_dist0.6_0.0.F93
-rw-r--r-- 1 bsonghao nooijen   22776 Nov 16 20:09 /scratch/bsonghao/nh3_diabatization_2d_at_mode_7_8_dist0.6_0.0.F94
-rw-r--r-- 1 bsonghao nooijen   13760 Nov 16 20:09 /scratch/bsonghao/nh3_diabatization_2d_at_mode_7_8_dist0.6_0.0.F95
-rw-r--r-- 1 bsonghao nooijen   29440 Nov 16 20:09 /scratch/bsonghao/nh3_diabatization_2d_at_mode_7_8_dist0.6_0.0.F96
-rw-r--r-- 1 bsonghao nooijen    1184 Nov 16 20:09 /scratch/bsonghao/nh3_diabatization_2d_at_mode_7_8_dist0.6_0.0.F97
-rw-r--r-- 1 bsonghao nooijen    9808 Nov 16 20:09 /scratch/bsonghao/nh3_diabatization_2d_at_mode_7_8_dist0.6_0.0.F98
-rw-r--r-- 1 bsonghao nooijen   30264 Nov 16 20:09 /scratch/bsonghao/nh3_diabatization_2d_at_mode_7_8_dist0.6_0.0.F99
ls: No match.
ls: No match.
ls: No match.
Wed 16 Nov 2022 08:09:28 PM EST
0.284u 0.056s 0:17.65 1.8%	0+0k 48+224io 0pf+0w
