----- GAMESS execution script 'rungms' -----
This job is running on host io002
under operating system Linux at Wed 16 Nov 2022 06:30:42 PM EST
Available scratch disk space (Kbyte units) at beginning of the job is
Filesystem       1K-blocks       Used   Available Use% Mounted on
/dev/sdc1      15378471580 3278917120 11318349060  23% /scratch
GAMESS temporary binary files will be written to /scratch/bsonghao
GAMESS supplementary output files will be written to /home/bsonghao/.gamess_ascii_files/267638
Copying input file nh3_diabatization_2d_at_mode_7_8_dist-0.7_0.4.inp to your run's scratch directory...
cp nh3_diabatization_2d_at_mode_7_8_dist-0.7_0.4.inp /scratch/bsonghao/nh3_diabatization_2d_at_mode_7_8_dist-0.7_0.4.F05
unset echo
/home/bjb2chen/gamess/ddikick.x /home/bjb2chen/gamess/gamess.00.x nh3_diabatization_2d_at_mode_7_8_dist-0.7_0.4 -ddi 1 1 io002 -scr /scratch/bsonghao

 Distributed Data Interface kickoff program.
 Initiating 1 compute processes on 1 nodes to run the following command:
 /home/bjb2chen/gamess/gamess.00.x nh3_diabatization_2d_at_mode_7_8_dist-0.7_0.4 

          ******************************************************
          *         GAMESS VERSION = 02 AUG 2018 (R2)         *
          *             FROM IOWA STATE UNIVERSITY             *
          * M.W.SCHMIDT, K.K.BALDRIDGE, J.A.BOATZ, S.T.ELBERT, *
          *   M.S.GORDON, J.H.JENSEN, S.KOSEKI, N.MATSUNAGA,   *
          *          K.A.NGUYEN, S.J.SU, T.L.WINDUS,           *
          *       TOGETHER WITH M.DUPUIS, J.A.MONTGOMERY       *
          *         J.COMPUT.CHEM.  14, 1347-1363(1993)        *
          **************** 64 BIT LINUX VERSION ****************

  SINCE 1993, STUDENTS AND POSTDOCS WORKING AT IOWA STATE UNIVERSITY
  AND ALSO IN THEIR VARIOUS JOBS AFTER LEAVING ISU HAVE MADE IMPORTANT
  CONTRIBUTIONS TO THE CODE:
     IVANA ADAMOVIC, CHRISTINE AIKENS, YURI ALEXEEV, POOJA ARORA,
     ANDREY ASADCHEV, ROB BELL, PRADIPTA BANDYOPADHYAY, JONATHAN BENTZ,
     BRETT BODE, KURT BRORSEN, CALEB CARLIN, GALINA CHABAN, WEI CHEN,
     CHEOL HO CHOI, PAUL DAY, ALBERT DEFUSCO, NUWAN DESILVA, TIM DUDLEY,
     DMITRI FEDOROV, ALEX FINDLATER, GRAHAM FLETCHER, MARK FREITAG,
     KURT GLAESEMANN, ANASTASIA GUININA,
     DAN KEMP, GRANT MERRILL, NORIYUKI MINEZAWA, JONATHAN MULLIN,
     TAKESHI NAGATA, SEAN NEDD, HEATHER NETZLOFF, BOSILJKA NJEGIC, RYAN OLSON,
     MIKE PAK, BUU PHAM,
     SPENCER PRUITT, LUKE ROSKOP, JIM SHOEMAKER, LYUDMILA SLIPCHENKO,
     TONY SMITH, SAROM SOK LEANG, JIE SONG, TETSUYA TAKETSUGU, SIMON WEBB,
     PENG XU, SOOHAENG YOO, FEDERICO ZAHARIEV

  ADDITIONAL CODE HAS BEEN PROVIDED BY COLLABORATORS IN OTHER GROUPS:
     IOWA STATE UNIVERSITY:
          JOE IVANIC, AARON WEST, LAIMUTIS BYTAUTAS, KLAUS RUEDENBERG
     UNIVERSITY OF TOKYO: KIMIHIKO HIRAO, TAKAHITO NAKAJIMA,
          TAKAO TSUNEDA, MUNEAKI KAMIYA, SUSUMU YANAGISAWA,
          KIYOSHI YAGI, MAHITO CHIBA, SEIKEN TOKURA, NAOAKI KAWAKAMI
     UNIVERSITY OF AARHUS: FRANK JENSEN
     UNIVERSITY OF IOWA: VISVALDAS KAIRYS, HUI LI
     NATIONAL INST. OF STANDARDS AND TECHNOLOGY: WALT STEVENS, DAVID GARMER
     UNIVERSITY OF PISA: BENEDETTA MENNUCCI, JACOPO TOMASI
     UNIVERSITY OF MEMPHIS: HENRY KURTZ, PRAKASHAN KORAMBATH
     UNIVERSITY OF ALBERTA: TOBY ZENG, MARIUSZ KLOBUKOWSKI
     UNIVERSITY OF NEW ENGLAND: MARK SPACKMAN
     MIE UNIVERSITY: HIROAKI UMEDA
     NAT. INST. OF ADVANCED INDUSTRIAL SCIENCE AND TECHNOLOGY: KAZUO KITAURA
     MICHIGAN STATE UNIVERSITY:
          KAROL KOWALSKI, MARTA WLOCH, JEFFREY GOUR, JESSE LUTZ,
          WEI LI, JUN SHEN, J. EMILIANO DEUSTUA, PIOTR PIECUCH
     UNIVERSITY OF MINNESOTA:
          YINAN SHU
     UNIVERSITY OF SILESIA: MONIKA MUSIAL, STANISLAW KUCHARSKI
     FACULTES UNIVERSITAIRES NOTRE-DAME DE LA PAIX:
          OLIVIER QUINET, BENOIT CHAMPAGNE
     UNIVERSITY OF CALIFORNIA - SANTA BARBARA: BERNARD KIRTMAN
     INSTITUTE FOR MOLECULAR SCIENCE:
          KAZUYA ISHIMURA, MICHIO KATOUDA, AND SHIGERU NAGASE
     UNIVERSITY OF NOTRE DAME: ANNA POMOGAEVA, DAN CHIPMAN
     KYUSHU UNIVERSITY:
          HARUYUKI NAKANO,
          FENG LONG GU, JACEK KORCHOWIEC, MARCIN MAKOWSKI, AND YURIKO AOKI,
          HIROTOSHI MORI AND EISAKU MIYOSHI
     PENNSYLVANIA STATE UNIVERSITY:
          TZVETELIN IORDANOV, CHET SWALINA, JONATHAN SKONE,
          SHARON HAMMES-SCHIFFER
     WASEDA UNIVERSITY:
          MASATO KOBAYASHI, TOMOKO AKAMA, TSUGUKI TOUMA,
          TAKESHI YOSHIKAWA, YASUHIRO IKABATA, JUNJI SEINO,
          YUYA NAKAJIMA, HIROMI NAKAI
     NANJING UNIVERSITY: SHUHUA LI
     UNIVERSITY OF NEBRASKA:
          PEIFENG SU, DEJUN SI, NANDUN THELLAMUREGE, YALI WANG, HUI LI
     UNIVERSITY OF ZURICH: ROBERTO PEVERATI, KIM BALDRIDGE
     N. COPERNICUS UNIVERSITY AND JACKSON STATE UNIVERSITY:
          MARIA BARYSZ
     UNIVERSITY OF COPENHAGEN: Jimmy Kromann, CASPER STEINMANN
     TOKYO INSTITUTE OF TECHNOLOGY: HIROYA NAKATA
     NAGOYA UNIVERSITY: YOSHIO NISHIMOTO, STEPHAN IRLE
     MOSCOW STATE UNIVERSITY: VLADIMIR MIRONOV

 EXECUTION OF GAMESS BEGUN Wed Nov 16 18:30:42 2022

            ECHO OF THE FIRST FEW INPUT CARDS -
 INPUT CARD> $system kdiag=3 mwords=100 memddi=1000 parall=.t. $end                         
 INPUT CARD> $contrl runtyp=energy ispher=1 $end                                            
 INPUT CARD> $contrl icut=9 itol=20 inttyp=rysquad qmttol=1.0d-05 nosym=1 $end              
 INPUT CARD> $scf    npunch=2 conv=1.0d-06 dirscf=.t.      $end                             
 INPUT CARD> $contrl scftyp=mcscf  mult=2 maxit=200 icharg=1 mplevl=2 $end                  
 INPUT CARD> $guess  guess=moread norb=29 purify=.t. $end                                   
 INPUT CARD> $basis  gbasis=ccd $end                                                        
 INPUT CARD> $mcscf  cistep=gmcci fullnr=.t. finci=mos                                      
 INPUT CARD>         acurcy=1.d-6 maxit=100 $end                                            
 INPUT CARD> $trans  dirtrf=.t. $end                                                        
 INPUT CARD> $mrmp   mrpt=gmcpt rdvecs=.f. $end                                             
 INPUT CARD> $gmcpt  nmofzc=0 nmodoc=1 nmoact=7 nelact=7 stsym(1)=A                         
 INPUT CARD>         reftyp=ormas nspace=1 mstart(1)=2 mine(1)=7 maxe(1)=7                  
 INPUT CARD>         kstate(1)=1,1,1                                                        
 INPUT CARD>         wstate(1)=1,1,1                                                        
 INPUT CARD>         iwgt=0 thrwgt=-1.0 krot=.f. kszdoe=.f. knospn=.f.                      
 INPUT CARD>         thrde=-1.0 edshft=0.02 $end                                            
 INPUT CARD> $data                                                                          
 INPUT CARD> NH3+ 3 states calculation at NH3 structure.                                    
 INPUT CARD> c1                                                                             
 INPUT CARD>N 7.0 -0.024915672000000007 0.043602321000000006 -0.1693809002                  
 INPUT CARD>H 1.0 -0.5291623089999999 0.9113007758000001 0.043641314099999995               
 INPUT CARD>H 1.0 0.005814902000000066 -1.0063395618000002 0.3636916311                     
 INPUT CARD>H 1.0 0.8695573719999999 -0.5108302 0.3620510471                                
 INPUT CARD>$end                                                                            
 INPUT CARD>--- OPTIMIZED RHF      MO-S --- GENERATED AT Mon Nov 14 16:47:08 2022           
 INPUT CARD>E=      -56.3825050291, E(NUC)=   11.8429239490                                 
 INPUT CARD> $VEC                                                                           
 INPUT CARD> 1  1-1.00134066E+00-2.25158504E-03 3.44925845E-03 0.00000000E+00 0.00000000E+00
 INPUT CARD> 1  2-2.13170927E-03 0.00000000E+00 0.00000000E+00 6.57129898E-04-6.87950443E-05
 INPUT CARD> 1  3-6.87950443E-05 1.37590089E-04 0.00000000E+00 0.00000000E+00 0.00000000E+00
 INPUT CARD> 1  4 3.25502815E-04-4.84772356E-04 3.62525460E-04-6.27912517E-04-3.45956485E-04
 INPUT CARD> 1  5 3.25502815E-04-4.84772356E-04 3.62525460E-04 6.27912517E-04-3.45956485E-04
 INPUT CARD> 1  6 3.25502815E-04-4.84772356E-04-7.25050921E-04 0.00000000E+00-3.45956485E-04
 INPUT CARD> 2  1 1.31286642E-02-4.05911371E-01-2.82090992E-01 0.00000000E+00 0.00000000E+00
 INPUT CARD> 2  2-7.71489043E-02 0.00000000E+00 0.00000000E+00 9.73717494E-03 6.62450916E-04
 INPUT CARD> 2  3 6.62450916E-04-1.32490183E-03 0.00000000E+00 0.00000000E+00 0.00000000E+00
 INPUT CARD> 2  4-1.96090317E-01-1.96656153E-02-1.74855877E-02 3.02859263E-02 8.68214399E-03
 INPUT CARD> 2  5-1.96090317E-01-1.96656153E-02-1.74855877E-02-3.02859263E-02 8.68214399E-03
 INPUT CARD> 2  6-1.96090317E-01-1.96656153E-02 3.49711754E-02 0.00000000E+00 8.68214399E-03
 INPUT CARD> 3  1 0.00000000E+00 0.00000000E+00 0.00000000E+00 4.48608762E-01 0.00000000E+00
 INPUT CARD> 3  2 0.00000000E+00 2.18692520E-01 0.00000000E+00 0.00000000E+00 1.30198027E-02
 INPUT CARD> 3  3-1.30198027E-02 0.00000000E+00 0.00000000E+00 2.71832968E-02 0.00000000E+00
 INPUT CARD> 3  4-1.85332726E-01-7.03958951E-02 8.47929477E-03 1.95242443E-02 8.32835058E-03
 INPUT CARD> 3  5-1.85332726E-01-7.03958951E-02 8.47929477E-03-1.95242443E-02 8.32835058E-03
 INPUT CARD> 3  6 3.70665453E-01 1.40791790E-01-2.53376884E-02 0.00000000E+00-1.66567012E-02
 INPUT CARD> 4  1 0.00000000E+00 0.00000000E+00 0.00000000E+00 0.00000000E+00 4.48608762E-01
 INPUT CARD> 4  2 0.00000000E+00 0.00000000E+00 2.18692520E-01 0.00000000E+00 0.00000000E+00
 INPUT CARD> 4  3 0.00000000E+00 0.00000000E+00-1.50339731E-02 0.00000000E+00 2.71832968E-02
 INPUT CARD> 4  4 3.21005698E-01 1.21929267E-01 1.95242443E-02-1.40653607E-02-1.44251263E-02
  100000000 WORDS OF MEMORY AVAILABLE

     BASIS OPTIONS
     -------------
     GBASIS=CCD          IGAUSS=       0      POLAR=NONE    
     NDFUNC=       0     NFFUNC=       0     DIFFSP=       F
     NPFUNC=       0      DIFFS=       F     BASNAM=        


     RUN TITLE
     ---------
  NH3+ 3 states calculation at NH3 structure.                                    

 THE POINT GROUP OF THE MOLECULE IS C1      
 THE ORDER OF THE PRINCIPAL AXIS IS     0

 ATOM      ATOMIC                      COORDINATES (BOHR)
           CHARGE         X                   Y                   Z
 N           7.0    -0.0470837929        0.0823964391       -0.3200834889
 H           1.0    -0.9999717670        1.7221087587        0.0824701254
 H           1.0     0.0109885714       -1.9017060224        0.6872775268
 H           1.0     1.6432251637       -0.9653291043        0.6841772726

          INTERNUCLEAR DISTANCES (ANGS.)
          ------------------------------

                1 N          2 H          3 H          4 H     

   1 N       0.0000000    1.0259355 *  1.1779171 *  1.1789391 *
   2 H       1.0259355 *  0.0000000    2.0164269 *  2.0199649 *
   3 H       1.1779171 *  2.0164269 *  0.0000000    0.9957827 *
   4 H       1.1789391 *  2.0199649 *  0.9957827 *  0.0000000  

  * ... LESS THAN  3.000


     ATOMIC BASIS SET
     ----------------
 THE CONTRACTED PRIMITIVE FUNCTIONS HAVE BEEN UNNORMALIZED
 THE CONTRACTED BASIS FUNCTIONS ARE NOW NORMALIZED TO UNITY

  SHELL TYPE  PRIMITIVE        EXPONENT          CONTRACTION COEFFICIENT(S)

 N         

      1   S       1          9046.0000000    0.000699617413
      1   S       2          1357.0000000    0.005386054630
      1   S       3           309.3000000    0.027391021189
      1   S       4            87.7300000    0.103150591982
      1   S       5            28.5600000    0.278570663317
      1   S       6            10.2100000    0.448294849454
      1   S       7             3.8380000    0.278085928395
      1   S       8             0.7466000    0.015431561233

      2   S       9          9046.0000000   -0.000304990096
      2   S      10          1357.0000000   -0.002408026379
      2   S      11           309.3000000   -0.011944448725
      2   S      12            87.7300000   -0.048925992909
      2   S      13            28.5600000   -0.134472724725
      2   S      14            10.2100000   -0.315112577700
      2   S      15             3.8380000   -0.242857832550
      2   S      16             0.7466000    1.094382206854

      3   S      17             0.2248000    1.000000000000

      4   P      18            13.5500000    0.058905676772
      4   P      19             2.9170000    0.320461106714
      4   P      20             0.7973000    0.753042061792

      5   P      21             0.2185000    1.000000000000

      6   D      22             0.8170000    1.000000000000

 H         

      7   S      23            13.0100000    0.033498726390
      7   S      24             1.9620000    0.234800801174
      7   S      25             0.4446000    0.813682957883

      8   S      26             0.1220000    1.000000000000

      9   P      27             0.7270000    1.000000000000

 H         

     10   S      28            13.0100000    0.033498726390
     10   S      29             1.9620000    0.234800801174
     10   S      30             0.4446000    0.813682957883

     11   S      31             0.1220000    1.000000000000

     12   P      32             0.7270000    1.000000000000

 H         

     13   S      33            13.0100000    0.033498726390
     13   S      34             1.9620000    0.234800801174
     13   S      35             0.4446000    0.813682957883

     14   S      36             0.1220000    1.000000000000

     15   P      37             0.7270000    1.000000000000

 TOTAL NUMBER OF BASIS SET SHELLS             =   15
 NUMBER OF CARTESIAN GAUSSIAN BASIS FUNCTIONS =   30
 NOTE: THIS RUN WILL RESTRICT THE MO VARIATION SPACE TO SPHERICAL HARMONICS.
 THE NUMBER OF ORBITALS KEPT IN THE VARIATIONAL SPACE WILL BE PRINTED LATER.
 NUMBER OF ELECTRONS                          =    9
 CHARGE OF MOLECULE                           =    1
 SPIN MULTIPLICITY                            =    2
 NUMBER OF OCCUPIED ORBITALS (ALPHA)          =    5
 NUMBER OF OCCUPIED ORBITALS (BETA )          =    4
 TOTAL NUMBER OF ATOMS                        =    4
 THE NUCLEAR REPULSION ENERGY IS       10.9531730543

     $CONTRL OPTIONS
     ---------------
 SCFTYP=MCSCF        RUNTYP=ENERGY       EXETYP=RUN     
 MPLEVL=       2     CITYP =NONE         CCTYP =NONE         VBTYP =NONE    
 DFTTYP=NONE         TDDFT =NONE    
 MULT  =       2     ICHARG=       1     NZVAR =       0     COORD =UNIQUE  
 PP    =NONE         RELWFN=NONE         LOCAL =NONE         NUMGRD=       F
 ISPHER=       1     NOSYM =       1     MAXIT =     200     UNITS =ANGS    
 PLTORB=       F     MOLPLT=       F     AIMPAC=       F     FRIEND=        
 NPRINT=       7     IREST =       0     GEOM  =INPUT   
 NORMF =       0     NORMP =       0     ITOL  =      20     ICUT  =       9
 INTTYP=RYSQUAD      GRDTYP=BEST         QMTTOL= 1.0E-05

     $SYSTEM OPTIONS
     ---------------
  REPLICATED MEMORY=   100000000 WORDS (ON EVERY NODE).
 DISTRIBUTED MEMDDI=        1000 MILLION WORDS IN AGGREGATE,
 MEMDDI DISTRIBUTED OVER   1 PROCESSORS IS  1000000000 WORDS/PROCESSOR.
 TOTAL MEMORY REQUESTED ON EACH PROCESSOR=  1100000000 WORDS.
 TIMLIM=      525600.00 MINUTES, OR     365.0 DAYS.
 PARALL= T  BALTYP=  DLB     KDIAG=    3  COREFL= F
 MXSEQ2=     300 MXSEQ3=     150  mem10=         0

          ----------------
          PROPERTIES INPUT
          ----------------

     MOMENTS            FIELD           POTENTIAL          DENSITY
 IEMOM =       1   IEFLD =       0   IEPOT =       0   IEDEN =       0
 WHERE =COMASS     WHERE =NUCLEI     WHERE =NUCLEI     WHERE =NUCLEI  
 OUTPUT=BOTH       OUTPUT=BOTH       OUTPUT=BOTH       OUTPUT=BOTH    
 IEMINT=       0   IEFINT=       0                     IEDINT=       0
                                                       MORB  =       0

     -------------------------------
     INTEGRAL TRANSFORMATION OPTIONS
     -------------------------------
     NWORD  =            0
     CUTOFF = 1.0E-09     MPTRAN =       0
     DIRTRF =       T     AOINTS =DUP     

          ----------------------
          MCSCF INPUT PARAMETERS
          ----------------------
 CONVERGER SELECTION: FOCAS = F  SOSCF = F  FULLNR = T  QUD = F  JACOBI = F
 SECULAR EQUATION METHOD CISTEP = GMCCI   
 --- GENERAL INPUT OPTIONS:
 MAXIT =     100  MICIT =       1  ACURCY= 1.000E-06
 DAMP  =   0.000  CANONC=       T  ENGTOL= 1.000E-10
 EKT   =       F  NPUNCH=       2  NWORD =         0
 REGENERATE CI AFTER CONVERGENCE = NONE    
 DIABATIZATION AFTER CONVERGENCE =        F
 --- INPUT FOR FULLNR CONVERGER:
 METHOD=DM2       FORS  =       F  DROPC =       T
 LINSER=       F  FCORE =       F  NORB  =      30

          ----------------------
          INTEGRAL INPUT OPTIONS
          ----------------------
 NOPK  =       1 NORDER=       0 SCHWRZ=       T

 ------------------------------------------
 MULTIREFERENCE PERTURBATION THEORY CONTROL
 ------------------------------------------
 MRPT=GMCPT    READ CONVERGED MCSCF VECTORS= F


     ------------------------------------------
     THE POINT GROUP IS C1 , NAXIS= 1, ORDER= 1
     ------------------------------------------

 -- VARIATIONAL SPACE WILL BE RESTRICTED TO PURE SPHERICAL HARMONICS ONLY --
 AFTER EXCLUDING CONTAMINANT COMBINATIONS FROM THE CARTESIAN GAUSSIAN BASIS
 SET, THE NUMBER OF SPHERICAL HARMONICS KEPT IN THE VARIATION SPACE IS   29

     DIMENSIONS OF THE SYMMETRY SUBSPACES ARE
 A   =   29

 ..... DONE SETTING UP THE RUN .....
 CPU     0: STEP CPU TIME=     0.03 TOTAL CPU TIME=          0.0 (      0.0 MIN)
 TOTAL WALL CLOCK TIME=          0.0 SECONDS, CPU UTILIZATION IS    75.00%

          ********************
          1 ELECTRON INTEGRALS
          ********************
 TIME TO DO   DIPOLE INTEGRALS=      0.00
 ...... END OF ONE-ELECTRON INTEGRALS ......
 CPU     0: STEP CPU TIME=     0.01 TOTAL CPU TIME=          0.0 (      0.0 MIN)
 TOTAL WALL CLOCK TIME=          0.1 SECONDS, CPU UTILIZATION IS    80.00%

          -------------
          GUESS OPTIONS
          -------------
          GUESS =MOREAD            NORB  =      29          NORDER=       0
          MIX   =       F          PRTMO =       F          PUNMO =       F
          TOLZ  = 1.0E-08          TOLE  = 1.0E-05
          SYMDEN=       F          PURIFY=       T

 INITIAL GUESS ORBITALS GENERATED BY MOREAD   ROUTINE.

 STATISTICS FOR GENERATION OF SYMMETRY ORBITAL -Q- MATRIX
 NUMBER OF CARTESIAN ATOMIC ORBITALS=         30
 NUMBER OF SPHERICAL CONTAMINANTS DROPPED=     1
 NUMBER OF LINEARLY DEPENDENT MOS DROPPED=     0
 TOTAL NUMBER OF MOS IN VARIATION SPACE=      29
 ORBITAL PURIFICATION WILL OCCUR

 SYMMETRIES FOR INITIAL GUESS ORBITALS FOLLOW.   BOTH SET(S).
     5 ORBITALS ARE OCCUPIED (    1 CORE ORBITALS).
     1=A        2=A        3=A        4=A        5=A        6=A        7=A   
     8=A        9=A       10=A       11=A       12=A       13=A       14=A   
    15=A       16=A       17=A       18=A       19=A       20=A       21=A   
    22=A       23=A       24=A       25=A       26=A       27=A       28=A   
    29=A   
 ...... END OF INITIAL ORBITAL SELECTION ......
 CPU     0: STEP CPU TIME=     0.00 TOTAL CPU TIME=          0.0 (      0.0 MIN)
 TOTAL WALL CLOCK TIME=          0.1 SECONDS, CPU UTILIZATION IS    66.67%

                    ----------------------
                    AO INTEGRAL TECHNOLOGY
                    ----------------------
     S,P,L SHELL ROTATED AXIS INTEGRALS, REPROGRAMMED BY
        KAZUYA ISHIMURA (IMS) AND JOSE SIERRA (SYNSTAR).
     S,P,D,L SHELL ROTATED AXIS INTEGRALS PROGRAMMED BY
        KAZUYA ISHIMURA (INSTITUTE FOR MOLECULAR SCIENCE).
     S,P,D,F,G SHELL TO TOTAL QUARTET ANGULAR MOMENTUM SUM 5,
        ERIC PROGRAM BY GRAHAM FLETCHER (ELORET AND NASA ADVANCED
        SUPERCOMPUTING DIVISION, AMES RESEARCH CENTER).
     S,P,D,F,G,L SHELL GENERAL RYS QUADRATURE PROGRAMMED BY
        MICHEL DUPUIS (PACIFIC NORTHWEST NATIONAL LABORATORY).

          --------------------
          2 ELECTRON INTEGRALS
          --------------------

 DIRECT SCF METHOD SKIPS INTEGRAL STORAGE ON DISK.
 DIRECT TRANSFORMATION SKIPS AO INTEGRAL STORAGE ON DISK.
  ...... END OF TWO-ELECTRON INTEGRALS .....
 STEP CPU TIME =     0.02 TOTAL CPU TIME =          0.1 (      0.0 MIN)
 TOTAL WALL CLOCK TIME=          0.1 SECONDS, CPU UTILIZATION IS    75.00%
 DDI: Creating Array [0] - 900 x 36 = 32400 words.
 DDI: Creating Array [1] - 21 x 288 = 6048 words.
 DDI: Creating Array [2] - 36 x 36 = 1296 words.
 DDI: Creating Array [3] - 465 x 36 = 16740 words.

          -----------------
          MCSCF CALCULATION
          -----------------

 ----- NUCLEAR ENERGY ----- =        10.9531730543

     -------------------------------------------------
     GMC-PT/GMC-QDPT or general MCSCF input parameters
     -------------------------------------------------
 # of frozen core orbs. =         0 ->         0
 # of doubly occ. orbs. =         1
 # of active      orbs. =         7
 # of virtual     orbs. =        21
 # of active electrons  =         7
 # of states in CI      =         3
 Highest state in CI    =         3
 kstate =  1 1 1
 avecoe =  0.333 0.333 0.333
 State symmetry           = A           
 Assigned symmetry number = 1

 <<<Act. MO sym.: 1111111

 <<<Division of 1-ext.:  0
 <<<Division of 2-ext.:  0

 *** Reference space

 Reference type: ORMAS (= Occupation restricted multiple active space)
 # of orbitals          =  7
 # of minimum electrons =  7
 # of maximum electrons =  7
 State symmetry    =    1 (input)
 2*Sz              =    1 (input)
 Spin multiplicity =    2 (input)
 Dimension of reference space =      1225  (from      3432 walks)

 Dimension of reference space =      1225  (from      1225 walks)

 <<<Ionized spaces for Ref-CI:
      0:         1225 /   -1-0:         1960 /  0-1-0:         2891

 EVALUATING EXCHANGE INTEGRALS FOR DIRECT INTEGRAL TRANSFORMATION
 SCHWARZ INEQUALITY OVERHEAD:       465 INTEGRALS, T=        0.01

     --------------------------------------------
     PARTIAL TWO ELECTRON INTEGRAL TRANSFORMATION
     --------------------------------------------

 NUMBER OF CORE MOLECULAR ORBITALS     =    1
 NUMBER OF OCCUPIED MOLECULAR ORBITALS =    8
 TOTAL NUMBER OF MOLECULAR ORBITALS    =   29
 TOTAL NUMBER OF ATOMIC ORBITALS       =   30
 THRESHOLD FOR KEEPING TRANSFORMED 2E- INTEGRALS = 1.000E-09

 -------------------------------     ------------------------------
 DISTRIBUTED DATA TRANSFORMATION     PROGRAM WRITTEN BY G. FLETCHER
 -------------------------------     ------------------------------

 THE DISTRIBUTED MEMORY REQUIRED FOR THIS STEP IS MEMDDI=         1 MWORDS
 CREATING DISTRIBUTED STORAGE FOR [VIR OCC|VIR OCC] INTEGRALS
 CREATING DISTRIBUTED STORAGE FOR [VIR OCC|OCC OCC] INTEGRALS
 CREATING DISTRIBUTED STORAGE FOR [OCC OCC|OCC OCC] INTEGRALS
 CREATING DISTRIBUTED STORAGE FOR [VIR VIR|OCC OCC] INTEGRALS
 FOR    1 PROCESSORS, THE REPLICATED MEMORY NEEDED IS       73700 WORDS.
 SCHWARZ INEQUALITY OVERHEAD:       465 INTEGRALS, T=        0.01

      DIRECT 4-INDEX TRANSFORMATION 
      SCHWARZ INEQUALITY TEST SKIPPED          0 INTEGRAL BLOCKS
 ----- FROZEN CORE ENERGY =       -47.5597188712
 ... END OF INTEGRAL TRANSFORMATION ...
 CPU     0: STEP CPU TIME=     0.23 TOTAL CPU TIME=          0.3 (      0.0 MIN)
 TOTAL WALL CLOCK TIME=          0.3 SECONDS, CPU UTILIZATION IS    96.67%

     --------------------------------     -----------------------------
     MCHF NEWTON-RAPHSON OPTIMIZATION     CODE WRITTEN BY MICHEL DUPUIS
     --------------------------------     -----------------------------
     PARALLEL VERSION WRITTEN BY G. FLETCHER (ELORET)
     NASA ADVANCED SUPERCOMPUTING DIVISION, AMES RESEARCH CENTER

 NUMBER OF INDEPENDENT ORBITAL ROTATION PARAMETERS =   175
 ..... DONE SOLVING NEWTON-RAPHSON EQUATIONS .....
 CPU     0: STEP CPU TIME=     0.95 TOTAL CPU TIME=          1.2 (      0.0 MIN)
 TOTAL WALL CLOCK TIME=          1.3 SECONDS, CPU UTILIZATION IS    98.41%
 ..... DONE WITH NTN-RPH ORBITAL ROTATIONS ..... 
 CPU     0: STEP CPU TIME=     0.00 TOTAL CPU TIME=          1.2 (      0.0 MIN)
 TOTAL WALL CLOCK TIME=          1.3 SECONDS, CPU UTILIZATION IS    98.41%
 MAXIMUM MEMORY USED BY NTN-RPH CODE WAS     57645 WORDS.

 ITER     TOTAL ENERGY      DEL(E)  LAGRANGIAN ASYMMETRY   SQCDF  MICIT   DAMP
   1      -55.540986238 -0.540986238  0.121201    9    3 8.954E-02  1   0.0000
   2      -55.609334601 -0.068348363  0.021203   12    5 4.581E-01  1   0.0000
   3      -55.647151563 -0.037816962  0.014762   12    5 2.516E-01  1   0.0167
   4      -55.665338863 -0.018187300  0.005239   12    5 6.466E-02  1   0.0070
   5      -55.668430717 -0.003091854  0.000967   24    5 2.316E-03  1   0.0000
   6      -55.668540647 -0.000109931  0.000340   23    5 1.974E-04  1   0.0000
   7      -55.668551617 -0.000010969  0.000168   23    5 3.934E-05  1   0.0000
   8      -55.668553882 -0.000002265  0.000087   23    5 1.022E-05  1   0.0000
   9      -55.668554478 -0.000000596  0.000047   23    5 3.146E-06  1   0.0000
  10      -55.668554661 -0.000000183  0.000027   23    5 1.082E-06  1   0.0000
  11      -55.668554724 -0.000000063  0.000015   23    5 3.962E-07  1   0.0000
  12      -55.668554746 -0.000000023  0.000009   23    5 1.500E-07  1   0.0000
  13      -55.668554755 -0.000000009  0.000005   23    5 5.780E-08  1   0.0000
  14      -55.668554758 -0.000000003  0.000003   23    5 2.234E-08  1   0.0000
  15      -55.668554760 -0.000000001  0.000002   23    5 8.766E-09  1   0.0000
  16      -55.668554760 -0.000000000  0.000001   23    5 3.369E-09  1   0.0000
  17      -55.668554760 -0.000000000  0.000001   23    5 1.334E-09  1   0.0000

          --------------------
          LAGRANGIAN CONVERGED
          --------------------

 FINAL MCSCF ENERGY IS      -55.6685547602 AFTER  17 ITERATIONS

 -MCCI- BASED ON OPTIMIZED ORBITALS
 ----------------------------------

 PLEASE NOTE: IF THE ACTIVE ORBITALS ARE CANONICALIZED BELOW,
 THE FOLLOWING CI EXPANSION COEFFICIENTS AND THE DENSITY DO NOT
 CORRESPOND TO THE PRINTED ORBITALS.  THE PRINTED EXPANSIONS MATCH
 THE ORBITALS USED DURING THE LAST ITERATION.  IF YOU WISH TO SEE
 CI EXPANSIONS BASED ON THE CANONICAL (OR NATURAL) ORBITALS, YOU
 MUST RUN A CI CALCULATION WITH THAT ORBITAL CHOICE READ IN $VEC.

 Averaged energy =     -55.668554760

 State #    1  Energy =     -55.796772726  S =  0.500

      Det      Coef    Occupancy (Ignoring core)
      ---      ----    --------- --------- -----
        1   -0.933975  11110001110000
        5    0.071235  01111001110000
        8    0.138839  10110101110000
       17    0.136339  11010011110000
       36    0.110540  11110001101000
       71    0.076515  11110001011000
      211   -0.053693  11110000110100
      386   -0.107297  11110001010010
      393   -0.059581  10110101010010
      701   -0.107622  11110001100001
      717   -0.054085  11010011100001

 State #    2  Energy =     -55.738987362  S =  0.500

      Det      Coef    Occupancy (Ignoring core)
      ---      ----    --------- --------- -----
       36    0.568246  11110001101000
       43   -0.072502  10110101101000
       52   -0.066769  11010011101000
       71   -0.764134  11110001011000
       75    0.061955  01111001011000
       78    0.095635  10110101011000
       87    0.094047  11010011011000
      456    0.061664  11110001001010
      806    0.074067  11110001001001

 State #    3  Energy =     -55.469904194  S =  0.500

      Det      Coef    Occupancy (Ignoring core)
      ---      ----    --------- --------- -----
        1   -0.134856  11110001110000
       36   -0.756536  11110001101000
       43    0.067210  10110101101000
       71   -0.563493  11110001011000
       74    0.050236  10111001011000
       87    0.052342  11010011011000
      281   -0.066498  11110000101100
      456   -0.078905  11110001001010
      463   -0.053992  10110101001010
      806    0.066099  11110001001001

 DENSITY MATRIX OVER ACTIVE MO-S

             1           2           3           4           5

    1    1.9710296
    2    0.0055703   1.6223140
    3   -0.0079155  -0.0091861   1.6277727
    4    0.0024831  -0.0010031   0.0012596   1.6464251
    5    0.1091441  -0.0372471   0.0515175  -0.0619950   0.0466101
    6   -0.0065442  -0.1651413  -0.0000759   0.0314096  -0.0006195
    7   -0.0075861   0.0183900   0.1609102   0.0385303  -0.0005242

             6           7

    6    0.0441686
    7   -0.0071015   0.0416798

 FORMING THE "STANDARD FOCK OPERATOR" IN DIRECT AO INTEGRAL MODE...
 ONLY THE    1 CORE AND   21 VIRTUAL ORBITALS WILL BE CANONICALIZED

          ----------------------
          MCSCF NATURAL ORBITALS
          ----------------------

                      1          2          3          4          5
                  -15.9872     1.9774     1.6549     1.6471     1.6343
                     A          A          A          A          A   
    1  N  1  S    1.001058   0.008670  -0.007181  -0.006450   0.000022
    2  N  1  S   -0.001902   0.433041  -0.063905  -0.190593   0.000204
    3  N  1  S   -0.006288   0.343431  -0.139593  -0.270999   0.000369
    4  N  1  X   -0.000145   0.010453  -0.198941   0.108014   0.494956
    5  N  1  Y    0.000247  -0.018951   0.345046  -0.189105   0.285472
    6  N  1  Z    0.001219   0.079097   0.386902   0.422660   0.001049
    7  N  1  X   -0.000091   0.004676  -0.079346   0.013916   0.301697
    8  N  1  Y    0.000158  -0.008210   0.138263  -0.025274   0.174329
    9  N  1  Z   -0.000668   0.020778   0.273804   0.265709   0.000908
   10  N  1 XX   -0.000083  -0.002043  -0.008503  -0.008678   0.007755
   11  N  1 YY    0.000331   0.002808  -0.005486  -0.008978  -0.007804
   12  N  1 ZZ   -0.000248  -0.000765   0.013989   0.017656   0.000049
   13  N  1 XY   -0.000416  -0.004902  -0.003148   0.000432  -0.005274
   14  N  1 XZ   -0.000012   0.001591  -0.007214   0.005856   0.021105
   15  N  1 YZ    0.000020  -0.002776   0.012455  -0.010313   0.012166
   16  H  2  S   -0.002018   0.170435   0.348775  -0.153005  -0.000810
   17  H  2  S    0.000717  -0.002339   0.047608  -0.004647   0.000050
   18  H  2  X   -0.000541   0.016249   0.019190  -0.009709   0.017890
   19  H  2  Y    0.000931  -0.028024  -0.032907   0.016579   0.010542
   20  H  2  Z    0.000307  -0.002183   0.005783   0.020739   0.000062
   21  H  3  S   -0.001331   0.182997  -0.092263   0.267752  -0.246290
   22  H  3  S    0.000267   0.003728   0.005269   0.048678  -0.127533
   23  H  3  X   -0.000056   0.002710  -0.005894   0.014704   0.015203
   24  H  3  Y   -0.000683   0.030909  -0.005242   0.027763  -0.021613
   25  H  3  Z    0.000394  -0.010693   0.023308   0.005784   0.013511
   26  H  4  S   -0.001327   0.182466  -0.092481   0.266306   0.247275
   27  H  4  S    0.000267   0.003590   0.005220   0.048058   0.127722
   28  H  4  X    0.000617  -0.028020   0.007647  -0.031309  -0.011263
   29  H  4  Y   -0.000294   0.013141   0.002383   0.001208   0.024080
   30  H  4  Z    0.000392  -0.010573   0.023290   0.005921  -0.013355

                      6          7          8
                    0.0366     0.0313     0.0184
                     A          A          A   
    1  N  1  S    0.125326  -0.000694  -0.162699
    2  N  1  S    0.502442  -0.003315  -0.472474
    3  N  1  S    0.249260  -0.003390   0.050681
    4  N  1  X    0.178636   0.653981   0.425899
    5  N  1  Y   -0.295527   0.384066  -0.731078
    6  N  1  Z    0.577715  -0.006244  -0.151975
    7  N  1  X    0.062490  -0.095250   0.066182
    8  N  1  Y   -0.111133  -0.052968  -0.114434
    9  N  1  Z    0.018744  -0.000652   0.101833
   10  N  1 XX    0.020950  -0.043268   0.005888
   11  N  1 YY   -0.020764   0.043189   0.026357
   12  N  1 ZZ   -0.000187   0.000079  -0.032244
   13  N  1 XY    0.043048   0.028747  -0.021222
   14  N  1 XZ   -0.018409  -0.013665  -0.016355
   15  N  1 YZ    0.031843  -0.008374   0.027698
   16  H  2  S   -0.292591   0.000689   0.857203
   17  H  2  S   -0.017093  -0.000365   0.156162
   18  H  2  X   -0.019035  -0.007715   0.041358
   19  H  2  Y    0.032554  -0.004798  -0.071203
   20  H  2  Z    0.001836   0.000009   0.028350
   21  H  3  S   -0.469307   0.619549  -0.164257
   22  H  3  S   -0.069161   0.290307  -0.039296
   23  H  3  X   -0.037373  -0.029121  -0.024807
   24  H  3  Y   -0.033299   0.045718   0.001864
   25  H  3  Z   -0.021707  -0.019773  -0.006672
   26  H  4  S   -0.481262  -0.608643  -0.167633
   27  H  4  S   -0.074968  -0.288596  -0.041015
   28  H  4  X    0.048048   0.024052   0.011168
   29  H  4  Y    0.014419  -0.048793   0.021945
   30  H  4  Z   -0.021523   0.020014  -0.006682

          ------------------------
          MCSCF OPTIMIZED ORBITALS
          ------------------------

                      1          2          3          4          5
                  -15.9872     0.0000     0.0000     0.0000     0.0000
                     A          A          A          A          A   
    1  N  1  S    1.001058   0.000026   0.011774  -0.015980  -0.007166
    2  N  1  S   -0.001902   0.399925  -0.005549   0.007457  -0.175280
    3  N  1  S   -0.006288   0.328739  -0.036361   0.050245  -0.286059
    4  N  1  X   -0.000145   0.000419   0.445511   0.105751  -0.028603
    5  N  1  Y    0.000247  -0.001076   0.007935   0.396692   0.049852
    6  N  1  Z    0.001219   0.049378   0.001396  -0.002201   0.594477
    7  N  1  X   -0.000091   0.000306   0.287048   0.133674  -0.035674
    8  N  1  Y    0.000158  -0.000201   0.077509   0.196219   0.062713
    9  N  1  Z   -0.000668   0.023841  -0.027962   0.038139   0.381911
   10  N  1 XX   -0.000083  -0.003264   0.010283   0.006933  -0.010983
   11  N  1 YY    0.000331   0.004189  -0.012636  -0.003767  -0.010862
   12  N  1 ZZ   -0.000248  -0.000925   0.002354  -0.003167   0.021845
   13  N  1 XY   -0.000416  -0.007553  -0.003570  -0.009316  -0.000189
   14  N  1 XZ   -0.000012   0.002288   0.024416   0.004828  -0.001274
   15  N  1 YZ    0.000020  -0.003975  -0.000600   0.022562   0.002149
   16  H  2  S   -0.002018   0.202296  -0.269162   0.361770   0.110469
   17  H  2  S    0.000717   0.001028  -0.032895   0.044462   0.029399
   18  H  2  X   -0.000541   0.018114   0.000109   0.031135   0.004854
   19  H  2  Y    0.000931  -0.031207   0.034290  -0.027808  -0.008299
   20  H  2  Z    0.000307  -0.002060   0.003596  -0.004818   0.020222
   21  H  3  S   -0.001331   0.203742  -0.098153  -0.390917   0.119222
   22  H  3  S    0.000267   0.007009  -0.109047  -0.118579   0.036221
   23  H  3  X   -0.000056   0.004334   0.024199  -0.001892   0.005313
   24  H  3  Y   -0.000683   0.032434  -0.008277  -0.033235   0.016182
   25  H  3  Z    0.000394  -0.009128   0.004255   0.020424   0.018383
   26  H  4  S   -0.001327   0.203592   0.402482  -0.018755   0.119243
   27  H  4  S    0.000267   0.007071   0.144995   0.070213   0.036342
   28  H  4  X    0.000617  -0.030167  -0.027129   0.013380  -0.016550
   29  H  4  Y   -0.000294   0.012546   0.021793   0.019621   0.003567
   30  H  4  Z    0.000392  -0.009017  -0.020598   0.001858   0.018405

                      6          7          8          9         10
                    0.0000     0.0000     0.0000     0.0988     0.1926
                     A          A          A          A          A   
    1  N  1  S    0.162243  -0.079815   0.095956  -0.072482   0.035143
    2  N  1  S    0.636914  -0.209331   0.251785  -0.094267   0.038585
    3  N  1  S    0.261380   0.073766  -0.089867   0.930019  -0.516534
    4  N  1  X    0.054364   0.846261   0.087936  -0.017935  -0.071158
    5  N  1  Y   -0.094975  -0.210511   0.890360   0.031612   0.121557
    6  N  1  Z    0.578967  -0.013957   0.015362  -0.084683   0.033326
    7  N  1  X    0.043795   0.009064  -0.106547   0.116443   0.380291
    8  N  1  Y   -0.076440  -0.123910   0.093943  -0.203209  -0.654360
    9  N  1  Z   -0.019053   0.056122  -0.067456   0.238791  -0.017918
   10  N  1 XX    0.019451  -0.024835  -0.035741  -0.017981   0.008704
   11  N  1 YY   -0.026356   0.045138   0.011364   0.051185  -0.054595
   12  N  1 ZZ    0.006905  -0.020303   0.024377  -0.033205   0.045892
   13  N  1 XY    0.046263   0.015694   0.025468  -0.069291   0.064320
   14  N  1 XZ   -0.013859  -0.021265   0.007537   0.027441   0.042145
   15  N  1 YZ    0.024427   0.016116  -0.029704  -0.047979  -0.072632
   16  H  2  S   -0.475342   0.458078  -0.549792   0.280738  -0.550174
   17  H  2  S   -0.054898   0.090507  -0.108825  -0.436771   1.942085
   18  H  2  X   -0.027014   0.016717  -0.029131  -0.027434   0.069870
   19  H  2  Y    0.046478  -0.039139   0.041508   0.047647  -0.120122
   20  H  2  Z   -0.006515   0.017999  -0.021441  -0.025661  -0.063923
   21  H  3  S   -0.422908   0.283217   0.572873   0.421091   0.157224
   22  H  3  S   -0.062023   0.175201   0.217774  -0.876610  -0.542978
   23  H  3  X   -0.030352  -0.041777   0.006842   0.061425   0.008838
   24  H  3  Y   -0.032863   0.029662   0.031250  -0.049010  -0.013825
   25  H  3  Z   -0.019885  -0.022954  -0.001208   0.034249   0.058396
   26  H  4  S   -0.422698  -0.614064  -0.174099   0.421558   0.157472
   27  H  4  S   -0.062046  -0.245953  -0.132610  -0.875565  -0.543757
   28  H  4  X    0.043614   0.030990  -0.000994   0.011348   0.007697
   29  H  4  Y    0.009577  -0.019177  -0.048378  -0.077356  -0.014833
   30  H  4  Z   -0.020062   0.005104   0.022356   0.034153   0.058620

                     11         12         13         14         15
                    0.2797     0.5250     0.5718     0.6512     0.8858
                     A          A          A          A          A   
    1  N  1  S    0.000110  -0.114512   0.000548   0.036496  -0.646324
    2  N  1  S    0.000299  -0.138450  -0.000160   0.027427  -1.440699
    3  N  1  S   -0.000830   0.933869  -0.007897  -0.186365   2.470080
    4  N  1  X   -0.044265   0.092889  -0.623824   0.210484  -0.077189
    5  N  1  Y   -0.025050  -0.172656  -0.362336  -0.355951   0.133594
    6  N  1  Z   -0.000010  -0.697046   0.006247   0.327299   0.267789
    7  N  1  X    0.418745  -0.275436   1.208192  -0.915468   0.098005
    8  N  1  Y    0.239816   0.493026   0.705878   1.567610  -0.171109
    9  N  1  Z   -0.000773   0.981703  -0.012049  -0.714430  -0.099972
   10  N  1 XX    0.065805  -0.006234  -0.034914  -0.011796   0.011256
   11  N  1 YY   -0.065709  -0.018770   0.035112  -0.012320  -0.026080
   12  N  1 ZZ   -0.000095   0.025003  -0.000198   0.024116   0.014824
   13  N  1 XY   -0.043957   0.012422   0.022780  -0.001107   0.035897
   14  N  1 XZ    0.044591   0.008492  -0.012704   0.034447  -0.009736
   15  N  1 YZ    0.025888  -0.014840  -0.007212  -0.058768   0.015785
   16  H  2  S    0.001130  -0.590852   0.003314  -0.459310  -0.179371
   17  H  2  S   -0.001749  -0.379144  -0.002768  -0.679382  -0.557992
   18  H  2  X   -0.033367  -0.051623   0.081205  -0.088590  -0.056509
   19  H  2  Y   -0.019647   0.088616   0.047277   0.150814   0.094015
   20  H  2  Z    0.000066   0.015056  -0.000611  -0.158026   0.166566
   21  H  3  S   -0.616230  -0.141303   0.381295   0.450438  -0.052348
   22  H  3  S    2.274617  -0.042011   0.811749   0.345969  -0.359364
   23  H  3  X    0.109034  -0.069892  -0.061255  -0.004719  -0.186798
   24  H  3  Y    0.078741   0.024486   0.047754   0.242200  -0.094588
   25  H  3  Z   -0.009656   0.144289  -0.047457   0.079913   0.143720
   26  H  4  S    0.615714  -0.145165  -0.373167   0.455944  -0.052701
   27  H  4  S   -2.273530  -0.050189  -0.805977   0.351869  -0.359612
   28  H  4  X    0.122883   0.014596   0.008014  -0.206512   0.176137
   29  H  4  Y    0.054723   0.072366  -0.076851   0.127302   0.114206
   30  H  4  Z    0.009153   0.145039   0.045026   0.080426   0.142264

                     16         17         18         19         20
                    1.0958     1.1442     1.1659     1.3422     1.4623
                     A          A          A          A          A   
    1  N  1  S    0.003435  -0.012154  -0.224346   0.003216  -0.421007
    2  N  1  S   -0.021226  -0.024648  -0.455747   0.006888  -0.920428
    3  N  1  S   -0.058003   0.057175   1.055828  -0.011414   1.195614
    4  N  1  X    0.029710   0.099928   0.132717   0.077707  -0.116218
    5  N  1  Y   -0.049337   0.043794  -0.237824   0.043532   0.201713
    6  N  1  Z   -0.068838   0.000430  -0.000048  -0.000102  -0.118951
    7  N  1  X   -0.362121  -0.431503  -0.648267  -0.121604   0.285650
    8  N  1  Y    0.620910  -0.184434   1.159471  -0.066359  -0.503244
    9  N  1  Z    0.286453   0.005462   0.123822  -0.005045   0.652035
   10  N  1 XX    0.192772  -0.187089   0.011379   0.008049  -0.058770
   11  N  1 YY    0.088554   0.186225   0.006699  -0.009454   0.058162
   12  N  1 ZZ   -0.281326   0.000864  -0.018078   0.001405   0.000607
   13  N  1 XY    0.106990   0.121743  -0.016845  -0.006605  -0.117580
   14  N  1 XZ    0.031060   0.195658  -0.044022  -0.280780   0.021337
   15  N  1 YZ   -0.051590   0.117689   0.053734  -0.161448  -0.035054
   16  H  2  S   -0.323628  -0.036315  -0.806810   0.000779  -0.096399
   17  H  2  S   -0.173489  -0.024151  -0.503479   0.000781  -0.046912
   18  H  2  X   -0.030370   0.647066   0.013183   0.288705  -0.003225
   19  H  2  Y    0.059826   0.372468  -0.093301   0.167264   0.014964
   20  H  2  Z   -0.301056   0.020888   0.409353   0.003594  -0.666168
   21  H  3  S    0.326932  -0.222652   0.120266  -0.164463  -0.633102
   22  H  3  S    0.027518  -0.078690   0.051777   0.070745   0.007558
   23  H  3  X   -0.289076   0.000148   0.374098  -0.272678   0.269073
   24  H  3  Y   -0.135956   0.032803  -0.207407   0.478200   0.210050
   25  H  3  Z   -0.433817  -0.313404  -0.276086   0.413035  -0.155743
   26  H  4  S    0.331264   0.227385   0.104358   0.174853  -0.631887
   27  H  4  S    0.028639   0.080947   0.046643  -0.070059   0.012870
   28  H  4  X    0.261406   0.026638  -0.010929   0.278734  -0.315957
   29  H  4  Y    0.180854  -0.056362  -0.428083  -0.470182  -0.131578
   30  H  4  Z   -0.430539   0.292850  -0.304611  -0.411172  -0.169092

                     21         22         23         24         25
                    1.6031     1.7002     1.8766     1.9200     2.1026
                     A          A          A          A          A   
    1  N  1  S   -0.002503  -0.060369   0.099059   0.070347   0.000963
    2  N  1  S   -0.005011  -0.005182   0.193715   0.187439   0.001147
    3  N  1  S    0.010210   1.182780   0.066934   0.500044  -0.013237
    4  N  1  X    0.118698   0.113993  -0.274143  -0.123377   0.030253
    5  N  1  Y    0.072169  -0.200626   0.471731   0.212219   0.016012
    6  N  1  Z   -0.000292   0.215046  -0.032303   0.046404  -0.001208
    7  N  1  X    0.402099   0.293331  -0.035642  -0.098911   0.410523
    8  N  1  Y    0.218650  -0.508797   0.058567   0.177414   0.238508
    9  N  1  Z    0.005606   0.504891  -0.082661   0.316550  -0.006669
   10  N  1 XX   -0.100090   0.167952   0.389713  -0.479812  -0.292061
   11  N  1 YY    0.102435  -0.012616  -0.018429  -0.271997   0.295468
   12  N  1 ZZ   -0.002345  -0.155336  -0.371285   0.751809  -0.003407
   13  N  1 XY    0.069441   0.180677   0.408414  -0.206415   0.192657
   14  N  1 XZ   -0.276142  -0.059182   0.063110   0.081639   0.738122
   15  N  1 YZ   -0.159528   0.110501  -0.104234  -0.133189   0.427386
   16  H  2  S    0.003707   0.028881   0.023636  -0.169767   0.003495
   17  H  2  S    0.000065  -0.012295  -0.335472  -0.348192   0.002603
   18  H  2  X   -0.437337  -0.171515  -0.389793  -0.382359  -0.517187
   19  H  2  Y   -0.249408   0.298614   0.675735   0.649674  -0.307824
   20  H  2  Z   -0.006913  -0.578726   0.401818  -0.046145   0.003501
   21  H  3  S   -0.106970  -0.295151  -0.090467  -0.021182   0.103186
   22  H  3  S    0.430358  -0.352494   0.146885  -0.015242   0.276129
   23  H  3  X   -0.169021   0.247361   0.163918  -0.030753  -0.244269
   24  H  3  Y    0.325736  -0.581640   0.262662  -0.210334   0.405558
   25  H  3  Z   -0.595827   0.341333  -0.082294  -0.264971   0.177989
   26  H  4  S    0.093873  -0.294416  -0.089107  -0.022743  -0.095122
   27  H  4  S   -0.432845  -0.351060   0.148092  -0.020444  -0.273400
   28  H  4  X    0.194285   0.378936  -0.310296   0.199668   0.224363
   29  H  4  Y   -0.314871  -0.509871  -0.011420  -0.081535  -0.407219
   30  H  4  Z    0.597842   0.331581  -0.089341  -0.265053  -0.176587

                     26         27         28         29
                    2.2592     2.6064     2.7437     2.8710
                     A          A          A          A   
    1  N  1  S   -0.000825   0.161243   0.002192  -0.059149
    2  N  1  S   -0.001390   0.270611   0.000647   0.047528
    3  N  1  S    0.004490  -0.539737  -0.046143   2.100991
    4  N  1  X    0.064978  -0.216081   0.173851  -0.180998
    5  N  1  Y    0.037089   0.370760   0.098731   0.318423
    6  N  1  Z    0.000029  -0.052935  -0.006287   0.240559
    7  N  1  X   -0.137715  -0.712423   0.336700  -0.189743
    8  N  1  Y   -0.080131   1.224657   0.202613   0.337767
    9  N  1  Z    0.001570  -0.275082  -0.010446   0.332173
   10  N  1 XX   -0.287812  -0.063933   0.867150  -0.154725
   11  N  1 YY    0.289192   0.054380  -0.880169   0.897743
   12  N  1 ZZ   -0.001380   0.009553   0.013020  -0.743018
   13  N  1 XY    0.192384  -0.100490  -0.555489  -1.105152
   14  N  1 XZ   -0.108807  -0.657993   0.386398   0.080876
   15  N  1 YZ   -0.063294   1.130835   0.241263  -0.126240
   16  H  2  S   -0.000316  -0.847786   0.017653  -1.464655
   17  H  2  S   -0.001157  -0.379583   0.004610  -0.425567
   18  H  2  X   -0.080639  -0.332076   0.287421  -0.570800
   19  H  2  Y   -0.046078   0.563081   0.149363   0.993188
   20  H  2  Z   -0.000777  -0.196563  -0.008752   0.444879
   21  H  3  S    0.637187   0.660812   0.938866  -0.366117
   22  H  3  S    0.278078   0.251912   0.362252  -0.119530
   23  H  3  X    1.205767  -0.088609   0.267246  -0.026904
   24  H  3  Y    0.465380   0.483373   0.884785  -0.327763
   25  H  3  Z    0.142747  -0.204805  -0.423523   0.283291
   26  H  4  S   -0.640003   0.674930  -0.908496  -0.402864
   27  H  4  S   -0.278818   0.259098  -0.351948  -0.130182
   28  H  4  X    1.010138  -0.388530   0.879775   0.332254
   29  H  4  Y    0.804765   0.325300  -0.202857  -0.149934
   30  H  4  Z   -0.145423  -0.210366   0.403811   0.300280
 .....DONE WITH MCSCF ITERATIONS.....
 CPU     0: STEP CPU TIME=    12.05 TOTAL CPU TIME=         13.3 (      0.2 MIN)
 TOTAL WALL CLOCK TIME=         13.3 SECONDS, CPU UTILIZATION IS    99.85%

     ----------------------------------------------------------------
     PROPERTY VALUES FOR THE MCSCF SELF-CONSISTENT FIELD WAVEFUNCTION
     ----------------------------------------------------------------

          -----------------
          ENERGY COMPONENTS
          -----------------

         WAVEFUNCTION NORMALIZATION =       1.0000000000

                ONE ELECTRON ENERGY =     -93.3812805209
                TWO ELECTRON ENERGY =      26.7595527063
           NUCLEAR REPULSION ENERGY =      10.9531730543
                                      ------------------
                       TOTAL ENERGY =     -55.6685547602

 ELECTRON-ELECTRON POTENTIAL ENERGY =      26.7595527063
  NUCLEUS-ELECTRON POTENTIAL ENERGY =    -149.0419368943
   NUCLEUS-NUCLEUS POTENTIAL ENERGY =      10.9531730543
                                      ------------------
             TOTAL POTENTIAL ENERGY =    -111.3292111337
               TOTAL KINETIC ENERGY =      55.6606563735
                 VIRIAL RATIO (V/T) =       2.0001419025

          ---------------------------------------
          MULLIKEN AND LOWDIN POPULATION ANALYSES
          ---------------------------------------

     ATOMIC MULLIKEN POPULATION IN EACH MOLECULAR ORBITAL

                      1          2          3          4          5

                  2.000000   1.977401   1.654872   1.647114   1.634300

    1             2.000572   1.371819   1.204829   1.079506   1.263075
    2            -0.000321   0.176301   0.368629   0.100355   0.009067
    3            -0.000126   0.215234   0.040618   0.234726   0.180147
    4            -0.000125   0.214048   0.040797   0.232527   0.182012

                      6          7          8

                  0.036641   0.031294   0.018378

    1             0.018979   0.013312   0.009630
    2             0.002473  -0.000028   0.008134
    3             0.007413   0.009163   0.000301
    4             0.007776   0.008846   0.000312
 WARNING! MCSCF POPULATIONS SHOWN ABOVE ARE FOR THE NATURAL ORBITALS.
 IGNORE THE ABOVE DATA FOR MCSCF FUNCTIONS WHICH ARE NOT OF -FORS- TYPE.
 THE FOLLOWING POPULATIONS ARE CORRECT FOR ANY MCSCF WAVEFUNCTION.

               ----- POPULATIONS IN EACH AO -----
                             MULLIKEN      LOWDIN
              1  N  1  S      2.00220     1.90406
              2  N  1  S      0.81730     0.58247
              3  N  1  S      0.72115     0.41731
              4  N  1  X      0.74422     0.68356
              5  N  1  Y      0.64749     0.57322
              6  N  1  Z      0.81777     0.77236
              7  N  1  X      0.41011     0.47957
              8  N  1  Y      0.27568     0.40137
              9  N  1  Z      0.51242     0.55143
             10  N  1 XX      0.00029     0.16038
             11  N  1 YY      0.00216     0.18278
             12  N  1 ZZ      0.00214     0.14402
             13  N  1 XY      0.00387     0.00806
             14  N  1 XZ      0.00493     0.00610
             15  N  1 YZ      0.00000     0.01082
             16  H  2  S      0.58437     0.45112
             17  H  2  S      0.02410     0.14636
             18  H  2  X      0.01615     0.03677
             19  H  2  Y      0.03011     0.05689
             20  H  2  Z      0.00989     0.02940
             21  H  3  S      0.56903     0.42465
             22  H  3  S      0.06419     0.15453
             23  H  3  X      0.01233     0.04874
             24  H  3  Y      0.02804     0.04460
             25  H  3  Z      0.01389     0.02919
             26  H  4  S      0.56783     0.42324
             27  H  4  S      0.06420     0.15450
             28  H  4  X      0.02697     0.05638
             29  H  4  Y      0.01339     0.03702
             30  H  4  Z      0.01381     0.02913

          ----- MULLIKEN ATOMIC OVERLAP POPULATIONS -----
          (OFF-DIAGONAL ELEMENTS NEED TO BE MULTIPLIED BY 2)

             1           2           3           4

    1    6.2139987
    2    0.3068227   0.3667494
    3    0.2205749  -0.0044686   0.4679466
    4    0.2203250  -0.0044931   0.0034228   0.4669379

          TOTAL MULLIKEN AND LOWDIN ATOMIC POPULATIONS
       ATOM         MULL.POP.    CHARGE          LOW.POP.     CHARGE
    1 N             6.961721    0.038279         6.877488    0.122512
    2 H             0.664610    0.335390         0.720540    0.279460
    3 H             0.687476    0.312524         0.701714    0.298286
    4 H             0.686193    0.313807         0.700258    0.299742

          MULLIKEN SPHERICAL HARMONIC POPULATIONS
       ATOM           S       P       D      F      G      H      I    TOTAL
    1 N             3.54    3.41    0.01   0.00   0.00   0.00   0.00    6.96
    2 H             0.61    0.06    0.00   0.00   0.00   0.00   0.00    0.66
    3 H             0.63    0.05    0.00   0.00   0.00   0.00   0.00    0.69
    4 H             0.63    0.05    0.00   0.00   0.00   0.00   0.00    0.69

          ---------------------
          ELECTROSTATIC MOMENTS
          ---------------------

 POINT   1           X           Y           Z (BOHR)    CHARGE
                 0.000003   -0.000005   -0.177185        1.00 (A.U.)
         DX          DY          DZ         /D/  (DEBYE)
     0.478618   -0.838221    2.193234    2.396240
 ...... END OF PROPERTY EVALUATION ......
 CPU     0: STEP CPU TIME=     0.00 TOTAL CPU TIME=         13.3 (      0.2 MIN)
 TOTAL WALL CLOCK TIME=         13.3 SECONDS, CPU UTILIZATION IS    99.85%

     -------------------------------------------------
     GMC-PT/GMC-QDPT or general MCSCF input parameters
     -------------------------------------------------
 # of frozen core orbs. =         0 ->         0
 # of doubly occ. orbs. =         1
 # of active      orbs. =         7
 # of virtual     orbs. =        21
 # of active electrons  =         7
 # of states in CI      =         3
 Highest state in CI    =         3
 kstate =  1 1 1
 avecoe =  0.333 0.333 0.333
 State symmetry           = A           
 Assigned symmetry number = 1

 <<<Act. MO sym.: 1111111

 <<<Division of 1-ext.:  0
 <<<Division of 2-ext.:  0

     ------------------------
     Orbital canonicalization
     ------------------------

 MOs are canonicalized for core, virtual, and invariant-active orbital spaces.
 This is a part of the GMC-QDPT calculation.
 SCHWARZ INEQUALITY OVERHEAD:       465 INTEGRALS, T=        0.01
 DIRECT TRANSFORMATION SKIPS AO INTEGRAL STORAGE ON DISK.

 Averaged energy =     -55.668554760

 State #    1  Energy =     -55.796772726  S =  0.500
 State #    2  Energy =     -55.738987362  S =  0.500
 State #    3  Energy =     -55.469904194  S =  0.500

 Orbital energies for filled orbital space
  -15.987242
 Orbital energies for active orbital space
   -1.488538  -0.754436  -1.030440  -0.732364   0.076152
    0.206422   0.411748
 Orbital energies for external orbital space
    0.098784   0.192571   0.279748   0.524978   0.571841
    0.651227   0.885796   1.095763   1.144176   1.165944
    1.342200   1.462279   1.603078   1.700159   1.876581
    1.920006   2.102625   2.259165   2.606391   2.743741
    2.870989

 Zero values mean non-canonical orbitals.
 ... done with orbital canonicalization ...
 CPU     0: STEP CPU TIME=     0.67 TOTAL CPU TIME=         14.0 (      0.2 MIN)
 TOTAL WALL CLOCK TIME=         14.0 SECONDS, CPU UTILIZATION IS    99.86%

     --------------------------------------------
     PARTIAL TWO ELECTRON INTEGRAL TRANSFORMATION
     --------------------------------------------

 NUMBER OF CORE MOLECULAR ORBITALS     =    0
 NUMBER OF OCCUPIED MOLECULAR ORBITALS =    8
 TOTAL NUMBER OF MOLECULAR ORBITALS    =   29
 TOTAL NUMBER OF ATOMIC ORBITALS       =   30
 THRESHOLD FOR KEEPING TRANSFORMED 2E- INTEGRALS = 1.000E-09
 AO INTEGRALS WILL BE CALCULATED IN DIRECT MODE...
 DIRECT TRANSFORMATION SKIPS AO INTEGRAL STORAGE ON DISK.
 SCHWARZ INEQUALITY OVERHEAD:       465 INTEGRALS, T=        0.00

 PLAN A: REQUIREMENTS FOR FULLY IN-MEMORY TRANSFORMATION:
 # OF WORDS AVAILABLE =            100000000
 # OF WORDS NEEDED    =               221798

 PARALLEL ONLY WORKS WITH THE SEGMENTED ALGORITHM.
 ADJUSTING MEMORY TO USE SEGMENTED ALGORITHM.


 PLAN B: REQUIREMENTS FOR THE SEGMENTED TRANSFORMATION:
       MINIMUM=         124148 WORDS FOR 1 MOLECULAR ORBITAL PER PASS
       MAXIMUM=         221798 WORDS FOR ALL MOLECULAR ORBITALS IN 1 PASS
              (          13950 EXTRA WORDS INCLUDES 1 EXTRA ORBITAL/PASS)
 THIS RUN USES=         221798 WORDS,
 DISTRIBUTING   1 PASSES EACH CONTAINING     8 ORBITALS OVER   1 PROCESSORS.

 CHOOSING SEGMENTED PARTIAL TRANSFORMATION...
 DIRECT TRANSFORMATION SKIPS AO INTEGRAL STORAGE ON DISK.
 PASS #   1 TOOK        0.04 SECONDS.
 TOTAL NUMBER OF TRANSFORMED 2E- INTEGRALS KEPT =        29226
 ... END OF INTEGRAL TRANSFORMATION ...
 CPU     0: STEP CPU TIME=     0.04 TOTAL CPU TIME=         14.0 (      0.2 MIN)
 TOTAL WALL CLOCK TIME=         14.0 SECONDS, CPU UTILIZATION IS    99.86%

     --------     ------------------------------------------
     GMC-QDPT     Program written by H.Nakano (Kyushu Univ.)
     --------     ------------------------------------------

 *** Reference space

 Reference type: ORMAS (= Occupation restricted multiple active space)
 # of orbitals          =  7
 # of minimum electrons =  7
 # of maximum electrons =  7
 State symmetry    =    1 (input)
 2*Sz              =    1 (input)
 Spin multiplicity =    2 (input)
 Dimension of reference space =      1225  (from      3432 walks)

 Dimension of reference space =      1225  (from      1225 walks)

 <<<Ionized spaces for Ref-CI:
      0:         1225 /   -1-0:         1960 /  0-1-0:         2891

 ***                    ***
 *** Reference space CI ***
 ***                    ***

 Converged after   34 iterations

 Reference wavefunctions:

 State #    1  Energy =     -55.796772726  S =  0.500

      Det      Coef    Occupancy (Ignoring core)
      ---      ----    --------- --------- -----
        1   -0.973920  11110001110000
      393   -0.087550  10110101010010
      717   -0.054321  11010011100001

 State #    2  Energy =     -55.738987362  S =  0.500

      Det      Coef    Occupancy (Ignoring core)
      ---      ----    --------- --------- -----
       71    0.980436  11110001011000
      822   -0.054372  11010011001001

 State #    3  Energy =     -55.469904194  S =  0.500

      Det      Coef    Occupancy (Ignoring core)
      ---      ----    --------- --------- -----
       36    0.968158  11110001101000
       74   -0.073035  10111001011000
      113   -0.058346  10110100111000
      463    0.090313  10110101001010

 Davidson method: CPU/Wall time =           0.47 /           0.46 sec.

 Oscillator strength (invalid if E(1)/=E(GS)):
 -----------------------------------------
   State                        f
 -----------------------------------------
     2     F(REF-CI)=        0.0002367122
     3     F(REF-CI)=        0.0073022530
 -----------------------------------------

 Dipole moment matrix elements, x, y, z, in A.U.

 Dimension of ionized spaces for PT:
 (N-2) space:         1715 /  (N-1) space:         2842 /  N space:         2891
 (N+1) space:         2842 /  (N+2) space:         1715

 <<<Ionized spaces for internal:
         0:         1225 /      -1-0:         1960 /     0-1-0:         2891
  -1-0-1-0:         2842 / 0-1-0-1-0:         3381

 Diagonal elements of averaged one-particle density matrix:
       2       3       4       5       6       7       8
  0.9919  0.9812  0.9858  0.9900  0.0217  0.0188  0.0107
  0.9854  0.6531  0.6647  0.6614  0.0151  0.0126  0.0078

 Orbital energies:
 -------- Doubly-occupied orbitals (highest several orbs.) -------
             1
 -1.598724D+01
 -------- Active orbitals ----------------------------------------
             2            3            4            5            6
 -1.488538D+00-7.544357D-01-1.030440D+00-7.323637D-01 7.615184D-02
             7            8
  2.064223D-01 4.117483D-01
 -------- External orbitals (lowest several orbs.) ---------------
             9           10           11           12           13
  9.878408D-02 1.925709D-01 2.797478D-01 5.249777D-01 5.718415D-01
            14           15           16           17           18
  6.512269D-01 8.857960D-01 1.095763D+00 1.144176D+00 1.165944D+00

 *** Quasi-degeneracy checking

 === Det (|Ci| > 1.0D-01 and dE < 5.0D-03)

 # of small denominators (single excitations)
 State       dEmin  dE < 5.0D-03  dE < 5.0D-04  dE < 5.0D-05  dE < 5.0D-06
 ----- ----------- ------------- ------------- ------------- -------------
     1    5.00D-03             0             0             0             0
     2    5.00D-03             0             0             0             0
     3    5.00D-03             0             0             0             0

 # of small denominators (double excitations)
 State       dEmin  dE < 5.0D-03  dE < 5.0D-04  dE < 5.0D-05  dE < 5.0D-06
 ----- ----------- ------------- ------------- ------------- -------------
     1    5.00D-03             0             0             0             0
     2    5.00D-03             0             0             0             0
     3    5.00D-03             0             0             0             0

 *** Zeroth-Order Setup (Granovsky's zeroth-order vectors)
 Zeroth-order effective Hamiltonian
  (= Sum_i e(i)*<I|a+(i)a(i)|J> ):
                   1            2            3
     1 -7.169482D+00
     2  2.599174D-04-7.168538D+00
     3  1.832406D-03-7.506808D-05-6.870233D+00

 Zeroth-order vectors:
 State #    1
       MC st            1           2           3
       Coeff    9.690D-01  -2.469D-01  -5.994D-03
 State #    2
       MC st            2           1           3
       Coeff    9.690D-01   2.469D-01  -1.273D-03
 State #    3
       MC st            3           1           2
       Coeff    1.000D+00   6.123D-03  -2.463D-04

 *** GMC-QDPT computation

 (Integral reading:  CPU/Wall time =           0.00 /           0.00 sec.)

 One-external:
   0 -ionized terms: CPU/Wall time =           0.04 /           0.03 sec.
 (-1)-ionized terms: CPU/Wall time =           0.09 /           0.09 sec.
 (+1)-ionized terms: CPU/Wall time =           0.02 /           0.02 sec.
 (+1)-ionized terms: CPU/Wall time =           0.01 /           0.01 sec.
 (+2)-ionized terms: CPU/Wall time =           0.00 /           0.00 sec.

 Internal:
 # of macro loops for internal contribution =         1 (input)
 Loop:    1
 Dimension of internal CISD space     =         0  (after screening)
 Space construction: CPU/Wall time =           0.01 /           0.02 sec.
 Internal terms:     CPU/Wall time =           0.00 /           0.00 sec.

 Two-external:
   0 -ionized terms: CPU/Wall time =           0.05 /           0.05 sec.
 (-1)-ionized terms: CPU/Wall time =           0.96 /           0.96 sec.
 (-2)-ionized terms: CPU/Wall time =           0.17 /           0.17 sec.

 Total time:         CPU/Wall time =           1.35 /           1.35 sec.

 ***                  ***
 *** GMC-QDPT Results ***
 ***                  ***

 Diagonal elements of effective Hamiltonian:
 Heff(  1) =   -55.89342711
 Heff(  2) =   -55.84843298
 Heff(  3) =   -55.58164015

 Off-diagonal elements of effective Hamiltonian:
                   1            2
     2 -1.224287D-02
     3 -2.512300D-03-5.748819D-04

 ******** GMC-QDPT energies ********
 ----------------------------------------------------------------------------
   State                        1st order                           2nd order
 ----------------------------------------------------------------------------
     1     E(REF-CI)=      -55.7967727256   E(GMC-QDPT2)=      -55.8965637291
     2     E(REF-CI)=      -55.7389873616   E(GMC-QDPT2)=      -55.8453174507
     3     E(REF-CI)=      -55.4699041935   E(GMC-QDPT2)=      -55.5816190550
 ----------------------------------------------------------------------------

 Excitation energies (invalid if E(1)/=E(GS)):
 ----------------------------------------------------------------------------
   State                        1st order                           2nd order
 ----------------------------------------------------------------------------

     TZ Sorted GMC-PT ENERGIES:
         1      -55.8965637291
         2      -55.8453174507
         3      -55.5816190550
     2     E(REF-CI)=        1.5724207 eV   E(GMC-QDPT2)=        1.3944830 eV
     3     E(REF-CI)=        8.8945504 eV   E(GMC-QDPT2)=        8.5700855 eV
 ----------------------------------------------------------------------------

 Main characters of perturbed GMC-QDPT states:

 State #    1  Energy =     -55.896563729  S =  0.500

      Det      Coef    Occupancy (Ignoring core)
      ---      ----    --------- --------- -----
        1    0.973893  11110001110000
      393    0.087540  10110101010010
      717    0.054276  11010011100001

 State #    2  Energy =     -55.845317451  S =  0.500

      Det      Coef    Occupancy (Ignoring core)
      ---      ----    --------- --------- -----
       71   -0.980438  11110001011000
      822    0.054372  11010011001001

 State #    3  Energy =     -55.581619055  S =  0.500

      Det      Coef    Occupancy (Ignoring core)
      ---      ----    --------- --------- -----
       36    0.968128  11110001101000
       74   -0.073065  10111001011000
      113   -0.058390  10110100111000
      463    0.090315  10110101001010

 <<<Max |V/de| = 3.116D-02  Thresh = 1.000D+00

 Oscillator strength (invalid if E(1)/=E(GS)):
 ----------------------------------------------------------------------------
   State                        1st order                           2nd order
 ----------------------------------------------------------------------------
     2     F(REF-CI)=        0.0002367122     F(GMC-PT2)=        0.0002107425
     3     F(REF-CI)=        0.0073022530     F(GMC-PT2)=        0.0071072858
 ----------------------------------------------------------------------------

 Dipole moment matrix elements, x, y, z, in A.U.
States    1    1        0.2114739048       -0.3676759818        0.7053890241
States    1    2       -0.0676652388       -0.0397956991        0.0024979970
States    1    3       -0.0823147090        0.1419262137        0.0832550410
States    2    1       -0.0676652388       -0.0397956991        0.0024979970
States    2    2        0.1372803307       -0.2452876945        0.2869315565
States    2    3        0.0624041027        0.0364266600        0.0001246646
States    3    1       -0.0823147090        0.1419262137        0.0832550410
States    3    2        0.0624041027        0.0364266600        0.0001246646
States    3    3        0.3428435234       -0.5965788593        0.2310043443

 Oscillator strength (valid only when positive): 
 ----------------------------------------------------------------------------
  States                        1st order                           2nd order
 ----------------------------------------------------------------------------
  1  1     F(REF-CI)=        0.0000000000     F(GMC-PT2)=        0.0000000000
  1  2     F(REF-CI)=       -0.0002367122     F(GMC-PT2)=       -0.0002107425
  1  3     F(REF-CI)=       -0.0073022530     F(GMC-PT2)=       -0.0071072858
  2  1     F(REF-CI)=        0.0002367122     F(GMC-PT2)=        0.0002107425
  2  2     F(REF-CI)=        0.0000000000     F(GMC-PT2)=        0.0000000000
  2  3     F(REF-CI)=       -0.0009408074     F(GMC-PT2)=       -0.0009178795
  3  1     F(REF-CI)=        0.0073022530     F(GMC-PT2)=        0.0071072858
  3  2     F(REF-CI)=        0.0009408074     F(GMC-PT2)=        0.0009178795
  3  3     F(REF-CI)=        0.0000000000     F(GMC-PT2)=        0.0000000000
 CPU     0: STEP CPU TIME=     1.89 TOTAL CPU TIME=         15.9 (      0.3 MIN)
 TOTAL WALL CLOCK TIME=         15.9 SECONDS, CPU UTILIZATION IS    99.94%

     !!! DIABATIZATION FOR REF CI STATES !!!

 *******************************************************
          $DMO GROUP FOUND IN THE INPUT.
        DIABATIZATION OF ADIABATIC STATES BEGINS.
     PROGRAMMED BY TAO ZENG (CARLETON UNIVERSITY).
               Email: toby.zeng@carleton.ca
     See T. Zeng, J. Chem. Phys. 2017, 146, 144103
 *******************************************************

 *************************************************************************
     STEP 1: TRANSFORMATION OF ADIABATIC STATES TO THE DMO REPRESENTATION
         See Atchity and Ruedenberg, J. Chem. Phys. 1999, 111, 2910
 *************************************************************************

Read in Diabatic Molecualr Orbitals:

                      1          2          3          4          5

    1  N  1  S    0.008609   0.000000   0.000000  -0.013219   0.279491
    2  N  1  S    0.442914  -0.000000   0.000000  -0.184329   0.867803
    3  N  1  S    0.276913   0.000000  -0.000000  -0.288315   0.144236
    4  N  1  X   -0.000000   0.493155  -0.024636  -0.000000  -0.000000
    5  N  1  Y    0.000000   0.024636   0.493155  -0.000000   0.000000
    6  N  1  Z    0.090197   0.000000   0.000000   0.593421   0.705309
    7  N  1  X   -0.000000   0.210628  -0.010522   0.000000   0.000000
    8  N  1  Y    0.000000   0.010522   0.210628  -0.000000  -0.000000
    9  N  1  Z   -0.004381   0.000000   0.000000   0.381592  -0.106092
   10  N  1 XX   -0.000457   0.010719  -0.000535  -0.012387   0.006153
   11  N  1 YY   -0.000457  -0.010719   0.000535  -0.012387   0.006153
   12  N  1 ZZ    0.000914  -0.000000   0.000000   0.024773  -0.012306
   13  N  1 XY    0.000000  -0.000618  -0.012377  -0.000000   0.000000
   14  N  1 XZ   -0.000000   0.026529  -0.001325  -0.000000   0.000000
   15  N  1 YZ    0.000000   0.001325   0.026529  -0.000000   0.000000
   16  H  2  S    0.194462  -0.176074   0.343485   0.112865  -0.523343
   17  H  2  S    0.003574  -0.023812   0.046452   0.024014  -0.054445
   18  H  2  X    0.018760   0.009101   0.022834   0.009336  -0.039151
   19  H  2  Y   -0.032493   0.022287  -0.020044  -0.016171   0.067811
   20  H  2  Z   -0.009251   0.008464  -0.016511   0.018769  -0.010566
   21  H  3  S    0.194462  -0.209430  -0.324227   0.112865  -0.523343
   22  H  3  S    0.003574  -0.028322  -0.043847   0.024014  -0.054445
   23  H  3  X    0.018760   0.006781  -0.023627   0.009336  -0.039151
   24  H  3  Y    0.032493  -0.024174  -0.017723   0.016171  -0.067811
   25  H  3  Z   -0.009251   0.010067   0.015585   0.018769  -0.010566
   26  H  4  S    0.194462   0.385503  -0.019258   0.112865  -0.523343
   27  H  4  S    0.003574   0.052134  -0.002604   0.024014  -0.054445
   28  H  4  X   -0.037519  -0.032295   0.001613  -0.018672   0.078302
   29  H  4  Y    0.000000   0.001067   0.021353  -0.000000   0.000000
   30  H  4  Z   -0.009251  -0.018530   0.000926   0.018769  -0.010566

                      6          7

    1  N  1  S    0.000000  -0.000000
    2  N  1  S    0.000000  -0.000000
    3  N  1  S   -0.000000   0.000000
    4  N  1  X   -0.930415  -0.002083
    5  N  1  Y   -0.002083   0.930415
    6  N  1  Z   -0.000000   0.000000
    7  N  1  X   -0.046866  -0.000105
    8  N  1  Y   -0.000105   0.046866
    9  N  1  Z   -0.000000   0.000000
   10  N  1 XX    0.001538   0.000003
   11  N  1 YY   -0.001538  -0.000003
   12  N  1 ZZ   -0.000000   0.000000
   13  N  1 XY   -0.000004   0.001776
   14  N  1 XZ    0.039985   0.000090
   15  N  1 YZ    0.000090  -0.039985
   16  H  2  S   -0.362630  -0.631354
   17  H  2  S   -0.065964  -0.114846
   18  H  2  X    0.002763  -0.037520
   19  H  2  Y    0.037435   0.040736
   20  H  2  Z    0.001882   0.003276
   21  H  3  S   -0.365454   0.629724
   22  H  3  S   -0.066477   0.114549
   23  H  3  X    0.002595   0.037532
   24  H  3  Y   -0.037617   0.040567
   25  H  3  Z    0.001896  -0.003268
   26  H  4  S    0.728084   0.001630
   27  H  4  S    0.132441   0.000297
   28  H  4  X   -0.062317  -0.000140
   29  H  4  Y    0.000055  -0.024345
   30  H  4  Z   -0.003778  -0.000008

NUMBER OF SUB ACTIVE SPACES:   1
ROTATE ACTIVE MOS TO DMOS IN EACH SUB-SPACE

SPACE  1:

OVERLAP BETWEEN ORTHONORMAL AND PRE-ORTHONORMAL REF. DMOS

             1           2           3           4           5

    1    0.9744574   0.0076601  -0.0155478  -0.0096973  -0.0079189
    2    0.0076601   0.8819213  -0.0881011   0.0194269  -0.0417126
    3   -0.0155478  -0.0881011   1.0080522  -0.0385099   0.0819703
    4   -0.0096973   0.0194269  -0.0385099   0.9917939  -0.0107912
    5   -0.0079189  -0.0417126   0.0819703  -0.0107912   1.1894105
    6   -0.0002821  -0.0817504  -0.0821391   0.0346793  -0.0515727
    7   -0.0004228   0.0851521  -0.0263865   0.0607636  -0.0886698

             6           7

    1   -0.0002821  -0.0004228
    2   -0.0817504   0.0851521
    3   -0.0821391  -0.0263865
    4    0.0346793   0.0607636
    5   -0.0515727  -0.0886698
    6    1.0456351   0.0016506
    7    0.0016506   1.0478987
REFERENCE DMOS AFTER ORTHONORMALIZATION:

                      1          2          3          4          5

    1  N  1  S    0.010305   0.008885  -0.017499  -0.013099   0.238421
    2  N  1  S    0.457740   0.026883  -0.052768  -0.181582   0.742565
    3  N  1  S    0.282033   0.007241  -0.014257  -0.289438   0.124387
    4  N  1  X   -0.004793   0.477342  -0.051428   0.021068  -0.020018
    5  N  1  Y    0.008501  -0.002411   0.511937  -0.036506   0.033604
    6  N  1  Z    0.103028   0.011506  -0.022242   0.603607   0.602555
    7  N  1  X   -0.001759   0.239364   0.007389  -0.002333   0.005365
    8  N  1  Y    0.003189   0.030081   0.215278   0.004195  -0.009444
    9  N  1  Z   -0.001013  -0.009617   0.019168   0.387031  -0.090211
   10  N  1 XX   -0.000653   0.012980  -0.000093  -0.012813   0.005664
   11  N  1 YY   -0.000480  -0.012177  -0.001503  -0.012322   0.004807
   12  N  1 ZZ    0.001133  -0.000802   0.001596   0.025135  -0.010471
   13  N  1 XY   -0.000182  -0.002170  -0.012607  -0.000502   0.000863
   14  N  1 XZ   -0.000184   0.034795   0.004774  -0.001777   0.002497
   15  N  1 YZ    0.000344   0.007862   0.026674   0.003119  -0.004305
   16  H  2  S    0.203289  -0.169673   0.332516   0.177913  -0.529043
   17  H  2  S    0.004299  -0.021521   0.042203   0.034918  -0.060413
   18  H  2  X    0.019370   0.015065   0.026988   0.012284  -0.036839
   19  H  2  Y   -0.033531   0.026672  -0.019682  -0.021247   0.063816
   20  H  2  Z   -0.009665   0.007457  -0.014546   0.017999  -0.007474
   21  H  3  S    0.194957  -0.390147  -0.336380   0.085039  -0.403402
   22  H  3  S    0.003246  -0.056561  -0.047689   0.019036  -0.039427
   23  H  3  X    0.018774   0.000851  -0.019677   0.006538  -0.028958
   24  H  3  Y    0.033072  -0.040027  -0.018055   0.015431  -0.056033
   25  H  3  Z   -0.009197   0.013255   0.018126   0.019411  -0.009842
   26  H  4  S    0.195299   0.500843   0.120591   0.085606  -0.403031
   27  H  4  S    0.003297   0.071705   0.018095   0.019126  -0.039351
   28  H  4  X   -0.038057  -0.040705  -0.012963  -0.016681   0.062973
   29  H  4  Y    0.000287   0.005632   0.021545   0.002068  -0.002933
   30  H  4  Z   -0.009209  -0.022432  -0.000178   0.019396  -0.009836

                      6          7

    1  N  1  S    0.011485   0.019757
    2  N  1  S    0.040617   0.069970
    3  N  1  S    0.015215   0.026451
    4  N  1  X   -0.858147  -0.043638
    5  N  1  Y    0.039474   0.905875
    6  N  1  Z    0.008857   0.014518
    7  N  1  X   -0.025155  -0.018737
    8  N  1  Y    0.018485   0.046630
    9  N  1  Z   -0.016487  -0.028786
   10  N  1 XX    0.003182   0.000163
   11  N  1 YY   -0.001898   0.002072
   12  N  1 ZZ   -0.001284  -0.002236
   13  N  1 XY   -0.001107   0.001657
   14  N  1 XZ    0.041521  -0.002373
   15  N  1 YZ    0.002541  -0.038674
   16  H  2  S   -0.364886  -0.634761
   17  H  2  S   -0.065409  -0.113817
   18  H  2  X    0.003785  -0.040177
   19  H  2  Y    0.040116   0.042766
   20  H  2  Z    0.000271   0.000474
   21  H  3  S   -0.430020   0.585863
   22  H  3  S   -0.074491   0.108387
   23  H  3  X   -0.000688   0.032431
   24  H  3  Y   -0.043846   0.035957
   25  H  3  Z    0.003151  -0.005706
   26  H  4  S    0.722393  -0.076232
   27  H  4  S    0.131129  -0.009732
   28  H  4  X   -0.060164   0.009223
   29  H  4  Y    0.002009  -0.023518
   30  H  4  Z   -0.006512  -0.000140

 -------------------------------------------
       MAXIMIZING MORMO OVERLAP TERM        
 -------------------------------------------
   SWEEP    VALUE       PROGRESS
     0     5.56845
     1     6.91252     1.34407071
     2     6.93335     0.02083020
     3     6.93335     0.00000234
     4     6.93335     0.00000000
     5     6.93335     0.00000000
 THE ROTATION IS DONE
ACTIVE ORBITALS AFTER MORMO:

                      1          2          3          4          5

    1  N  1  S    0.008954   0.009681  -0.019361  -0.012471   0.174113
    2  N  1  S    0.431830   0.017673  -0.035755  -0.190290   0.653005
    3  N  1  S    0.336244   0.006345  -0.010899  -0.273615   0.235733
    4  N  1  X   -0.007418   0.421474  -0.074015   0.021718  -0.028740
    5  N  1  Y    0.012703  -0.028870   0.487669  -0.038054   0.048844
    6  N  1  Z    0.086756   0.019134  -0.037649   0.606513   0.560610
    7  N  1  X   -0.000588   0.318427   0.069250  -0.024033   0.025114
    8  N  1  Y    0.001533   0.095680   0.212329   0.042317  -0.043799
    9  N  1  Z    0.028709  -0.025075   0.049965   0.384917  -0.032145
   10  N  1 XX   -0.002649   0.017483   0.002907  -0.009229   0.017878
   11  N  1 YY    0.002572  -0.016867  -0.004084  -0.010069  -0.028177
   12  N  1 ZZ    0.000077  -0.000616   0.001177   0.019298   0.010299
   13  N  1 XY   -0.005302  -0.005832  -0.013797   0.000690   0.046574
   14  N  1 XZ    0.001619   0.023644   0.005592  -0.003034  -0.012309
   15  N  1 YZ   -0.002778   0.007561   0.015137   0.005161   0.021818
   16  H  2  S    0.181231  -0.180004   0.351883   0.138373  -0.525563
   17  H  2  S   -0.001807  -0.018542   0.036692   0.037957  -0.067263
   18  H  2  X    0.016973   0.006721   0.028995   0.005699  -0.029249
   19  H  2  Y   -0.029228   0.027767  -0.029605  -0.009770   0.050358
   20  H  2  Z   -0.002553   0.003748  -0.007263   0.022657  -0.010976
   21  H  3  S    0.182519  -0.263145  -0.306132   0.089495  -0.421907
   22  H  3  S    0.004579  -0.161505  -0.095265   0.030278  -0.057966
   23  H  3  X    0.003015   0.021865   0.003821   0.002081  -0.027636
   24  H  3  Y    0.030627  -0.020293  -0.028308   0.014998  -0.035956
   25  H  3  Z   -0.009303   0.006744   0.025257   0.016067  -0.016017
   26  H  4  S    0.182556   0.401939   0.034761   0.089653  -0.421215
   27  H  4  S    0.004731   0.171629   0.075486   0.030435  -0.057742
   28  H  4  X   -0.027949  -0.022285   0.007881  -0.013899   0.044891
   29  H  4  Y    0.012788   0.031358   0.013382   0.005755   0.005732
   30  H  4  Z   -0.009208  -0.024241   0.009347   0.016070  -0.016204

                      6          7

    1  N  1  S    0.052979   0.092303
    2  N  1  S    0.114443   0.199581
    3  N  1  S   -0.088363  -0.155305
    4  N  1  X   -0.867637  -0.007926
    5  N  1  Y    0.003970   0.873684
    6  N  1  Z    0.003242   0.004401
    7  N  1  X   -0.017526  -0.084755
    8  N  1  Y    0.084282   0.115807
    9  N  1  Z   -0.029936  -0.051806
   10  N  1 XX    0.027883  -0.032470
   11  N  1 YY   -0.044163   0.004142
   12  N  1 ZZ    0.016280   0.028328
   13  N  1 XY   -0.021122   0.017988
   14  N  1 XZ    0.018868   0.014757
   15  N  1 YZ   -0.014471  -0.035531
   16  H  2  S   -0.356108  -0.619084
   17  H  2  S   -0.069210  -0.120515
   18  H  2  X   -0.013322  -0.030652
   19  H  2  Y    0.030489   0.048416
   20  H  2  Z   -0.011985  -0.020607
   21  H  3  S   -0.298264   0.578074
   22  H  3  S   -0.186830   0.186866
   23  H  3  X    0.040989   0.019992
   24  H  3  Y   -0.027646   0.031464
   25  H  3  Z    0.021785   0.004590
   26  H  4  S    0.649131   0.033907
   27  H  4  S    0.255586  -0.067012
   28  H  4  X   -0.034037  -0.015989
   29  H  4  Y    0.023869  -0.043224
   30  H  4  Z   -0.006774   0.021204

Actually Used Diabatic Molecualr Orbitals:

                      1          2          3          4          5

    1  N  1  S    0.008954   0.009681  -0.019361  -0.012471   0.174113
    2  N  1  S    0.431830   0.017673  -0.035755  -0.190290   0.653005
    3  N  1  S    0.336244   0.006345  -0.010899  -0.273615   0.235733
    4  N  1  X   -0.007418   0.421474  -0.074015   0.021718  -0.028740
    5  N  1  Y    0.012703  -0.028870   0.487669  -0.038054   0.048844
    6  N  1  Z    0.086756   0.019134  -0.037649   0.606513   0.560610
    7  N  1  X   -0.000588   0.318427   0.069250  -0.024033   0.025114
    8  N  1  Y    0.001533   0.095680   0.212329   0.042317  -0.043799
    9  N  1  Z    0.028709  -0.025075   0.049965   0.384917  -0.032145
   10  N  1 XX   -0.002649   0.017483   0.002907  -0.009229   0.017878
   11  N  1 YY    0.002572  -0.016867  -0.004084  -0.010069  -0.028177
   12  N  1 ZZ    0.000077  -0.000616   0.001177   0.019298   0.010299
   13  N  1 XY   -0.005302  -0.005832  -0.013797   0.000690   0.046574
   14  N  1 XZ    0.001619   0.023644   0.005592  -0.003034  -0.012309
[...]
        4   -0.064608    0.064608  2-2++00
      176    0.061265   -0.061265  2+2+-00
      393   -0.058899   -0.058899  202+020
        6    0.046879   -0.046879  22200+0
       13   -0.044801   -0.044801  2--+++0
      708    0.041084   -0.041084  2-++0+-
      215   -0.040491   -0.040491  022+200
      561   -0.039003   -0.039003  2+++--0
      402    0.037786   -0.037786  2+-+0-+
      218    0.035728   -0.035728  +-2+-+0
      705   -0.035100   -0.035100  -2+++0-
      227   -0.034946   -0.034946  +2-+-0+
     1051   -0.034828   -0.034828  2+++0--
      390    0.034791   -0.034791  -+2++-0
      148    0.033115    0.033115  2-++-+0
      387   -0.032502    0.032502  2+20+-0
      212    0.032431    0.032431  +220200
       27    0.031956   -0.031956  2-200++
       29   -0.031603   -0.031603  2--+0++
      388    0.031361    0.031361  2+-++-0
      179   -0.030625   -0.030625  202+200
       76    0.028906    0.028906  2+2-0+0
      738   -0.028874   -0.028874  2+-++0-
      113   -0.027752    0.027752  +-220+0
      158   -0.027742   -0.027742  2-++-0+
      773    0.026296   -0.026296  +2-++0-
       17    0.025950    0.025950  22-+00+
       23    0.025896    0.025896  2--++0+
      424   -0.025796   -0.025796  +-2++-0
       11    0.025620   -0.025620  2-20++0
      702    0.025381    0.025381  22+0+0-
      184   -0.025069   -0.025069  -+2+-+0
      147    0.024626   -0.024626  220+-+0
      389    0.024615    0.024615  202++-0
      159    0.024308   -0.024308  -2++-0+
      353   -0.024265   -0.024265  220++-0
      183   -0.024148    0.024148  202+-+0
      122    0.023503    0.023503  +2-200+
      911    0.022582    0.022582  2+++-0-
      401   -0.022241   -0.022241  2+200-+
       74   -0.022018    0.022018  2022+00
       51   -0.021805    0.021805  22+-00+
      143   -0.021395   -0.021395  220+200
      366   -0.020195    0.020195  22+00-+
      391    0.020122   -0.020122  2+20020

 State #    2  Energy =     -55.782539264

      Det      Coef        Coefp    Occupancy (Ignoring core)
      ---      ----        ----    --------- --------- -----
       71   -0.898008    0.898008  2+22000
      246   -0.135926   -0.135926  2++2-00
       78    0.126926   -0.126926  20220+0
       73    0.125135   -0.125135  2+-2+00
       77   -0.117199    0.117199  2+-20+0
      456    0.115388    0.115388  2++20-0
       88   -0.112515    0.112515  202200+
      736   -0.103357    0.103357  2+2+00-
       74    0.100242   -0.100242  2022+00
       86    0.099641    0.099641  2+2-00+
       76    0.080405    0.080405  2+2-0+0
       72   -0.067468   -0.067468  2+2-+00
      822    0.065757   -0.065757  2+02002
      386   -0.064153    0.064153  2+2+0-0
      176    0.051999   -0.051999  2+2+-00
      813    0.046849   -0.046849  20+20+-
       83   -0.046838    0.046838  20-2++0
       99   -0.045117    0.045117  20-20++
       36    0.044715    0.044715  22+2000
      183   -0.042378    0.042378  202+-+0
       81    0.041840    0.041840  202-++0
      320    0.041055    0.041055  0+22200
      323   -0.037067    0.037067  +022-+0
       97    0.036880    0.036880  202-0++
      180   -0.036290    0.036290  -+2+200
      177    0.036142   -0.036142  2+20200
      810   -0.035883   -0.035883  -++2+0-
      317    0.035655   -0.035655  ++2-200
      253    0.033172    0.033172  20+2-+0
      332   -0.032700    0.032700  ++-2-0+
      111    0.031649   -0.031649  +22-0+0
      113    0.031299   -0.031299  +-220+0
      263   -0.029747   -0.029747  20+2-0+
      252   -0.029363   -0.029363  2+02-+0
      743   -0.028393   -0.028393  202+0+-
      807   -0.028195    0.028195  2++-+0-
      192   -0.027018    0.027018  2+-+-0+
      106    0.026507    0.026507  +222000
      878    0.025520    0.025520  ++-2+0-
      526   -0.025185   -0.025185  ++220-0
      742    0.025167    0.025167  2+-+0+-
      529    0.024574    0.024574  +022+-0
      264    0.024211   -0.024211  -++2-0+
       93    0.024109   -0.024109  20-2+0+
       90    0.023546    0.023546  2+--+0+
      458    0.023474   -0.023474  2+02+-0
      911    0.022772    0.022772  2+++-0-
      393   -0.022504   -0.022504  202+020
      108    0.021667    0.021667  +2-2+00
      471    0.021440    0.021440  2++-0-+
      753    0.021272    0.021272  202+002
       96   -0.021169   -0.021169  2+--0++
       89    0.021136    0.021136  -+2200+
      248    0.020975   -0.020975  2+02200
      391    0.020191   -0.020191  2+20020

 State #    3  Energy =     -55.656712498

      Det      Coef        Coefp    Occupancy (Ignoring core)
      ---      ----        ----    --------- --------- -----
       36   -0.899494   -0.899494  22+2000
       43    0.128469    0.128469  2-+20+0
      456   -0.127769   -0.127769  2++20-0
       38   -0.124443    0.124443  2202+00
       53   -0.117151   -0.117151  2-+200+
      806    0.115900    0.115900  2++200-
       51    0.107670   -0.107670  22+-00+
       42    0.099622   -0.099622  22020+0
      701   -0.096247   -0.096247  22++00-
      246   -0.077200   -0.077200  2++2-00
       37   -0.071410    0.071410  22+-+00
      463    0.066002   -0.066002  20+2020
      351   -0.049239   -0.049239  22++0-0
       73    0.049073   -0.049073  2+-2+00
      106   -0.047162   -0.047162  +222000
      472   -0.046656   -0.046656  2+020-+
       64    0.045005   -0.045005  2-020++
      457   -0.042991    0.042991  2++-+-0
      141    0.042666    0.042666  22++-00
       71   -0.042261    0.042261  2+22000
      285    0.041680   -0.041680  02+2200
      121   -0.039554    0.039554  +22-00+
      148   -0.039381   -0.039381  2-++-+0
      282    0.038843    0.038843  +2+-200
      460   -0.038493   -0.038493  -++2+-0
       41    0.038270   -0.038270  22+-0+0
      249    0.037577   -0.037577  20+2200
      288   -0.036849   -0.036849  +-+2-+0
      145   -0.036645   -0.036645  -2++200
      142    0.035909    0.035909  22+0200
      112   -0.034989   -0.034989  +2-20+0
      297    0.034615   -0.034615  +202-0+
       46    0.033705   -0.033705  2-+-++0
       48    0.033420   -0.033420  2-02++0
       62    0.031464   -0.031464  2-+-0++
      561    0.029236    0.029236  2+++--0
      113   -0.029116    0.029116  +-220+0
     1051    0.028840    0.028840  2+++0--
        3    0.028745    0.028745  22-++00
       52    0.028183   -0.028183  220200+
       39    0.028127    0.028127  2-+2+00
      808    0.027908   -0.027908  2+02+0-
      253    0.027704    0.027704  20+2-+0
      254    0.027200   -0.027200  -++2-+0
      494    0.026715   -0.026715  +-+2+-0
      157    0.026389   -0.026389  220+-0+
      123    0.026042   -0.026042  +-2200+
       86    0.024317    0.024317  2+2-00+
      458   -0.024107    0.024107  2+02+-0
       74   -0.023953    0.023953  2022+00
      358   -0.023877    0.023877  2-++020
       55   -0.023228   -0.023228  220-+0+
       16   -0.023197    0.023197  222000+
      461    0.022964   -0.022964  2++-020
      471   -0.022661   -0.022661  2++-0-+
       58   -0.022371    0.022371  2-02+0+
       44    0.022079   -0.022079  -2+20+0
      718    0.021944   -0.021944  2-++002
      843   -0.021887   -0.021887  +202+0-
      708   -0.021882    0.021882  2-++0+-
       78    0.021445   -0.021445  20220+0
      109    0.021416   -0.021416  +-22+00
      821   -0.021403    0.021403  2++-002
       19    0.021223    0.021223  -22+00+
      107    0.020008   -0.020008  +22-+00

 ---------------------------------------
      - DIABATIC STATES IN CMO -        
 ---------------------------------------

 State #    1  Energy =     -55.884248472

      Det      Coef        Coefp    Occupancy (Ignoring core)
      ---      ----        ----    --------- --------- -----
        1    0.957562   -0.957562  222+000
       36   -0.176005   -0.176005  22+2000
      393   -0.086773   -0.086773  202+020
      717   -0.057603   -0.057603  220+002
      106   -0.043274   -0.043274  +222000
      388    0.042396    0.042396  2+-++-0
      215   -0.041888   -0.041888  022+200
      143   -0.040915   -0.040915  220+200
        2    0.038554   -0.038554  2220+00
      390    0.036772   -0.036772  -+2++-0
       17    0.035490    0.035490  22-+00+
      179   -0.034358   -0.034358  202+200
      218    0.034338   -0.034338  +-2+-+0
      387   -0.032443    0.032443  2+20+-0
      113   -0.032331    0.032331  +-220+0
      148    0.032277    0.032277  2-++-+0
       76    0.031759    0.031759  2+2-0+0
      402    0.031571   -0.031571  2+-+0-+
        8   -0.031064    0.031064  2-2+0+0
      708    0.029902   -0.029902  2-++0+-
       74   -0.028825    0.028825  2022+00
      108   -0.028039   -0.028039  +2-2+00
      212    0.027113    0.027113  +220200
       13   -0.026550   -0.026550  2--+++0
      716    0.025821    0.025821  22+0002
      705   -0.025382   -0.025382  -2+++0-
      424   -0.024799   -0.024799  +-2++-0
      787    0.023599   -0.023599  +2-+002
        3   -0.023462   -0.023462  22-++00
      561   -0.023250   -0.023250  2+++--0
      184   -0.023050   -0.023050  -+2+-+0
      719   -0.022809   -0.022809  -2++002
      227   -0.022654   -0.022654  +2-+-0+
      213   -0.022630    0.022630  +2-+200
       11    0.022566   -0.022566  2-20++0
       51   -0.020602    0.020602  22+-00+
       79    0.020505    0.020505  -+220+0
      357   -0.020311   -0.020311  220+020
      122    0.020189    0.020189  +2-200+

 State #    2  Energy =     -55.782539264

      Det      Coef        Coefp    Occupancy (Ignoring core)
      ---      ----        ----    --------- --------- -----
       71   -0.850532    0.850532  2+22000
       36    0.475454    0.475454  22+2000
        1    0.078126   -0.078126  222+000
      822    0.046976   -0.046976  2+02002
      463   -0.044635    0.044635  20+2020
      248    0.042896   -0.042896  2+02200
      177    0.040514   -0.040514  2+20200
      253    0.039603    0.039603  20+2-+0
      320    0.035452    0.035452  0+22200
       74    0.033878   -0.033878  2022+00
      183   -0.031440    0.031440  202+-+0
      323   -0.030805    0.030805  +022-+0
       83   -0.030525    0.030525  20-2++0
      813    0.028976   -0.028976  20+20+-
      112   -0.027602   -0.027602  +2-20+0
      113    0.026170   -0.026170  +-220+0
       78    0.025546   -0.025546  20220+0
       81    0.025244    0.025244  202-++0
      180   -0.023672    0.023672  -+2+200
      142   -0.023325   -0.023325  22+0200
      317    0.023063   -0.023063  ++2-200
      751    0.022844   -0.022844  2+20002
      107   -0.022094    0.022094  +22-+00
      462    0.021926   -0.021926  2+02020
      108    0.021820    0.021820  +2-2+00
      285   -0.021788    0.021788  02+2200
      109    0.021564   -0.021564  +-22+00
      111    0.020645   -0.020645  +22-0+0
        3   -0.020642   -0.020642  22-++00
      121    0.020102   -0.020102  +22-00+
      458    0.020009   -0.020009  2+02+-0

 State #    3  Energy =     -55.656712498

      Det      Coef        Coefp    Occupancy (Ignoring core)
      ---      ----        ----    --------- --------- -----
       36   -0.824915   -0.824915  22+2000
       71   -0.487597    0.487597  2+22000
        1   -0.160332    0.160332  222+000
      463    0.076264   -0.076264  20+2020
       74   -0.059794    0.059794  2022+00
      113   -0.046141    0.046141  +-220+0
      142    0.040942    0.040942  22+0200
      107    0.038871   -0.038871  +22-+00
      285    0.037763   -0.037763  02+2200
      108   -0.037493   -0.037493  +2-2+00
        3    0.035381    0.035381  22-++00
      458   -0.034585    0.034585  2+02+-0
      121   -0.034247    0.034247  +22-00+
      148   -0.032745   -0.032745  2-++-+0
      460   -0.031495   -0.031495  -++2+-0
      288   -0.030181   -0.030181  +-+2-+0
        8    0.029587   -0.029587  2-2+0+0
      249    0.029420   -0.029420  20+2200
      457   -0.027995    0.027995  2++-+-0
      822    0.027373   -0.027373  2+02002
      145   -0.026967   -0.026967  -2++200
      472   -0.026521   -0.026521  2+020-+
       76   -0.026410   -0.026410  2+2-0+0
      248    0.024729   -0.024729  2+02200
       79    0.024438    0.024438  -+220+0
      561    0.024242    0.024242  2+++--0
       52    0.024041   -0.024041  220200+
        5   -0.023761   -0.023761  -22++00
      177    0.023116   -0.023116  2+20200
       48    0.022851   -0.022851  2-02++0
      253    0.022623    0.022623  20+2-+0
      282    0.022462    0.022462  +2+-200
      716    0.022420    0.022420  22+0002
      143    0.022247    0.022247  220+200
       43   -0.021806   -0.021806  2-+20+0
      526    0.021702    0.021702  ++220-0
      494    0.021303   -0.021303  +-+2+-0
       51   -0.021092    0.021092  22+-00+
       46    0.020957   -0.020957  2-+-++0
      771    0.020739    0.020739  +22+00-
      254    0.020488   -0.020488  -++2-+0
      320    0.020316    0.020316  0+22200
       40    0.020017   -0.020017  -2+2+00

 ---------------------------------------
    -DIABATIC STATES IN PROTOTYPES-     
 ---------------------------------------

     STATE:    1
 Group Ref#    Coefficients
     1    1    0.918308
     2    2   -0.002932
     3    3    0.005444

WEIGHT OF LISTED PROTOTYPES:   84.33%

     STATE:    2
 Group Ref#    Coefficients
     1    1   -0.002939
     2    2    0.916168
     3    3    0.002035

WEIGHT OF LISTED PROTOTYPES:   83.94%

     STATE:    3
 Group Ref#    Coefficients
     1    1    0.005464
     2    2    0.002038
     3    3    0.914814

WEIGHT OF LISTED PROTOTYPES:   83.69%

     DIRECT MAX. DIABATIZATION FINISHED    
 CPU     0: STEP CPU TIME=     0.25 TOTAL CPU TIME=         16.1 (      0.3 MIN)
 TOTAL WALL CLOCK TIME=         16.1 SECONDS, CPU UTILIZATION IS    99.94%

DIABATS FOR SPIN-ORBIT CALCULATION ARE READY

TRANSITION DIPOLES BETWEEN ADIABATS (in A.U.):

STATE PAIR      X         Y         Z
    1    1  0.211474 -0.367676  0.705389
    2    1 -0.067665 -0.039796  0.002498
    2    2  0.137280 -0.245288  0.286932
    3    1 -0.082315  0.141926  0.083255
    3    2  0.062404  0.036427  0.000125
    3    3  0.342844 -0.596579  0.231004


TRANSITION DIPOLES BETWEEN DIABATS (in A.U.):

STATE PAIR      X         Y         Z
    1    1  0.184070 -0.321972  0.719130
    2    1 -0.022123 -0.070411  0.007551
    2    2  0.130804 -0.380990  0.269856
    3    1 -0.070375  0.059532 -0.013207
    3    2 -0.062489  0.193544  0.029952
    3    3  0.376723 -0.506580  0.234339

TRANSITION DIPOLES BETWEEN DIRECT MAX. DIABATS (in A.U.):

STATE PAIR      X         Y         Z
    1    1  0.184071 -0.321974  0.719130
    2    1 -0.022122 -0.070414  0.007549
    2    2  0.130805 -0.380990  0.269856
    3    1 -0.070377  0.059534 -0.013201
    3    2 -0.062489  0.193543  0.029952
    3    3  0.376722 -0.506578  0.234339
 No $TRANST Group Found.
 Quit without doing spin-orbit coupling
 ..... DONE WITH MP2 ENERGY .....
 CPU     0: STEP CPU TIME=     0.00 TOTAL CPU TIME=         16.1 (      0.3 MIN)
 TOTAL WALL CLOCK TIME=         16.2 SECONDS, CPU UTILIZATION IS    99.88%
            100000000  WORDS OF DYNAMIC MEMORY USED
 EXECUTION OF GAMESS TERMINATED NORMALLY Wed Nov 16 18:30:58 2022
 DDI: 715512 bytes (0.7 MB / 0 MWords) used by master data server.

 ----------------------------------------
 CPU timing information for all processes
 ========================================
 0: 15.860 + 0.291 = 16.152
 ----------------------------------------
Note: The following floating-point exceptions are signalling: IEEE_DENORMAL
 ddikick.x: exited gracefully.
unset echo
----- accounting info -----
Files used on the master node io002 were:
-rw-r--r-- 1 bsonghao nooijen   20738 Nov 16 18:30 /scratch/bsonghao/nh3_diabatization_2d_at_mode_7_8_dist-0.7_0.4.F05
-rw-r--r-- 1 bsonghao nooijen  363520 Nov 16 18:30 /scratch/bsonghao/nh3_diabatization_2d_at_mode_7_8_dist-0.7_0.4.F09
-rw-r--r-- 1 bsonghao nooijen 1995920 Nov 16 18:31 /scratch/bsonghao/nh3_diabatization_2d_at_mode_7_8_dist-0.7_0.4.F10
-rw-r--r-- 1 bsonghao nooijen  131264 Nov 16 18:30 /scratch/bsonghao/nh3_diabatization_2d_at_mode_7_8_dist-0.7_0.4.F13
-rw-r--r-- 1 bsonghao nooijen  180312 Nov 16 18:31 /scratch/bsonghao/nh3_diabatization_2d_at_mode_7_8_dist-0.7_0.4.F15
-rw-r--r-- 1 bsonghao nooijen       0 Nov 16 18:30 /scratch/bsonghao/nh3_diabatization_2d_at_mode_7_8_dist-0.7_0.4.F16
-rw-r--r-- 1 bsonghao nooijen    9808 Nov 16 18:30 /scratch/bsonghao/nh3_diabatization_2d_at_mode_7_8_dist-0.7_0.4.F70
-rw-r--r-- 1 bsonghao nooijen    9808 Nov 16 18:30 /scratch/bsonghao/nh3_diabatization_2d_at_mode_7_8_dist-0.7_0.4.F71
-rw-r--r-- 1 bsonghao nooijen   19608 Nov 16 18:30 /scratch/bsonghao/nh3_diabatization_2d_at_mode_7_8_dist-0.7_0.4.F72
-rw-r--r-- 1 bsonghao nooijen   19608 Nov 16 18:30 /scratch/bsonghao/nh3_diabatization_2d_at_mode_7_8_dist-0.7_0.4.F73
-rw-r--r-- 1 bsonghao nooijen 1920824 Nov 16 18:30 /scratch/bsonghao/nh3_diabatization_2d_at_mode_7_8_dist-0.7_0.4.F74
-rw-r--r-- 1 bsonghao nooijen       0 Nov 16 18:30 /scratch/bsonghao/nh3_diabatization_2d_at_mode_7_8_dist-0.7_0.4.F75
-rw-r--r-- 1 bsonghao nooijen   58848 Nov 16 18:30 /scratch/bsonghao/nh3_diabatization_2d_at_mode_7_8_dist-0.7_0.4.F76
-rw-r--r-- 1 bsonghao nooijen       0 Nov 16 18:30 /scratch/bsonghao/nh3_diabatization_2d_at_mode_7_8_dist-0.7_0.4.F77
-rw-r--r-- 1 bsonghao nooijen    1864 Nov 16 18:30 /scratch/bsonghao/nh3_diabatization_2d_at_mode_7_8_dist-0.7_0.4.F78
-rw-r--r-- 1 bsonghao nooijen   39208 Nov 16 18:30 /scratch/bsonghao/nh3_diabatization_2d_at_mode_7_8_dist-0.7_0.4.F79
-rw-r--r-- 1 bsonghao nooijen     104 Nov 16 18:30 /scratch/bsonghao/nh3_diabatization_2d_at_mode_7_8_dist-0.7_0.4.F80
-rw-r--r-- 1 bsonghao nooijen   13472 Nov 16 18:30 /scratch/bsonghao/nh3_diabatization_2d_at_mode_7_8_dist-0.7_0.4.F81
-rw-r--r-- 1 bsonghao nooijen      16 Nov 16 18:30 /scratch/bsonghao/nh3_diabatization_2d_at_mode_7_8_dist-0.7_0.4.F82
-rw-r--r-- 1 bsonghao nooijen   19216 Nov 16 18:30 /scratch/bsonghao/nh3_diabatization_2d_at_mode_7_8_dist-0.7_0.4.F83
-rw-r--r-- 1 bsonghao nooijen   29712 Nov 16 18:30 /scratch/bsonghao/nh3_diabatization_2d_at_mode_7_8_dist-0.7_0.4.F84
-rw-r--r-- 1 bsonghao nooijen  401576 Nov 16 18:30 /scratch/bsonghao/nh3_diabatization_2d_at_mode_7_8_dist-0.7_0.4.F85
-rw-r--r-- 1 bsonghao nooijen  903672 Nov 16 18:30 /scratch/bsonghao/nh3_diabatization_2d_at_mode_7_8_dist-0.7_0.4.F86
-rw-r--r-- 1 bsonghao nooijen     656 Nov 16 18:30 /scratch/bsonghao/nh3_diabatization_2d_at_mode_7_8_dist-0.7_0.4.F87
-rw-r--r-- 1 bsonghao nooijen   25616 Nov 16 18:31 /scratch/bsonghao/nh3_diabatization_2d_at_mode_7_8_dist-0.7_0.4.F88
-rw-r--r-- 1 bsonghao nooijen     240 Nov 16 18:30 /scratch/bsonghao/nh3_diabatization_2d_at_mode_7_8_dist-0.7_0.4.F89
-rw-r--r-- 1 bsonghao nooijen       0 Nov 16 18:30 /scratch/bsonghao/nh3_diabatization_2d_at_mode_7_8_dist-0.7_0.4.F90
-rw-r--r-- 1 bsonghao nooijen   13760 Nov 16 18:30 /scratch/bsonghao/nh3_diabatization_2d_at_mode_7_8_dist-0.7_0.4.F91
-rw-r--r-- 1 bsonghao nooijen   22776 Nov 16 18:30 /scratch/bsonghao/nh3_diabatization_2d_at_mode_7_8_dist-0.7_0.4.F92
-rw-r--r-- 1 bsonghao nooijen   23168 Nov 16 18:30 /scratch/bsonghao/nh3_diabatization_2d_at_mode_7_8_dist-0.7_0.4.F93
-rw-r--r-- 1 bsonghao nooijen   22776 Nov 16 18:30 /scratch/bsonghao/nh3_diabatization_2d_at_mode_7_8_dist-0.7_0.4.F94
-rw-r--r-- 1 bsonghao nooijen   13760 Nov 16 18:30 /scratch/bsonghao/nh3_diabatization_2d_at_mode_7_8_dist-0.7_0.4.F95
-rw-r--r-- 1 bsonghao nooijen   29440 Nov 16 18:30 /scratch/bsonghao/nh3_diabatization_2d_at_mode_7_8_dist-0.7_0.4.F96
-rw-r--r-- 1 bsonghao nooijen    1184 Nov 16 18:30 /scratch/bsonghao/nh3_diabatization_2d_at_mode_7_8_dist-0.7_0.4.F97
-rw-r--r-- 1 bsonghao nooijen    9808 Nov 16 18:30 /scratch/bsonghao/nh3_diabatization_2d_at_mode_7_8_dist-0.7_0.4.F98
-rw-r--r-- 1 bsonghao nooijen   30264 Nov 16 18:30 /scratch/bsonghao/nh3_diabatization_2d_at_mode_7_8_dist-0.7_0.4.F99
ls: No match.
ls: No match.
ls: No match.
Wed 16 Nov 2022 06:31:01 PM EST
0.302u 0.040s 0:19.53 1.7%	0+0k 48+224io 0pf+0w
