----- GAMESS execution script 'rungms' -----
This job is running on host io002
under operating system Linux at Wed 16 Nov 2022 06:31:46 PM EST
Available scratch disk space (Kbyte units) at beginning of the job is
Filesystem       1K-blocks       Used   Available Use% Mounted on
/dev/sdc1      15378471580 3278917120 11318349060  23% /scratch
GAMESS temporary binary files will be written to /scratch/bsonghao
GAMESS supplementary output files will be written to /home/bsonghao/.gamess_ascii_files/267638
Copying input file nh3_diabatization_2d_at_mode_7_8_dist-0.7_0.6.inp to your run's scratch directory...
cp nh3_diabatization_2d_at_mode_7_8_dist-0.7_0.6.inp /scratch/bsonghao/nh3_diabatization_2d_at_mode_7_8_dist-0.7_0.6.F05
unset echo
/home/bjb2chen/gamess/ddikick.x /home/bjb2chen/gamess/gamess.00.x nh3_diabatization_2d_at_mode_7_8_dist-0.7_0.6 -ddi 1 1 io002 -scr /scratch/bsonghao

 Distributed Data Interface kickoff program.
 Initiating 1 compute processes on 1 nodes to run the following command:
 /home/bjb2chen/gamess/gamess.00.x nh3_diabatization_2d_at_mode_7_8_dist-0.7_0.6 

          ******************************************************
          *         GAMESS VERSION = 02 AUG 2018 (R2)         *
          *             FROM IOWA STATE UNIVERSITY             *
          * M.W.SCHMIDT, K.K.BALDRIDGE, J.A.BOATZ, S.T.ELBERT, *
          *   M.S.GORDON, J.H.JENSEN, S.KOSEKI, N.MATSUNAGA,   *
          *          K.A.NGUYEN, S.J.SU, T.L.WINDUS,           *
          *       TOGETHER WITH M.DUPUIS, J.A.MONTGOMERY       *
          *         J.COMPUT.CHEM.  14, 1347-1363(1993)        *
          **************** 64 BIT LINUX VERSION ****************

  SINCE 1993, STUDENTS AND POSTDOCS WORKING AT IOWA STATE UNIVERSITY
  AND ALSO IN THEIR VARIOUS JOBS AFTER LEAVING ISU HAVE MADE IMPORTANT
  CONTRIBUTIONS TO THE CODE:
     IVANA ADAMOVIC, CHRISTINE AIKENS, YURI ALEXEEV, POOJA ARORA,
     ANDREY ASADCHEV, ROB BELL, PRADIPTA BANDYOPADHYAY, JONATHAN BENTZ,
     BRETT BODE, KURT BRORSEN, CALEB CARLIN, GALINA CHABAN, WEI CHEN,
     CHEOL HO CHOI, PAUL DAY, ALBERT DEFUSCO, NUWAN DESILVA, TIM DUDLEY,
     DMITRI FEDOROV, ALEX FINDLATER, GRAHAM FLETCHER, MARK FREITAG,
     KURT GLAESEMANN, ANASTASIA GUININA,
     DAN KEMP, GRANT MERRILL, NORIYUKI MINEZAWA, JONATHAN MULLIN,
     TAKESHI NAGATA, SEAN NEDD, HEATHER NETZLOFF, BOSILJKA NJEGIC, RYAN OLSON,
     MIKE PAK, BUU PHAM,
     SPENCER PRUITT, LUKE ROSKOP, JIM SHOEMAKER, LYUDMILA SLIPCHENKO,
     TONY SMITH, SAROM SOK LEANG, JIE SONG, TETSUYA TAKETSUGU, SIMON WEBB,
     PENG XU, SOOHAENG YOO, FEDERICO ZAHARIEV

  ADDITIONAL CODE HAS BEEN PROVIDED BY COLLABORATORS IN OTHER GROUPS:
     IOWA STATE UNIVERSITY:
          JOE IVANIC, AARON WEST, LAIMUTIS BYTAUTAS, KLAUS RUEDENBERG
     UNIVERSITY OF TOKYO: KIMIHIKO HIRAO, TAKAHITO NAKAJIMA,
          TAKAO TSUNEDA, MUNEAKI KAMIYA, SUSUMU YANAGISAWA,
          KIYOSHI YAGI, MAHITO CHIBA, SEIKEN TOKURA, NAOAKI KAWAKAMI
     UNIVERSITY OF AARHUS: FRANK JENSEN
     UNIVERSITY OF IOWA: VISVALDAS KAIRYS, HUI LI
     NATIONAL INST. OF STANDARDS AND TECHNOLOGY: WALT STEVENS, DAVID GARMER
     UNIVERSITY OF PISA: BENEDETTA MENNUCCI, JACOPO TOMASI
     UNIVERSITY OF MEMPHIS: HENRY KURTZ, PRAKASHAN KORAMBATH
     UNIVERSITY OF ALBERTA: TOBY ZENG, MARIUSZ KLOBUKOWSKI
     UNIVERSITY OF NEW ENGLAND: MARK SPACKMAN
     MIE UNIVERSITY: HIROAKI UMEDA
     NAT. INST. OF ADVANCED INDUSTRIAL SCIENCE AND TECHNOLOGY: KAZUO KITAURA
     MICHIGAN STATE UNIVERSITY:
          KAROL KOWALSKI, MARTA WLOCH, JEFFREY GOUR, JESSE LUTZ,
          WEI LI, JUN SHEN, J. EMILIANO DEUSTUA, PIOTR PIECUCH
     UNIVERSITY OF MINNESOTA:
          YINAN SHU
     UNIVERSITY OF SILESIA: MONIKA MUSIAL, STANISLAW KUCHARSKI
     FACULTES UNIVERSITAIRES NOTRE-DAME DE LA PAIX:
          OLIVIER QUINET, BENOIT CHAMPAGNE
     UNIVERSITY OF CALIFORNIA - SANTA BARBARA: BERNARD KIRTMAN
     INSTITUTE FOR MOLECULAR SCIENCE:
          KAZUYA ISHIMURA, MICHIO KATOUDA, AND SHIGERU NAGASE
     UNIVERSITY OF NOTRE DAME: ANNA POMOGAEVA, DAN CHIPMAN
     KYUSHU UNIVERSITY:
          HARUYUKI NAKANO,
          FENG LONG GU, JACEK KORCHOWIEC, MARCIN MAKOWSKI, AND YURIKO AOKI,
          HIROTOSHI MORI AND EISAKU MIYOSHI
     PENNSYLVANIA STATE UNIVERSITY:
          TZVETELIN IORDANOV, CHET SWALINA, JONATHAN SKONE,
          SHARON HAMMES-SCHIFFER
     WASEDA UNIVERSITY:
          MASATO KOBAYASHI, TOMOKO AKAMA, TSUGUKI TOUMA,
          TAKESHI YOSHIKAWA, YASUHIRO IKABATA, JUNJI SEINO,
          YUYA NAKAJIMA, HIROMI NAKAI
     NANJING UNIVERSITY: SHUHUA LI
     UNIVERSITY OF NEBRASKA:
          PEIFENG SU, DEJUN SI, NANDUN THELLAMUREGE, YALI WANG, HUI LI
     UNIVERSITY OF ZURICH: ROBERTO PEVERATI, KIM BALDRIDGE
     N. COPERNICUS UNIVERSITY AND JACKSON STATE UNIVERSITY:
          MARIA BARYSZ
     UNIVERSITY OF COPENHAGEN: Jimmy Kromann, CASPER STEINMANN
     TOKYO INSTITUTE OF TECHNOLOGY: HIROYA NAKATA
     NAGOYA UNIVERSITY: YOSHIO NISHIMOTO, STEPHAN IRLE
     MOSCOW STATE UNIVERSITY: VLADIMIR MIRONOV

 EXECUTION OF GAMESS BEGUN Wed Nov 16 18:31:46 2022

            ECHO OF THE FIRST FEW INPUT CARDS -
 INPUT CARD> $system kdiag=3 mwords=100 memddi=1000 parall=.t. $end                         
 INPUT CARD> $contrl runtyp=energy ispher=1 $end                                            
 INPUT CARD> $contrl icut=9 itol=20 inttyp=rysquad qmttol=1.0d-05 nosym=1 $end              
 INPUT CARD> $scf    npunch=2 conv=1.0d-06 dirscf=.t.      $end                             
 INPUT CARD> $contrl scftyp=mcscf  mult=2 maxit=200 icharg=1 mplevl=2 $end                  
 INPUT CARD> $guess  guess=moread norb=29 purify=.t. $end                                   
 INPUT CARD> $basis  gbasis=ccd $end                                                        
 INPUT CARD> $mcscf  cistep=gmcci fullnr=.t. finci=mos                                      
 INPUT CARD>         acurcy=1.d-6 maxit=100 $end                                            
 INPUT CARD> $trans  dirtrf=.t. $end                                                        
 INPUT CARD> $mrmp   mrpt=gmcpt rdvecs=.f. $end                                             
 INPUT CARD> $gmcpt  nmofzc=0 nmodoc=1 nmoact=7 nelact=7 stsym(1)=A                         
 INPUT CARD>         reftyp=ormas nspace=1 mstart(1)=2 mine(1)=7 maxe(1)=7                  
 INPUT CARD>         kstate(1)=1,1,1                                                        
 INPUT CARD>         wstate(1)=1,1,1                                                        
 INPUT CARD>         iwgt=0 thrwgt=-1.0 krot=.f. kszdoe=.f. knospn=.f.                      
 INPUT CARD>         thrde=-1.0 edshft=0.02 $end                                            
 INPUT CARD> $data                                                                          
 INPUT CARD> NH3+ 3 states calculation at NH3 structure.                                    
 INPUT CARD> c1                                                                             
 INPUT CARD>N 7.0 -0.03737350800000001 0.043602321000000006 -0.1693810082                   
 INPUT CARD>H 1.0 -0.427335779 0.9877260538000001 0.01724444009999998                       
 INPUT CARD>H 1.0 0.1076414280000001 -1.0827648378 0.3372947531                             
 INPUT CARD>H 1.0 0.839009288 -0.510830196 0.4148464531                                     
 INPUT CARD>$end                                                                            
 INPUT CARD>--- OPTIMIZED RHF      MO-S --- GENERATED AT Mon Nov 14 16:47:08 2022           
 INPUT CARD>E=      -56.3825050291, E(NUC)=   11.8429239490                                 
 INPUT CARD> $VEC                                                                           
 INPUT CARD> 1  1-1.00134066E+00-2.25158504E-03 3.44925845E-03 0.00000000E+00 0.00000000E+00
 INPUT CARD> 1  2-2.13170927E-03 0.00000000E+00 0.00000000E+00 6.57129898E-04-6.87950443E-05
 INPUT CARD> 1  3-6.87950443E-05 1.37590089E-04 0.00000000E+00 0.00000000E+00 0.00000000E+00
 INPUT CARD> 1  4 3.25502815E-04-4.84772356E-04 3.62525460E-04-6.27912517E-04-3.45956485E-04
 INPUT CARD> 1  5 3.25502815E-04-4.84772356E-04 3.62525460E-04 6.27912517E-04-3.45956485E-04
 INPUT CARD> 1  6 3.25502815E-04-4.84772356E-04-7.25050921E-04 0.00000000E+00-3.45956485E-04
 INPUT CARD> 2  1 1.31286642E-02-4.05911371E-01-2.82090992E-01 0.00000000E+00 0.00000000E+00
 INPUT CARD> 2  2-7.71489043E-02 0.00000000E+00 0.00000000E+00 9.73717494E-03 6.62450916E-04
 INPUT CARD> 2  3 6.62450916E-04-1.32490183E-03 0.00000000E+00 0.00000000E+00 0.00000000E+00
 INPUT CARD> 2  4-1.96090317E-01-1.96656153E-02-1.74855877E-02 3.02859263E-02 8.68214399E-03
 INPUT CARD> 2  5-1.96090317E-01-1.96656153E-02-1.74855877E-02-3.02859263E-02 8.68214399E-03
 INPUT CARD> 2  6-1.96090317E-01-1.96656153E-02 3.49711754E-02 0.00000000E+00 8.68214399E-03
 INPUT CARD> 3  1 0.00000000E+00 0.00000000E+00 0.00000000E+00 4.48608762E-01 0.00000000E+00
 INPUT CARD> 3  2 0.00000000E+00 2.18692520E-01 0.00000000E+00 0.00000000E+00 1.30198027E-02
 INPUT CARD> 3  3-1.30198027E-02 0.00000000E+00 0.00000000E+00 2.71832968E-02 0.00000000E+00
 INPUT CARD> 3  4-1.85332726E-01-7.03958951E-02 8.47929477E-03 1.95242443E-02 8.32835058E-03
 INPUT CARD> 3  5-1.85332726E-01-7.03958951E-02 8.47929477E-03-1.95242443E-02 8.32835058E-03
 INPUT CARD> 3  6 3.70665453E-01 1.40791790E-01-2.53376884E-02 0.00000000E+00-1.66567012E-02
 INPUT CARD> 4  1 0.00000000E+00 0.00000000E+00 0.00000000E+00 0.00000000E+00 4.48608762E-01
 INPUT CARD> 4  2 0.00000000E+00 0.00000000E+00 2.18692520E-01 0.00000000E+00 0.00000000E+00
 INPUT CARD> 4  3 0.00000000E+00 0.00000000E+00-1.50339731E-02 0.00000000E+00 2.71832968E-02
 INPUT CARD> 4  4 3.21005698E-01 1.21929267E-01 1.95242443E-02-1.40653607E-02-1.44251263E-02
  100000000 WORDS OF MEMORY AVAILABLE

     BASIS OPTIONS
     -------------
     GBASIS=CCD          IGAUSS=       0      POLAR=NONE    
     NDFUNC=       0     NFFUNC=       0     DIFFSP=       F
     NPFUNC=       0      DIFFS=       F     BASNAM=        


     RUN TITLE
     ---------
  NH3+ 3 states calculation at NH3 structure.                                    

 THE POINT GROUP OF THE MOLECULE IS C1      
 THE ORDER OF THE PRINCIPAL AXIS IS     0

 ATOM      ATOMIC                      COORDINATES (BOHR)
           CHARGE         X                   Y                   Z
 N           7.0    -0.0706256893        0.0823964391       -0.3200836930
 H           1.0    -0.8075475271        1.8665315926        0.0325872666
 H           1.0     0.2034128038       -2.0461288526        0.6373946605
 H           1.0     1.5854976555       -0.9653290967        0.7839461233

          INTERNUCLEAR DISTANCES (ANGS.)
          ------------------------------

                1 N          2 H          3 H          4 H     

   1 N       0.0000000    1.0383974 *  1.2435645 *  1.1902789 *
   2 H       1.0383974 *  0.0000000    2.1623056 *  2.0018462 *
   3 H       1.2435645 *  2.1623056 *  0.0000000    0.9316772 *
   4 H       1.1902789 *  2.0018462 *  0.9316772 *  0.0000000  

  * ... LESS THAN  3.000


     ATOMIC BASIS SET
     ----------------
 THE CONTRACTED PRIMITIVE FUNCTIONS HAVE BEEN UNNORMALIZED
 THE CONTRACTED BASIS FUNCTIONS ARE NOW NORMALIZED TO UNITY

  SHELL TYPE  PRIMITIVE        EXPONENT          CONTRACTION COEFFICIENT(S)

 N         

      1   S       1          9046.0000000    0.000699617413
      1   S       2          1357.0000000    0.005386054630
      1   S       3           309.3000000    0.027391021189
      1   S       4            87.7300000    0.103150591982
      1   S       5            28.5600000    0.278570663317
      1   S       6            10.2100000    0.448294849454
      1   S       7             3.8380000    0.278085928395
      1   S       8             0.7466000    0.015431561233

      2   S       9          9046.0000000   -0.000304990096
      2   S      10          1357.0000000   -0.002408026379
      2   S      11           309.3000000   -0.011944448725
      2   S      12            87.7300000   -0.048925992909
      2   S      13            28.5600000   -0.134472724725
      2   S      14            10.2100000   -0.315112577700
      2   S      15             3.8380000   -0.242857832550
      2   S      16             0.7466000    1.094382206854

      3   S      17             0.2248000    1.000000000000

      4   P      18            13.5500000    0.058905676772
      4   P      19             2.9170000    0.320461106714
      4   P      20             0.7973000    0.753042061792

      5   P      21             0.2185000    1.000000000000

      6   D      22             0.8170000    1.000000000000

 H         

      7   S      23            13.0100000    0.033498726390
      7   S      24             1.9620000    0.234800801174
      7   S      25             0.4446000    0.813682957883

      8   S      26             0.1220000    1.000000000000

      9   P      27             0.7270000    1.000000000000

 H         

     10   S      28            13.0100000    0.033498726390
     10   S      29             1.9620000    0.234800801174
     10   S      30             0.4446000    0.813682957883

     11   S      31             0.1220000    1.000000000000

     12   P      32             0.7270000    1.000000000000

 H         

     13   S      33            13.0100000    0.033498726390
     13   S      34             1.9620000    0.234800801174
     13   S      35             0.4446000    0.813682957883

     14   S      36             0.1220000    1.000000000000

     15   P      37             0.7270000    1.000000000000

 TOTAL NUMBER OF BASIS SET SHELLS             =   15
 NUMBER OF CARTESIAN GAUSSIAN BASIS FUNCTIONS =   30
 NOTE: THIS RUN WILL RESTRICT THE MO VARIATION SPACE TO SPHERICAL HARMONICS.
 THE NUMBER OF ORBITALS KEPT IN THE VARIATIONAL SPACE WILL BE PRINTED LATER.
 NUMBER OF ELECTRONS                          =    9
 CHARGE OF MOLECULE                           =    1
 SPIN MULTIPLICITY                            =    2
 NUMBER OF OCCUPIED ORBITALS (ALPHA)          =    5
 NUMBER OF OCCUPIED ORBITALS (BETA )          =    4
 TOTAL NUMBER OF ATOMS                        =    4
 THE NUCLEAR REPULSION ENERGY IS       10.7351293160

     $CONTRL OPTIONS
     ---------------
 SCFTYP=MCSCF        RUNTYP=ENERGY       EXETYP=RUN     
 MPLEVL=       2     CITYP =NONE         CCTYP =NONE         VBTYP =NONE    
 DFTTYP=NONE         TDDFT =NONE    
 MULT  =       2     ICHARG=       1     NZVAR =       0     COORD =UNIQUE  
 PP    =NONE         RELWFN=NONE         LOCAL =NONE         NUMGRD=       F
 ISPHER=       1     NOSYM =       1     MAXIT =     200     UNITS =ANGS    
 PLTORB=       F     MOLPLT=       F     AIMPAC=       F     FRIEND=        
 NPRINT=       7     IREST =       0     GEOM  =INPUT   
 NORMF =       0     NORMP =       0     ITOL  =      20     ICUT  =       9
 INTTYP=RYSQUAD      GRDTYP=BEST         QMTTOL= 1.0E-05

     $SYSTEM OPTIONS
     ---------------
  REPLICATED MEMORY=   100000000 WORDS (ON EVERY NODE).
 DISTRIBUTED MEMDDI=        1000 MILLION WORDS IN AGGREGATE,
 MEMDDI DISTRIBUTED OVER   1 PROCESSORS IS  1000000000 WORDS/PROCESSOR.
 TOTAL MEMORY REQUESTED ON EACH PROCESSOR=  1100000000 WORDS.
 TIMLIM=      525600.00 MINUTES, OR     365.0 DAYS.
 PARALL= T  BALTYP=  DLB     KDIAG=    3  COREFL= F
 MXSEQ2=     300 MXSEQ3=     150  mem10=         0

          ----------------
          PROPERTIES INPUT
          ----------------

     MOMENTS            FIELD           POTENTIAL          DENSITY
 IEMOM =       1   IEFLD =       0   IEPOT =       0   IEDEN =       0
 WHERE =COMASS     WHERE =NUCLEI     WHERE =NUCLEI     WHERE =NUCLEI  
 OUTPUT=BOTH       OUTPUT=BOTH       OUTPUT=BOTH       OUTPUT=BOTH    
 IEMINT=       0   IEFINT=       0                     IEDINT=       0
                                                       MORB  =       0

     -------------------------------
     INTEGRAL TRANSFORMATION OPTIONS
     -------------------------------
     NWORD  =            0
     CUTOFF = 1.0E-09     MPTRAN =       0
     DIRTRF =       T     AOINTS =DUP     

          ----------------------
          MCSCF INPUT PARAMETERS
          ----------------------
 CONVERGER SELECTION: FOCAS = F  SOSCF = F  FULLNR = T  QUD = F  JACOBI = F
 SECULAR EQUATION METHOD CISTEP = GMCCI   
 --- GENERAL INPUT OPTIONS:
 MAXIT =     100  MICIT =       1  ACURCY= 1.000E-06
 DAMP  =   0.000  CANONC=       T  ENGTOL= 1.000E-10
 EKT   =       F  NPUNCH=       2  NWORD =         0
 REGENERATE CI AFTER CONVERGENCE = NONE    
 DIABATIZATION AFTER CONVERGENCE =        F
 --- INPUT FOR FULLNR CONVERGER:
 METHOD=DM2       FORS  =       F  DROPC =       T
 LINSER=       F  FCORE =       F  NORB  =      30

          ----------------------
          INTEGRAL INPUT OPTIONS
          ----------------------
 NOPK  =       1 NORDER=       0 SCHWRZ=       T

 ------------------------------------------
 MULTIREFERENCE PERTURBATION THEORY CONTROL
 ------------------------------------------
 MRPT=GMCPT    READ CONVERGED MCSCF VECTORS= F


     ------------------------------------------
     THE POINT GROUP IS C1 , NAXIS= 1, ORDER= 1
     ------------------------------------------

 -- VARIATIONAL SPACE WILL BE RESTRICTED TO PURE SPHERICAL HARMONICS ONLY --
 AFTER EXCLUDING CONTAMINANT COMBINATIONS FROM THE CARTESIAN GAUSSIAN BASIS
 SET, THE NUMBER OF SPHERICAL HARMONICS KEPT IN THE VARIATION SPACE IS   29

     DIMENSIONS OF THE SYMMETRY SUBSPACES ARE
 A   =   29

 ..... DONE SETTING UP THE RUN .....
 CPU     0: STEP CPU TIME=     0.04 TOTAL CPU TIME=          0.0 (      0.0 MIN)
 TOTAL WALL CLOCK TIME=          0.0 SECONDS, CPU UTILIZATION IS   100.00%

          ********************
          1 ELECTRON INTEGRALS
          ********************
 TIME TO DO   DIPOLE INTEGRALS=      0.00
 ...... END OF ONE-ELECTRON INTEGRALS ......
 CPU     0: STEP CPU TIME=     0.00 TOTAL CPU TIME=          0.0 (      0.0 MIN)
 TOTAL WALL CLOCK TIME=          0.0 SECONDS, CPU UTILIZATION IS   100.00%

          -------------
          GUESS OPTIONS
          -------------
          GUESS =MOREAD            NORB  =      29          NORDER=       0
          MIX   =       F          PRTMO =       F          PUNMO =       F
          TOLZ  = 1.0E-08          TOLE  = 1.0E-05
          SYMDEN=       F          PURIFY=       T

 INITIAL GUESS ORBITALS GENERATED BY MOREAD   ROUTINE.

 STATISTICS FOR GENERATION OF SYMMETRY ORBITAL -Q- MATRIX
 NUMBER OF CARTESIAN ATOMIC ORBITALS=         30
 NUMBER OF SPHERICAL CONTAMINANTS DROPPED=     1
 NUMBER OF LINEARLY DEPENDENT MOS DROPPED=     0
 TOTAL NUMBER OF MOS IN VARIATION SPACE=      29
 ORBITAL PURIFICATION WILL OCCUR

 SYMMETRIES FOR INITIAL GUESS ORBITALS FOLLOW.   BOTH SET(S).
     5 ORBITALS ARE OCCUPIED (    1 CORE ORBITALS).
     1=A        2=A        3=A        4=A        5=A        6=A        7=A   
     8=A        9=A       10=A       11=A       12=A       13=A       14=A   
    15=A       16=A       17=A       18=A       19=A       20=A       21=A   
    22=A       23=A       24=A       25=A       26=A       27=A       28=A   
    29=A   
 ...... END OF INITIAL ORBITAL SELECTION ......
 CPU     0: STEP CPU TIME=     0.00 TOTAL CPU TIME=          0.0 (      0.0 MIN)
 TOTAL WALL CLOCK TIME=          0.1 SECONDS, CPU UTILIZATION IS    80.00%

                    ----------------------
                    AO INTEGRAL TECHNOLOGY
                    ----------------------
     S,P,L SHELL ROTATED AXIS INTEGRALS, REPROGRAMMED BY
        KAZUYA ISHIMURA (IMS) AND JOSE SIERRA (SYNSTAR).
     S,P,D,L SHELL ROTATED AXIS INTEGRALS PROGRAMMED BY
        KAZUYA ISHIMURA (INSTITUTE FOR MOLECULAR SCIENCE).
     S,P,D,F,G SHELL TO TOTAL QUARTET ANGULAR MOMENTUM SUM 5,
        ERIC PROGRAM BY GRAHAM FLETCHER (ELORET AND NASA ADVANCED
        SUPERCOMPUTING DIVISION, AMES RESEARCH CENTER).
     S,P,D,F,G,L SHELL GENERAL RYS QUADRATURE PROGRAMMED BY
        MICHEL DUPUIS (PACIFIC NORTHWEST NATIONAL LABORATORY).

          --------------------
          2 ELECTRON INTEGRALS
          --------------------

 DIRECT SCF METHOD SKIPS INTEGRAL STORAGE ON DISK.
 DIRECT TRANSFORMATION SKIPS AO INTEGRAL STORAGE ON DISK.
  ...... END OF TWO-ELECTRON INTEGRALS .....
 STEP CPU TIME =     0.03 TOTAL CPU TIME =          0.1 (      0.0 MIN)
 TOTAL WALL CLOCK TIME=          0.1 SECONDS, CPU UTILIZATION IS   100.00%
 DDI: Creating Array [0] - 900 x 36 = 32400 words.
 DDI: Creating Array [1] - 21 x 288 = 6048 words.
 DDI: Creating Array [2] - 36 x 36 = 1296 words.
 DDI: Creating Array [3] - 465 x 36 = 16740 words.

          -----------------
          MCSCF CALCULATION
          -----------------

 ----- NUCLEAR ENERGY ----- =        10.7351293160

     -------------------------------------------------
     GMC-PT/GMC-QDPT or general MCSCF input parameters
     -------------------------------------------------
 # of frozen core orbs. =         0 ->         0
 # of doubly occ. orbs. =         1
 # of active      orbs. =         7
 # of virtual     orbs. =        21
 # of active electrons  =         7
 # of states in CI      =         3
 Highest state in CI    =         3
 kstate =  1 1 1
 avecoe =  0.333 0.333 0.333
 State symmetry           = A           
 Assigned symmetry number = 1

 <<<Act. MO sym.: 1111111

 <<<Division of 1-ext.:  0
 <<<Division of 2-ext.:  0

 *** Reference space

 Reference type: ORMAS (= Occupation restricted multiple active space)
 # of orbitals          =  7
 # of minimum electrons =  7
 # of maximum electrons =  7
 State symmetry    =    1 (input)
 2*Sz              =    1 (input)
 Spin multiplicity =    2 (input)
 Dimension of reference space =      1225  (from      3432 walks)

 Dimension of reference space =      1225  (from      1225 walks)

 <<<Ionized spaces for Ref-CI:
      0:         1225 /   -1-0:         1960 /  0-1-0:         2891

 EVALUATING EXCHANGE INTEGRALS FOR DIRECT INTEGRAL TRANSFORMATION
 SCHWARZ INEQUALITY OVERHEAD:       465 INTEGRALS, T=        0.00

     --------------------------------------------
     PARTIAL TWO ELECTRON INTEGRAL TRANSFORMATION
     --------------------------------------------

 NUMBER OF CORE MOLECULAR ORBITALS     =    1
 NUMBER OF OCCUPIED MOLECULAR ORBITALS =    8
 TOTAL NUMBER OF MOLECULAR ORBITALS    =   29
 TOTAL NUMBER OF ATOMIC ORBITALS       =   30
 THRESHOLD FOR KEEPING TRANSFORMED 2E- INTEGRALS = 1.000E-09

 -------------------------------     ------------------------------
 DISTRIBUTED DATA TRANSFORMATION     PROGRAM WRITTEN BY G. FLETCHER
 -------------------------------     ------------------------------

 THE DISTRIBUTED MEMORY REQUIRED FOR THIS STEP IS MEMDDI=         1 MWORDS
 CREATING DISTRIBUTED STORAGE FOR [VIR OCC|VIR OCC] INTEGRALS
 CREATING DISTRIBUTED STORAGE FOR [VIR OCC|OCC OCC] INTEGRALS
 CREATING DISTRIBUTED STORAGE FOR [OCC OCC|OCC OCC] INTEGRALS
 CREATING DISTRIBUTED STORAGE FOR [VIR VIR|OCC OCC] INTEGRALS
 FOR    1 PROCESSORS, THE REPLICATED MEMORY NEEDED IS       73700 WORDS.
 SCHWARZ INEQUALITY OVERHEAD:       465 INTEGRALS, T=        0.00

      DIRECT 4-INDEX TRANSFORMATION 
      SCHWARZ INEQUALITY TEST SKIPPED          0 INTEGRAL BLOCKS
 ----- FROZEN CORE ENERGY =       -47.4912986127
 ... END OF INTEGRAL TRANSFORMATION ...
 CPU     0: STEP CPU TIME=     0.21 TOTAL CPU TIME=          0.3 (      0.0 MIN)
 TOTAL WALL CLOCK TIME=          0.3 SECONDS, CPU UTILIZATION IS    96.55%

     --------------------------------     -----------------------------
     MCHF NEWTON-RAPHSON OPTIMIZATION     CODE WRITTEN BY MICHEL DUPUIS
     --------------------------------     -----------------------------
     PARALLEL VERSION WRITTEN BY G. FLETCHER (ELORET)
     NASA ADVANCED SUPERCOMPUTING DIVISION, AMES RESEARCH CENTER

 NUMBER OF INDEPENDENT ORBITAL ROTATION PARAMETERS =   175
 ..... DONE SOLVING NEWTON-RAPHSON EQUATIONS .....
 CPU     0: STEP CPU TIME=     0.90 TOTAL CPU TIME=          1.2 (      0.0 MIN)
 TOTAL WALL CLOCK TIME=          1.2 SECONDS, CPU UTILIZATION IS    99.16%
 ..... DONE WITH NTN-RPH ORBITAL ROTATIONS ..... 
 CPU     0: STEP CPU TIME=     0.00 TOTAL CPU TIME=          1.2 (      0.0 MIN)
 TOTAL WALL CLOCK TIME=          1.2 SECONDS, CPU UTILIZATION IS    99.16%
 MAXIMUM MEMORY USED BY NTN-RPH CODE WAS     57645 WORDS.

 ITER     TOTAL ENERGY      DEL(E)  LAGRANGIAN ASYMMETRY   SQCDF  MICIT   DAMP
   1      -55.495682018 -0.495682018  0.137674    9    3 8.224E-02  1   0.0000
   2      -55.591217378 -0.095535359  0.056644   13    3 2.129E-01  1   0.0000
   3      -55.637006664 -0.045789286  0.016225   11    6 2.976E-01  1   0.0168
   4      -55.657289308 -0.020282644  0.007239   13    7 8.154E-02  1   0.0072
   5      -55.661643250 -0.004353942  0.002579   25    6 3.457E-03  1   0.0000
   6      -55.661909644 -0.000266394  0.001544   25    6 5.060E-04  1   0.0000
   7      -55.661973121 -0.000063477  0.000866   25    6 1.713E-04  1   0.0000
   8      -55.661995884 -0.000022763  0.000504   25    6 6.384E-05  1   0.0000
   9      -55.662004494 -0.000008610  0.000301   25    6 2.462E-05  1   0.0000
  10      -55.662007819 -0.000003325  0.000182   25    6 9.684E-06  1   0.0000
  11      -55.662009119 -0.000001300  0.000112   25    6 3.854E-06  1   0.0000
  12      -55.662009631 -0.000000512  0.000069   25    6 1.544E-06  1   0.0000
  13      -55.662009834 -0.000000203  0.000043   25    6 6.209E-07  1   0.0000
  14      -55.662009915 -0.000000081  0.000027   25    6 2.499E-07  1   0.0000
  15      -55.662009947 -0.000000032  0.000017   25    6 1.006E-07  1   0.0000
  16      -55.662009960 -0.000000013  0.000010   25    6 4.052E-08  1   0.0000
  17      -55.662009965 -0.000000005  0.000007   25    6 1.631E-08  1   0.0000
  18      -55.662009967 -0.000000002  0.000004   25    6 6.547E-09  1   0.0000
  19      -55.662009968 -0.000000001  0.000003   25    6 2.625E-09  1   0.0000
  20      -55.662009968 -0.000000000  0.000002   25    6 1.059E-09  1   0.0000
  21      -55.662009968 -0.000000000  0.000001   25    6 4.179E-10  1   0.0000
  22      -55.662009968 -0.000000000  0.000001   25    6 1.740E-10  1   0.0000

          --------------------
          LAGRANGIAN CONVERGED
          --------------------

 FINAL MCSCF ENERGY IS      -55.6620099682 AFTER  22 ITERATIONS

 -MCCI- BASED ON OPTIMIZED ORBITALS
 ----------------------------------

 PLEASE NOTE: IF THE ACTIVE ORBITALS ARE CANONICALIZED BELOW,
 THE FOLLOWING CI EXPANSION COEFFICIENTS AND THE DENSITY DO NOT
 CORRESPOND TO THE PRINTED ORBITALS.  THE PRINTED EXPANSIONS MATCH
 THE ORBITALS USED DURING THE LAST ITERATION.  IF YOU WISH TO SEE
 CI EXPANSIONS BASED ON THE CANONICAL (OR NATURAL) ORBITALS, YOU
 MUST RUN A CI CALCULATION WITH THAT ORBITAL CHOICE READ IN $VEC.

 Averaged energy =     -55.662009968

 State #    1  Energy =     -55.764548479  S =  0.500

      Det      Coef    Occupancy (Ignoring core)
      ---      ----    --------- --------- -----
        1    0.897912  11110001110000
        5   -0.064929  01111001110000
        8   -0.145324  10110101110000
       17   -0.123615  11010011110000
       71   -0.277978  11110001011000
      176    0.054031  11110001010100
      386    0.100545  11110001010010
      393    0.058883  10110101010010
      701    0.100447  11110001100001

 State #    2  Energy =     -55.712077010  S =  0.500

      Det      Coef    Occupancy (Ignoring core)
      ---      ----    --------- --------- -----
        1   -0.236598  11110001110000
       36    0.556243  11110001101000
       43   -0.076771  10110101101000
       52   -0.066520  11010011101000
       71   -0.722960  11110001011000
       74    0.072390  10111001011000
       75    0.055807  01111001011000
       78    0.100508  10110101011000
       87    0.088016  11010011011000
      246    0.068291  11110001001100
      386   -0.067865  11110001010010
      456    0.055036  11110001001010
      806    0.055925  11110001001001

 State #    3  Energy =     -55.509404416  S =  0.500

      Det      Coef    Occupancy (Ignoring core)
      ---      ----    --------- --------- -----
        2    0.316718  11101001110000
        3   -0.111540  11011001110000
        4    0.105307  10111001110000
       11   -0.072524  10101101110000
       16   -0.111371  11100011110000
       20   -0.052030  11001011110000
       36    0.060225  11110001101000
       37    0.241348  11101001101000
       38   -0.088070  11011001101000
       51   -0.105518  11100011101000
       71   -0.082320  11110001011000
       72   -0.389779  11101001011000
       73    0.124497  11011001011000
       81    0.090023  10101101011000
       86    0.127141  11100011011000
       90    0.062607  11001011011000
      107   -0.060383  11101000111000
      141    0.352888  11110001100100
      148   -0.080676  10110101100100
      157   -0.084835  11010011100100
      176   -0.495086  11110001010100
      180    0.061958  01111001010100
      183    0.120047  10110101010100
      192    0.109126  11010011010100
      246    0.119342  11110001001100
      387    0.057576  11101001010010
      701   -0.133173  11110001100001
      702    0.061601  11101001100001
      736    0.171709  11110001010001
      807    0.067186  11101001001001
      911    0.055318  11110001000101

 DENSITY MATRIX OVER ACTIVE MO-S

             1           2           3           4           5

    1    1.9732824
    2    0.0247730   1.5210991
    3    0.0197747  -0.2890548   1.7194184
    4    0.0066727   0.0873659  -0.0698933   1.3048287
    5    0.1005539  -0.0767520   0.0567785  -0.0309494   0.3333701
    6    0.0011040  -0.2135732  -0.0125732   0.0401619   0.0044703
    7   -0.0094073   0.0179181   0.1986201   0.0148451  -0.1089029

             6           7

    6    0.0590151
    7   -0.0097414   0.0889862

 FORMING THE "STANDARD FOCK OPERATOR" IN DIRECT AO INTEGRAL MODE...
 ONLY THE    1 CORE AND   21 VIRTUAL ORBITALS WILL BE CANONICALIZED

          ----------------------
          MCSCF NATURAL ORBITALS
          ----------------------

                      1          2          3          4          5
                  -16.0138     1.9824     1.9644     1.3635     1.2817
                     A          A          A          A          A   
    1  N  1  S    1.000945   0.012892   0.000188  -0.007673  -0.010769
    2  N  1  S   -0.002841   0.446512  -0.031930  -0.107732  -0.158720
    3  N  1  S   -0.007175   0.363643   0.008993  -0.140045  -0.224635
    4  N  1  X    0.001001  -0.024556  -0.200899   0.470561  -0.279583
    5  N  1  Y   -0.001871   0.110066   0.360637   0.323180   0.037879
    6  N  1  Z    0.000585   0.066149  -0.089538   0.184760   0.550026
    7  N  1  X    0.000110  -0.006518  -0.066490   0.286251  -0.179054
    8  N  1  Y   -0.000461   0.033285   0.115103   0.197970   0.024418
    9  N  1  Z   -0.000428   0.026087  -0.030659   0.114412   0.358513
   10  N  1 XX   -0.000084  -0.002716  -0.000862   0.008283  -0.012435
   11  N  1 YY    0.000313   0.005478   0.002993  -0.008658   0.001161
   12  N  1 ZZ   -0.000228  -0.002763  -0.002131   0.000375   0.011273
   13  N  1 XY   -0.000329  -0.004620   0.002780  -0.004868  -0.001624
   14  N  1 XZ    0.000072   0.000340  -0.007306   0.012487  -0.003261
   15  N  1 YZ   -0.000094   0.000985   0.012097   0.004577  -0.006321
   16  H  2  S   -0.003422   0.261178   0.259005   0.063543   0.124842
   17  H  2  S    0.000541   0.009770   0.034339   0.008668   0.023035
   18  H  2  X   -0.000368   0.016426   0.008972   0.018308  -0.001822
   19  H  2  Y    0.000927  -0.036979  -0.025608   0.000051  -0.014813
   20  H  2  Z    0.000275  -0.004952  -0.009091   0.004416   0.014617
   21  H  3  S   -0.000071   0.074385  -0.291388  -0.135956   0.144038
   22  H  3  S    0.000351  -0.010395  -0.040937  -0.088202   0.061949
   23  H  3  X    0.000028  -0.001525  -0.008649   0.016232  -0.005006
   24  H  3  Y   -0.000389   0.016728  -0.033365  -0.013953   0.015162
   25  H  3  Z    0.000213  -0.004219   0.011421   0.014067   0.012365
   26  H  4  S   -0.000269   0.108565  -0.307115   0.230215   0.038045
   27  H  4  S    0.000402  -0.000308  -0.035114   0.108457  -0.000088
   28  H  4  X    0.000451  -0.020201   0.033167  -0.012625  -0.012526
   29  H  4  Y   -0.000236   0.012893  -0.002512   0.022839  -0.003530
   30  H  4  Z    0.000293  -0.009384   0.017289  -0.009402   0.019941

                      6          7          8
                    0.3616     0.0263     0.0201
                     A          A          A   
    1  N  1  S    0.022591  -0.017761  -0.185707
    2  N  1  S    0.266777  -0.068285  -0.550329
    3  N  1  S    0.583585  -0.017782   0.050422
    4  N  1  X    0.098015  -0.672459   0.248360
    5  N  1  Y   -0.295109  -0.114870  -0.780030
    6  N  1  Z    0.319091  -0.175605  -0.103437
    7  N  1  X    0.066710   0.086230   0.050961
    8  N  1  Y   -0.200692   0.072886  -0.063363
    9  N  1  Z    0.247709  -0.004081   0.021005
   10  N  1 XX    0.017250   0.026699  -0.008699
   11  N  1 YY   -0.030526  -0.053573   0.000502
   12  N  1 ZZ    0.013276   0.026875   0.008197
   13  N  1 XY    0.012529  -0.027845  -0.012712
   14  N  1 XZ   -0.006479   0.072176   0.025140
   15  N  1 YZ   -0.001378   0.037456  -0.001584
   16  H  2  S   -0.242141  -0.067712   0.872226
   17  H  2  S   -0.097213  -0.029986   0.142829
   18  H  2  X   -0.001131   0.011139   0.033463
   19  H  2  Y    0.001747   0.005088  -0.068911
   20  H  2  Z    0.019328   0.001322  -0.009727
   21  H  3  S   -0.497620  -0.459525  -0.195083
   22  H  3  S   -0.474031  -0.341129  -0.074133
   23  H  3  X   -0.034784   0.046527  -0.015899
   24  H  3  Y    0.028117  -0.019989   0.004222
   25  H  3  Z   -0.012976   0.019196  -0.013398
   26  H  4  S   -0.213811   0.758500  -0.016943
   27  H  4  S   -0.126818   0.312389   0.014561
   28  H  4  X   -0.003292  -0.028491  -0.003939
   29  H  4  Y    0.058649   0.039782   0.031802
   30  H  4  Z   -0.014982  -0.017962  -0.010733

          ------------------------
          MCSCF OPTIMIZED ORBITALS
          ------------------------

                      1          2          3          4          5
                  -16.0138     0.0000     0.0000     0.0000     0.0000
                     A          A          A          A          A   
    1  N  1  S    1.000945   0.008857   0.007266  -0.017948  -0.016765
    2  N  1  S   -0.002841   0.415798  -0.018457  -0.010229  -0.198253
    3  N  1  S   -0.007175   0.313568  -0.039503   0.053107  -0.248368
    4  N  1  X    0.001001   0.007400   0.450741   0.106872  -0.041449
    5  N  1  Y   -0.001871  -0.003431   0.012257   0.397788   0.055764
    6  N  1  Z    0.000585   0.063053  -0.014729  -0.000273   0.596394
    7  N  1  X    0.000110  -0.003518   0.319417   0.145484  -0.059547
    8  N  1  Y   -0.000461   0.002365   0.063680   0.205044   0.059067
    9  N  1  Z   -0.000428   0.016085  -0.014994   0.031782   0.383508
   10  N  1 XX   -0.000084  -0.003852   0.016540   0.006627  -0.009013
   11  N  1 YY    0.000313   0.006455  -0.018504  -0.007204  -0.001869
   12  N  1 ZZ   -0.000228  -0.002603   0.001964   0.000577   0.010882
   13  N  1 XY   -0.000329  -0.006033  -0.006030  -0.005125  -0.002493
   14  N  1 XZ    0.000072   0.002818   0.022038   0.010796   0.000565
   15  N  1 YZ   -0.000094  -0.002581   0.003665   0.015720  -0.007441
   16  H  2  S   -0.003422   0.198004  -0.260009   0.354074   0.105214
   17  H  2  S    0.000541   0.006824  -0.042388   0.039000   0.020143
   18  H  2  X   -0.000368   0.012821   0.005852   0.025829   0.002957
   19  H  2  Y    0.000927  -0.028940   0.029735  -0.033117  -0.010408
   20  H  2  Z    0.000275  -0.003512   0.005943  -0.006823   0.016954
   21  H  3  S   -0.000071   0.188373  -0.078071  -0.364483   0.122617
   22  H  3  S    0.000351   0.033228  -0.135240  -0.141036   0.027291
   23  H  3  X    0.000028   0.002432   0.023437   0.004859  -0.000818
   24  H  3  Y   -0.000389   0.024498   0.000290  -0.030867   0.015608
   25  H  3  Z    0.000213  -0.007121   0.002392   0.015010   0.013190
   26  H  4  S   -0.000269   0.198059   0.400998  -0.009600   0.125299
   27  H  4  S    0.000402   0.014280   0.130680   0.063405   0.028355
   28  H  4  X    0.000451  -0.028311  -0.024613   0.010309  -0.019580
   29  H  4  Y   -0.000236   0.008933   0.024815   0.023233   0.005858
   30  H  4  Z    0.000293  -0.012672  -0.025100   0.000507   0.012807

                      6          7          8          9         10
                    0.0000     0.0000     0.0000     0.1539     0.2094
                     A          A          A          A          A   
    1  N  1  S    0.081694  -0.078933   0.148375   0.048834   0.036568
    2  N  1  S    0.464455  -0.217845   0.374264   0.091492   0.037774
    3  N  1  S    0.566838   0.052662  -0.239477  -0.725919  -0.455063
    4  N  1  X    0.099791   0.788215   0.128243   0.060871  -0.064400
    5  N  1  Y   -0.015232  -0.293370   0.842010  -0.038852   0.178588
    6  N  1  Z    0.349287   0.076800   0.068079   0.074773  -0.014762
    7  N  1  X    0.017001   0.007154  -0.076521  -0.154611   0.380566
    8  N  1  Y   -0.183567  -0.084609   0.115330  -0.085804  -0.721505
    9  N  1  Z    0.219388   0.000421  -0.091413  -0.067529   0.031402
   10  N  1 XX    0.013696  -0.024484  -0.010808   0.020440   0.026089
   11  N  1 YY   -0.018752   0.043639   0.034958  -0.065105  -0.062208
   12  N  1 ZZ    0.005056  -0.019155  -0.024151   0.044664   0.036118
   13  N  1 XY    0.020216   0.016877   0.018724   0.082958   0.034188
   14  N  1 XZ   -0.026576  -0.046337  -0.051376  -0.036211   0.038246
   15  N  1 YZ   -0.006808  -0.032109  -0.014686   0.028309  -0.069292
   16  H  2  S   -0.454900   0.473693  -0.551678  -0.446493  -0.469943
   17  H  2  S   -0.127648   0.092787  -0.062900   0.736442   1.854031
   18  H  2  X   -0.012426   0.009103  -0.028673   0.039750   0.048216
   19  H  2  Y    0.018181  -0.036041   0.049639  -0.068650  -0.130435
   20  H  2  Z    0.019830  -0.005950   0.000153   0.027753  -0.052748
   21  H  3  S   -0.326790   0.265585   0.509635  -0.486326   0.246083
   22  H  3  S   -0.361000   0.227757   0.371143   0.221809  -0.440085
   23  H  3  X   -0.036605  -0.045394   0.003623  -0.072301   0.038720
   24  H  3  Y    0.029017   0.018275  -0.007279   0.019408  -0.031821
   25  H  3  Z   -0.011923  -0.023450   0.008222  -0.008742   0.059364
   26  H  4  S   -0.335157  -0.617117  -0.269989  -0.533469   0.271967
   27  H  4  S   -0.181545  -0.245435  -0.107589   1.133044  -0.865254
   28  H  4  X    0.003192   0.020218   0.018617  -0.028702   0.021767
   29  H  4  Y    0.038225  -0.013388  -0.061889   0.079538  -0.032569
   30  H  4  Z   -0.007473   0.005693   0.022185  -0.017048   0.054102

                     11         12         13         14         15
                    0.3071     0.5699     0.5789     0.6669     0.8793
                     A          A          A          A          A   
    1  N  1  S   -0.017126  -0.047701  -0.020302  -0.014178  -0.674682
    2  N  1  S   -0.030121  -0.047497   0.005479  -0.056461  -1.496383
    3  N  1  S    0.061259   0.564495   0.243339   0.056338   2.550986
    4  N  1  X   -0.018597   0.264941  -0.653723  -0.124603  -0.036399
    5  N  1  Y   -0.061842  -0.149215  -0.225561  -0.413548   0.238692
    6  N  1  Z   -0.010782  -0.725770  -0.239991   0.466766   0.103115
    7  N  1  X    0.322643  -0.539672   1.340089  -0.234139   0.125470
    8  N  1  Y    0.352243   0.708641   0.110193   1.549534  -0.341513
    9  N  1  Z    0.079045   0.805322   0.500883  -0.744471   0.078090
   10  N  1 XX    0.060112  -0.025579  -0.034443  -0.040991  -0.018237
   11  N  1 YY   -0.076036   0.002157   0.028874  -0.004100  -0.012218
   12  N  1 ZZ    0.015924   0.023422   0.005569   0.045091   0.030456
   13  N  1 XY   -0.027094   0.009516   0.035011   0.043496   0.053230
   14  N  1 XZ    0.046114   0.016638  -0.011125   0.026775   0.009794
   15  N  1 YZ    0.032344  -0.041876   0.015311  -0.088386   0.026612
   16  H  2  S   -0.114995  -0.484332   0.025031  -0.540979  -0.149273
   17  H  2  S    0.020507  -0.431222   0.186340  -0.499738  -0.530586
   18  H  2  X   -0.030407  -0.034576   0.086659  -0.003081   0.024195
   19  H  2  Y   -0.000342   0.136992   0.011647   0.121616   0.121268
   20  H  2  Z    0.007357  -0.047543   0.048400  -0.139545   0.154129
   21  H  3  S   -0.713928   0.143678   0.100247   0.449059  -0.047913
   22  H  3  S    2.453301  -0.121292   0.595259   0.504409  -0.481017
   23  H  3  X    0.111522  -0.062410  -0.071958  -0.094652  -0.137042
   24  H  3  Y    0.108485   0.029999  -0.046209   0.210979  -0.141265
   25  H  3  Z    0.009803   0.169251  -0.026409   0.088880   0.146615
   26  H  4  S    0.502631   0.050102  -0.545883   0.178249  -0.088514
   27  H  4  S   -2.223227   0.094072  -0.854022   0.038069  -0.340651
   28  H  4  X    0.132577  -0.056164   0.064003  -0.196933   0.141627
   29  H  4  Y    0.114754   0.040139  -0.100658   0.088604   0.063844
   30  H  4  Z    0.021463   0.146399   0.068808   0.089481   0.203189

                     16         17         18         19         20
                    1.0838     1.1453     1.1952     1.3598     1.4664
                     A          A          A          A          A   
    1  N  1  S   -0.221743  -0.020972   0.046286   0.119387  -0.341293
    2  N  1  S   -0.464294  -0.004439   0.077996   0.253889  -0.766481
    3  N  1  S    1.017044   0.241978  -0.310865  -0.440684   0.884872
    4  N  1  X    0.013041   0.025040  -0.171923  -0.022297  -0.093408
    5  N  1  Y   -0.254982  -0.100914   0.146479  -0.067304   0.201064
    6  N  1  Z   -0.046495   0.076077  -0.025137   0.004753  -0.179448
    7  N  1  X   -0.301895   0.186385   0.675391  -0.063421   0.293649
    8  N  1  Y    1.256403   0.013398  -0.542566   0.195175  -0.270789
    9  N  1  Z    0.266050  -0.247753   0.013126  -0.197035   0.527839
   10  N  1 XX    0.198894  -0.106910   0.130004  -0.047595  -0.167469
   11  N  1 YY   -0.058362  -0.143371  -0.134509  -0.000524   0.054585
   12  N  1 ZZ   -0.140532   0.250281   0.004506   0.048119   0.112884
   13  N  1 XY   -0.059776  -0.156999  -0.125183  -0.002833  -0.168610
   14  N  1 XZ   -0.091808  -0.104380  -0.136012   0.344718  -0.003142
   15  N  1 YZ   -0.006539   0.084630  -0.122532   0.222731  -0.044553
   16  H  2  S   -0.757588   0.017852   0.410011  -0.002551  -0.125422
   17  H  2  S   -0.505505  -0.027949   0.229299   0.010472  -0.037782
   18  H  2  X   -0.322082  -0.208687  -0.634565  -0.190231  -0.113305
   19  H  2  Y   -0.093453  -0.151387  -0.198073  -0.099365  -0.101842
   20  H  2  Z    0.124261   0.487882  -0.254371   0.148239  -0.506163
   21  H  3  S    0.382349  -0.106153   0.021787   0.376394  -0.474615
   22  H  3  S    0.111012   0.031292  -0.014884  -0.105892   0.144120
   23  H  3  X    0.154743   0.349779  -0.277638   0.110879   0.349497
   24  H  3  Y   -0.227843  -0.031112   0.046434  -0.423888   0.182487
   25  H  3  Z   -0.254844   0.350044   0.350123  -0.394597  -0.431587
   26  H  4  S    0.007679  -0.230929  -0.213565   0.060360  -0.517745
   27  H  4  S   -0.089796  -0.037942  -0.097544   0.150006  -0.035526
   28  H  4  X    0.145149  -0.235644  -0.030444  -0.267592  -0.395102
   29  H  4  Y   -0.100938  -0.265669   0.273289   0.554858  -0.090330
   30  H  4  Z   -0.515632   0.203207  -0.025368   0.363836   0.120041

                     21         22         23         24         25
                    1.6047     1.6508     1.8700     1.8899     2.0858
                     A          A          A          A          A   
    1  N  1  S    0.081309  -0.036637  -0.023901   0.147172  -0.033571
    2  N  1  S    0.159437   0.053364  -0.017560   0.328116  -0.035582
    3  N  1  S   -0.303133   0.926306   0.102701   0.209859   0.466975
    4  N  1  X    0.141537   0.127633   0.114439  -0.195702   0.036237
    5  N  1  Y   -0.080972  -0.190663  -0.231645   0.463185   0.087653
    6  N  1  Z    0.009215   0.240447   0.050172   0.020915   0.050009
    7  N  1  X    0.102401   0.329589  -0.108676  -0.184639   0.399062
    8  N  1  Y    0.624448  -0.483330  -0.071374   0.190533   0.163940
    9  N  1  Z   -0.203415   0.425520   0.205385   0.060589   0.236271
   10  N  1 XX   -0.190542   0.130828  -0.582717  -0.142669  -0.332407
   11  N  1 YY    0.123268  -0.021829  -0.156210  -0.240708   0.202388
   12  N  1 ZZ    0.067274  -0.108999   0.738927   0.383377   0.130019
   13  N  1 XY    0.031096   0.148323  -0.416001   0.062882   0.327801
   14  N  1 XZ   -0.256053  -0.171667  -0.013957  -0.077589   0.697456
   15  N  1 YZ   -0.138812   0.034785   0.027511  -0.281722   0.322635
   16  H  2  S   -0.179600   0.067151  -0.046651  -0.078111  -0.122473
   17  H  2  S   -0.016481   0.019262   0.104047  -0.444638  -0.099121
   18  H  2  X   -0.326700  -0.199648   0.240683  -0.307597  -0.650230
   19  H  2  Y   -0.297761   0.226633  -0.138780   0.949890  -0.004416
   20  H  2  Z    0.274883  -0.572894  -0.336850   0.243032  -0.121493
   21  H  3  S    0.134905  -0.236539   0.053305  -0.002217  -0.042106
   22  H  3  S    0.448607  -0.283980  -0.211531   0.013785   0.237508
   23  H  3  X   -0.329547   0.358245  -0.165991   0.063634  -0.113908
   24  H  3  Y    0.304016  -0.558233  -0.347601  -0.018178   0.287895
   25  H  3  Z   -0.586307   0.065775   0.070273  -0.323628   0.134891
   26  H  4  S    0.403387  -0.243016   0.122103   0.026220  -0.274046
   27  H  4  S   -0.392615  -0.357250  -0.050603   0.171068  -0.319941
   28  H  4  X    0.293925   0.343021   0.340635  -0.065361   0.329305
   29  H  4  Y   -0.185143  -0.321855  -0.011720   0.042167  -0.491036
   30  H  4  Z    0.509139   0.520202  -0.228745  -0.173102  -0.190141

                     26         27         28         29
                    2.3613     2.5205     2.7000     2.9269
                     A          A          A          A   
    1  N  1  S    0.017875   0.138273   0.079272  -0.091670
    2  N  1  S    0.013912   0.256955   0.067526  -0.038674
    3  N  1  S   -0.252364  -0.091661  -1.060464   1.840120
    4  N  1  X    0.022343  -0.121345  -0.152697  -0.195734
    5  N  1  Y   -0.005236   0.348479  -0.052839   0.298119
    6  N  1  Z   -0.031253   0.022648  -0.144908   0.165086
    7  N  1  X   -0.151195  -0.518469  -0.446406  -0.226902
    8  N  1  Y   -0.177470   1.201826   0.196761   0.364565
    9  N  1  Z   -0.080039  -0.169538  -0.279666   0.243823
   10  N  1 XX   -0.415300   0.066661  -0.470579  -0.621709
   11  N  1 YY    0.354302   0.027182   0.239307   1.290498
   12  N  1 ZZ    0.060998  -0.093843   0.231272  -0.668789
   13  N  1 XY    0.330970  -0.327576   0.837510  -0.645201
   14  N  1 XZ   -0.181504  -0.439559  -0.594687  -0.049871
   15  N  1 YZ   -0.177836   1.052087   0.321964  -0.144928
   16  H  2  S    0.114873  -0.893253   0.227663  -1.347370
   17  H  2  S    0.095687  -0.414722   0.031357  -0.396412
   18  H  2  X   -0.084384  -0.166081  -0.138185  -0.502799
   19  H  2  Y   -0.185468   0.760581  -0.304082   0.953478
   20  H  2  Z    0.060027  -0.191445  -0.197674   0.360913
   21  H  3  S    0.760716   0.845912  -0.531550  -0.759828
   22  H  3  S    0.156045   0.377495  -0.184717  -0.202261
   23  H  3  X    1.157669   0.058877  -0.442186  -0.127351
   24  H  3  Y    0.471941   0.758962  -0.522134  -0.774832
   25  H  3  Z    0.282919  -0.152925   0.011507   0.373244
   26  H  4  S   -0.664946   0.083221   1.360112   0.238800
   27  H  4  S   -0.141726   0.022809   0.503331  -0.000151
   28  H  4  X    0.763980   0.130437  -1.168569  -0.209965
   29  H  4  Y    1.062869   0.351224   0.095490  -0.120410
   30  H  4  Z   -0.155303  -0.034124  -0.598694  -0.006590
 .....DONE WITH MCSCF ITERATIONS.....
 CPU     0: STEP CPU TIME=    14.76 TOTAL CPU TIME=         15.9 (      0.3 MIN)
 TOTAL WALL CLOCK TIME=         15.9 SECONDS, CPU UTILIZATION IS    99.94%

     ----------------------------------------------------------------
     PROPERTY VALUES FOR THE MCSCF SELF-CONSISTENT FIELD WAVEFUNCTION
     ----------------------------------------------------------------

          -----------------
          ENERGY COMPONENTS
          -----------------

         WAVEFUNCTION NORMALIZATION =       1.0000000000

                ONE ELECTRON ENERGY =     -92.8572628689
                TWO ELECTRON ENERGY =      26.4601235847
           NUCLEAR REPULSION ENERGY =      10.7351293160
                                      ------------------
                       TOTAL ENERGY =     -55.6620099682

 ELECTRON-ELECTRON POTENTIAL ENERGY =      26.4601235847
  NUCLEUS-ELECTRON POTENTIAL ENERGY =    -148.5718068962
   NUCLEUS-NUCLEUS POTENTIAL ENERGY =      10.7351293160
                                      ------------------
             TOTAL POTENTIAL ENERGY =    -111.3765539954
               TOTAL KINETIC ENERGY =      55.7145440273
                 VIRIAL RATIO (V/T) =       1.9990570854

          ---------------------------------------
          MULLIKEN AND LOWDIN POPULATION ANALYSES
          ---------------------------------------

     ATOMIC MULLIKEN POPULATION IN EACH MOLECULAR ORBITAL

                      1          2          3          4          5

                  2.000000   1.982377   1.964424   1.363531   1.281700

    1             2.000443   1.472493   0.852063   1.160641   1.188746
    2            -0.000423   0.372359   0.251832   0.013992   0.034663
    3             0.000004   0.044230   0.422029   0.065536   0.048029
    4            -0.000024   0.093294   0.438501   0.123362   0.010262

                      6          7          8

                  0.361584   0.026285   0.020099

    1             0.109034   0.010105   0.010144
    2             0.028620   0.000061   0.009340
    3             0.177261   0.004843   0.000537
    4             0.046670   0.011276   0.000079
 WARNING! MCSCF POPULATIONS SHOWN ABOVE ARE FOR THE NATURAL ORBITALS.
 IGNORE THE ABOVE DATA FOR MCSCF FUNCTIONS WHICH ARE NOT OF -FORS- TYPE.
 THE FOLLOWING POPULATIONS ARE CORRECT FOR ANY MCSCF WAVEFUNCTION.

               ----- POPULATIONS IN EACH AO -----
                             MULLIKEN      LOWDIN
              1  N  1  S      2.00206     1.90598
              2  N  1  S      0.84298     0.60618
              3  N  1  S      0.71060     0.41985
              4  N  1  X      0.71936     0.66346
              5  N  1  Y      0.72925     0.64106
              6  N  1  Z      0.69980     0.65906
              7  N  1  X      0.38543     0.44030
              8  N  1  Y      0.29393     0.43051
              9  N  1  Z      0.40779     0.43759
             10  N  1 XX      0.00064     0.16003
             11  N  1 YY      0.00387     0.18617
             12  N  1 ZZ      0.00203     0.15186
             13  N  1 XY      0.00264     0.00779
             14  N  1 XZ      0.00331     0.00557
             15  N  1 YZ      0.00000     0.00949
             16  H  2  S      0.62194     0.48716
             17  H  2  S      0.03532     0.16467
             18  H  2  X      0.01156     0.02985
             19  H  2  Y      0.03381     0.06766
             20  H  2  Z      0.00781     0.02346
             21  H  3  S      0.57380     0.42910
             22  H  3  S      0.13773     0.20198
             23  H  3  X      0.01121     0.03944
             24  H  3  Y      0.03125     0.06727
             25  H  3  Z      0.00847     0.02074
             26  H  4  S      0.59000     0.43505
             27  H  4  S      0.07292     0.17302
             28  H  4  X      0.02779     0.05424
             29  H  4  Y      0.01968     0.05431
             30  H  4  Z      0.01303     0.02716

          ----- MULLIKEN ATOMIC OVERLAP POPULATIONS -----
          (OFF-DIAGONAL ELEMENTS NEED TO BE MULTIPLIED BY 2)

             1           2           3           4

    1    6.3496930
    2    0.3116748   0.3945639
    3   -0.0027068   0.0058796   0.6252619
    4    0.1450081  -0.0016755   0.1340341   0.4460527

          TOTAL MULLIKEN AND LOWDIN ATOMIC POPULATIONS
       ATOM         MULL.POP.    CHARGE          LOW.POP.     CHARGE
    1 N             6.803669    0.196331         6.724899    0.275101
    2 H             0.710443    0.289557         0.772810    0.227190
    3 H             0.762469    0.237531         0.758517    0.241483
    4 H             0.723419    0.276581         0.743775    0.256225

          MULLIKEN SPHERICAL HARMONIC POPULATIONS
       ATOM           S       P       D      F      G      H      I    TOTAL
    1 N             3.56    3.24    0.01   0.00   0.00   0.00   0.00    6.80
    2 H             0.66    0.05    0.00   0.00   0.00   0.00   0.00    0.71
    3 H             0.71    0.05    0.00   0.00   0.00   0.00   0.00    0.76
    4 H             0.66    0.06    0.00   0.00   0.00   0.00   0.00    0.72

          ---------------------
          ELECTROSTATIC MOMENTS
          ---------------------

 POINT   1           X           Y           Z (BOHR)    CHARGE
                 0.000004   -0.000005   -0.177185        1.00 (A.U.)
         DX          DY          DZ         /D/  (DEBYE)
     0.700133   -0.435439    1.557194    1.762001
 ...... END OF PROPERTY EVALUATION ......
 CPU     0: STEP CPU TIME=     0.00 TOTAL CPU TIME=         15.9 (      0.3 MIN)
 TOTAL WALL CLOCK TIME=         15.9 SECONDS, CPU UTILIZATION IS    99.94%

     -------------------------------------------------
     GMC-PT/GMC-QDPT or general MCSCF input parameters
     -------------------------------------------------
 # of frozen core orbs. =         0 ->         0
 # of doubly occ. orbs. =         1
 # of active      orbs. =         7
 # of virtual     orbs. =        21
 # of active electrons  =         7
 # of states in CI      =         3
 Highest state in CI    =         3
 kstate =  1 1 1
 avecoe =  0.333 0.333 0.333
 State symmetry           = A           
 Assigned symmetry number = 1

 <<<Act. MO sym.: 1111111

 <<<Division of 1-ext.:  0
 <<<Division of 2-ext.:  0

     ------------------------
     Orbital canonicalization
     ------------------------

 MOs are canonicalized for core, virtual, and invariant-active orbital spaces.
 This is a part of the GMC-QDPT calculation.
 SCHWARZ INEQUALITY OVERHEAD:       465 INTEGRALS, T=        0.00
 DIRECT TRANSFORMATION SKIPS AO INTEGRAL STORAGE ON DISK.

 Averaged energy =     -55.662009968

 State #    1  Energy =     -55.764548479  S =  0.500
 State #    2  Energy =     -55.712077010  S =  0.500
 State #    3  Energy =     -55.509404416  S =  0.500

 Orbital energies for filled orbital space
  -16.013751
 Orbital energies for active orbital space
   -1.488215  -0.698383  -1.101535  -0.654796  -0.225045
    0.200323   0.395857
 Orbital energies for external orbital space
    0.153942   0.209415   0.307125   0.569864   0.578913
    0.666882   0.879320   1.083754   1.145274   1.195185
    1.359824   1.466416   1.604738   1.650831   1.869997
    1.889895   2.085797   2.361301   2.520506   2.699990
    2.926862

 Zero values mean non-canonical orbitals.
 ... done with orbital canonicalization ...
 CPU     0: STEP CPU TIME=     0.57 TOTAL CPU TIME=         16.5 (      0.3 MIN)
 TOTAL WALL CLOCK TIME=         16.5 SECONDS, CPU UTILIZATION IS    99.94%

     --------------------------------------------
     PARTIAL TWO ELECTRON INTEGRAL TRANSFORMATION
     --------------------------------------------

 NUMBER OF CORE MOLECULAR ORBITALS     =    0
 NUMBER OF OCCUPIED MOLECULAR ORBITALS =    8
 TOTAL NUMBER OF MOLECULAR ORBITALS    =   29
 TOTAL NUMBER OF ATOMIC ORBITALS       =   30
 THRESHOLD FOR KEEPING TRANSFORMED 2E- INTEGRALS = 1.000E-09
 AO INTEGRALS WILL BE CALCULATED IN DIRECT MODE...
 DIRECT TRANSFORMATION SKIPS AO INTEGRAL STORAGE ON DISK.
 SCHWARZ INEQUALITY OVERHEAD:       465 INTEGRALS, T=        0.00

 PLAN A: REQUIREMENTS FOR FULLY IN-MEMORY TRANSFORMATION:
 # OF WORDS AVAILABLE =            100000000
 # OF WORDS NEEDED    =               221798

 PARALLEL ONLY WORKS WITH THE SEGMENTED ALGORITHM.
 ADJUSTING MEMORY TO USE SEGMENTED ALGORITHM.


 PLAN B: REQUIREMENTS FOR THE SEGMENTED TRANSFORMATION:
       MINIMUM=         124148 WORDS FOR 1 MOLECULAR ORBITAL PER PASS
       MAXIMUM=         221798 WORDS FOR ALL MOLECULAR ORBITALS IN 1 PASS
              (          13950 EXTRA WORDS INCLUDES 1 EXTRA ORBITAL/PASS)
 THIS RUN USES=         221798 WORDS,
 DISTRIBUTING   1 PASSES EACH CONTAINING     8 ORBITALS OVER   1 PROCESSORS.

 CHOOSING SEGMENTED PARTIAL TRANSFORMATION...
 DIRECT TRANSFORMATION SKIPS AO INTEGRAL STORAGE ON DISK.
 PASS #   1 TOOK        0.04 SECONDS.
 TOTAL NUMBER OF TRANSFORMED 2E- INTEGRALS KEPT =        29226
 ... END OF INTEGRAL TRANSFORMATION ...
 CPU     0: STEP CPU TIME=     0.04 TOTAL CPU TIME=         16.6 (      0.3 MIN)
 TOTAL WALL CLOCK TIME=         16.6 SECONDS, CPU UTILIZATION IS    99.88%

     --------     ------------------------------------------
     GMC-QDPT     Program written by H.Nakano (Kyushu Univ.)
     --------     ------------------------------------------

 *** Reference space

 Reference type: ORMAS (= Occupation restricted multiple active space)
 # of orbitals          =  7
 # of minimum electrons =  7
 # of maximum electrons =  7
 State symmetry    =    1 (input)
 2*Sz              =    1 (input)
 Spin multiplicity =    2 (input)
 Dimension of reference space =      1225  (from      3432 walks)

 Dimension of reference space =      1225  (from      1225 walks)

 <<<Ionized spaces for Ref-CI:
      0:         1225 /   -1-0:         1960 /  0-1-0:         2891

 ***                    ***
 *** Reference space CI ***
 ***                    ***

 Converged after   23 iterations

 Reference wavefunctions:

 State #    1  Energy =     -55.764548479  S =  0.500

      Det      Coef    Occupancy (Ignoring core)
      ---      ----    --------- --------- -----
        1   -0.949176  11110001110000
       71   -0.218729  11110001011000
      106   -0.054835  11110000111000
      143   -0.055467  11011001100100
      393   -0.077360  10110101010010
      717   -0.050291  11010011100001

 State #    2  Energy =     -55.712077010  S =  0.500

      Det      Coef    Occupancy (Ignoring core)
      ---      ----    --------- --------- -----
        1    0.222874  11110001110000
       71   -0.951098  11110001011000
      177    0.057026  11101001010100
      248    0.058128  11011001001100
      822    0.050192  11010011001001

 State #    3  Energy =     -55.509404416  S =  0.500

      Det      Coef    Occupancy (Ignoring core)
      ---      ----    --------- --------- -----
        2    0.393611  11101001110000
        4    0.451902  10111001110000
       71   -0.051769  11110001011000
       72   -0.242775  11101001011000
       74   -0.170529  10111001011000
      176   -0.694677  11110001010100
      177   -0.066094  11101001010100
      178   -0.055056  11011001010100
      183    0.074878  10110101010100

 Davidson method: CPU/Wall time =           0.37 /           0.37 sec.

 Oscillator strength (invalid if E(1)/=E(GS)):
 -----------------------------------------
   State                        f
 -----------------------------------------
     2     F(REF-CI)=        0.0005962273
     3     F(REF-CI)=        0.0029578152
 -----------------------------------------

 Dipole moment matrix elements, x, y, z, in A.U.

 Dimension of ionized spaces for PT:
 (N-2) space:         1715 /  (N-1) space:         2842 /  N space:         2891
 (N+1) space:         2842 /  (N+2) space:         1715

 <<<Ionized spaces for internal:
         0:         1225 /      -1-0:         1960 /     0-1-0:         2891
  -1-0-1-0:         2842 / 0-1-0-1-0:         3381

 Diagonal elements of averaged one-particle density matrix:
       2       3       4       5       6       7       8
  0.9926  0.9050  0.9834  0.9154  0.1752  0.0177  0.0107
  0.9868  0.4571  0.9823  0.3681  0.1862  0.0096  0.0100

 Orbital energies:
 -------- Doubly-occupied orbitals (highest several orbs.) -------
             1
 -1.601375D+01
 -------- Active orbitals ----------------------------------------
             2            3            4            5            6
 -1.488215D+00-6.983831D-01-1.101535D+00-6.547956D-01-2.250454D-01
             7            8
  2.003226D-01 3.958566D-01
 -------- External orbitals (lowest several orbs.) ---------------
             9           10           11           12           13
  1.539420D-01 2.094152D-01 3.071248D-01 5.698640D-01 5.789128D-01
            14           15           16           17           18
  6.668817D-01 8.793201D-01 1.083754D+00 1.145274D+00 1.195185D+00

 *** Quasi-degeneracy checking

 === Det (|Ci| > 1.0D-01 and dE < 5.0D-03)

 # of small denominators (single excitations)
 State       dEmin  dE < 5.0D-03  dE < 5.0D-04  dE < 5.0D-05  dE < 5.0D-06
 ----- ----------- ------------- ------------- ------------- -------------
     1    5.00D-03             0             0             0             0
     2    5.00D-03             0             0             0             0
     3    5.00D-03             0             0             0             0

 # of small denominators (double excitations)
 State       dEmin  dE < 5.0D-03  dE < 5.0D-04  dE < 5.0D-05  dE < 5.0D-06
 ----- ----------- ------------- ------------- ------------- -------------
     1    5.00D-03             0             0             0             0
     2    5.00D-03             0             0             0             0
     3    5.00D-03             0             0             0             0

 *** Zeroth-Order Setup (Granovsky's zeroth-order vectors)
 Zeroth-order effective Hamiltonian
  (= Sum_i e(i)*<I|a+(i)a(i)|J> ):
                   1            2            3
     1 -7.130770D+00
     2  1.276182D-02-7.105047D+00
     3 -2.542640D-02-2.354170D-02-6.675392D+00

 Zeroth-order vectors:
 State #    1
       MC st            1           2           3
       Coeff    9.346D-01  -3.540D-01   3.346D-02
 State #    2
       MC st            2           1           3
       Coeff   -9.336D-01  -3.510D-01  -7.243D-02
 State #    3
       MC st            3           1           2
       Coeff    9.968D-01  -5.688D-02  -5.595D-02

 *** GMC-QDPT computation

 (Integral reading:  CPU/Wall time =           0.00 /           0.00 sec.)

 One-external:
   0 -ionized terms: CPU/Wall time =           0.03 /           0.04 sec.
 (-1)-ionized terms: CPU/Wall time =           0.09 /           0.08 sec.
 (+1)-ionized terms: CPU/Wall time =           0.02 /           0.03 sec.
 (+1)-ionized terms: CPU/Wall time =           0.01 /           0.00 sec.
 (+2)-ionized terms: CPU/Wall time =           0.00 /           0.01 sec.

 Internal:
 # of macro loops for internal contribution =         1 (input)
 Loop:    1
 Dimension of internal CISD space     =         0  (after screening)
 Space construction: CPU/Wall time =           0.02 /           0.01 sec.
 Internal terms:     CPU/Wall time =           0.00 /           0.00 sec.

 Two-external:
   0 -ionized terms: CPU/Wall time =           0.06 /           0.06 sec.
 (-1)-ionized terms: CPU/Wall time =           1.00 /           1.01 sec.
 (-2)-ionized terms: CPU/Wall time =           0.17 /           0.16 sec.

 Total time:         CPU/Wall time =           1.40 /           1.40 sec.

 ***                  ***
 *** GMC-QDPT Results ***
 ***                  ***

 Diagonal elements of effective Hamiltonian:
 Heff(  1) =   -55.86670382
 Heff(  2) =   -55.83340053
 Heff(  3) =   -55.63085934

 Off-diagonal elements of effective Hamiltonian:
                   1            2
     2  1.159428D-02
     3  8.534451D-03-1.127310D-02

 ******** GMC-QDPT energies ********
 ----------------------------------------------------------------------------
   State                        1st order                           2nd order
 ----------------------------------------------------------------------------
     1     E(REF-CI)=      -55.7645484789   E(GMC-QDPT2)=      -55.8708992041
     2     E(REF-CI)=      -55.7120770095   E(GMC-QDPT2)=      -55.8300936835
     3     E(REF-CI)=      -55.5094044161   E(GMC-QDPT2)=      -55.6299708105
 ----------------------------------------------------------------------------

 Excitation energies (invalid if E(1)/=E(GS)):
 ----------------------------------------------------------------------------
   State                        1st order                           2nd order
 ----------------------------------------------------------------------------

     TZ Sorted GMC-PT ENERGIES:
         1      -55.8708992041
         2      -55.8300936835
         3      -55.6299708105
     2     E(REF-CI)=        1.4278221 eV   E(GMC-QDPT2)=        1.1103753 eV
     3     E(REF-CI)=        6.9428271 eV   E(GMC-QDPT2)=        6.5559989 eV
 ----------------------------------------------------------------------------

 Main characters of perturbed GMC-QDPT states:

 State #    1  Energy =     -55.870899204  S =  0.500

      Det      Coef    Occupancy (Ignoring core)
      ---      ----    --------- --------- -----
        1   -0.958572  11110001110000
       71   -0.175190  11110001011000
      106   -0.054098  11110000111000
      143   -0.056011  11011001100100
      393   -0.077326  10110101010010
      717   -0.050777  11010011100001

 State #    2  Energy =     -55.830093683  S =  0.500

      Det      Coef    Occupancy (Ignoring core)
      ---      ----    --------- --------- -----
        1   -0.178610  11110001110000
       71    0.960888  11110001011000
      177   -0.056690  11101001010100
      248   -0.058996  11011001001100
      822   -0.050652  11010011001001

 State #    3  Energy =     -55.629970811  S =  0.500

      Det      Coef    Occupancy (Ignoring core)
      ---      ----    --------- --------- -----
        2    0.393668  11101001110000
        4    0.452228  10111001110000
       72   -0.243055  11101001011000
       74   -0.170838  10111001011000
      176   -0.695283  11110001010100
      177   -0.067235  11101001010100
      178   -0.055590  11011001010100
      183    0.075348  10110101010100

 <<<Max |V/de| = 6.878D-02  Thresh = 1.000D+00

 Oscillator strength (invalid if E(1)/=E(GS)):
 ----------------------------------------------------------------------------
   State                        1st order                           2nd order
 ----------------------------------------------------------------------------
     2     F(REF-CI)=        0.0005962273     F(GMC-PT2)=        0.0005506534
     3     F(REF-CI)=        0.0029578152     F(GMC-PT2)=        0.0027820011
 ----------------------------------------------------------------------------

 Dipole moment matrix elements, x, y, z, in A.U.
States    1    1        0.2522842872       -0.4165471946        0.6083235099
States    1    2       -0.0507797756       -0.0041027932       -0.1328399493
States    1    3        0.0899883173        0.0591012620        0.0756944487
States    2    1       -0.0507797756       -0.0041027932       -0.1328399493
States    2    2        0.3708600159       -0.2828086497        0.3064242025
States    2    3        0.0662663436       -0.1903719761        0.1294159436
States    3    1        0.0899883173        0.0591012620        0.0756944487
States    3    2        0.0662663436       -0.1903719761        0.1294159436
States    3    3        0.4340040646       -0.9832144255        1.0598410220

 Oscillator strength (valid only when positive): 
 ----------------------------------------------------------------------------
  States                        1st order                           2nd order
 ----------------------------------------------------------------------------
  1  1     F(REF-CI)=        0.0000000000     F(GMC-PT2)=        0.0000000000
  1  2     F(REF-CI)=       -0.0005962273     F(GMC-PT2)=       -0.0005506534
  1  3     F(REF-CI)=       -0.0029578152     F(GMC-PT2)=       -0.0027820011
  2  1     F(REF-CI)=        0.0005962273     F(GMC-PT2)=        0.0005506534
  2  2     F(REF-CI)=        0.0000000000     F(GMC-PT2)=        0.0000000000
  2  3     F(REF-CI)=       -0.0089388439     F(GMC-PT2)=       -0.0076555276
  3  1     F(REF-CI)=        0.0029578152     F(GMC-PT2)=        0.0027820011
  3  2     F(REF-CI)=        0.0089388439     F(GMC-PT2)=        0.0076555276
  3  3     F(REF-CI)=        0.0000000000     F(GMC-PT2)=        0.0000000000
 CPU     0: STEP CPU TIME=     1.84 TOTAL CPU TIME=         18.4 (      0.3 MIN)
 TOTAL WALL CLOCK TIME=         18.4 SECONDS, CPU UTILIZATION IS    99.95%

     !!! DIABATIZATION FOR REF CI STATES !!!

 *******************************************************
          $DMO GROUP FOUND IN THE INPUT.
        DIABATIZATION OF ADIABATIC STATES BEGINS.
     PROGRAMMED BY TAO ZENG (CARLETON UNIVERSITY).
               Email: toby.zeng@carleton.ca
     See T. Zeng, J. Chem. Phys. 2017, 146, 144103
 *******************************************************

 *************************************************************************
     STEP 1: TRANSFORMATION OF ADIABATIC STATES TO THE DMO REPRESENTATION
         See Atchity and Ruedenberg, J. Chem. Phys. 1999, 111, 2910
 *************************************************************************

Read in Diabatic Molecualr Orbitals:

                      1          2          3          4          5

    1  N  1  S    0.008609   0.000000   0.000000  -0.013219   0.279491
    2  N  1  S    0.442914  -0.000000   0.000000  -0.184329   0.867803
    3  N  1  S    0.276913   0.000000  -0.000000  -0.288315   0.144236
    4  N  1  X   -0.000000   0.493155  -0.024636  -0.000000  -0.000000
    5  N  1  Y    0.000000   0.024636   0.493155  -0.000000   0.000000
    6  N  1  Z    0.090197   0.000000   0.000000   0.593421   0.705309
    7  N  1  X   -0.000000   0.210628  -0.010522   0.000000   0.000000
    8  N  1  Y    0.000000   0.010522   0.210628  -0.000000  -0.000000
    9  N  1  Z   -0.004381   0.000000   0.000000   0.381592  -0.106092
   10  N  1 XX   -0.000457   0.010719  -0.000535  -0.012387   0.006153
   11  N  1 YY   -0.000457  -0.010719   0.000535  -0.012387   0.006153
   12  N  1 ZZ    0.000914  -0.000000   0.000000   0.024773  -0.012306
   13  N  1 XY    0.000000  -0.000618  -0.012377  -0.000000   0.000000
   14  N  1 XZ   -0.000000   0.026529  -0.001325  -0.000000   0.000000
   15  N  1 YZ    0.000000   0.001325   0.026529  -0.000000   0.000000
   16  H  2  S    0.194462  -0.176074   0.343485   0.112865  -0.523343
   17  H  2  S    0.003574  -0.023812   0.046452   0.024014  -0.054445
   18  H  2  X    0.018760   0.009101   0.022834   0.009336  -0.039151
   19  H  2  Y   -0.032493   0.022287  -0.020044  -0.016171   0.067811
   20  H  2  Z   -0.009251   0.008464  -0.016511   0.018769  -0.010566
   21  H  3  S    0.194462  -0.209430  -0.324227   0.112865  -0.523343
   22  H  3  S    0.003574  -0.028322  -0.043847   0.024014  -0.054445
   23  H  3  X    0.018760   0.006781  -0.023627   0.009336  -0.039151
   24  H  3  Y    0.032493  -0.024174  -0.017723   0.016171  -0.067811
   25  H  3  Z   -0.009251   0.010067   0.015585   0.018769  -0.010566
   26  H  4  S    0.194462   0.385503  -0.019258   0.112865  -0.523343
   27  H  4  S    0.003574   0.052134  -0.002604   0.024014  -0.054445
   28  H  4  X   -0.037519  -0.032295   0.001613  -0.018672   0.078302
   29  H  4  Y    0.000000   0.001067   0.021353  -0.000000   0.000000
   30  H  4  Z   -0.009251  -0.018530   0.000926   0.018769  -0.010566

                      6          7

    1  N  1  S    0.000000  -0.000000
    2  N  1  S    0.000000  -0.000000
    3  N  1  S   -0.000000   0.000000
    4  N  1  X   -0.930415  -0.002083
    5  N  1  Y   -0.002083   0.930415
    6  N  1  Z   -0.000000   0.000000
    7  N  1  X   -0.046866  -0.000105
    8  N  1  Y   -0.000105   0.046866
    9  N  1  Z   -0.000000   0.000000
   10  N  1 XX    0.001538   0.000003
   11  N  1 YY   -0.001538  -0.000003
   12  N  1 ZZ   -0.000000   0.000000
   13  N  1 XY   -0.000004   0.001776
   14  N  1 XZ    0.039985   0.000090
   15  N  1 YZ    0.000090  -0.039985
   16  H  2  S   -0.362630  -0.631354
   17  H  2  S   -0.065964  -0.114846
   18  H  2  X    0.002763  -0.037520
   19  H  2  Y    0.037435   0.040736
   20  H  2  Z    0.001882   0.003276
   21  H  3  S   -0.365454   0.629724
   22  H  3  S   -0.066477   0.114549
   23  H  3  X    0.002595   0.037532
   24  H  3  Y   -0.037617   0.040567
   25  H  3  Z    0.001896  -0.003268
   26  H  4  S    0.728084   0.001630
   27  H  4  S    0.132441   0.000297
   28  H  4  X   -0.062317  -0.000140
   29  H  4  Y    0.000055  -0.024345
   30  H  4  Z   -0.003778  -0.000008

NUMBER OF SUB ACTIVE SPACES:   1
ROTATE ACTIVE MOS TO DMOS IN EACH SUB-SPACE

SPACE  1:

OVERLAP BETWEEN ORTHONORMAL AND PRE-ORTHONORMAL REF. DMOS

             1           2           3           4           5

    1    0.9672544   0.0196002  -0.0094562  -0.0123699  -0.0084159
    2    0.0196002   0.8526593  -0.0921304   0.0328642  -0.0543418
    3   -0.0094562  -0.0921304   1.0093861  -0.0354899   0.0808112
    4   -0.0123699   0.0328642  -0.0354899   0.9898442  -0.0135119
    5   -0.0084159  -0.0543418   0.0808112  -0.0135119   1.2298893
    6    0.0029224  -0.1031321  -0.0971972   0.0462004  -0.0363343
    7    0.0006250   0.0806637  -0.0321841   0.0629883  -0.1157049

             6           7

    1    0.0029224   0.0006250
    2   -0.1031321   0.0806637
    3   -0.0971972  -0.0321841
    4    0.0462004   0.0629883
    5   -0.0363343  -0.1157049
    6    1.0561920   0.0141416
    7    0.0141416   1.0589600
REFERENCE DMOS AFTER ORTHONORMALIZATION:

                      1          2          3          4          5

    1  N  1  S    0.010308   0.011874  -0.016258  -0.012972   0.231310
    2  N  1  S    0.460576   0.032179  -0.051295  -0.180272   0.720380
    3  N  1  S    0.283232   0.009957  -0.013871  -0.289467   0.120551
    4  N  1  X   -0.007336   0.471855  -0.062360   0.023160  -0.002546
    5  N  1  Y    0.004111   0.008758   0.516215  -0.040135   0.051956
    6  N  1  Z    0.105764   0.005286  -0.024022   0.606485   0.584931
    7  N  1  X   -0.004880   0.248244   0.008998  -0.005908   0.008109
    8  N  1  Y    0.001307   0.033287   0.216038   0.002534  -0.007614
    9  N  1  Z    0.000286  -0.018324   0.016088   0.388373  -0.087315
   10  N  1 XX   -0.000882   0.013878   0.000175  -0.013089   0.005589
   11  N  1 YY   -0.000346  -0.012435  -0.001538  -0.012134   0.004557
   12  N  1 ZZ    0.001227  -0.001443   0.001363   0.025223  -0.010146
   13  N  1 XY   -0.000071  -0.002338  -0.012638  -0.000403   0.000833
   14  N  1 XZ   -0.000843   0.037383   0.005798  -0.002812   0.002225
   15  N  1 YZ    0.000106   0.008061   0.026629   0.002895  -0.004861
   16  H  2  S    0.207492  -0.199745   0.318168   0.184335  -0.521909
   17  H  2  S    0.004813  -0.025897   0.040064   0.035956  -0.060133
   18  H  2  X    0.019203   0.014806   0.026694   0.011975  -0.036326
   19  H  2  Y   -0.034274   0.030489  -0.018000  -0.022160   0.062419
   20  H  2  Z   -0.009690   0.007427  -0.014543   0.017952  -0.007149
   21  H  3  S    0.205156  -0.424096  -0.348844   0.097176  -0.377908
   22  H  3  S    0.004573  -0.061198  -0.049395   0.020865  -0.035655
   23  H  3  X    0.019024   0.000265  -0.019879   0.006623  -0.027386
   24  H  3  Y    0.034154  -0.044019  -0.019601   0.016670  -0.053426
   25  H  3  Z   -0.009508   0.013652   0.018203   0.019107  -0.009473
   26  H  4  S    0.186841   0.532306   0.133465   0.069511  -0.395616
   27  H  4  S    0.001804   0.077415   0.020639   0.016478  -0.039215
   28  H  4  X   -0.037545  -0.042494  -0.013678  -0.015406   0.061490
   29  H  4  Y    0.000095   0.005827   0.021533   0.001890  -0.003246
   30  H  4  Z   -0.008896  -0.023800  -0.000562   0.019843  -0.009692

                      6          7

    1  N  1  S    0.007831   0.024536
    2  N  1  S    0.028680   0.084769
    3  N  1  S    0.015335   0.028838
    4  N  1  X   -0.841255  -0.030222
    5  N  1  Y    0.037853   0.901190
    6  N  1  Z   -0.008752   0.026758
    7  N  1  X   -0.018523  -0.017247
    8  N  1  Y    0.022026   0.047009
    9  N  1  Z   -0.019893  -0.030491
   10  N  1 XX    0.003591   0.000293
   11  N  1 YY   -0.002152   0.002146
   12  N  1 ZZ   -0.001439  -0.002439
   13  N  1 XY   -0.001370   0.001604
   14  N  1 XZ    0.042281  -0.002740
   15  N  1 YZ    0.003541  -0.038315
   16  H  2  S   -0.351655  -0.634733
   17  H  2  S   -0.063436  -0.113126
   18  H  2  X    0.005234  -0.040510
   19  H  2  Y    0.039396   0.043230
   20  H  2  Z    0.000161   0.000241
   21  H  3  S   -0.445044   0.575116
   22  H  3  S   -0.077049   0.107221
   23  H  3  X   -0.001052   0.031434
   24  H  3  Y   -0.044845   0.034816
   25  H  3  Z    0.003746  -0.005788
   26  H  4  S    0.737676  -0.092273
   27  H  4  S    0.132940  -0.012031
   28  H  4  X   -0.061666   0.011170
   29  H  4  Y    0.002719  -0.023282
   30  H  4  Z   -0.007125  -0.000351

 -------------------------------------------
       MAXIMIZING MORMO OVERLAP TERM        
 -------------------------------------------
   SWEEP    VALUE       PROGRESS
     0     5.15481
     1     6.76129     1.60648659
     2     6.77246     0.01117014
     3     6.77246     0.00000162
     4     6.77246     0.00000000
     5     6.77246    -0.00000000
     6     6.77246     0.00000000
 THE ROTATION IS DONE
ACTIVE ORBITALS AFTER MORMO:

                      1          2          3          4          5

    1  N  1  S    0.013565  -0.001289  -0.008054  -0.028864   0.102037
    2  N  1  S    0.436213   0.005177  -0.018686  -0.228378   0.503824
    3  N  1  S    0.330344   0.063081  -0.042761  -0.214025   0.521451
    4  N  1  X   -0.003021   0.403865  -0.091735   0.033058   0.018853
    5  N  1  Y    0.011696  -0.006780   0.479917  -0.031180   0.138310
    6  N  1  Z    0.088227  -0.018937  -0.015348   0.605358   0.332734
    7  N  1  X   -0.010961   0.348001   0.078047  -0.043876  -0.010275
    8  N  1  Y   -0.001605   0.070164   0.230104   0.035324  -0.150786
    9  N  1  Z    0.031478   0.006431   0.021951   0.393174   0.200416
   10  N  1 XX   -0.003735   0.021477   0.004754  -0.009171   0.013349
   11  N  1 YY    0.006106  -0.027519  -0.006375  -0.001918  -0.016668
   12  N  1 ZZ   -0.002371   0.006042   0.001622   0.011089   0.003319
   13  N  1 XY   -0.005073  -0.008262  -0.007613  -0.001567   0.021254
   14  N  1 XZ    0.001093   0.029960   0.013514  -0.000337  -0.030009
   15  N  1 YZ   -0.002847   0.009652   0.018857  -0.009478  -0.004826
   16  H  2  S    0.182392  -0.192334   0.335058   0.139162  -0.508824
   17  H  2  S    0.002183  -0.044190   0.042217   0.024063  -0.133751
   18  H  2  X    0.012125   0.012162   0.022315   0.004447  -0.015524
   19  H  2  Y   -0.028669   0.020650  -0.030764  -0.013308   0.022775
   20  H  2  Z   -0.002581   0.005916  -0.007998   0.017530   0.018707
   21  H  3  S    0.178637  -0.247202  -0.308430   0.100878  -0.311322
   22  H  3  S    0.023227  -0.246845  -0.084828   0.005876  -0.327442
   23  H  3  X    0.000751   0.022715   0.011724  -0.005306  -0.033834
   24  H  3  Y    0.025379  -0.002899  -0.035733   0.018835   0.022382
   25  H  3  Z   -0.007016   0.003629   0.020094   0.010099  -0.007860
   26  H  4  S    0.177793   0.426391   0.040535   0.091879  -0.362354
   27  H  4  S    0.005400   0.148727   0.090837   0.011822  -0.180346
   28  H  4  X   -0.027716  -0.025043   0.011158  -0.019603   0.008495
   29  H  4  Y    0.009654   0.039765   0.012639   0.010375   0.030070
   30  H  4  Z   -0.011917  -0.028720   0.006678   0.010703  -0.002396

                      6          7

    1  N  1  S    0.038457   0.150598
    2  N  1  S    0.090557   0.333215
    3  N  1  S   -0.038535  -0.334189
    4  N  1  X   -0.831189  -0.013949
    5  N  1  Y    0.026635   0.839923
[...]
   28  H  4  X   -0.027716  -0.025043   0.011158  -0.019603   0.008495
   29  H  4  Y    0.009654   0.039765   0.012639   0.010375   0.030070
   30  H  4  Z   -0.011917  -0.028720   0.006678   0.010703  -0.002396

                      6          7

    1  N  1  S    0.038457   0.150598
    2  N  1  S    0.090557   0.333215
    3  N  1  S   -0.038535  -0.334189
    4  N  1  X   -0.831189  -0.013949
    5  N  1  Y    0.026635   0.839923
    6  N  1  Z   -0.065130   0.051217
    7  N  1  X   -0.032493  -0.050434
    8  N  1  Y    0.030764   0.144725
    9  N  1  Z    0.032637  -0.087908
   10  N  1 XX    0.022959  -0.005491
   11  N  1 YY   -0.047259   0.023819
   12  N  1 ZZ    0.024300  -0.018327
   13  N  1 XY   -0.020387   0.011296
   14  N  1 XZ    0.054656  -0.033676
   15  N  1 YZ    0.031435  -0.007580
   16  H  2  S   -0.336940  -0.636079
   17  H  2  S   -0.071028  -0.073328
   18  H  2  X   -0.005461  -0.029163
   19  H  2  Y    0.024733   0.059313
   20  H  2  Z    0.006626   0.001881
   21  H  3  S   -0.295671   0.493810
   22  H  3  S   -0.260935   0.340534
   23  H  3  X    0.041908   0.020249
   24  H  3  Y   -0.011444  -0.010468
   25  H  3  Z    0.019448   0.014396
   26  H  4  S    0.653199  -0.020048
   27  H  4  S    0.252239  -0.013718
   28  H  4  X   -0.025141   0.007361
   29  H  4  Y    0.021393  -0.058622
   30  H  4  Z   -0.008211   0.018334

     ------------------------------------------------
        ADIABATIC STATES IN TRANSFORMED ORBITALS:
      !! USE Coefp TO PREPARE DIABATIC REFERENCES !!
     ------------------------------------------------

 State #    1  Energy =     -55.764548479  S =  0.500

      Det      Coef        Coefp    Occupancy (Ignoring core)
      ---      ----        ----    --------- --------- -----
        1    0.802541   -0.802541  222+000
       71   -0.286188    0.286188  2+22000
        8   -0.203347    0.203347  2-2+0+0
      386    0.136679   -0.136679  2+2+0-0
      736   -0.133281    0.133281  2+2+00-
      176    0.121644   -0.121644  2+2+-00
        7   -0.121570   -0.121570  22-+0+0
      351    0.120416    0.120416  22++0-0
      141   -0.115393   -0.115393  22++-00
        3    0.113520    0.113520  22-++00
       18    0.107700   -0.107700  2-2+00+
        4   -0.100201    0.100201  2-2++00
       16    0.085730   -0.085730  222000+
        6    0.072707   -0.072707  22200+0
       78    0.068240   -0.068240  20220+0
       76    0.066668    0.066668  2+2-0+0
      456    0.059019    0.059019  2++20-0
       13   -0.058662   -0.058662  2--+++0
      561   -0.057562   -0.057562  2+++--0
      717   -0.056666   -0.056666  220+002
      183   -0.050624    0.050624  202+-+0
     1051   -0.048851   -0.048851  2+++0--
      393   -0.048630   -0.048630  202+020
       36    0.048348    0.048348  22+2000
       77   -0.043860    0.043860  2+-20+0
       73    0.043095   -0.043095  2+-2+00
      148    0.041626    0.041626  2-++-+0
       27    0.039937   -0.039937  2-200++
      708    0.039814   -0.039814  2-++0+-
      246   -0.038699   -0.038699  2++2-00
       88   -0.038310    0.038310  202200+
      391    0.036073   -0.036073  2+20020
       29   -0.035381   -0.035381  2--+0++
      215   -0.034791   -0.034791  022+200
      227   -0.034400   -0.034400  +2-+-0+
      388    0.034008    0.034008  2+-++-0
      402    0.033884   -0.033884  2+-+0-+
       11    0.033620   -0.033620  2-20++0
      705   -0.033605   -0.033605  -2+++0-
      389    0.032629    0.032629  202++-0
      147    0.031563   -0.031563  220+-+0
        2   -0.031407    0.031407  2220+00
       74    0.031250   -0.031250  2022+00
      387   -0.030778    0.030778  2+20+-0
      218    0.029868   -0.029868  +-2+-+0
      358    0.029562   -0.029562  2-++020
      143   -0.028860   -0.028860  220+200
      353   -0.028823   -0.028823  220++-0
      911    0.028477    0.028477  2+++-0-
      743   -0.027595   -0.027595  202+0+-
      390    0.027090   -0.027090  -+2++-0
      158   -0.025950   -0.025950  2-++-0+
      212    0.025641    0.025641  +220200
       86    0.025581    0.025581  2+2-00+
       23    0.025233    0.025233  2--++0+
      738   -0.024694   -0.024694  2+-++0-
       51   -0.024086    0.024086  22+-00+
      366   -0.023560    0.023560  22+00-+
      159    0.023399   -0.023399  -2++-0+
      401   -0.023199   -0.023199  2+200-+
      182    0.022758   -0.022758  2+-+-+0
      773    0.022329   -0.022329  +2-++0-
       26    0.022096    0.022096  22-00++
      424   -0.021880   -0.021880  +-2++-0
       72   -0.021443   -0.021443  2+2-+00
        5    0.021218    0.021218  -22++00
       83   -0.021027    0.021027  20-2++0
      122    0.020882    0.020882  +2-200+
      392   -0.020512   -0.020512  2+-+020

 State #    2  Energy =     -55.712077010  S =  0.500

      Det      Coef        Coefp    Occupancy (Ignoring core)
      ---      ----        ----    --------- --------- -----
       71    0.725113   -0.725113  2+22000
       36    0.389931    0.389931  22+2000
        1    0.225748   -0.225748  222+000
      246    0.172102    0.172102  2++2-00
       78   -0.151808    0.151808  20220+0
      386    0.128094   -0.128094  2+2+0-0
       74   -0.125486    0.125486  2022+00
       73   -0.117605    0.117605  2+-2+00
       77    0.117269   -0.117269  2+-20+0
       86   -0.100577   -0.100577  2+2-00+
       88    0.095720   -0.095720  202200+
       43   -0.085535   -0.085535  2-+20+0
       76   -0.079091   -0.079091  2+2-0+0
       72    0.075260    0.075260  2+2-+00
      806   -0.073696   -0.073696  2++200-
      736    0.073667   -0.073667  2+2+00-
      141   -0.069909   -0.069909  22++-00
      351    0.069712    0.069712  22++0-0
       51   -0.068304    0.068304  22+-00+
       38    0.065989   -0.065989  2202+00
       53    0.064837    0.064837  2-+200+
       83    0.061783   -0.061783  20-2++0
      701    0.059825    0.059825  22++00-
      253   -0.056494   -0.056494  20+2-+0
       39   -0.054497   -0.054497  2-+2+00
        8   -0.049002    0.049002  2-2+0+0
      813   -0.048587    0.048587  20+20+-
       81   -0.048506   -0.048506  202-++0
      822   -0.047520    0.047520  2+02002
       42   -0.047331    0.047331  22020+0
       99    0.044495   -0.044495  20-20++
       97   -0.043368   -0.043368  202-0++
       37    0.042235   -0.042235  22+-+00
      463   -0.041803    0.041803  20+2020
        7   -0.041701   -0.041701  22-+0+0
      176   -0.041154    0.041154  2+2+-00
      252    0.040874    0.040874  2+02-+0
        4   -0.034106    0.034106  2-2++00
      263    0.033601    0.033601  20+2-0+
       16    0.032391   -0.032391  222000+
      177   -0.032365    0.032365  2+20200
      148    0.032118    0.032118  2-++-+0
      320   -0.031858   -0.031858  0+22200
      456   -0.031734   -0.031734  2++20-0
      323    0.030904   -0.030904  +022-+0
      810    0.030833    0.030833  -++2+0-
      561   -0.030217   -0.030217  2+++--0
       48   -0.030051    0.030051  2-02++0
      183    0.029876   -0.029876  202+-+0
      708    0.029298   -0.029298  2-++0+-
      332    0.029271   -0.029271  ++-2-0+
      180    0.028959   -0.028959  -+2+200
       41   -0.028011    0.028011  22+-0+0
      743    0.027828    0.027828  202+0+-
        3    0.027674    0.027674  22-++00
       62   -0.026983    0.026983  2-+-0++
       18    0.026910   -0.026910  2-2+00+
      317   -0.026715    0.026715  ++2-200
      109   -0.026567    0.026567  +-22+00
      106   -0.026226   -0.026226  +222000
      113   -0.026146    0.026146  +-220+0
      742   -0.025669   -0.025669  2+-+0+-
      393    0.025477    0.025477  202+020
       96    0.024889    0.024889  2+--0++
      358    0.024814   -0.024814  2-++020
       93   -0.024354    0.024354  20-2+0+
       64   -0.024190    0.024190  2-020++
       46   -0.024095    0.024095  2-+-++0
      111   -0.023486    0.023486  +22-0+0
      529   -0.021809   -0.021809  +022+-0
      717   -0.021585   -0.021585  220+002
       75    0.021144    0.021144  -+22+00
      878   -0.020740   -0.020740  ++-2+0-
      192    0.020021   -0.020021  2+-+-0+

 State #    3  Energy =     -55.509404416  S =  0.500

      Det      Coef        Coefp    Occupancy (Ignoring core)
      ---      ----        ----    --------- --------- -----
      176    0.483195   -0.483195  2+2+-00
       72   -0.395395   -0.395395  2+2-+00
        2   -0.270940    0.270940  2220+00
      141    0.241103    0.241103  22++-00
      736   -0.225696    0.225696  2+2+00-
       86    0.179192    0.179192  2+2-00+
      183   -0.166204    0.166204  202+-+0
      246    0.153208    0.153208  2++2-00
       73   -0.151191    0.151191  2+-2+00
       37   -0.143927    0.143927  22+-+00
       16    0.131552   -0.131552  222000+
       81    0.128014    0.128014  202-++0
      701   -0.119605   -0.119605  22++00-
       71    0.111325   -0.111325  2+22000
        3   -0.097176   -0.097176  22-++00
      182    0.096411   -0.096411  2+-+-+0
       11    0.094687   -0.094687  2-20++0
       80   -0.093004   -0.093004  2+--++0
       51    0.089697   -0.089697  22+-00+
        4   -0.087800    0.087800  2-2++00
      193    0.084385   -0.084385  202+-0+
      179    0.084180    0.084180  202+200
      148   -0.082885   -0.082885  2-++-+0
      743   -0.081007   -0.081007  202+0+-
       87    0.077032   -0.077032  2+-200+
      806   -0.076449   -0.076449  2++200-
        1   -0.071759    0.071759  222+000
       38    0.068569   -0.068569  2202+00
      107    0.067815   -0.067815  +22-+00
      737    0.066359   -0.066359  2+20+0-
       97    0.062966    0.062966  202-0++
      742    0.061302    0.061302  2+-+0+-
       10    0.055483    0.055483  22-0++0
      387   -0.052633    0.052633  2+20+-0
      753    0.051278    0.051278  202+002
      739   -0.049444   -0.049444  202++0-
      247   -0.049028    0.049028  2++-200
      192   -0.048796    0.048796  2+-+-0+
      708   -0.048103    0.048103  2-++0+-
      253   -0.046749   -0.046749  20+2-+0
       18    0.046504   -0.046504  2-2+00+
       27    0.046148   -0.046148  2-200++
      191   -0.046124   -0.046124  2+20-0+
      158    0.044970    0.044970  2-++-0+
      186    0.044659   -0.044659  20202+0
       52   -0.044448    0.044448  220200+
       96   -0.043585   -0.043585  2+--0++
      181   -0.042054   -0.042054  2+20-+0
       36    0.041778    0.041778  22+2000
      177   -0.041073    0.041073  2+20200
      752   -0.040910   -0.040910  2+-+002
       46    0.039664   -0.039664  2-+-++0
      751   -0.039334    0.039334  2+20002
      389    0.038190    0.038190  202++-0
      352   -0.038124   -0.038124  22+0+-0
       83    0.037551   -0.037551  20-2++0
      147   -0.037006    0.037006  220+-+0
      561   -0.036817   -0.036817  2+++--0
      180   -0.036597    0.036597  -+2+200
      702    0.036154    0.036154  22+0+0-
      568   -0.035432    0.035432  20++-20
      202   -0.035033   -0.035033  2020-++
       91   -0.034941   -0.034941  202-+0+
        5   -0.034787   -0.034787  -22++00
      211   -0.033028   -0.033028  +22+-00
      746    0.032782    0.032782  2020++-
      738    0.032688    0.032688  2+-++0-
      188   -0.031705   -0.031705  20-+2+0
      178    0.031599    0.031599  2+-+200
      718    0.031449   -0.031449  2-++002
      121   -0.031275    0.031275  +22-00+
      927   -0.030577    0.030577  2+0+-02
      457    0.030049   -0.030049  2++-+-0
       17    0.029907    0.029907  22-+00+
      252    0.029675    0.029675  2+02-+0
      813   -0.029011    0.029011  20+20+-
       76   -0.028162   -0.028162  2+2-0+0
      707   -0.028047   -0.028047  220+0+-
       74    0.027652   -0.027652  2022+00
      825    0.027194    0.027194  2+0-+02
      354    0.026698   -0.026698  2-+++-0
       62    0.026251   -0.026251  2-+-0++
      716   -0.026042   -0.026042  22+0002
      717    0.025925    0.025925  220+002
        8    0.025849   -0.025849  2-2+0+0
      391    0.025494   -0.025494  2+20020
      157    0.025204   -0.025204  220+-0+
      143   -0.024851   -0.024851  220+200
      466    0.024718    0.024718  20+-+20
      145   -0.024200   -0.024200  -2++200
       26    0.024158    0.024158  22-00++
      323    0.023991   -0.023991  +022-+0
      214    0.023885    0.023885  +-2+200
       45    0.023876    0.023876  220-++0
      741   -0.023662    0.023662  2+200+-
      366   -0.023623    0.023623  22+00-+
      251    0.023291    0.023291  2++--+0
       99    0.023048   -0.023048  20-20++
      218   -0.022619    0.022619  +-2+-+0
      401   -0.022486   -0.022486  2+200-+
      704   -0.022107    0.022107  2-+++0-
      762    0.021954    0.021954  20200+2
      263    0.021895    0.021895  20+2-0+
      812    0.021552   -0.021552  2+020+-
      912   -0.021525   -0.021525  2++020-
       90    0.021300    0.021300  2+--+0+
      402   -0.021211    0.021211  2+-+0-+
        6   -0.020918    0.020918  22200+0
       41   -0.020724    0.020724  22+-0+0
      111    0.020496   -0.020496  +22-0+0
       21   -0.020235    0.020235  2-20+0+

         ----------------------------------------------------
          Transformation matrix between Active CMOs and DMOs
                    Row for CMO and Column for DMO
         ----------------------------------------------------

             1           2           3           4           5

    1    0.9972795   0.0424202  -0.0002251  -0.0499916   0.0236078
    2   -0.0033070   0.7069795   0.4657065   0.4667159  -0.0760276
    3    0.0012684  -0.4164673   0.8626039  -0.2008815   0.1793294
    4    0.0655860  -0.4912488  -0.0252895   0.8444560   0.0070004
    5   -0.0319816   0.1845287  -0.1045474   0.1059853   0.8882052
    6   -0.0059895   0.2226105   0.1656928  -0.0719810  -0.1517680
    7    0.0077989   0.0019606  -0.0028316  -0.0990131   0.3866683

             6           7

    1   -0.0098118  -0.0219385
    2   -0.1911863   0.1520865
    3   -0.0624553  -0.0778127
    4    0.1997967   0.0256878
    5    0.0222475  -0.3916119
    6    0.9120692  -0.2507381
    7    0.2952407   0.8680117

     $REFDET GROUP FOUND

 *************************************************************************
     STEP 2: DIABATIZATION USING CONFIGURATION UNIFORMITY
  See Atchity and Ruedenberg, Theor. Chem. Acc. 1997, 97, 47
 *************************************************************************

READ-IN LIST OF DIABATIC PROTOTYPES:

     THE SAME NUMBER OF PROTOTYPE GROUPS & ADIABATS

     THE ADIABS SHOULD HAVE FULLY COVER THE PROTOTYPES

 Approximated Overlap Matrix for truncated adiabats:
   0.7639134650  -0.0093822196  -0.1029129219
  -0.0093822196   0.7632737452   0.0762705540
  -0.1029129219   0.0762705540   0.0213297682

 MKDIAB: CANNOT SYMMETRICALLY ORTHOGONALIZE. STOP
   9.1057485155149581E-005   1.0000000000000000E-004
 EXECUTION OF GAMESS TERMINATED -ABNORMALLY- AT Wed Nov 16 18:32:05 2022
            100000000  WORDS OF DYNAMIC MEMORY USED
 CPU     0: STEP CPU TIME=     0.06 TOTAL CPU TIME=         18.5 (      0.3 MIN)
 TOTAL WALL CLOCK TIME=         18.5 SECONDS, CPU UTILIZATION IS    99.89%
 DDI Process 0: error code 911
 ddikick.x: application process 0 quit unexpectedly.
 ddikick.x: Fatal error detected.
 The error is most likely to be in the application, so check for
 input errors, disk space, memory needs, application bugs, etc.
 ddikick.x will now clean up all processes, and exit...
 ddikick.x: Sending kill signal to DDI processes.
 ddikick.x: Execution terminated due to error(s).
unset echo
----- accounting info -----
Files used on the master node io002 were:
-rw-r--r-- 1 bsonghao nooijen   20716 Nov 16 18:31 /scratch/bsonghao/nh3_diabatization_2d_at_mode_7_8_dist-0.7_0.6.F05
-rw-r--r-- 1 bsonghao nooijen  363520 Nov 16 18:32 /scratch/bsonghao/nh3_diabatization_2d_at_mode_7_8_dist-0.7_0.6.F09
-rw-r--r-- 1 bsonghao nooijen 1995920 Nov 16 18:32 /scratch/bsonghao/nh3_diabatization_2d_at_mode_7_8_dist-0.7_0.6.F10
-rw-r--r-- 1 bsonghao nooijen  131264 Nov 16 18:32 /scratch/bsonghao/nh3_diabatization_2d_at_mode_7_8_dist-0.7_0.6.F13
-rw-r--r-- 1 bsonghao nooijen  180312 Nov 16 18:32 /scratch/bsonghao/nh3_diabatization_2d_at_mode_7_8_dist-0.7_0.6.F15
-rw-r--r-- 1 bsonghao nooijen       0 Nov 16 18:31 /scratch/bsonghao/nh3_diabatization_2d_at_mode_7_8_dist-0.7_0.6.F16
-rw-r--r-- 1 bsonghao nooijen    9808 Nov 16 18:32 /scratch/bsonghao/nh3_diabatization_2d_at_mode_7_8_dist-0.7_0.6.F70
-rw-r--r-- 1 bsonghao nooijen    9808 Nov 16 18:32 /scratch/bsonghao/nh3_diabatization_2d_at_mode_7_8_dist-0.7_0.6.F71
-rw-r--r-- 1 bsonghao nooijen   19608 Nov 16 18:32 /scratch/bsonghao/nh3_diabatization_2d_at_mode_7_8_dist-0.7_0.6.F72
-rw-r--r-- 1 bsonghao nooijen   19608 Nov 16 18:32 /scratch/bsonghao/nh3_diabatization_2d_at_mode_7_8_dist-0.7_0.6.F73
-rw-r--r-- 1 bsonghao nooijen 1920824 Nov 16 18:32 /scratch/bsonghao/nh3_diabatization_2d_at_mode_7_8_dist-0.7_0.6.F74
-rw-r--r-- 1 bsonghao nooijen       0 Nov 16 18:31 /scratch/bsonghao/nh3_diabatization_2d_at_mode_7_8_dist-0.7_0.6.F75
-rw-r--r-- 1 bsonghao nooijen   58848 Nov 16 18:32 /scratch/bsonghao/nh3_diabatization_2d_at_mode_7_8_dist-0.7_0.6.F76
-rw-r--r-- 1 bsonghao nooijen       0 Nov 16 18:31 /scratch/bsonghao/nh3_diabatization_2d_at_mode_7_8_dist-0.7_0.6.F77
-rw-r--r-- 1 bsonghao nooijen    1864 Nov 16 18:32 /scratch/bsonghao/nh3_diabatization_2d_at_mode_7_8_dist-0.7_0.6.F78
-rw-r--r-- 1 bsonghao nooijen   39208 Nov 16 18:32 /scratch/bsonghao/nh3_diabatization_2d_at_mode_7_8_dist-0.7_0.6.F79
-rw-r--r-- 1 bsonghao nooijen     104 Nov 16 18:32 /scratch/bsonghao/nh3_diabatization_2d_at_mode_7_8_dist-0.7_0.6.F80
-rw-r--r-- 1 bsonghao nooijen   13472 Nov 16 18:32 /scratch/bsonghao/nh3_diabatization_2d_at_mode_7_8_dist-0.7_0.6.F81
-rw-r--r-- 1 bsonghao nooijen      16 Nov 16 18:32 /scratch/bsonghao/nh3_diabatization_2d_at_mode_7_8_dist-0.7_0.6.F82
-rw-r--r-- 1 bsonghao nooijen   19216 Nov 16 18:32 /scratch/bsonghao/nh3_diabatization_2d_at_mode_7_8_dist-0.7_0.6.F83
-rw-r--r-- 1 bsonghao nooijen   29712 Nov 16 18:32 /scratch/bsonghao/nh3_diabatization_2d_at_mode_7_8_dist-0.7_0.6.F84
-rw-r--r-- 1 bsonghao nooijen  401576 Nov 16 18:32 /scratch/bsonghao/nh3_diabatization_2d_at_mode_7_8_dist-0.7_0.6.F85
-rw-r--r-- 1 bsonghao nooijen  903672 Nov 16 18:32 /scratch/bsonghao/nh3_diabatization_2d_at_mode_7_8_dist-0.7_0.6.F86
-rw-r--r-- 1 bsonghao nooijen     656 Nov 16 18:32 /scratch/bsonghao/nh3_diabatization_2d_at_mode_7_8_dist-0.7_0.6.F87
-rw-r--r-- 1 bsonghao nooijen   46384 Nov 16 18:32 /scratch/bsonghao/nh3_diabatization_2d_at_mode_7_8_dist-0.7_0.6.F88
-rw-r--r-- 1 bsonghao nooijen     240 Nov 16 18:32 /scratch/bsonghao/nh3_diabatization_2d_at_mode_7_8_dist-0.7_0.6.F89
-rw-r--r-- 1 bsonghao nooijen       0 Nov 16 18:31 /scratch/bsonghao/nh3_diabatization_2d_at_mode_7_8_dist-0.7_0.6.F90
-rw-r--r-- 1 bsonghao nooijen   13760 Nov 16 18:32 /scratch/bsonghao/nh3_diabatization_2d_at_mode_7_8_dist-0.7_0.6.F91
-rw-r--r-- 1 bsonghao nooijen   22776 Nov 16 18:32 /scratch/bsonghao/nh3_diabatization_2d_at_mode_7_8_dist-0.7_0.6.F92
-rw-r--r-- 1 bsonghao nooijen   23168 Nov 16 18:32 /scratch/bsonghao/nh3_diabatization_2d_at_mode_7_8_dist-0.7_0.6.F93
-rw-r--r-- 1 bsonghao nooijen   22776 Nov 16 18:32 /scratch/bsonghao/nh3_diabatization_2d_at_mode_7_8_dist-0.7_0.6.F94
-rw-r--r-- 1 bsonghao nooijen   13760 Nov 16 18:32 /scratch/bsonghao/nh3_diabatization_2d_at_mode_7_8_dist-0.7_0.6.F95
-rw-r--r-- 1 bsonghao nooijen   29440 Nov 16 18:32 /scratch/bsonghao/nh3_diabatization_2d_at_mode_7_8_dist-0.7_0.6.F96
-rw-r--r-- 1 bsonghao nooijen    1184 Nov 16 18:32 /scratch/bsonghao/nh3_diabatization_2d_at_mode_7_8_dist-0.7_0.6.F97
-rw-r--r-- 1 bsonghao nooijen    9808 Nov 16 18:32 /scratch/bsonghao/nh3_diabatization_2d_at_mode_7_8_dist-0.7_0.6.F98
-rw-r--r-- 1 bsonghao nooijen   30264 Nov 16 18:32 /scratch/bsonghao/nh3_diabatization_2d_at_mode_7_8_dist-0.7_0.6.F99
ls: No match.
ls: No match.
ls: No match.
Wed 16 Nov 2022 06:32:07 PM EST
0.279u 0.052s 0:20.85 1.5%	0+0k 48+240io 0pf+0w
