----- GAMESS execution script 'rungms' -----
This job is running on host io002
under operating system Linux at Wed 16 Nov 2022 07:26:28 PM EST
Available scratch disk space (Kbyte units) at beginning of the job is
Filesystem       1K-blocks       Used   Available Use% Mounted on
/dev/sdc1      15378471580 3278917120 11318349060  23% /scratch
GAMESS temporary binary files will be written to /scratch/bsonghao
GAMESS supplementary output files will be written to /home/bsonghao/.gamess_ascii_files/267638
Copying input file nh3_diabatization_2d_at_mode_7_8_dist0.0_0.8.inp to your run's scratch directory...
cp nh3_diabatization_2d_at_mode_7_8_dist0.0_0.8.inp /scratch/bsonghao/nh3_diabatization_2d_at_mode_7_8_dist0.0_0.8.F05
unset echo
/home/bjb2chen/gamess/ddikick.x /home/bjb2chen/gamess/gamess.00.x nh3_diabatization_2d_at_mode_7_8_dist0.0_0.8 -ddi 1 1 io002 -scr /scratch/bsonghao

 Distributed Data Interface kickoff program.
 Initiating 1 compute processes on 1 nodes to run the following command:
 /home/bjb2chen/gamess/gamess.00.x nh3_diabatization_2d_at_mode_7_8_dist0.0_0.8 

          ******************************************************
          *         GAMESS VERSION = 02 AUG 2018 (R2)         *
          *             FROM IOWA STATE UNIVERSITY             *
          * M.W.SCHMIDT, K.K.BALDRIDGE, J.A.BOATZ, S.T.ELBERT, *
          *   M.S.GORDON, J.H.JENSEN, S.KOSEKI, N.MATSUNAGA,   *
          *          K.A.NGUYEN, S.J.SU, T.L.WINDUS,           *
          *       TOGETHER WITH M.DUPUIS, J.A.MONTGOMERY       *
          *         J.COMPUT.CHEM.  14, 1347-1363(1993)        *
          **************** 64 BIT LINUX VERSION ****************

  SINCE 1993, STUDENTS AND POSTDOCS WORKING AT IOWA STATE UNIVERSITY
  AND ALSO IN THEIR VARIOUS JOBS AFTER LEAVING ISU HAVE MADE IMPORTANT
  CONTRIBUTIONS TO THE CODE:
     IVANA ADAMOVIC, CHRISTINE AIKENS, YURI ALEXEEV, POOJA ARORA,
     ANDREY ASADCHEV, ROB BELL, PRADIPTA BANDYOPADHYAY, JONATHAN BENTZ,
     BRETT BODE, KURT BRORSEN, CALEB CARLIN, GALINA CHABAN, WEI CHEN,
     CHEOL HO CHOI, PAUL DAY, ALBERT DEFUSCO, NUWAN DESILVA, TIM DUDLEY,
     DMITRI FEDOROV, ALEX FINDLATER, GRAHAM FLETCHER, MARK FREITAG,
     KURT GLAESEMANN, ANASTASIA GUININA,
     DAN KEMP, GRANT MERRILL, NORIYUKI MINEZAWA, JONATHAN MULLIN,
     TAKESHI NAGATA, SEAN NEDD, HEATHER NETZLOFF, BOSILJKA NJEGIC, RYAN OLSON,
     MIKE PAK, BUU PHAM,
     SPENCER PRUITT, LUKE ROSKOP, JIM SHOEMAKER, LYUDMILA SLIPCHENKO,
     TONY SMITH, SAROM SOK LEANG, JIE SONG, TETSUYA TAKETSUGU, SIMON WEBB,
     PENG XU, SOOHAENG YOO, FEDERICO ZAHARIEV

  ADDITIONAL CODE HAS BEEN PROVIDED BY COLLABORATORS IN OTHER GROUPS:
     IOWA STATE UNIVERSITY:
          JOE IVANIC, AARON WEST, LAIMUTIS BYTAUTAS, KLAUS RUEDENBERG
     UNIVERSITY OF TOKYO: KIMIHIKO HIRAO, TAKAHITO NAKAJIMA,
          TAKAO TSUNEDA, MUNEAKI KAMIYA, SUSUMU YANAGISAWA,
          KIYOSHI YAGI, MAHITO CHIBA, SEIKEN TOKURA, NAOAKI KAWAKAMI
     UNIVERSITY OF AARHUS: FRANK JENSEN
     UNIVERSITY OF IOWA: VISVALDAS KAIRYS, HUI LI
     NATIONAL INST. OF STANDARDS AND TECHNOLOGY: WALT STEVENS, DAVID GARMER
     UNIVERSITY OF PISA: BENEDETTA MENNUCCI, JACOPO TOMASI
     UNIVERSITY OF MEMPHIS: HENRY KURTZ, PRAKASHAN KORAMBATH
     UNIVERSITY OF ALBERTA: TOBY ZENG, MARIUSZ KLOBUKOWSKI
     UNIVERSITY OF NEW ENGLAND: MARK SPACKMAN
     MIE UNIVERSITY: HIROAKI UMEDA
     NAT. INST. OF ADVANCED INDUSTRIAL SCIENCE AND TECHNOLOGY: KAZUO KITAURA
     MICHIGAN STATE UNIVERSITY:
          KAROL KOWALSKI, MARTA WLOCH, JEFFREY GOUR, JESSE LUTZ,
          WEI LI, JUN SHEN, J. EMILIANO DEUSTUA, PIOTR PIECUCH
     UNIVERSITY OF MINNESOTA:
          YINAN SHU
     UNIVERSITY OF SILESIA: MONIKA MUSIAL, STANISLAW KUCHARSKI
     FACULTES UNIVERSITAIRES NOTRE-DAME DE LA PAIX:
          OLIVIER QUINET, BENOIT CHAMPAGNE
     UNIVERSITY OF CALIFORNIA - SANTA BARBARA: BERNARD KIRTMAN
     INSTITUTE FOR MOLECULAR SCIENCE:
          KAZUYA ISHIMURA, MICHIO KATOUDA, AND SHIGERU NAGASE
     UNIVERSITY OF NOTRE DAME: ANNA POMOGAEVA, DAN CHIPMAN
     KYUSHU UNIVERSITY:
          HARUYUKI NAKANO,
          FENG LONG GU, JACEK KORCHOWIEC, MARCIN MAKOWSKI, AND YURIKO AOKI,
          HIROTOSHI MORI AND EISAKU MIYOSHI
     PENNSYLVANIA STATE UNIVERSITY:
          TZVETELIN IORDANOV, CHET SWALINA, JONATHAN SKONE,
          SHARON HAMMES-SCHIFFER
     WASEDA UNIVERSITY:
          MASATO KOBAYASHI, TOMOKO AKAMA, TSUGUKI TOUMA,
          TAKESHI YOSHIKAWA, YASUHIRO IKABATA, JUNJI SEINO,
          YUYA NAKAJIMA, HIROMI NAKAI
     NANJING UNIVERSITY: SHUHUA LI
     UNIVERSITY OF NEBRASKA:
          PEIFENG SU, DEJUN SI, NANDUN THELLAMUREGE, YALI WANG, HUI LI
     UNIVERSITY OF ZURICH: ROBERTO PEVERATI, KIM BALDRIDGE
     N. COPERNICUS UNIVERSITY AND JACKSON STATE UNIVERSITY:
          MARIA BARYSZ
     UNIVERSITY OF COPENHAGEN: Jimmy Kromann, CASPER STEINMANN
     TOKYO INSTITUTE OF TECHNOLOGY: HIROYA NAKATA
     NAGOYA UNIVERSITY: YOSHIO NISHIMOTO, STEPHAN IRLE
     MOSCOW STATE UNIVERSITY: VLADIMIR MIRONOV

 EXECUTION OF GAMESS BEGUN Wed Nov 16 19:26:28 2022

            ECHO OF THE FIRST FEW INPUT CARDS -
 INPUT CARD> $system kdiag=3 mwords=100 memddi=1000 parall=.t. $end                         
 INPUT CARD> $contrl runtyp=energy ispher=1 $end                                            
 INPUT CARD> $contrl icut=9 itol=20 inttyp=rysquad qmttol=1.0d-05 nosym=1 $end              
 INPUT CARD> $scf    npunch=2 conv=1.0d-06 dirscf=.t.      $end                             
 INPUT CARD> $contrl scftyp=mcscf  mult=2 maxit=200 icharg=1 mplevl=2 $end                  
 INPUT CARD> $guess  guess=moread norb=29 purify=.t. $end                                   
 INPUT CARD> $basis  gbasis=ccd $end                                                        
 INPUT CARD> $mcscf  cistep=gmcci fullnr=.t. finci=mos                                      
 INPUT CARD>         acurcy=1.d-6 maxit=100 $end                                            
 INPUT CARD> $trans  dirtrf=.t. $end                                                        
 INPUT CARD> $mrmp   mrpt=gmcpt rdvecs=.f. $end                                             
 INPUT CARD> $gmcpt  nmofzc=0 nmodoc=1 nmoact=7 nelact=7 stsym(1)=A                         
 INPUT CARD>         reftyp=ormas nspace=1 mstart(1)=2 mine(1)=7 maxe(1)=7                  
 INPUT CARD>         kstate(1)=1,1,1                                                        
 INPUT CARD>         wstate(1)=1,1,1                                                        
 INPUT CARD>         iwgt=0 thrwgt=-1.0 krot=.f. kszdoe=.f. knospn=.f.                      
 INPUT CARD>         thrde=-1.0 edshft=0.02 $end                                            
 INPUT CARD> $data                                                                          
 INPUT CARD> NH3+ 3 states calculation at NH3 structure.                                    
 INPUT CARD> c1                                                                             
 INPUT CARD>N 7.0 -0.049831344 -0.0 -0.1693811162                                           
 INPUT CARD>H 1.0 -0.05802065000000001 1.1116707198 0.15087273210000002                     
 INPUT CARD>H 1.0 -0.058020666 -1.1116707118 0.15087271610000003                            
 INPUT CARD>H 1.0 0.808461204 1.6e-08 0.46764185210000003                                   
 INPUT CARD>$end                                                                            
 INPUT CARD>--- OPTIMIZED RHF      MO-S --- GENERATED AT Mon Nov 14 16:47:08 2022           
 INPUT CARD>E=      -56.3825050291, E(NUC)=   11.8429239490                                 
 INPUT CARD> $VEC                                                                           
 INPUT CARD> 1  1-1.00134066E+00-2.25158504E-03 3.44925845E-03 0.00000000E+00 0.00000000E+00
 INPUT CARD> 1  2-2.13170927E-03 0.00000000E+00 0.00000000E+00 6.57129898E-04-6.87950443E-05
 INPUT CARD> 1  3-6.87950443E-05 1.37590089E-04 0.00000000E+00 0.00000000E+00 0.00000000E+00
 INPUT CARD> 1  4 3.25502815E-04-4.84772356E-04 3.62525460E-04-6.27912517E-04-3.45956485E-04
 INPUT CARD> 1  5 3.25502815E-04-4.84772356E-04 3.62525460E-04 6.27912517E-04-3.45956485E-04
 INPUT CARD> 1  6 3.25502815E-04-4.84772356E-04-7.25050921E-04 0.00000000E+00-3.45956485E-04
 INPUT CARD> 2  1 1.31286642E-02-4.05911371E-01-2.82090992E-01 0.00000000E+00 0.00000000E+00
 INPUT CARD> 2  2-7.71489043E-02 0.00000000E+00 0.00000000E+00 9.73717494E-03 6.62450916E-04
 INPUT CARD> 2  3 6.62450916E-04-1.32490183E-03 0.00000000E+00 0.00000000E+00 0.00000000E+00
 INPUT CARD> 2  4-1.96090317E-01-1.96656153E-02-1.74855877E-02 3.02859263E-02 8.68214399E-03
 INPUT CARD> 2  5-1.96090317E-01-1.96656153E-02-1.74855877E-02-3.02859263E-02 8.68214399E-03
 INPUT CARD> 2  6-1.96090317E-01-1.96656153E-02 3.49711754E-02 0.00000000E+00 8.68214399E-03
 INPUT CARD> 3  1 0.00000000E+00 0.00000000E+00 0.00000000E+00 4.48608762E-01 0.00000000E+00
 INPUT CARD> 3  2 0.00000000E+00 2.18692520E-01 0.00000000E+00 0.00000000E+00 1.30198027E-02
 INPUT CARD> 3  3-1.30198027E-02 0.00000000E+00 0.00000000E+00 2.71832968E-02 0.00000000E+00
 INPUT CARD> 3  4-1.85332726E-01-7.03958951E-02 8.47929477E-03 1.95242443E-02 8.32835058E-03
 INPUT CARD> 3  5-1.85332726E-01-7.03958951E-02 8.47929477E-03-1.95242443E-02 8.32835058E-03
 INPUT CARD> 3  6 3.70665453E-01 1.40791790E-01-2.53376884E-02 0.00000000E+00-1.66567012E-02
 INPUT CARD> 4  1 0.00000000E+00 0.00000000E+00 0.00000000E+00 0.00000000E+00 4.48608762E-01
 INPUT CARD> 4  2 0.00000000E+00 0.00000000E+00 2.18692520E-01 0.00000000E+00 0.00000000E+00
 INPUT CARD> 4  3 0.00000000E+00 0.00000000E+00-1.50339731E-02 0.00000000E+00 2.71832968E-02
 INPUT CARD> 4  4 3.21005698E-01 1.21929267E-01 1.95242443E-02-1.40653607E-02-1.44251263E-02
  100000000 WORDS OF MEMORY AVAILABLE

     BASIS OPTIONS
     -------------
     GBASIS=CCD          IGAUSS=       0      POLAR=NONE    
     NDFUNC=       0     NFFUNC=       0     DIFFSP=       F
     NPFUNC=       0      DIFFS=       F     BASNAM=        


     RUN TITLE
     ---------
  NH3+ 3 states calculation at NH3 structure.                                    

 THE POINT GROUP OF THE MOLECULE IS C1      
 THE ORDER OF THE PRINCIPAL AXIS IS     0

 ATOM      ATOMIC                      COORDINATES (BOHR)
           CHARGE         X                   Y                   Z
 N           7.0    -0.0941675858       -0.0000000000       -0.3200838971
 H           1.0    -0.1096431301        2.1007530490        0.2851081227
 H           1.0    -0.1096431604       -2.1007530339        0.2851080925
 H           1.0     1.5277701473        0.0000000302        0.8837149609

          INTERNUCLEAR DISTANCES (ANGS.)
          ------------------------------

                1 N          2 H          3 H          4 H     

   1 N       0.0000000    1.1569103 *  1.1569103 *  1.0688612 *
   2 H       1.1569103 *  0.0000000    2.2233414 *  1.4446263 *
   3 H       1.1569103 *  2.2233414 *  0.0000000    1.4446264 *
   4 H       1.0688612 *  1.4446263 *  1.4446264 *  0.0000000  

  * ... LESS THAN  3.000


     ATOMIC BASIS SET
     ----------------
 THE CONTRACTED PRIMITIVE FUNCTIONS HAVE BEEN UNNORMALIZED
 THE CONTRACTED BASIS FUNCTIONS ARE NOW NORMALIZED TO UNITY

  SHELL TYPE  PRIMITIVE        EXPONENT          CONTRACTION COEFFICIENT(S)

 N         

      1   S       1          9046.0000000    0.000699617413
      1   S       2          1357.0000000    0.005386054630
      1   S       3           309.3000000    0.027391021189
      1   S       4            87.7300000    0.103150591982
      1   S       5            28.5600000    0.278570663317
      1   S       6            10.2100000    0.448294849454
      1   S       7             3.8380000    0.278085928395
      1   S       8             0.7466000    0.015431561233

      2   S       9          9046.0000000   -0.000304990096
      2   S      10          1357.0000000   -0.002408026379
      2   S      11           309.3000000   -0.011944448725
      2   S      12            87.7300000   -0.048925992909
      2   S      13            28.5600000   -0.134472724725
      2   S      14            10.2100000   -0.315112577700
      2   S      15             3.8380000   -0.242857832550
      2   S      16             0.7466000    1.094382206854

      3   S      17             0.2248000    1.000000000000

      4   P      18            13.5500000    0.058905676772
      4   P      19             2.9170000    0.320461106714
      4   P      20             0.7973000    0.753042061792

      5   P      21             0.2185000    1.000000000000

      6   D      22             0.8170000    1.000000000000

 H         

      7   S      23            13.0100000    0.033498726390
      7   S      24             1.9620000    0.234800801174
      7   S      25             0.4446000    0.813682957883

      8   S      26             0.1220000    1.000000000000

      9   P      27             0.7270000    1.000000000000

 H         

     10   S      28            13.0100000    0.033498726390
     10   S      29             1.9620000    0.234800801174
     10   S      30             0.4446000    0.813682957883

     11   S      31             0.1220000    1.000000000000

     12   P      32             0.7270000    1.000000000000

 H         

     13   S      33            13.0100000    0.033498726390
     13   S      34             1.9620000    0.234800801174
     13   S      35             0.4446000    0.813682957883

     14   S      36             0.1220000    1.000000000000

     15   P      37             0.7270000    1.000000000000

 TOTAL NUMBER OF BASIS SET SHELLS             =   15
 NUMBER OF CARTESIAN GAUSSIAN BASIS FUNCTIONS =   30
 NOTE: THIS RUN WILL RESTRICT THE MO VARIATION SPACE TO SPHERICAL HARMONICS.
 THE NUMBER OF ORBITALS KEPT IN THE VARIATIONAL SPACE WILL BE PRINTED LATER.
 NUMBER OF ELECTRONS                          =    9
 CHARGE OF MOLECULE                           =    1
 SPIN MULTIPLICITY                            =    2
 NUMBER OF OCCUPIED ORBITALS (ALPHA)          =    5
 NUMBER OF OCCUPIED ORBITALS (BETA )          =    4
 TOTAL NUMBER OF ATOMS                        =    4
 THE NUCLEAR REPULSION ENERGY IS       10.8398986856

     $CONTRL OPTIONS
     ---------------
 SCFTYP=MCSCF        RUNTYP=ENERGY       EXETYP=RUN     
 MPLEVL=       2     CITYP =NONE         CCTYP =NONE         VBTYP =NONE    
 DFTTYP=NONE         TDDFT =NONE    
 MULT  =       2     ICHARG=       1     NZVAR =       0     COORD =UNIQUE  
 PP    =NONE         RELWFN=NONE         LOCAL =NONE         NUMGRD=       F
 ISPHER=       1     NOSYM =       1     MAXIT =     200     UNITS =ANGS    
 PLTORB=       F     MOLPLT=       F     AIMPAC=       F     FRIEND=        
 NPRINT=       7     IREST =       0     GEOM  =INPUT   
 NORMF =       0     NORMP =       0     ITOL  =      20     ICUT  =       9
 INTTYP=RYSQUAD      GRDTYP=BEST         QMTTOL= 1.0E-05

     $SYSTEM OPTIONS
     ---------------
  REPLICATED MEMORY=   100000000 WORDS (ON EVERY NODE).
 DISTRIBUTED MEMDDI=        1000 MILLION WORDS IN AGGREGATE,
 MEMDDI DISTRIBUTED OVER   1 PROCESSORS IS  1000000000 WORDS/PROCESSOR.
 TOTAL MEMORY REQUESTED ON EACH PROCESSOR=  1100000000 WORDS.
 TIMLIM=      525600.00 MINUTES, OR     365.0 DAYS.
 PARALL= T  BALTYP=  DLB     KDIAG=    3  COREFL= F
 MXSEQ2=     300 MXSEQ3=     150  mem10=         0

          ----------------
          PROPERTIES INPUT
          ----------------

     MOMENTS            FIELD           POTENTIAL          DENSITY
 IEMOM =       1   IEFLD =       0   IEPOT =       0   IEDEN =       0
 WHERE =COMASS     WHERE =NUCLEI     WHERE =NUCLEI     WHERE =NUCLEI  
 OUTPUT=BOTH       OUTPUT=BOTH       OUTPUT=BOTH       OUTPUT=BOTH    
 IEMINT=       0   IEFINT=       0                     IEDINT=       0
                                                       MORB  =       0

     -------------------------------
     INTEGRAL TRANSFORMATION OPTIONS
     -------------------------------
     NWORD  =            0
     CUTOFF = 1.0E-09     MPTRAN =       0
     DIRTRF =       T     AOINTS =DUP     

          ----------------------
          MCSCF INPUT PARAMETERS
          ----------------------
 CONVERGER SELECTION: FOCAS = F  SOSCF = F  FULLNR = T  QUD = F  JACOBI = F
 SECULAR EQUATION METHOD CISTEP = GMCCI   
 --- GENERAL INPUT OPTIONS:
 MAXIT =     100  MICIT =       1  ACURCY= 1.000E-06
 DAMP  =   0.000  CANONC=       T  ENGTOL= 1.000E-10
 EKT   =       F  NPUNCH=       2  NWORD =         0
 REGENERATE CI AFTER CONVERGENCE = NONE    
 DIABATIZATION AFTER CONVERGENCE =        F
 --- INPUT FOR FULLNR CONVERGER:
 METHOD=DM2       FORS  =       F  DROPC =       T
 LINSER=       F  FCORE =       F  NORB  =      30

          ----------------------
          INTEGRAL INPUT OPTIONS
          ----------------------
 NOPK  =       1 NORDER=       0 SCHWRZ=       T

 ------------------------------------------
 MULTIREFERENCE PERTURBATION THEORY CONTROL
 ------------------------------------------
 MRPT=GMCPT    READ CONVERGED MCSCF VECTORS= F


     ------------------------------------------
     THE POINT GROUP IS C1 , NAXIS= 1, ORDER= 1
     ------------------------------------------

 -- VARIATIONAL SPACE WILL BE RESTRICTED TO PURE SPHERICAL HARMONICS ONLY --
 AFTER EXCLUDING CONTAMINANT COMBINATIONS FROM THE CARTESIAN GAUSSIAN BASIS
 SET, THE NUMBER OF SPHERICAL HARMONICS KEPT IN THE VARIATION SPACE IS   29

     DIMENSIONS OF THE SYMMETRY SUBSPACES ARE
 A   =   29

 ..... DONE SETTING UP THE RUN .....
 CPU     0: STEP CPU TIME=     0.04 TOTAL CPU TIME=          0.0 (      0.0 MIN)
 TOTAL WALL CLOCK TIME=          0.0 SECONDS, CPU UTILIZATION IS   100.00%

          ********************
          1 ELECTRON INTEGRALS
          ********************
 TIME TO DO   DIPOLE INTEGRALS=      0.00
 ...... END OF ONE-ELECTRON INTEGRALS ......
 CPU     0: STEP CPU TIME=     0.00 TOTAL CPU TIME=          0.0 (      0.0 MIN)
 TOTAL WALL CLOCK TIME=          0.0 SECONDS, CPU UTILIZATION IS   100.00%

          -------------
          GUESS OPTIONS
          -------------
          GUESS =MOREAD            NORB  =      29          NORDER=       0
          MIX   =       F          PRTMO =       F          PUNMO =       F
          TOLZ  = 1.0E-08          TOLE  = 1.0E-05
          SYMDEN=       F          PURIFY=       T

 INITIAL GUESS ORBITALS GENERATED BY MOREAD   ROUTINE.

 STATISTICS FOR GENERATION OF SYMMETRY ORBITAL -Q- MATRIX
 NUMBER OF CARTESIAN ATOMIC ORBITALS=         30
 NUMBER OF SPHERICAL CONTAMINANTS DROPPED=     1
 NUMBER OF LINEARLY DEPENDENT MOS DROPPED=     0
 TOTAL NUMBER OF MOS IN VARIATION SPACE=      29
 ORBITAL PURIFICATION WILL OCCUR

 SYMMETRIES FOR INITIAL GUESS ORBITALS FOLLOW.   BOTH SET(S).
     5 ORBITALS ARE OCCUPIED (    1 CORE ORBITALS).
     1=A        2=A        3=A        4=A        5=A        6=A        7=A   
     8=A        9=A       10=A       11=A       12=A       13=A       14=A   
    15=A       16=A       17=A       18=A       19=A       20=A       21=A   
    22=A       23=A       24=A       25=A       26=A       27=A       28=A   
    29=A   
 ...... END OF INITIAL ORBITAL SELECTION ......
 CPU     0: STEP CPU TIME=     0.00 TOTAL CPU TIME=          0.0 (      0.0 MIN)
 TOTAL WALL CLOCK TIME=          0.1 SECONDS, CPU UTILIZATION IS    80.00%

                    ----------------------
                    AO INTEGRAL TECHNOLOGY
                    ----------------------
     S,P,L SHELL ROTATED AXIS INTEGRALS, REPROGRAMMED BY
        KAZUYA ISHIMURA (IMS) AND JOSE SIERRA (SYNSTAR).
     S,P,D,L SHELL ROTATED AXIS INTEGRALS PROGRAMMED BY
        KAZUYA ISHIMURA (INSTITUTE FOR MOLECULAR SCIENCE).
     S,P,D,F,G SHELL TO TOTAL QUARTET ANGULAR MOMENTUM SUM 5,
        ERIC PROGRAM BY GRAHAM FLETCHER (ELORET AND NASA ADVANCED
        SUPERCOMPUTING DIVISION, AMES RESEARCH CENTER).
     S,P,D,F,G,L SHELL GENERAL RYS QUADRATURE PROGRAMMED BY
        MICHEL DUPUIS (PACIFIC NORTHWEST NATIONAL LABORATORY).

          --------------------
          2 ELECTRON INTEGRALS
          --------------------

 DIRECT SCF METHOD SKIPS INTEGRAL STORAGE ON DISK.
 DIRECT TRANSFORMATION SKIPS AO INTEGRAL STORAGE ON DISK.
  ...... END OF TWO-ELECTRON INTEGRALS .....
 STEP CPU TIME =     0.03 TOTAL CPU TIME =          0.1 (      0.0 MIN)
 TOTAL WALL CLOCK TIME=          0.1 SECONDS, CPU UTILIZATION IS   100.00%
 DDI: Creating Array [0] - 900 x 36 = 32400 words.
 DDI: Creating Array [1] - 21 x 288 = 6048 words.
 DDI: Creating Array [2] - 36 x 36 = 1296 words.
 DDI: Creating Array [3] - 465 x 36 = 16740 words.

          -----------------
          MCSCF CALCULATION
          -----------------

 ----- NUCLEAR ENERGY ----- =        10.8398986856

     -------------------------------------------------
     GMC-PT/GMC-QDPT or general MCSCF input parameters
     -------------------------------------------------
 # of frozen core orbs. =         0 ->         0
 # of doubly occ. orbs. =         1
 # of active      orbs. =         7
 # of virtual     orbs. =        21
 # of active electrons  =         7
 # of states in CI      =         3
 Highest state in CI    =         3
 kstate =  1 1 1
 avecoe =  0.333 0.333 0.333
 State symmetry           = A           
 Assigned symmetry number = 1

 <<<Act. MO sym.: 1111111

 <<<Division of 1-ext.:  0
 <<<Division of 2-ext.:  0

 *** Reference space

 Reference type: ORMAS (= Occupation restricted multiple active space)
 # of orbitals          =  7
 # of minimum electrons =  7
 # of maximum electrons =  7
 State symmetry    =    1 (input)
 2*Sz              =    1 (input)
 Spin multiplicity =    2 (input)
 Dimension of reference space =      1225  (from      3432 walks)

 Dimension of reference space =      1225  (from      1225 walks)

 <<<Ionized spaces for Ref-CI:
      0:         1225 /   -1-0:         1960 /  0-1-0:         2891

 EVALUATING EXCHANGE INTEGRALS FOR DIRECT INTEGRAL TRANSFORMATION
 SCHWARZ INEQUALITY OVERHEAD:       465 INTEGRALS, T=        0.01

     --------------------------------------------
     PARTIAL TWO ELECTRON INTEGRAL TRANSFORMATION
     --------------------------------------------

 NUMBER OF CORE MOLECULAR ORBITALS     =    1
 NUMBER OF OCCUPIED MOLECULAR ORBITALS =    8
 TOTAL NUMBER OF MOLECULAR ORBITALS    =   29
 TOTAL NUMBER OF ATOMIC ORBITALS       =   30
 THRESHOLD FOR KEEPING TRANSFORMED 2E- INTEGRALS = 1.000E-09

 -------------------------------     ------------------------------
 DISTRIBUTED DATA TRANSFORMATION     PROGRAM WRITTEN BY G. FLETCHER
 -------------------------------     ------------------------------

 THE DISTRIBUTED MEMORY REQUIRED FOR THIS STEP IS MEMDDI=         1 MWORDS
 CREATING DISTRIBUTED STORAGE FOR [VIR OCC|VIR OCC] INTEGRALS
 CREATING DISTRIBUTED STORAGE FOR [VIR OCC|OCC OCC] INTEGRALS
 CREATING DISTRIBUTED STORAGE FOR [OCC OCC|OCC OCC] INTEGRALS
 CREATING DISTRIBUTED STORAGE FOR [VIR VIR|OCC OCC] INTEGRALS
 FOR    1 PROCESSORS, THE REPLICATED MEMORY NEEDED IS       73700 WORDS.
 SCHWARZ INEQUALITY OVERHEAD:       465 INTEGRALS, T=        0.00

      DIRECT 4-INDEX TRANSFORMATION 
      SCHWARZ INEQUALITY TEST SKIPPED          0 INTEGRAL BLOCKS
 ----- FROZEN CORE ENERGY =       -47.5517198508
 ... END OF INTEGRAL TRANSFORMATION ...
 CPU     0: STEP CPU TIME=     0.21 TOTAL CPU TIME=          0.3 (      0.0 MIN)
 TOTAL WALL CLOCK TIME=          0.3 SECONDS, CPU UTILIZATION IS    96.55%

     --------------------------------     -----------------------------
     MCHF NEWTON-RAPHSON OPTIMIZATION     CODE WRITTEN BY MICHEL DUPUIS
     --------------------------------     -----------------------------
     PARALLEL VERSION WRITTEN BY G. FLETCHER (ELORET)
     NASA ADVANCED SUPERCOMPUTING DIVISION, AMES RESEARCH CENTER

 NUMBER OF INDEPENDENT ORBITAL ROTATION PARAMETERS =   118
 ..... DONE SOLVING NEWTON-RAPHSON EQUATIONS .....
 CPU     0: STEP CPU TIME=     0.77 TOTAL CPU TIME=          1.0 (      0.0 MIN)
 TOTAL WALL CLOCK TIME=          1.1 SECONDS, CPU UTILIZATION IS    99.06%
 ..... DONE WITH NTN-RPH ORBITAL ROTATIONS ..... 
 CPU     0: STEP CPU TIME=     0.00 TOTAL CPU TIME=          1.0 (      0.0 MIN)
 TOTAL WALL CLOCK TIME=          1.1 SECONDS, CPU UTILIZATION IS    99.06%
 MAXIMUM MEMORY USED BY NTN-RPH CODE WAS     57645 WORDS.

 ITER     TOTAL ENERGY      DEL(E)  LAGRANGIAN ASYMMETRY   SQCDF  MICIT   DAMP
   1      -55.585967150 -0.585967150  0.121270    9    3 9.449E-02  1   0.0000
   2      -55.651884755 -0.065917605  0.019895   12    5 4.616E-01  1   0.0000
   3      -55.688958930 -0.037074175  0.014493   11    6 2.219E-01  1   0.0167
   4      -55.705871819 -0.016912889  0.005042   11    6 4.102E-02  1   0.0061
   5      -55.708090813 -0.002218994  0.001581   13    5 1.080E-03  1   0.0000
   6      -55.708171037 -0.000080224  0.000669   13    5 9.513E-05  1   0.0000
   7      -55.708180958 -0.000009921  0.000292   13    5 1.942E-05  1   0.0000
   8      -55.708182973 -0.000002015  0.000134   13    5 4.502E-06  1   0.0000
   9      -55.708183424 -0.000000452  0.000063   13    5 1.104E-06  1   0.0000
  10      -55.708183531 -0.000000107  0.000030   13    5 2.831E-07  1   0.0000
  11      -55.708183557 -0.000000026  0.000015   13    5 7.539E-08  1   0.0000
  12      -55.708183564 -0.000000007  0.000007   13    5 2.076E-08  1   0.0000
  13      -55.708183566 -0.000000002  0.000004   13    5 5.892E-09  1   0.0000
  14      -55.708183567 -0.000000000  0.000002   13    5 1.708E-09  1   0.0000
  15      -55.708183567 -0.000000000  0.000001   22    5 4.939E-10  1   0.0000

          --------------------
          LAGRANGIAN CONVERGED
          --------------------

 FINAL MCSCF ENERGY IS      -55.7081835667 AFTER  15 ITERATIONS

 -MCCI- BASED ON OPTIMIZED ORBITALS
 ----------------------------------

 PLEASE NOTE: IF THE ACTIVE ORBITALS ARE CANONICALIZED BELOW,
 THE FOLLOWING CI EXPANSION COEFFICIENTS AND THE DENSITY DO NOT
 CORRESPOND TO THE PRINTED ORBITALS.  THE PRINTED EXPANSIONS MATCH
 THE ORBITALS USED DURING THE LAST ITERATION.  IF YOU WISH TO SEE
 CI EXPANSIONS BASED ON THE CANONICAL (OR NATURAL) ORBITALS, YOU
 MUST RUN A CI CALCULATION WITH THAT ORBITAL CHOICE READ IN $VEC.

 Averaged energy =     -55.708183567

 State #    1  Energy =     -55.847510573  S =  0.500

      Det      Coef    Occupancy (Ignoring core)
      ---      ----    --------- --------- -----
        1    0.855063  11110001110000
        2    0.065510  11101001110000
        4   -0.058062  10111001110000
        5   -0.076530  01111001110000
        6    0.065800  11100101110000
        8   -0.162768  10110101110000
       17   -0.117210  11010011110000
       71   -0.375200  11110001011000
       76   -0.067819  11100101011000
       78    0.064505  10110101011000
      211    0.054011  11110000110100
      386    0.094949  11110001010010
      393    0.076122  10110101010010
      701    0.097457  11110001100001

 State #    2  Energy =     -55.700013198  S =  0.500

      Det      Coef    Occupancy (Ignoring core)
      ---      ----    --------- --------- -----
        1    0.365203  11110001110000
        8   -0.053262  10110101110000
       17   -0.059581  11010011110000
       71    0.861389  11110001011000
       74   -0.103048  10111001011000
       75   -0.071016  01111001011000
       76    0.073511  11100101011000
       78   -0.127465  10110101011000
       87   -0.091800  11010011011000
      106    0.060586  11110000111000
      113   -0.061835  10110100111000
      176    0.060165  11110001010100
      316    0.056321  11110000011100
      386    0.126773  11110001010010
      806   -0.076336  11110001001001
      822   -0.052557  11010011001001

 State #    3  Energy =     -55.577026930  S =  0.500

      Det      Coef    Occupancy (Ignoring core)
      ---      ----    --------- --------- -----
       36    0.947108  11110001101000
       40   -0.051976  01111001101000
       41    0.050195  11100101101000
       43   -0.116001  10110101101000
       52   -0.055220  11010011101000
      246    0.076371  11110001001100
      281    0.086203  11110000101100
      351    0.069437  11110001100010
      456    0.141516  11110001001010
      463    0.080094  10110101001010

 DENSITY MATRIX OVER ACTIVE MO-S

             1           2           3           4           5

    1    1.9708239
    2    0.0392654   1.6058455
    3   -0.0000000   0.0000000   1.6330862
    4   -0.0067940   0.0191261  -0.0000000   1.6422676
    5    0.1176203  -0.1087851   0.0000000   0.0548945   0.0444315
    6    0.0212324  -0.2082569   0.0000000   0.1210663   0.0267337
    7    0.0000000  -0.0000000   0.1332258  -0.0000000   0.0000000

             6           7

    6    0.0708387
    7    0.0000000   0.0327066

 FORMING THE "STANDARD FOCK OPERATOR" IN DIRECT AO INTEGRAL MODE...
 ONLY THE    1 CORE AND   21 VIRTUAL ORBITALS WILL BE CANONICALIZED

          ----------------------
          MCSCF NATURAL ORBITALS
          ----------------------

                      1          2          3          4          5
                  -15.9734     1.9809     1.6536     1.6441     1.6390
                     A          A          A          A          A   
    1  N  1  S    1.001025   0.009888  -0.007784  -0.000000  -0.004379
    2  N  1  S   -0.002063   0.433507  -0.161421  -0.000000  -0.117606
    3  N  1  S   -0.006458   0.335742  -0.259791  -0.000000  -0.178129
    4  N  1  X    0.000147   0.067889  -0.118891   0.000000   0.527694
    5  N  1  Y   -0.000000  -0.000000  -0.000000   0.467102  -0.000000
    6  N  1  Z    0.001013   0.084592   0.585450   0.000000   0.022023
    7  N  1  X   -0.000054   0.008594  -0.113309   0.000000   0.293294
    8  N  1  Y   -0.000000   0.000000  -0.000000   0.201157  -0.000000
    9  N  1  Z   -0.000528   0.014234   0.392730   0.000000  -0.034676
   10  N  1 XX   -0.000065  -0.002271  -0.012628   0.000000   0.017272
   11  N  1 YY    0.000131   0.002736  -0.010149  -0.000000  -0.018805
   12  N  1 ZZ   -0.000066  -0.000465   0.022777   0.000000   0.001532
   13  N  1 XY   -0.000000   0.000000  -0.000000   0.002759  -0.000000
   14  N  1 XZ    0.000189   0.003577   0.003973   0.000000   0.023237
   15  N  1 YZ   -0.000000   0.000000  -0.000000   0.017995  -0.000000
   16  H  2  S   -0.001338   0.153107   0.090079   0.326290  -0.111249
   17  H  2  S    0.000463   0.000173   0.031776   0.056559  -0.051360
   18  H  2  X   -0.000040   0.003553  -0.001804   0.004892   0.021350
   19  H  2  Y    0.000710  -0.028790  -0.011297  -0.039379   0.007711
   20  H  2  Z    0.000254  -0.003597   0.021262  -0.008243   0.004056
   21  H  3  S   -0.001338   0.153107   0.090079  -0.326290  -0.111249
   22  H  3  S    0.000463   0.000173   0.031776  -0.056559  -0.051360
   23  H  3  X   -0.000040   0.003553  -0.001804  -0.004892   0.021350
   24  H  3  Y   -0.000710   0.028790   0.011297  -0.039379  -0.007711
   25  H  3  Z    0.000254  -0.003597   0.021262   0.008243   0.004056
   26  H  4  S   -0.001813   0.222832   0.135981   0.000000   0.363813
   27  H  4  S    0.000294   0.009719   0.032034   0.000000   0.109474
   28  H  4  X    0.000853  -0.032255  -0.024230  -0.000000  -0.018814
   29  H  4  Y   -0.000000  -0.000000  -0.000000   0.025998  -0.000000
   30  H  4  Z    0.000596  -0.020333   0.016637  -0.000000  -0.025423

                      6          7          8
                    0.0373     0.0234     0.0217
                     A          A          A   
    1  N  1  S   -0.135222  -0.144368  -0.000000
    2  N  1  S   -0.458576  -0.519701  -0.000000
    3  N  1  S    0.031534  -0.209470  -0.000000
    4  N  1  X    0.571794  -0.481952  -0.000000
    5  N  1  Y   -0.000000  -0.000000   0.916532
    6  N  1  Z   -0.161638  -0.639344  -0.000000
    7  N  1  X   -0.072976  -0.094393  -0.000000
    8  N  1  Y    0.000000  -0.000000   0.076302
    9  N  1  Z    0.082625   0.070859  -0.000000
   10  N  1 XX   -0.069962  -0.006028  -0.000000
   11  N  1 YY    0.076792   0.008472  -0.000000
   12  N  1 ZZ   -0.006830  -0.002445   0.000000
   13  N  1 XY    0.000000   0.000000  -0.060165
   14  N  1 XZ    0.007006   0.056789   0.000000
   15  N  1 YZ    0.000000   0.000000  -0.054372
   16  H  2  S    0.510959   0.223828  -0.538054
   17  H  2  S    0.131353   0.016135  -0.144360
   18  H  2  X   -0.020745   0.013404  -0.014810
   19  H  2  Y   -0.051484  -0.030747   0.052238
   20  H  2  Z    0.000344   0.023794  -0.024141
   21  H  3  S    0.510959   0.223828   0.538054
   22  H  3  S    0.131353   0.016135   0.144360
   23  H  3  X   -0.020745   0.013404   0.014810
   24  H  3  Y    0.051484   0.030747   0.052238
   25  H  3  Z    0.000344   0.023793   0.024141
   26  H  4  S   -0.375585   0.741375   0.000000
   27  H  4  S   -0.158098   0.157400   0.000000
   28  H  4  X    0.000814  -0.057647  -0.000000
   29  H  4  Y   -0.000000   0.000000  -0.056435
   30  H  4  Z    0.024570  -0.001791  -0.000000

          ------------------------
          MCSCF OPTIMIZED ORBITALS
          ------------------------

                      1          2          3          4          5
                  -15.9734     0.0000     0.0000     0.0000     0.0000
                     A          A          A          A          A   
    1  N  1  S    1.001025  -0.002362   0.015414   0.000000  -0.017603
    2  N  1  S   -0.002063   0.395864  -0.008278  -0.000000  -0.201944
    3  N  1  S   -0.006458   0.338577  -0.141264   0.000000  -0.265878
    4  N  1  X    0.000147   0.027772   0.439830  -0.000000  -0.034323
    5  N  1  Y   -0.000000   0.000000   0.000000   0.389995  -0.000000
    6  N  1  Z    0.001013   0.050595   0.018769  -0.000000   0.577094
    7  N  1  X   -0.000054  -0.023504   0.304339  -0.000000  -0.100182
    8  N  1  Y   -0.000000   0.000000  -0.000000   0.194186  -0.000000
    9  N  1  Z   -0.000528   0.026587  -0.062516   0.000000   0.394529
   10  N  1 XX   -0.000065  -0.007134   0.027739  -0.000000  -0.017233
   11  N  1 YY    0.000131   0.007975  -0.029145   0.000000  -0.004980
   12  N  1 ZZ   -0.000066  -0.000841   0.001406  -0.000000   0.022214
   13  N  1 XY   -0.000000   0.000000  -0.000000   0.007707  -0.000000
   14  N  1 XZ    0.000189   0.004562   0.022593  -0.000000   0.005258
   15  N  1 YZ   -0.000000  -0.000000   0.000000   0.022414  -0.000000
   16  H  2  S   -0.001338   0.194738  -0.173948   0.369514   0.121847
   17  H  2  S    0.000463   0.011132  -0.071377   0.068261   0.039215
   18  H  2  X   -0.000040   0.001468   0.024642   0.006096  -0.002404
   19  H  2  Y    0.000710  -0.033013   0.012936  -0.043549  -0.014531
   20  H  2  Z    0.000254  -0.002675   0.002918  -0.006226   0.021170
   21  H  3  S   -0.001338   0.194738  -0.173948  -0.369514   0.121847
   22  H  3  S    0.000463   0.011132  -0.071377  -0.068261   0.039215
   23  H  3  X   -0.000040   0.001468   0.024642  -0.006096  -0.002404
   24  H  3  Y   -0.000710   0.033013  -0.012936  -0.043549   0.014531
   25  H  3  Z    0.000254  -0.002675   0.002918   0.006226   0.021170
   26  H  4  S   -0.001813   0.209639   0.435425   0.000000   0.116358
   27  H  4  S    0.000294   0.001038   0.132434  -0.000000   0.023500
   28  H  4  X    0.000853  -0.033278  -0.020967  -0.000000  -0.024334
   29  H  4  Y   -0.000000  -0.000000  -0.000000   0.030560  -0.000000
   30  H  4  Z    0.000596  -0.017033  -0.031226   0.000000   0.017190

                      6          7          8          9         10
                    0.0000     0.0000     0.0000     0.1649     0.2132
                     A          A          A          A          A   
    1  N  1  S    0.193701  -0.035095  -0.000000  -0.138115   0.000000
    2  N  1  S    0.706725  -0.105732  -0.000000  -0.214047   0.000000
    3  N  1  S    0.181602   0.136220  -0.000000   1.313300  -0.000000
    4  N  1  X    0.065404   0.810404   0.000000  -0.055380  -0.000000
    5  N  1  Y   -0.000000   0.000000   0.951903  -0.000000  -0.193345
    6  N  1  Z    0.650517   0.161734   0.000000  -0.221421   0.000000
    7  N  1  X    0.092731   0.036873  -0.000000   0.229849   0.000000
    8  N  1  Y   -0.000000   0.000000   0.092617   0.000000   0.886073
    9  N  1  Z   -0.084749  -0.006278  -0.000000   0.464283  -0.000000
   10  N  1 XX    0.040116  -0.051647   0.000000  -0.028841   0.000000
   11  N  1 YY   -0.046531   0.057706  -0.000000   0.068623  -0.000000
   12  N  1 ZZ    0.006415  -0.006059   0.000000  -0.039781   0.000000
   13  N  1 XY    0.000000   0.000000  -0.059733   0.000000   0.015003
   14  N  1 XZ   -0.052952  -0.021904   0.000000   0.077978   0.000000
   15  N  1 YZ    0.000000   0.000000  -0.052705   0.000000   0.088151
   16  H  2  S   -0.438275   0.282840  -0.509340   0.380882   0.452045
   17  H  2  S   -0.077909   0.091298  -0.139208  -0.833374  -1.501021
   18  H  2  X   -0.001798  -0.021525  -0.014357   0.003380   0.014337
   19  H  2  Y    0.050502  -0.024354   0.048816   0.067162   0.083417
   20  H  2  Z   -0.019922  -0.013675  -0.024738   0.016708   0.064105
   21  H  3  S   -0.438275   0.282840   0.509340   0.380882  -0.452045
   22  H  3  S   -0.077909   0.091298   0.139208  -0.833374   1.501022
   23  H  3  X   -0.001798  -0.021525   0.014357   0.003380  -0.014337
   24  H  3  Y   -0.050502   0.024354   0.048816  -0.067162   0.083417
   25  H  3  Z   -0.019922  -0.013675   0.024738   0.016708  -0.064105
   26  H  4  S   -0.436251  -0.673653   0.000000   0.230237   0.000000
   27  H  4  S   -0.055597  -0.204186   0.000000  -0.779320  -0.000000
   28  H  4  X    0.046848   0.031168  -0.000000   0.082671   0.000000
   29  H  4  Y    0.000000  -0.000000  -0.054101   0.000000   0.020117
   30  H  4  Z   -0.010071   0.016775  -0.000000   0.081157   0.000000

                     11         12         13         14         15
                    0.2415     0.5343     0.6434     0.6962     0.7877
                     A          A          A          A          A   
    1  N  1  S    0.031672   0.086603   0.106612  -0.000000   0.000000
    2  N  1  S    0.074319   0.148633   0.375975  -0.000000   0.000000
    3  N  1  S   -0.155542  -0.314664   0.145933   0.000000  -0.000000
    4  N  1  X    0.001087  -0.682019  -0.184121   0.000000   0.000000
    5  N  1  Y    0.000000  -0.000000  -0.000000  -0.354418  -0.359729
    6  N  1  Z    0.039431   0.399358  -0.608432   0.000000  -0.000000
    7  N  1  X   -0.369673   1.143831   0.901483  -0.000000  -0.000000
    8  N  1  Y    0.000000   0.000000   0.000000   1.407442   1.287864
    9  N  1  Z   -0.189311  -0.359131   1.156361  -0.000000   0.000000
   10  N  1 XX   -0.069351   0.017030   0.007522   0.000000   0.000000
   11  N  1 YY    0.090429   0.003037  -0.047492   0.000000  -0.000000
   12  N  1 ZZ   -0.021079  -0.020067   0.039970  -0.000000  -0.000000
   13  N  1 XY    0.000000   0.000000  -0.000000  -0.097583   0.193695
   14  N  1 XZ   -0.079504   0.017148  -0.054568   0.000000  -0.000000
   15  N  1 YZ    0.000000  -0.000000  -0.000000  -0.112390  -0.079244
   16  H  2  S    0.368465   0.250559  -0.333923  -0.374540  -0.584689
   17  H  2  S   -1.138439   0.350096   0.412685  -0.417107  -0.319917
   18  H  2  X   -0.002175   0.026035  -0.009625  -0.215628   0.340486
   19  H  2  Y    0.013601  -0.005812   0.003549   0.233510   0.077127
   20  H  2  Z   -0.004592  -0.052940   0.044174  -0.207337  -0.063004
   21  H  3  S    0.368465   0.250559  -0.333923   0.374540   0.584689
   22  H  3  S   -1.138439   0.350096   0.412685   0.417106   0.319918
   23  H  3  X   -0.002175   0.026035  -0.009625   0.215628  -0.340486
   24  H  3  Y   -0.013601   0.005812  -0.003548   0.233510   0.077127
   25  H  3  Z   -0.004592  -0.052940   0.044174   0.207337   0.063004
   26  H  4  S   -0.655129  -0.155060  -0.807548   0.000000  -0.000000
   27  H  4  S    2.232946  -0.630155  -0.512289   0.000000   0.000000
   28  H  4  X   -0.087656   0.085190   0.072239   0.000000   0.000000
   29  H  4  Y   -0.000000   0.000000  -0.000000  -0.423743   0.306883
   30  H  4  Z   -0.067554   0.044132   0.056333  -0.000000  -0.000000

                     16         17         18         19         20
                    1.0088     1.0469     1.1187     1.3173     1.3533
                     A          A          A          A          A   
    1  N  1  S   -0.650544  -0.273090   0.000000  -0.073611  -0.323165
    2  N  1  S   -1.383112  -0.577699   0.000000  -0.162320  -0.693461
    3  N  1  S    2.637662   1.228254  -0.000000   0.154307   1.167714
    4  N  1  X   -0.101097  -0.000807   0.000000  -0.068461   0.035668
    5  N  1  Y   -0.000000   0.000000  -0.358647  -0.000000   0.000000
    6  N  1  Z    0.147967   0.036970   0.000000  -0.039387  -0.068390
    7  N  1  X    0.640602   0.230672  -0.000000  -0.499369   0.118767
    8  N  1  Y    0.000000  -0.000000   1.211352   0.000000  -0.000000
    9  N  1  Z    0.178782   0.543307   0.000000  -0.003861   0.656836
   10  N  1 XX   -0.083115   0.226410   0.000000   0.159268  -0.000320
   11  N  1 YY   -0.102409  -0.016965   0.000000  -0.020473   0.084509
   12  N  1 ZZ    0.185523  -0.209446  -0.000000  -0.138794  -0.084189
   13  N  1 XY   -0.000000   0.000000  -0.160220  -0.000000   0.000000
   14  N  1 XZ   -0.101625  -0.157397   0.000000   0.062407  -0.035702
   15  N  1 YZ    0.000000   0.000000   0.134227   0.000000   0.000000
   16  H  2  S   -0.337416  -0.158212  -0.589511   0.033082  -0.336224
   17  H  2  S   -0.286986  -0.149274  -0.226997  -0.118414   0.010339
   18  H  2  X   -0.024421  -0.236009  -0.299871   0.608004   0.298816
   19  H  2  Y    0.067499   0.127334  -0.190653   0.078652  -0.013763
   20  H  2  Z    0.273974  -0.101190   0.404983   0.217446  -0.598117
   21  H  3  S   -0.337416  -0.158212   0.589511   0.033082  -0.336224
   22  H  3  S   -0.286986  -0.149274   0.226997  -0.118414   0.010339
   23  H  3  X   -0.024421  -0.236009   0.299871   0.608004   0.298816
   24  H  3  Y   -0.067499  -0.127334  -0.190653  -0.078652   0.013763
   25  H  3  Z    0.273974  -0.101190  -0.404983   0.217446  -0.598117
   26  H  4  S   -0.586304  -0.263175   0.000000  -0.025219  -0.349957
   27  H  4  S   -0.432051  -0.201916   0.000000   0.155322  -0.257634
   28  H  4  X   -0.040501   0.557651   0.000000  -0.033290   0.028931
   29  H  4  Y    0.000000   0.000000   0.185455   0.000000   0.000000
   30  H  4  Z    0.266766  -0.469177  -0.000000  -0.498355   0.234347

                     21         22         23         24         25
                    1.6367     1.7050     1.8955     1.9032     2.1327
                     A          A          A          A          A   
    1  N  1  S    0.044298  -0.000000   0.237001  -0.000000  -0.051711
    2  N  1  S    0.203102  -0.000000   0.542867  -0.000001  -0.098982
    3  N  1  S    0.753525  -0.000000  -0.117504   0.000000   0.182642
    4  N  1  X    0.082421  -0.000000   0.395139  -0.000001  -0.050418
    5  N  1  Y    0.000000   0.193122   0.000001   0.454229   0.000000
    6  N  1  Z    0.101771  -0.000000   0.264615  -0.000000  -0.030544
    7  N  1  X   -0.059958   0.000000  -0.257975   0.000000  -0.124757
    8  N  1  Y    0.000000   1.009759   0.000000   0.107236   0.000000
    9  N  1  Z    0.257162  -0.000000  -0.123074   0.000000   0.357899
   10  N  1 XX    0.065011   0.000000  -0.144181   0.000000  -0.831126
   11  N  1 YY   -0.170934   0.000000   0.016581  -0.000000  -0.045705
   12  N  1 ZZ    0.105923  -0.000000   0.127601  -0.000000   0.876831
   13  N  1 XY    0.000000   0.052350   0.000000   0.049380   0.000000
   14  N  1 XZ   -0.088374   0.000000  -0.281114   0.000000   0.290277
   15  N  1 YZ   -0.000000  -0.149149  -0.000000  -0.221249   0.000000
   16  H  2  S    0.017018  -0.300037   0.064315  -0.031552  -0.084795
   17  H  2  S   -0.441085  -0.324617   0.147704  -0.336793  -0.041161
   18  H  2  X    0.011943   0.305430   0.316223  -0.306559   0.018293
   19  H  2  Y    0.804634   0.276264  -0.032776   0.666292   0.084217
   20  H  2  Z   -0.117183   0.616141   0.169510   0.200292  -0.186725
   21  H  3  S    0.017018   0.300037   0.064315   0.031552  -0.084795
   22  H  3  S   -0.441085   0.324617   0.147705   0.336793  -0.041161
   23  H  3  X    0.011943  -0.305430   0.316224   0.306558   0.018293
   24  H  3  Y   -0.804634   0.276264   0.032779   0.666292  -0.084217
   25  H  3  Z   -0.117183  -0.616141   0.169509  -0.200292  -0.186725
   26  H  4  S   -0.137535  -0.000000   0.195853  -0.000000  -0.064994
   27  H  4  S    0.249423  -0.000000  -0.485890   0.000001   0.057340
   28  H  4  X   -0.087717  -0.000000   0.917819  -0.000001   0.346560
   29  H  4  Y   -0.000000  -0.672157   0.000001   0.678283  -0.000000
   30  H  4  Z    0.187805  -0.000000   0.496909  -0.000001  -0.641943

                     26         27         28         29
                    2.1753     2.4769     2.6277     3.1072
                     A          A          A          A   
    1  N  1  S    0.000000  -0.000000  -0.226202  -0.142450
    2  N  1  S    0.000000  -0.000000  -0.282107  -0.196246
    3  N  1  S   -0.000000   0.000000   2.481903   0.944992
    4  N  1  X    0.000000   0.000000   0.311998  -0.264575
    5  N  1  Y   -0.042117   0.300891  -0.000000  -0.000000
    6  N  1  Z    0.000000   0.000000   0.312205  -0.031127
    7  N  1  X   -0.000000   0.000000   0.922745  -0.349147
    8  N  1  Y    0.051050   1.304935  -0.000000  -0.000000
    9  N  1  Z   -0.000000  -0.000000   0.827995  -0.004680
   10  N  1 XX    0.000000   0.000000   0.078629  -0.943305
   11  N  1 YY   -0.000000   0.000000   0.316995   1.537373
   12  N  1 ZZ   -0.000000  -0.000000  -0.395624  -0.594068
   13  N  1 XY    1.082036   0.112408   0.000000   0.000000
   14  N  1 XZ   -0.000000   0.000000   1.143066  -0.451975
   15  N  1 YZ   -0.024951   1.192990   0.000000  -0.000000
   16  H  2  S   -0.009592  -0.747312  -0.585005  -0.771482
   17  H  2  S    0.058183  -0.371577  -0.070050  -0.234327
   18  H  2  X   -0.412084   0.029671  -0.113335   0.002646
   19  H  2  Y   -0.149471   0.679862   0.361903   0.788657
   20  H  2  Z    0.038935  -0.042370   0.156712   0.349216
   21  H  3  S    0.009592   0.747312  -0.585005  -0.771482
   22  H  3  S   -0.058183   0.371577  -0.070050  -0.234327
   23  H  3  X    0.412084  -0.029671  -0.113335   0.002646
   24  H  3  Y   -0.149471   0.679862  -0.361903  -0.788657
   25  H  3  Z   -0.038935   0.042370   0.156712   0.349216
   26  H  4  S    0.000000  -0.000000  -1.465418   0.704525
   27  H  4  S   -0.000000  -0.000000  -0.581008   0.177181
   28  H  4  X   -0.000000   0.000000   0.869907  -0.588154
   29  H  4  Y   -0.336840  -0.283068   0.000000  -0.000000
   30  H  4  Z    0.000000   0.000000   0.635993  -0.450073
 .....DONE WITH MCSCF ITERATIONS.....
 CPU     0: STEP CPU TIME=     9.46 TOTAL CPU TIME=         10.5 (      0.2 MIN)
 TOTAL WALL CLOCK TIME=         10.5 SECONDS, CPU UTILIZATION IS   100.00%

     ----------------------------------------------------------------
     PROPERTY VALUES FOR THE MCSCF SELF-CONSISTENT FIELD WAVEFUNCTION
     ----------------------------------------------------------------

          -----------------
          ENERGY COMPONENTS
          -----------------

         WAVEFUNCTION NORMALIZATION =       1.0000000000

                ONE ELECTRON ENERGY =     -93.3701667043
                TWO ELECTRON ENERGY =      26.8220844520
           NUCLEAR REPULSION ENERGY =      10.8398986856
                                      ------------------
                       TOTAL ENERGY =     -55.7081835667

 ELECTRON-ELECTRON POTENTIAL ENERGY =      26.8220844520
  NUCLEUS-ELECTRON POTENTIAL ENERGY =    -148.9730822124
   NUCLEUS-NUCLEUS POTENTIAL ENERGY =      10.8398986856
                                      ------------------
             TOTAL POTENTIAL ENERGY =    -111.3110990748
               TOTAL KINETIC ENERGY =      55.6029155081
                 VIRIAL RATIO (V/T) =       2.0018932111

          ---------------------------------------
          MULLIKEN AND LOWDIN POPULATION ANALYSES
          ---------------------------------------

     ATOMIC MULLIKEN POPULATION IN EACH MOLECULAR ORBITAL

                      1          2          3          4          5

                  2.000000   1.980879   1.653573   1.644101   1.639042

    1             2.000515   1.374803   1.532928   0.898260   1.171381
    2            -0.000112   0.151026   0.027574   0.366465   0.050963
    3            -0.000112   0.151026   0.027574   0.366465   0.050963
    4            -0.000290   0.304024   0.065496   0.012912   0.365734

                      6          7          8

                  0.037275   0.023439   0.021692

    1             0.014801   0.012591   0.012167
    2             0.009406   0.000953   0.004690
    3             0.009406   0.000953   0.004690
    4             0.003662   0.008942   0.000144
 WARNING! MCSCF POPULATIONS SHOWN ABOVE ARE FOR THE NATURAL ORBITALS.
 IGNORE THE ABOVE DATA FOR MCSCF FUNCTIONS WHICH ARE NOT OF -FORS- TYPE.
 THE FOLLOWING POPULATIONS ARE CORRECT FOR ANY MCSCF WAVEFUNCTION.

               ----- POPULATIONS IN EACH AO -----
                             MULLIKEN      LOWDIN
              1  N  1  S      2.00216     1.90606
              2  N  1  S      0.81808     0.57996
              3  N  1  S      0.72721     0.42714
              4  N  1  X      0.74989     0.69659
              5  N  1  Y      0.61379     0.53416
              6  N  1  Z      0.85702     0.80784
              7  N  1  X      0.40876     0.47802
              8  N  1  Y      0.29262     0.40444
              9  N  1  Z      0.53055     0.57236
             10  N  1 XX      0.00080     0.15352
             11  N  1 YY      0.00663     0.19514
             12  N  1 ZZ      0.00015     0.14644
             13  N  1 XY      0.00593     0.00011
             14  N  1 XZ      0.00386     0.01251
             15  N  1 YZ      0.00000     0.00670
             16  H  2  S      0.50950     0.40184
             17  H  2  S      0.04999     0.15538
             18  H  2  X      0.00876     0.01992
             19  H  2  Y      0.03278     0.05276
             20  H  2  Z      0.00993     0.02392
             21  H  3  S      0.50950     0.40184
             22  H  3  S      0.04999     0.15538
             23  H  3  X      0.00876     0.01992
             24  H  3  Y      0.03278     0.05276
             25  H  3  Z      0.00993     0.02392
             26  H  4  S      0.63882     0.49593
             27  H  4  S      0.05988     0.15263
             28  H  4  X      0.02746     0.05140
             29  H  4  Y      0.01306     0.02563
             30  H  4  Z      0.02140     0.04577

          ----- MULLIKEN ATOMIC OVERLAP POPULATIONS -----
          (OFF-DIAGONAL ELEMENTS NEED TO BE MULTIPLIED BY 2)

             1           2           3           4

    1    6.2162795
    2    0.2658773   0.3579724
    3    0.2658773  -0.0053766   0.3579724
    4    0.2694111  -0.0075082  -0.0075082   0.5062298

          TOTAL MULLIKEN AND LOWDIN ATOMIC POPULATIONS
       ATOM         MULL.POP.    CHARGE          LOW.POP.     CHARGE
    1 N             7.017445   -0.017445         6.920990    0.079010
    2 H             0.610965    0.389035         0.653828    0.346172
    3 H             0.610965    0.389035         0.653828    0.346172
    4 H             0.760625    0.239375         0.771354    0.228646

          MULLIKEN SPHERICAL HARMONIC POPULATIONS
       ATOM           S       P       D      F      G      H      I    TOTAL
    1 N             3.55    3.45    0.02   0.00   0.00   0.00   0.00    7.02
    2 H             0.56    0.05    0.00   0.00   0.00   0.00   0.00    0.61
    3 H             0.56    0.05    0.00   0.00   0.00   0.00   0.00    0.61
    4 H             0.70    0.06    0.00   0.00   0.00   0.00   0.00    0.76

          ---------------------
          ELECTROSTATIC MOMENTS
          ---------------------

 POINT   1           X           Y           Z (BOHR)    CHARGE
                 0.000005    0.000000   -0.177185        1.00 (A.U.)
         DX          DY          DZ         /D/  (DEBYE)
     1.026477    0.000000    2.096818    2.334588
 ...... END OF PROPERTY EVALUATION ......
 CPU     0: STEP CPU TIME=     0.00 TOTAL CPU TIME=         10.5 (      0.2 MIN)
 TOTAL WALL CLOCK TIME=         10.5 SECONDS, CPU UTILIZATION IS    99.90%

     -------------------------------------------------
     GMC-PT/GMC-QDPT or general MCSCF input parameters
     -------------------------------------------------
 # of frozen core orbs. =         0 ->         0
 # of doubly occ. orbs. =         1
 # of active      orbs. =         7
 # of virtual     orbs. =        21
 # of active electrons  =         7
 # of states in CI      =         3
 Highest state in CI    =         3
 kstate =  1 1 1
 avecoe =  0.333 0.333 0.333
 State symmetry           = A           
 Assigned symmetry number = 1

 <<<Act. MO sym.: 1111111

 <<<Division of 1-ext.:  0
 <<<Division of 2-ext.:  0

     ------------------------
     Orbital canonicalization
     ------------------------

 MOs are canonicalized for core, virtual, and invariant-active orbital spaces.
 This is a part of the GMC-QDPT calculation.
 SCHWARZ INEQUALITY OVERHEAD:       465 INTEGRALS, T=        0.00
 DIRECT TRANSFORMATION SKIPS AO INTEGRAL STORAGE ON DISK.

 Averaged energy =     -55.708183567

 State #    1  Energy =     -55.847510573  S =  0.500
 State #    2  Energy =     -55.700013198  S =  0.500
 State #    3  Energy =     -55.577026930  S =  0.500

 Orbital energies for filled orbital space
  -15.973438
 Orbital energies for active orbital space
   -1.479405  -0.825920  -0.935670  -0.706776   0.327253
    0.093214   0.337265
 Orbital energies for external orbital space
    0.164866   0.213184   0.241546   0.534272   0.643395
    0.696204   0.787716   1.008814   1.046912   1.118662
    1.317341   1.353280   1.636732   1.705037   1.895546
    1.903243   2.132657   2.175270   2.476946   2.627657
    3.107204

 Zero values mean non-canonical orbitals.
 ... done with orbital canonicalization ...
 CPU     0: STEP CPU TIME=     0.65 TOTAL CPU TIME=         11.2 (      0.2 MIN)
 TOTAL WALL CLOCK TIME=         11.2 SECONDS, CPU UTILIZATION IS    99.91%

     --------------------------------------------
     PARTIAL TWO ELECTRON INTEGRAL TRANSFORMATION
     --------------------------------------------

 NUMBER OF CORE MOLECULAR ORBITALS     =    0
 NUMBER OF OCCUPIED MOLECULAR ORBITALS =    8
 TOTAL NUMBER OF MOLECULAR ORBITALS    =   29
 TOTAL NUMBER OF ATOMIC ORBITALS       =   30
 THRESHOLD FOR KEEPING TRANSFORMED 2E- INTEGRALS = 1.000E-09
 AO INTEGRALS WILL BE CALCULATED IN DIRECT MODE...
 DIRECT TRANSFORMATION SKIPS AO INTEGRAL STORAGE ON DISK.
 SCHWARZ INEQUALITY OVERHEAD:       465 INTEGRALS, T=        0.00

 PLAN A: REQUIREMENTS FOR FULLY IN-MEMORY TRANSFORMATION:
 # OF WORDS AVAILABLE =            100000000
 # OF WORDS NEEDED    =               221798

 PARALLEL ONLY WORKS WITH THE SEGMENTED ALGORITHM.
 ADJUSTING MEMORY TO USE SEGMENTED ALGORITHM.


 PLAN B: REQUIREMENTS FOR THE SEGMENTED TRANSFORMATION:
       MINIMUM=         124148 WORDS FOR 1 MOLECULAR ORBITAL PER PASS
       MAXIMUM=         221798 WORDS FOR ALL MOLECULAR ORBITALS IN 1 PASS
              (          13950 EXTRA WORDS INCLUDES 1 EXTRA ORBITAL/PASS)
 THIS RUN USES=         221798 WORDS,
 DISTRIBUTING   1 PASSES EACH CONTAINING     8 ORBITALS OVER   1 PROCESSORS.

 CHOOSING SEGMENTED PARTIAL TRANSFORMATION...
 DIRECT TRANSFORMATION SKIPS AO INTEGRAL STORAGE ON DISK.
 PASS #   1 TOOK        0.04 SECONDS.
 TOTAL NUMBER OF TRANSFORMED 2E- INTEGRALS KEPT =        23006
 ... END OF INTEGRAL TRANSFORMATION ...
 CPU     0: STEP CPU TIME=     0.04 TOTAL CPU TIME=         11.2 (      0.2 MIN)
 TOTAL WALL CLOCK TIME=         11.2 SECONDS, CPU UTILIZATION IS    99.91%

     --------     ------------------------------------------
     GMC-QDPT     Program written by H.Nakano (Kyushu Univ.)
     --------     ------------------------------------------

 *** Reference space

 Reference type: ORMAS (= Occupation restricted multiple active space)
 # of orbitals          =  7
 # of minimum electrons =  7
 # of maximum electrons =  7
 State symmetry    =    1 (input)
 2*Sz              =    1 (input)
 Spin multiplicity =    2 (input)
 Dimension of reference space =      1225  (from      3432 walks)

 Dimension of reference space =      1225  (from      1225 walks)

 <<<Ionized spaces for Ref-CI:
      0:         1225 /   -1-0:         1960 /  0-1-0:         2891

 ***                    ***
 *** Reference space CI ***
 ***                    ***

 Converged after   25 iterations

 Reference wavefunctions:

 State #    1  Energy =     -55.847510573  S =  0.500

      Det      Coef    Occupancy (Ignoring core)
      ---      ----    --------- --------- -----
        1    0.971484  11110001110000
       71    0.078298  11110001011000
      179    0.064556  10111001010100
      357    0.055987  11010101100010
      717    0.065285  11010011100001

 State #    2  Energy =     -55.700013198  S =  0.500

      Det      Coef    Occupancy (Ignoring core)
      ---      ----    --------- --------- -----
        1    0.082742  11110001110000
       71   -0.974266  11110001011000
      113    0.052779  10110100111000
      462    0.059493  11010101001010
      822    0.068094  11010011001001

 State #    3  Energy =     -55.577026930  S =  0.500

      Det      Coef    Occupancy (Ignoring core)
      ---      ----    --------- --------- -----
       36    0.975523  11110001101000
      112    0.052927  11010100111000
      249    0.066201  10111001001100
      463    0.052662  10110101001010

 Davidson method: CPU/Wall time =           0.41 /           0.40 sec.

 Oscillator strength (invalid if E(1)/=E(GS)):
 -----------------------------------------
   State                        f
 -----------------------------------------
     2     F(REF-CI)=        0.0041189883
     3     F(REF-CI)=        0.0041331990
 -----------------------------------------

 Dipole moment matrix elements, x, y, z, in A.U.

 Dimension of ionized spaces for PT:
 (N-2) space:         1715 /  (N-1) space:         2842 /  N space:         2891
 (N+1) space:         2842 /  (N+2) space:         1715

 <<<Ionized spaces for internal:
         0:         1225 /      -1-0:         1960 /     0-1-0:         2891
  -1-0-1-0:         2842 / 0-1-0-1-0:         3381

 Diagonal elements of averaged one-particle density matrix:
       2       3       4       5       6       7       8
  0.9928  0.9842  0.9847  0.9901  0.0132  0.0219  0.0130
  0.9878  0.6574  0.6592  0.6609  0.0106  0.0152  0.0089

 Orbital energies:
 -------- Doubly-occupied orbitals (highest several orbs.) -------
             1
 -1.597344D+01
 -------- Active orbitals ----------------------------------------
             2            3            4            5            6
 -1.479405D+00-8.259196D-01-9.356700D-01-7.067759D-01 3.272526D-01
             7            8
  9.321447D-02 3.372651D-01
 -------- External orbitals (lowest several orbs.) ---------------
             9           10           11           12           13
  1.648657D-01 2.131836D-01 2.415462D-01 5.342719D-01 6.433954D-01
            14           15           16           17           18
  6.962038D-01 7.877159D-01 1.008814D+00 1.046912D+00 1.118662D+00

 *** Quasi-degeneracy checking

 === Det (|Ci| > 1.0D-01 and dE < 5.0D-03)

 # of small denominators (single excitations)
 State       dEmin  dE < 5.0D-03  dE < 5.0D-04  dE < 5.0D-05  dE < 5.0D-06
 ----- ----------- ------------- ------------- ------------- -------------
     1    5.00D-03             0             0             0             0
     2    5.00D-03             0             0             0             0
     3    5.00D-03             0             0             0             0

 # of small denominators (double excitations)
 State       dEmin  dE < 5.0D-03  dE < 5.0D-04  dE < 5.0D-05  dE < 5.0D-06
 ----- ----------- ------------- ------------- ------------- -------------
     1    5.00D-03             0             0             0             0
     2    5.00D-03             0             0             0             0
     3    5.00D-03             0             0             0             0

 *** Zeroth-Order Setup (Granovsky's zeroth-order vectors)
 Zeroth-order effective Hamiltonian
  (= Sum_i e(i)*<I|a+(i)a(i)|J> ):
                   1            2            3
     1 -7.078500D+00
     2 -1.737061D-02-6.975700D+00
     3 -1.457875D-09-1.702909D-09-6.863179D+00

 Zeroth-order vectors:
 State #    1
       MC st            1           2           3
       Coeff   -9.868D-01  -1.622D-01  -7.860D-09
 State #    2
       MC st            2           1           3
       Coeff   -9.868D-01   1.622D-01  -1.317D-08
 State #    3
       MC st            3           2           1
       Coeff    1.000D+00  -1.427D-08  -5.620D-09

 *** GMC-QDPT computation

 (Integral reading:  CPU/Wall time =           0.00 /           0.00 sec.)

 One-external:
   0 -ionized terms: CPU/Wall time =           0.04 /           0.03 sec.
 (-1)-ionized terms: CPU/Wall time =           0.09 /           0.10 sec.
 (+1)-ionized terms: CPU/Wall time =           0.03 /           0.02 sec.
 (+1)-ionized terms: CPU/Wall time =           0.00 /           0.01 sec.
 (+2)-ionized terms: CPU/Wall time =           0.01 /           0.00 sec.

 Internal:
 # of macro loops for internal contribution =         1 (input)
 Loop:    1
 Dimension of internal CISD space     =         0  (after screening)
 Space construction: CPU/Wall time =           0.01 /           0.02 sec.
 Internal terms:     CPU/Wall time =           0.00 /           0.00 sec.

 Two-external:
   0 -ionized terms: CPU/Wall time =           0.03 /           0.02 sec.
 (-1)-ionized terms: CPU/Wall time =           0.34 /           0.34 sec.
 (-2)-ionized terms: CPU/Wall time =           0.19 /           0.19 sec.

 Total time:         CPU/Wall time =           0.74 /           0.73 sec.

 ***                  ***
 *** GMC-QDPT Results ***
 ***                  ***

 Diagonal elements of effective Hamiltonian:
 Heff(  1) =   -55.94315054
 Heff(  2) =   -55.81137734
 Heff(  3) =   -55.68773017

 Off-diagonal elements of effective Hamiltonian:
                   1            2
     2  2.090699D-02
     3 -1.696839D-09-1.414637D-09

 ******** GMC-QDPT energies ********
 ----------------------------------------------------------------------------
   State                        1st order                           2nd order
 ----------------------------------------------------------------------------
     1     E(REF-CI)=      -55.8475105726   E(GMC-QDPT2)=      -55.9463880792
     2     E(REF-CI)=      -55.7000131978   E(GMC-QDPT2)=      -55.8081397993
     3     E(REF-CI)=      -55.5770269297   E(GMC-QDPT2)=      -55.6877301730
 ----------------------------------------------------------------------------

 Excitation energies (invalid if E(1)/=E(GS)):
 ----------------------------------------------------------------------------
   State                        1st order                           2nd order
 ----------------------------------------------------------------------------

     TZ Sorted GMC-PT ENERGIES:
         1      -55.9463880792
         2      -55.8081397993
         3      -55.6877301730
     2     E(REF-CI)=        4.0136101 eV   E(GMC-QDPT2)=        3.7619292 eV
     3     E(REF-CI)=        7.3602386 eV   E(GMC-QDPT2)=        7.0384437 eV
 ----------------------------------------------------------------------------

 Main characters of perturbed GMC-QDPT states:

 State #    1  Energy =     -55.946388079  S =  0.500

      Det      Coef    Occupancy (Ignoring core)
      ---      ----    --------- --------- -----
        1   -0.972213  11110001110000
       71   -0.069218  11110001011000
      179   -0.064677  10111001010100
      357   -0.056058  11010101100010
      717   -0.065311  11010011100001

 State #    2  Energy =     -55.808139799  S =  0.500

      Det      Coef    Occupancy (Ignoring core)
      ---      ----    --------- --------- -----
        1    0.073688  11110001110000
       71   -0.974953  11110001011000
      113    0.052772  10110100111000
      462    0.059517  11010101001010
      822    0.068143  11010011001001

 State #    3  Energy =     -55.687730173  S =  0.500

      Det      Coef    Occupancy (Ignoring core)
      ---      ----    --------- --------- -----
       36    0.975523  11110001101000
      112    0.052927  11010100111000
      249    0.066201  10111001001100
      463    0.052662  10110101001010

 <<<Max |V/de| = 2.514D-02  Thresh = 1.000D+00

 Oscillator strength (invalid if E(1)/=E(GS)):
 ----------------------------------------------------------------------------
   State                        1st order                           2nd order
 ----------------------------------------------------------------------------
     2     F(REF-CI)=        0.0041189883     F(GMC-PT2)=        0.0039580606
     3     F(REF-CI)=        0.0041331990     F(GMC-PT2)=        0.0040762047
 ----------------------------------------------------------------------------

 Dipole moment matrix elements, x, y, z, in A.U.
States    1    1        0.3659217211        0.0000000084        0.6401924994
States    1    2       -0.0344809739        0.0000000105        0.2043433307
States    1    3       -0.0000000038       -0.1537484497        0.0000000116
States    2    1       -0.0344809739        0.0000000105        0.2043433307
States    2    2        0.4011554485       -0.0000000246        0.3708453041
States    2    3       -0.0000000065        0.2516633996        0.0000000013
States    3    1       -0.0000000038       -0.1537484497        0.0000000116
States    3    2       -0.0000000065        0.2516633996        0.0000000013
States    3    3        0.5342806677        0.0000000534        0.3263523421

 Oscillator strength (valid only when positive): 
 ----------------------------------------------------------------------------
  States                        1st order                           2nd order
 ----------------------------------------------------------------------------
  1  1     F(REF-CI)=        0.0000000000     F(GMC-PT2)=        0.0000000000
  1  2     F(REF-CI)=       -0.0041189883     F(GMC-PT2)=       -0.0039580606
  1  3     F(REF-CI)=       -0.0041331990     F(GMC-PT2)=       -0.0040762047
  2  1     F(REF-CI)=        0.0041189883     F(GMC-PT2)=        0.0039580606
  2  2     F(REF-CI)=        0.0000000000     F(GMC-PT2)=        0.0000000000
  2  3     F(REF-CI)=       -0.0052516689     F(GMC-PT2)=       -0.0050840530
  3  1     F(REF-CI)=        0.0041331990     F(GMC-PT2)=        0.0040762047
  3  2     F(REF-CI)=        0.0052516689     F(GMC-PT2)=        0.0050840530
  3  3     F(REF-CI)=        0.0000000000     F(GMC-PT2)=        0.0000000000
 CPU     0: STEP CPU TIME=     1.21 TOTAL CPU TIME=         12.4 (      0.2 MIN)
 TOTAL WALL CLOCK TIME=         12.4 SECONDS, CPU UTILIZATION IS    99.92%

     !!! DIABATIZATION FOR REF CI STATES !!!

 *******************************************************
          $DMO GROUP FOUND IN THE INPUT.
        DIABATIZATION OF ADIABATIC STATES BEGINS.
     PROGRAMMED BY TAO ZENG (CARLETON UNIVERSITY).
               Email: toby.zeng@carleton.ca
     See T. Zeng, J. Chem. Phys. 2017, 146, 144103
 *******************************************************

 *************************************************************************
     STEP 1: TRANSFORMATION OF ADIABATIC STATES TO THE DMO REPRESENTATION
         See Atchity and Ruedenberg, J. Chem. Phys. 1999, 111, 2910
 *************************************************************************

Read in Diabatic Molecualr Orbitals:

                      1          2          3          4          5

    1  N  1  S    0.008609   0.000000   0.000000  -0.013219   0.279491
    2  N  1  S    0.442914  -0.000000   0.000000  -0.184329   0.867803
    3  N  1  S    0.276913   0.000000  -0.000000  -0.288315   0.144236
    4  N  1  X   -0.000000   0.493155  -0.024636  -0.000000  -0.000000
    5  N  1  Y    0.000000   0.024636   0.493155  -0.000000   0.000000
    6  N  1  Z    0.090197   0.000000   0.000000   0.593421   0.705309
    7  N  1  X   -0.000000   0.210628  -0.010522   0.000000   0.000000
    8  N  1  Y    0.000000   0.010522   0.210628  -0.000000  -0.000000
    9  N  1  Z   -0.004381   0.000000   0.000000   0.381592  -0.106092
   10  N  1 XX   -0.000457   0.010719  -0.000535  -0.012387   0.006153
   11  N  1 YY   -0.000457  -0.010719   0.000535  -0.012387   0.006153
   12  N  1 ZZ    0.000914  -0.000000   0.000000   0.024773  -0.012306
   13  N  1 XY    0.000000  -0.000618  -0.012377  -0.000000   0.000000
   14  N  1 XZ   -0.000000   0.026529  -0.001325  -0.000000   0.000000
   15  N  1 YZ    0.000000   0.001325   0.026529  -0.000000   0.000000
   16  H  2  S    0.194462  -0.176074   0.343485   0.112865  -0.523343
   17  H  2  S    0.003574  -0.023812   0.046452   0.024014  -0.054445
   18  H  2  X    0.018760   0.009101   0.022834   0.009336  -0.039151
   19  H  2  Y   -0.032493   0.022287  -0.020044  -0.016171   0.067811
   20  H  2  Z   -0.009251   0.008464  -0.016511   0.018769  -0.010566
   21  H  3  S    0.194462  -0.209430  -0.324227   0.112865  -0.523343
   22  H  3  S    0.003574  -0.028322  -0.043847   0.024014  -0.054445
   23  H  3  X    0.018760   0.006781  -0.023627   0.009336  -0.039151
   24  H  3  Y    0.032493  -0.024174  -0.017723   0.016171  -0.067811
   25  H  3  Z   -0.009251   0.010067   0.015585   0.018769  -0.010566
   26  H  4  S    0.194462   0.385503  -0.019258   0.112865  -0.523343
   27  H  4  S    0.003574   0.052134  -0.002604   0.024014  -0.054445
   28  H  4  X   -0.037519  -0.032295   0.001613  -0.018672   0.078302
   29  H  4  Y    0.000000   0.001067   0.021353  -0.000000   0.000000
   30  H  4  Z   -0.009251  -0.018530   0.000926   0.018769  -0.010566

                      6          7

    1  N  1  S    0.000000  -0.000000
    2  N  1  S    0.000000  -0.000000
    3  N  1  S   -0.000000   0.000000
    4  N  1  X   -0.930415  -0.002083
    5  N  1  Y   -0.002083   0.930415
    6  N  1  Z   -0.000000   0.000000
    7  N  1  X   -0.046866  -0.000105
    8  N  1  Y   -0.000105   0.046866
    9  N  1  Z   -0.000000   0.000000
   10  N  1 XX    0.001538   0.000003
   11  N  1 YY   -0.001538  -0.000003
   12  N  1 ZZ   -0.000000   0.000000
   13  N  1 XY   -0.000004   0.001776
   14  N  1 XZ    0.039985   0.000090
   15  N  1 YZ    0.000090  -0.039985
   16  H  2  S   -0.362630  -0.631354
   17  H  2  S   -0.065964  -0.114846
   18  H  2  X    0.002763  -0.037520
   19  H  2  Y    0.037435   0.040736
   20  H  2  Z    0.001882   0.003276
   21  H  3  S   -0.365454   0.629724
   22  H  3  S   -0.066477   0.114549
   23  H  3  X    0.002595   0.037532
   24  H  3  Y   -0.037617   0.040567
   25  H  3  Z    0.001896  -0.003268
   26  H  4  S    0.728084   0.001630
   27  H  4  S    0.132441   0.000297
   28  H  4  X   -0.062317  -0.000140
   29  H  4  Y    0.000055  -0.024345
   30  H  4  Z   -0.003778  -0.000008

NUMBER OF SUB ACTIVE SPACES:   1
ROTATE ACTIVE MOS TO DMOS IN EACH SUB-SPACE

SPACE  1:

OVERLAP BETWEEN ORTHONORMAL AND PRE-ORTHONORMAL REF. DMOS

             1           2           3           4           5

    1    0.9665206   0.0472953  -0.0023627  -0.0106070   0.0117848
    2    0.0472953   0.8908849   0.0065698   0.0527320  -0.0679890
    3   -0.0023627   0.0065698   1.0220702  -0.0026342   0.0033964
    4   -0.0106070   0.0527320  -0.0026342   0.9942265  -0.0154527
    5    0.0117848  -0.0679890   0.0033964  -0.0154527   1.1460008
    6    0.0032369  -0.0619693   0.0031931   0.0496477   0.0609700
    7    0.0000072  -0.0023052  -0.0433604   0.0001112   0.0001365

             6           7

    1    0.0032369   0.0000072
    2   -0.0619693  -0.0023052
    3    0.0031931  -0.0433604
    4    0.0496477   0.0001112
    5    0.0609700   0.0001365
    6    1.1002844   0.0000887
    7    0.0000887   1.0606869
REFERENCE DMOS AFTER ORTHONORMALIZATION:

                      1          2          3          4          5

    1  N  1  S    0.004955   0.018209  -0.000910  -0.009790   0.245430
    2  N  1  S    0.445260   0.041695  -0.002083  -0.169484   0.754623
    3  N  1  S    0.281322   0.011544  -0.000577  -0.286050   0.119472
    4  N  1  X   -0.022634   0.502513  -0.025103   0.015236   0.074056
    5  N  1  Y   -0.000000   0.026000   0.520464   0.000000  -0.000000
    6  N  1  Z    0.092478   0.002400  -0.000120   0.610574   0.626196
    7  N  1  X   -0.011835   0.236930  -0.011836  -0.011005   0.015637
    8  N  1  Y    0.000000   0.010403   0.208249  -0.000000   0.000000
    9  N  1  Z    0.002320  -0.030651   0.001531   0.384796  -0.088478
   10  N  1 XX   -0.001360   0.013510  -0.000675  -0.013222   0.005879
   11  N  1 YY   -0.000107  -0.011105   0.000555  -0.011709   0.004645
   12  N  1 ZZ    0.001467  -0.002405   0.000120   0.024931  -0.010524
   13  N  1 XY   -0.000000  -0.000602  -0.012056   0.000000  -0.000000
   14  N  1 XZ   -0.001775   0.032762  -0.001637  -0.003679  -0.000124
   15  N  1 YZ    0.000000   0.001218   0.024391  -0.000000   0.000000
   16  H  2  S    0.223865  -0.279395   0.316562   0.140900  -0.457072
   17  H  2  S    0.006700  -0.037129   0.041596   0.028639  -0.046264
   18  H  2  X    0.019659   0.006107   0.021006   0.008593  -0.034171
   19  H  2  Y   -0.036440   0.035228  -0.018675  -0.019333   0.059633
   20  H  2  Z   -0.009735   0.008564  -0.016059   0.018051  -0.008423
   21  H  3  S    0.223865  -0.309553  -0.287140   0.140900  -0.457072
   22  H  3  S    0.006700  -0.041089  -0.037689   0.028639  -0.046264
   23  H  3  X    0.019659   0.003983  -0.021510   0.008593  -0.034171
   24  H  3  Y    0.036440  -0.036914  -0.015071   0.019333  -0.059633
   25  H  3  Z   -0.009735   0.010122   0.015126   0.018051  -0.008423
   26  H  4  S    0.183822   0.433677  -0.021665   0.049692  -0.469841
   27  H  4  S    0.000969   0.062607  -0.003128   0.013758  -0.050316
   28  H  4  X   -0.038021  -0.032411   0.001619  -0.013299   0.069889
   29  H  4  Y    0.000000   0.000996   0.019946  -0.000000   0.000000
   30  H  4  Z   -0.008100  -0.022678   0.001133   0.020095  -0.009946

                      6          7

    1  N  1  S   -0.012145  -0.000027
    2  N  1  S   -0.033124  -0.000074
    3  N  1  S    0.006111   0.000014
    4  N  1  X   -0.821963  -0.001841
    5  N  1  Y   -0.002012   0.898515
    6  N  1  Z   -0.062387  -0.000140
    7  N  1  X   -0.029551  -0.000066
    8  N  1  Y   -0.000118   0.052720
    9  N  1  Z   -0.014198  -0.000032
   10  N  1 XX    0.002435   0.000005
   11  N  1 YY   -0.001753  -0.000004
   12  N  1 ZZ   -0.000682  -0.000002
   13  N  1 XY   -0.000003   0.001180
   14  N  1 XZ    0.038369   0.000086
   15  N  1 YZ    0.000082  -0.036698
   16  H  2  S   -0.327875  -0.582828
   17  H  2  S   -0.060903  -0.106647
   18  H  2  X    0.004245  -0.034498
   19  H  2  Y    0.033733   0.037710
   20  H  2  Z    0.001920   0.002450
   21  H  3  S   -0.330482   0.581354
   22  H  3  S   -0.061380   0.106373
   23  H  3  X    0.004091   0.034517
   24  H  3  Y   -0.033902   0.037558
   25  H  3  Z    0.001931  -0.002441
   26  H  4  S    0.709464   0.001589
   27  H  4  S    0.126070   0.000282
   28  H  4  X   -0.061628  -0.000138
   29  H  4  Y    0.000050  -0.022134
   30  H  4  Z   -0.005046  -0.000011

 -------------------------------------------
       MAXIMIZING MORMO OVERLAP TERM        
 -------------------------------------------
   SWEEP    VALUE       PROGRESS
     0     5.50038
     1     6.92569     1.42530523
     2     6.93878     0.01309641
     3     6.93878     0.00000286
     4     6.93878     0.00000000
     5     6.93878    -0.00000000
     6     6.93878     0.00000000
 THE ROTATION IS DONE
ACTIVE ORBITALS AFTER MORMO:

                      1          2          3          4          5

    1  N  1  S    0.002428   0.033986  -0.001698  -0.013167   0.191642
    2  N  1  S    0.413250   0.086993  -0.004345  -0.193515   0.695293
    3  N  1  S    0.344941  -0.093487   0.004670  -0.263163   0.189975
    4  N  1  X    0.004816   0.434262  -0.021693   0.052580   0.031958
    5  N  1  Y    0.000000   0.025345   0.507364   0.000000  -0.000000
    6  N  1  Z    0.078094   0.040160  -0.002006   0.605789   0.630379
    7  N  1  X   -0.037188   0.314762  -0.015723  -0.074957   0.068763
    8  N  1  Y    0.000000   0.010198   0.204142   0.000000  -0.000000
    9  N  1  Z    0.033909  -0.093086   0.004650   0.385237  -0.089824
   10  N  1 XX   -0.007367   0.032541  -0.001625  -0.017785   0.037733
   11  N  1 YY    0.007676  -0.033150   0.001656  -0.004178  -0.043402
   12  N  1 ZZ   -0.000309   0.000609  -0.000030   0.021963   0.005669
   13  N  1 XY    0.000000   0.000002   0.000040   0.000000   0.000000
   14  N  1 XZ    0.002094   0.017876  -0.000893   0.003406  -0.055160
   15  N  1 YZ    0.000000   0.000774   0.015504   0.000000  -0.000000
   16  H  2  S    0.190853  -0.199014   0.311988   0.114430  -0.428046
   17  H  2  S    0.012562  -0.078426   0.053965   0.038566  -0.071846
   18  H  2  X    0.000276   0.025001   0.002975  -0.002470  -0.004137
   19  H  2  Y   -0.032248   0.015204  -0.037786  -0.013371   0.050382
   20  H  2  Z   -0.002974  -0.000612  -0.009306   0.019707  -0.020644
   21  H  3  S    0.190853  -0.229116  -0.290603   0.114429  -0.428046
   22  H  3  S    0.012562  -0.083414  -0.045881   0.038566  -0.071846
   23  H  3  X    0.000276   0.024580  -0.005452  -0.002470  -0.004137
   24  H  3  Y    0.032248  -0.018894  -0.036083   0.013371  -0.050382
   25  H  3  Z   -0.002974   0.000318   0.009320   0.019707  -0.020644
   26  H  4  S    0.180276   0.404569  -0.020210   0.078497  -0.487983
   27  H  4  S   -0.005728   0.127757  -0.006382   0.015360  -0.069322
   28  H  4  X   -0.031384  -0.017052   0.000852  -0.021379   0.050451
   29  H  4  Y    0.000000   0.001169   0.023395   0.000000  -0.000000
   30  H  4  Z   -0.015572  -0.033957   0.001696   0.016306  -0.006988

                      6          7

    1  N  1  S    0.035225   0.000079
    2  N  1  S    0.094630   0.000212
    3  N  1  S   -0.154028  -0.000345
    4  N  1  X   -0.814595  -0.001824
    5  N  1  Y   -0.002003   0.894512
    6  N  1  Z   -0.114917  -0.000257
    7  N  1  X   -0.046014  -0.000103
    8  N  1  Y   -0.000150   0.067144
    9  N  1  Z    0.034316   0.000077
   10  N  1 XX    0.050380   0.000113
   11  N  1 YY   -0.058062  -0.000130
   12  N  1 ZZ    0.007682   0.000017
   13  N  1 XY    0.000135  -0.060228
   14  N  1 XZ    0.021532   0.000048
   15  N  1 YZ    0.000123  -0.055129
   16  H  2  S   -0.275224  -0.552852
   17  H  2  S   -0.087934  -0.146963
   18  H  2  X    0.021064  -0.014969
   19  H  2  Y    0.023616   0.054016
   20  H  2  Z    0.015031  -0.023711
   21  H  3  S   -0.277697   0.551613
   22  H  3  S   -0.088591   0.146567
   23  H  3  X    0.020997   0.015063
   24  H  3  Y   -0.023858   0.053909
   25  H  3  Z    0.014925   0.023778
   26  H  4  S    0.671066   0.001503
   27  H  4  S    0.203563   0.000456
   28  H  4  X   -0.032038  -0.000072
   29  H  4  Y    0.000129  -0.057550
   30  H  4  Z   -0.015176  -0.000034

Actually Used Diabatic Molecualr Orbitals:

                      1          2          3          4          5

    1  N  1  S    0.002428   0.033986  -0.001698  -0.013167   0.191642
    2  N  1  S    0.413250   0.086993  -0.004345  -0.193515   0.695293
    3  N  1  S    0.344941  -0.093487   0.004670  -0.263163   0.189975
    4  N  1  X    0.004816   0.434262  -0.021693   0.052580   0.031958
    5  N  1  Y    0.000000   0.025345   0.507364   0.000000  -0.000000
    6  N  1  Z    0.078094   0.040160  -0.002006   0.605789   0.630379
[...]

 ---------------------------------------
    -DIABATIC STATES IN PROTOTYPES-     
 ---------------------------------------

     STATE:    1
 Group Ref#    Coefficients
     1    1    0.940685
     2    2    0.009531
     3    3    0.000093

WEIGHT OF LISTED PROTOTYPES:   88.50%

     STATE:    2
 Group Ref#    Coefficients
     1    1    0.009531
     2    2    0.935295
     3    3    0.000493

WEIGHT OF LISTED PROTOTYPES:   87.49%

     STATE:    3
 Group Ref#    Coefficients
     1    1    0.000093
     2    2    0.000493
     3    3    0.924756

WEIGHT OF LISTED PROTOTYPES:   85.52%

 --------------------------------------------------
 IN DIRECT MAX. DIABATIZATION FOR GMC-QDPT

 DIRECT MAXIMIZATION (DM) WITHOUT TRUNCATING ADIABATS
 EXPANSIONS INTO THE REFERENCE CONFIGURATION SPACE
 --------------------------------------------------

 -------------------------------------------
 - DM DIABT PT HAMILTONIAN MATRIX ELEMENTS -
 -------------------------------------------
                                            
 --- DIABATIC ENERGIES (DIAGONAL ELEMENT) ---       HARTREE            EV
 STATE #  1'S GMC-PT-LEVEL DIABATIC ENERGY=     -55.916619487       0.000000000
 STATE #  2'S GMC-PT-LEVEL DIABATIC ENERGY=     -55.837907847       2.141852813
 STATE #  3'S GMC-PT-LEVEL DIABATIC ENERGY=     -55.687730718       6.228380644

 --- DIABATIC COUPLINGS (OFF DIAGONAL ELEMENTS)---  HATREE            EV
 STATE #  1 &  2'S GMC-PT-LEVEL COUPLING  =      -0.056826642      -1.546331680
 STATE #  1 &  3'S GMC-PT-LEVEL COUPLING  =       0.000146709       0.003992156
 STATE #  2 &  3'S GMC-PT-LEVEL COUPLING  =       0.000284075       0.007730073

 ---------------------------------------
     - ROTATION TO DIABATIC STATES -    
 ---------------------------------------
 ROWS=ADIABATIC, COLUMNS=DIABATIC STATES

             1           2           3

    1    0.8858177   0.4640323  -0.0010121
    2    0.4640334  -0.8858164   0.0015245
    3   -0.0001891  -0.0018200  -0.9999983

 ---------------------------------------
          - DIABATIC STATES -           
 ---------------------------------------

 State #    1  Energy =     -55.916619487

      Det      Coef        Coefp    Occupancy (Ignoring core)
      ---      ----        ----    --------- --------- -----
        1    0.919583   -0.919583  222+000
        8   -0.177033    0.177033  2-2+0+0
      386    0.144388   -0.144388  2+2+0-0
        4   -0.143878    0.143878  2-2++00
      176    0.137843   -0.137843  2+2+-00
        6    0.114825   -0.114825  22200+0
      393   -0.065620   -0.065620  202+020
      717   -0.064913   -0.064913  220+002
      708    0.047921   -0.047921  2-++0+-
        5    0.046921    0.046921  -22++00
      402    0.042526   -0.042526  2+-+0-+
      391    0.037480   -0.037480  2+20020
      705   -0.037424   -0.037424  -2+++0-
      215   -0.036942   -0.036942  022+200
      227   -0.036276   -0.036276  +2-+-0+
      143   -0.034277   -0.034277  220+200
       76    0.032646    0.032646  2+2-0+0
       11    0.031210   -0.031210  2-20++0
      212    0.030167    0.030167  +220200
      211   -0.030165   -0.030165  +22+-00
      113   -0.029649    0.029649  +-220+0
        2    0.029516   -0.029516  2220+00
       51   -0.029437    0.029437  22+-00+
      390    0.028740   -0.028740  -+2++-0
      218    0.028278   -0.028278  +-2+-+0
     1051   -0.027400   -0.027400  2+++0--
        9    0.027215    0.027215  -22+0+0
      357   -0.027192   -0.027192  220+020
      701    0.026189    0.026189  22++00-
      183   -0.025822    0.025822  202+-+0
      424   -0.025603   -0.025603  +-2++-0
      147    0.025012   -0.025012  220+-+0
      389    0.024859    0.024859  202++-0
      387   -0.024808    0.024808  2+20+-0
      702    0.023970    0.023970  22+0+0-
      353   -0.023699   -0.023699  220++-0
       29   -0.023164   -0.023164  2--+0++
      773    0.022561   -0.022561  +2-++0-
      159    0.022458   -0.022458  -2++-0+
      122    0.021363    0.021363  +2-200+
      184   -0.021223   -0.021223  -+2+-+0
      742   -0.020450   -0.020450  2+-+0+-

 State #    2  Energy =     -55.837907847

      Det      Coef        Coefp    Occupancy (Ignoring core)
      ---      ----        ----    --------- --------- -----
       71   -0.914502    0.914502  2+22000
       74    0.181653   -0.181653  2022+00
       76    0.157129    0.157129  2+2-0+0
       78    0.144374   -0.144374  20220+0
      386   -0.139316    0.139316  2+2+0-0
      106    0.105687    0.105687  +222000
      822    0.061259   -0.061259  2+02002
      113    0.054521   -0.054521  +-220+0
      813    0.052133   -0.052133  20+20+-
       81    0.050519    0.050519  202-++0
       75   -0.049539   -0.049539  -+22+00
      393   -0.046841   -0.046841  202+020
      806    0.045353    0.045353  2++200-
       36    0.044012    0.044012  22+2000
       79   -0.041135   -0.041135  -+220+0
      810   -0.038230   -0.038230  -++2+0-
      323   -0.037932    0.037932  +022-+0
       99   -0.036080    0.036080  20-20++
      109    0.035911   -0.035911  +-22+00
      320    0.035879    0.035879  0+22200
      332   -0.034321    0.034321  ++-2-0+
      248    0.033503   -0.033503  2+02200
       87   -0.033495    0.033495  2+-200+
      180   -0.033405    0.033405  -+2+200
       38   -0.032968    0.032968  2202+00
      183   -0.032602    0.032602  202+-+0
      177    0.032416   -0.032416  2+20200
      317    0.032155   -0.032155  ++2-200
       42   -0.029836    0.029836  22020+0
      529    0.025639    0.025639  +022+-0
      462    0.025537   -0.025537  2+02020
      252   -0.025117   -0.025117  2+02-+0
      807   -0.024146    0.024146  2++-+0-
      192   -0.022759    0.022759  2+-+-0+
      534    0.022147    0.022147  0+22020
      458    0.021878   -0.021878  2+02+-0
        6    0.021869   -0.021869  22200+0
      264    0.020910   -0.020910  -++2-0+
      878    0.020875    0.020875  ++-2+0-

 State #    3  Energy =     -55.687730718

      Det      Coef        Coefp    Occupancy (Ignoring core)
      ---      ----        ----    --------- --------- -----
       36   -0.915806   -0.915806  22+2000
      246   -0.155111   -0.155111  2++2-00
      456   -0.147052   -0.147052  2++20-0
      351   -0.125738   -0.125738  22++0-0
       43    0.123502    0.123502  2-+20+0
       39    0.121806    0.121806  2-+2+00
       41    0.109492   -0.109492  22+-0+0
      463    0.074035   -0.074035  20+2020
       52    0.065832   -0.065832  220200+
      281    0.055812   -0.055812  +2+2-00
      472   -0.052931   -0.052931  2+020-+
      112   -0.045586   -0.045586  +2-20+0
       71   -0.044079    0.044079  2+22000
      461    0.043411   -0.043411  2++-020
      358   -0.042163    0.042163  2-++020
      491    0.040499   -0.040499  +2+20-0
      285    0.038470   -0.038470  02+2200
      121   -0.037940    0.037940  +22-00+
      561    0.037865    0.037865  2+++--0
       46    0.037694   -0.037694  2-+-++0
      297    0.037452   -0.037452  +202-0+
       64    0.036159   -0.036159  2-020++
       73    0.033306   -0.033306  2+-2+00
      282    0.033211    0.033211  +2+-200
       16   -0.033103    0.033103  222000+
      460   -0.032980   -0.032980  -++2+-0
      108   -0.032943   -0.032943  +2-2+00
      142    0.032915    0.032915  22+0200
      145   -0.032147   -0.032147  -2++200
      457   -0.031979    0.031979  2++-+-0
      148   -0.030432   -0.030432  2-++-+0
      288   -0.028460   -0.028460  +-+2-+0
      254    0.026667   -0.026667  -++2-+0
      157    0.024263   -0.024263  220+-0+
       77    0.023550   -0.023550  2+-20+0
       40   -0.022869    0.022869  -2+2+00
        3    0.021813    0.021813  22-++00
      494    0.021801   -0.021801  +-+2+-0
      716    0.021462    0.021462  22+0002
      771    0.021432    0.021432  +22+00-
      253    0.020605    0.020605  20+2-+0
      843   -0.020223   -0.020223  +202+0-

 ---------------------------------------
      - DIABATIC STATES IN CMO -        
 ---------------------------------------

 State #    1  Energy =     -55.916619487

      Det      Coef        Coefp    Occupancy (Ignoring core)
      ---      ----        ----    --------- --------- -----
        1    0.827010   -0.827010  222+000
       71    0.513726   -0.513726  2+22000
      717   -0.056705   -0.056705  220+002
      393   -0.054966   -0.054966  202+020
      179   -0.051419   -0.051419  202+200
      357   -0.046245   -0.046245  220+020
      391   -0.045573    0.045573  2+20020
      402    0.045053   -0.045053  2+-+0-+
      389    0.042879    0.042879  202++-0
       17    0.041994    0.041994  22-+00+
        4    0.038892   -0.038892  2-2++00
      822   -0.035949    0.035949  2+02002
      106   -0.033184   -0.033184  +222000
      183   -0.031035    0.031035  202+-+0
      462   -0.029675    0.029675  2+02020
      394    0.029633   -0.029633  -+2+020
        6    0.029493   -0.029493  22200+0
      109    0.027671   -0.027671  +-22+00
      706    0.027385    0.027385  22+00+-
      214    0.027268    0.027268  +-2+200
      215   -0.027211   -0.027211  022+200
      437   -0.026931   -0.026931  +2-+0-+
       87   -0.026089    0.026089  2+-200+
       51   -0.025555    0.025555  22+-00+
      742   -0.025477   -0.025477  2+-+0+-
      180   -0.025334    0.025334  -+2+200
      708    0.024694   -0.024694  2-++0+-
      709   -0.024228   -0.024228  -2++0+-
      426    0.024140    0.024140  +220020
      113   -0.023638    0.023638  +-220+0
      122    0.023249    0.023249  +2-200+
      366   -0.023082    0.023082  22+00-+
       72   -0.023073   -0.023073  2+2-+00
      704   -0.021521    0.021521  2-+++0-

 State #    2  Energy =     -55.837907847

      Det      Coef        Coefp    Occupancy (Ignoring core)
      ---      ----        ----    --------- --------- -----
       71   -0.831510    0.831510  2+22000
        1    0.516412   -0.516412  222+000
      822    0.058094   -0.058094  2+02002
      462    0.051644   -0.051644  2+02020
      113    0.047191   -0.047191  +-220+0
        6    0.045392   -0.045392  22200+0
      179   -0.041222   -0.041222  202+200
      357   -0.032525   -0.032525  220+020
      717   -0.032498   -0.032498  220+002
       42   -0.031970    0.031970  22020+0
      811   -0.030624    0.030624  2++-0+-
      320    0.029346    0.029346  0+22200
      183   -0.029260    0.029260  202+-+0
      109   -0.029246    0.029246  +-22+00
      809   -0.026096    0.026096  20+2+0-
      542   -0.025865    0.025865  ++-20-+
      813    0.025123   -0.025123  20+20+-
       79   -0.024542   -0.024542  -+220+0
       93    0.023941   -0.023941  20-2+0+
      177    0.023141   -0.023141  2+20200
      814   -0.023048   -0.023048  -++20+-
      319   -0.022845   -0.022845  +022200
      531    0.022810   -0.022810  ++2-020
      526   -0.022650   -0.022650  ++220-0
      192   -0.022641    0.022641  2+-+-0+
       78    0.022586   -0.022586  20220+0
      107   -0.022456    0.022456  +22-+00
      471    0.022409    0.022409  2++-0-+
       53   -0.022188   -0.022188  2-+200+
       76    0.020679    0.020679  2+2-0+0
      391    0.020607   -0.020607  2+20020
      534    0.020354    0.020354  0+22020

 State #    3  Energy =     -55.687730718

      Det      Coef        Coefp    Occupancy (Ignoring core)
      ---      ----        ----    --------- --------- -----
       36   -0.975521   -0.975521  22+2000
      249    0.066201   -0.066201  20+2200
      112   -0.052927   -0.052927  +2-20+0
      463    0.052662   -0.052662  20+2020
        7    0.048722    0.048722  22-+0+0
      356    0.047980    0.047980  22+0020
       41   -0.046142    0.046142  22+-0+0
      253    0.044349    0.044349  20+2-+0
      459   -0.039782    0.039782  20+2+-0
      121   -0.034335    0.034335  +22-00+
      367    0.032273   -0.032273  220+0-+
      284   -0.032163    0.032163  +-+2200
      250    0.031257    0.031257  -++2200
      285    0.031026   -0.031026  02+2200
       44    0.030775   -0.030775  -2+20+0
      359   -0.029464   -0.029464  -2++020
      496    0.028992    0.028992  +2+-020
      358    0.028876   -0.028876  2-++020
      262    0.028380    0.028380  2+02-0+
      461   -0.028289    0.028289  2++-020
      472   -0.027447   -0.027447  2+020-+
       88   -0.026327    0.026327  202200+
       52    0.026078   -0.026078  220200+
      499    0.025556   -0.025556  02+2020
       58   -0.024805    0.024805  2-02+0+
      507    0.024623   -0.024623  +2020-+
       77    0.024052   -0.024052  2+-20+0
      707   -0.023779   -0.023779  220+0+-
      297    0.022717   -0.022717  +202-0+
       46    0.022412   -0.022412  2-+-++0
      498    0.022171   -0.022171  +-+2020
      491    0.022152   -0.022152  +2+20-0
       86    0.022081    0.022081  2+2-00+
      286   -0.021756    0.021756  +2+--+0
      464   -0.020937   -0.020937  -++2020
      771    0.020712    0.020712  +22+00-

 ---------------------------------------
    -DIABATIC STATES IN PROTOTYPES-     
 ---------------------------------------

     STATE:    1
 Group Ref#    Coefficients
     1    1    0.940685
     2    2    0.009504
     3    3    0.000093

WEIGHT OF LISTED PROTOTYPES:   88.50%

     STATE:    2
 Group Ref#    Coefficients
     1    1    0.009559
     2    2    0.935295
     3    3    0.000490

WEIGHT OF LISTED PROTOTYPES:   87.49%

     STATE:    3
 Group Ref#    Coefficients
     1    1    0.000094
     2    2    0.000496
     3    3    0.924756

WEIGHT OF LISTED PROTOTYPES:   85.52%

     DIRECT MAX. DIABATIZATION FINISHED    
 CPU     0: STEP CPU TIME=     0.25 TOTAL CPU TIME=         12.7 (      0.2 MIN)
 TOTAL WALL CLOCK TIME=         12.7 SECONDS, CPU UTILIZATION IS   100.00%

DIABATS FOR SPIN-ORBIT CALCULATION ARE READY

TRANSITION DIPOLES BETWEEN ADIABATS (in A.U.):

STATE PAIR      X         Y         Z
    1    1  0.365922  0.000000  0.640192
    2    1 -0.034481  0.000000  0.204343
    2    2  0.401155 -0.000000  0.370845
    3    1 -0.000000 -0.153748  0.000000
    3    2 -0.000000  0.251663  0.000000
    3    3  0.534281  0.000000  0.326352


TRANSITION DIPOLES BETWEEN DIABATS (in A.U.):

STATE PAIR      X         Y         Z
    1    1  0.345162  0.000007  0.750185
    2    1  0.005151  0.000091 -0.005642
    2    2  0.421915  0.001073  0.260853
    3    1  0.000027  0.019421 -0.000070
    3    2  0.000204  0.294270  0.000120
    3    3  0.534280 -0.001080  0.326352

TRANSITION DIPOLES BETWEEN DIRECT MAX. DIABATS (in A.U.):

STATE PAIR      X         Y         Z
    1    1  0.345162  0.000007  0.750185
    2    1  0.005149  0.000091 -0.005627
    2    2  0.421916  0.001071  0.260853
    3    1  0.000026  0.019413 -0.000070
    3    2  0.000204  0.294270  0.000120
    3    3  0.534280 -0.001078  0.326352
 No $TRANST Group Found.
 Quit without doing spin-orbit coupling
 ..... DONE WITH MP2 ENERGY .....
 CPU     0: STEP CPU TIME=     0.00 TOTAL CPU TIME=         12.7 (      0.2 MIN)
 TOTAL WALL CLOCK TIME=         12.7 SECONDS, CPU UTILIZATION IS    99.92%
            100000000  WORDS OF DYNAMIC MEMORY USED
 EXECUTION OF GAMESS TERMINATED NORMALLY Wed Nov 16 19:26:41 2022
 DDI: 715512 bytes (0.7 MB / 0 MWords) used by master data server.

 ----------------------------------------
 CPU timing information for all processes
 ========================================
 0: 12.429 + 0.240 = 12.669
 ----------------------------------------
Note: The following floating-point exceptions are signalling: IEEE_DENORMAL
 ddikick.x: exited gracefully.
unset echo
----- accounting info -----
Files used on the master node io002 were:
-rw-r--r-- 1 bsonghao nooijen   20697 Nov 16 19:26 /scratch/bsonghao/nh3_diabatization_2d_at_mode_7_8_dist0.0_0.8.F05
-rw-r--r-- 1 bsonghao nooijen  363520 Nov 16 19:26 /scratch/bsonghao/nh3_diabatization_2d_at_mode_7_8_dist0.0_0.8.F09
-rw-r--r-- 1 bsonghao nooijen 1995920 Nov 16 19:26 /scratch/bsonghao/nh3_diabatization_2d_at_mode_7_8_dist0.0_0.8.F10
-rw-r--r-- 1 bsonghao nooijen  106016 Nov 16 19:26 /scratch/bsonghao/nh3_diabatization_2d_at_mode_7_8_dist0.0_0.8.F13
-rw-r--r-- 1 bsonghao nooijen  180312 Nov 16 19:26 /scratch/bsonghao/nh3_diabatization_2d_at_mode_7_8_dist0.0_0.8.F15
-rw-r--r-- 1 bsonghao nooijen       0 Nov 16 19:26 /scratch/bsonghao/nh3_diabatization_2d_at_mode_7_8_dist0.0_0.8.F16
-rw-r--r-- 1 bsonghao nooijen    9808 Nov 16 19:26 /scratch/bsonghao/nh3_diabatization_2d_at_mode_7_8_dist0.0_0.8.F70
-rw-r--r-- 1 bsonghao nooijen    9808 Nov 16 19:26 /scratch/bsonghao/nh3_diabatization_2d_at_mode_7_8_dist0.0_0.8.F71
-rw-r--r-- 1 bsonghao nooijen   19608 Nov 16 19:26 /scratch/bsonghao/nh3_diabatization_2d_at_mode_7_8_dist0.0_0.8.F72
-rw-r--r-- 1 bsonghao nooijen   19608 Nov 16 19:26 /scratch/bsonghao/nh3_diabatization_2d_at_mode_7_8_dist0.0_0.8.F73
-rw-r--r-- 1 bsonghao nooijen 1920824 Nov 16 19:26 /scratch/bsonghao/nh3_diabatization_2d_at_mode_7_8_dist0.0_0.8.F74
-rw-r--r-- 1 bsonghao nooijen       0 Nov 16 19:26 /scratch/bsonghao/nh3_diabatization_2d_at_mode_7_8_dist0.0_0.8.F75
-rw-r--r-- 1 bsonghao nooijen   58848 Nov 16 19:26 /scratch/bsonghao/nh3_diabatization_2d_at_mode_7_8_dist0.0_0.8.F76
-rw-r--r-- 1 bsonghao nooijen       0 Nov 16 19:26 /scratch/bsonghao/nh3_diabatization_2d_at_mode_7_8_dist0.0_0.8.F77
-rw-r--r-- 1 bsonghao nooijen    1864 Nov 16 19:26 /scratch/bsonghao/nh3_diabatization_2d_at_mode_7_8_dist0.0_0.8.F78
-rw-r--r-- 1 bsonghao nooijen   39208 Nov 16 19:26 /scratch/bsonghao/nh3_diabatization_2d_at_mode_7_8_dist0.0_0.8.F79
-rw-r--r-- 1 bsonghao nooijen     104 Nov 16 19:26 /scratch/bsonghao/nh3_diabatization_2d_at_mode_7_8_dist0.0_0.8.F80
-rw-r--r-- 1 bsonghao nooijen   13472 Nov 16 19:26 /scratch/bsonghao/nh3_diabatization_2d_at_mode_7_8_dist0.0_0.8.F81
-rw-r--r-- 1 bsonghao nooijen      16 Nov 16 19:26 /scratch/bsonghao/nh3_diabatization_2d_at_mode_7_8_dist0.0_0.8.F82
-rw-r--r-- 1 bsonghao nooijen   19216 Nov 16 19:26 /scratch/bsonghao/nh3_diabatization_2d_at_mode_7_8_dist0.0_0.8.F83
-rw-r--r-- 1 bsonghao nooijen   29712 Nov 16 19:26 /scratch/bsonghao/nh3_diabatization_2d_at_mode_7_8_dist0.0_0.8.F84
-rw-r--r-- 1 bsonghao nooijen  340104 Nov 16 19:26 /scratch/bsonghao/nh3_diabatization_2d_at_mode_7_8_dist0.0_0.8.F85
-rw-r--r-- 1 bsonghao nooijen  674488 Nov 16 19:26 /scratch/bsonghao/nh3_diabatization_2d_at_mode_7_8_dist0.0_0.8.F86
-rw-r--r-- 1 bsonghao nooijen     656 Nov 16 19:26 /scratch/bsonghao/nh3_diabatization_2d_at_mode_7_8_dist0.0_0.8.F87
-rw-r--r-- 1 bsonghao nooijen   27312 Nov 16 19:26 /scratch/bsonghao/nh3_diabatization_2d_at_mode_7_8_dist0.0_0.8.F88
-rw-r--r-- 1 bsonghao nooijen     240 Nov 16 19:26 /scratch/bsonghao/nh3_diabatization_2d_at_mode_7_8_dist0.0_0.8.F89
-rw-r--r-- 1 bsonghao nooijen       0 Nov 16 19:26 /scratch/bsonghao/nh3_diabatization_2d_at_mode_7_8_dist0.0_0.8.F90
-rw-r--r-- 1 bsonghao nooijen   13760 Nov 16 19:26 /scratch/bsonghao/nh3_diabatization_2d_at_mode_7_8_dist0.0_0.8.F91
-rw-r--r-- 1 bsonghao nooijen   22776 Nov 16 19:26 /scratch/bsonghao/nh3_diabatization_2d_at_mode_7_8_dist0.0_0.8.F92
-rw-r--r-- 1 bsonghao nooijen   23168 Nov 16 19:26 /scratch/bsonghao/nh3_diabatization_2d_at_mode_7_8_dist0.0_0.8.F93
-rw-r--r-- 1 bsonghao nooijen   22776 Nov 16 19:26 /scratch/bsonghao/nh3_diabatization_2d_at_mode_7_8_dist0.0_0.8.F94
-rw-r--r-- 1 bsonghao nooijen   13760 Nov 16 19:26 /scratch/bsonghao/nh3_diabatization_2d_at_mode_7_8_dist0.0_0.8.F95
-rw-r--r-- 1 bsonghao nooijen   29440 Nov 16 19:26 /scratch/bsonghao/nh3_diabatization_2d_at_mode_7_8_dist0.0_0.8.F96
-rw-r--r-- 1 bsonghao nooijen    1184 Nov 16 19:26 /scratch/bsonghao/nh3_diabatization_2d_at_mode_7_8_dist0.0_0.8.F97
-rw-r--r-- 1 bsonghao nooijen    9808 Nov 16 19:26 /scratch/bsonghao/nh3_diabatization_2d_at_mode_7_8_dist0.0_0.8.F98
-rw-r--r-- 1 bsonghao nooijen   30264 Nov 16 19:26 /scratch/bsonghao/nh3_diabatization_2d_at_mode_7_8_dist0.0_0.8.F99
ls: No match.
ls: No match.
ls: No match.
Wed 16 Nov 2022 07:26:44 PM EST
0.310u 0.019s 0:16.03 1.9%	0+0k 48+224io 0pf+0w
