----- GAMESS execution script 'rungms' -----
This job is running on host io002
under operating system Linux at Wed 16 Nov 2022 07:47:25 PM EST
Available scratch disk space (Kbyte units) at beginning of the job is
Filesystem       1K-blocks       Used   Available Use% Mounted on
/dev/sdc1      15378471580 3278917120 11318349060  23% /scratch
GAMESS temporary binary files will be written to /scratch/bsonghao
GAMESS supplementary output files will be written to /home/bsonghao/.gamess_ascii_files/267638
Copying input file nh3_diabatization_2d_at_mode_7_8_dist0.3_0.4.inp to your run's scratch directory...
cp nh3_diabatization_2d_at_mode_7_8_dist0.3_0.4.inp /scratch/bsonghao/nh3_diabatization_2d_at_mode_7_8_dist0.3_0.4.F05
unset echo
/home/bjb2chen/gamess/ddikick.x /home/bjb2chen/gamess/gamess.00.x nh3_diabatization_2d_at_mode_7_8_dist0.3_0.4 -ddi 1 1 io002 -scr /scratch/bsonghao

 Distributed Data Interface kickoff program.
 Initiating 1 compute processes on 1 nodes to run the following command:
 /home/bjb2chen/gamess/gamess.00.x nh3_diabatization_2d_at_mode_7_8_dist0.3_0.4 

          ******************************************************
          *         GAMESS VERSION = 02 AUG 2018 (R2)         *
          *             FROM IOWA STATE UNIVERSITY             *
          * M.W.SCHMIDT, K.K.BALDRIDGE, J.A.BOATZ, S.T.ELBERT, *
          *   M.S.GORDON, J.H.JENSEN, S.KOSEKI, N.MATSUNAGA,   *
          *          K.A.NGUYEN, S.J.SU, T.L.WINDUS,           *
          *       TOGETHER WITH M.DUPUIS, J.A.MONTGOMERY       *
          *         J.COMPUT.CHEM.  14, 1347-1363(1993)        *
          **************** 64 BIT LINUX VERSION ****************

  SINCE 1993, STUDENTS AND POSTDOCS WORKING AT IOWA STATE UNIVERSITY
  AND ALSO IN THEIR VARIOUS JOBS AFTER LEAVING ISU HAVE MADE IMPORTANT
  CONTRIBUTIONS TO THE CODE:
     IVANA ADAMOVIC, CHRISTINE AIKENS, YURI ALEXEEV, POOJA ARORA,
     ANDREY ASADCHEV, ROB BELL, PRADIPTA BANDYOPADHYAY, JONATHAN BENTZ,
     BRETT BODE, KURT BRORSEN, CALEB CARLIN, GALINA CHABAN, WEI CHEN,
     CHEOL HO CHOI, PAUL DAY, ALBERT DEFUSCO, NUWAN DESILVA, TIM DUDLEY,
     DMITRI FEDOROV, ALEX FINDLATER, GRAHAM FLETCHER, MARK FREITAG,
     KURT GLAESEMANN, ANASTASIA GUININA,
     DAN KEMP, GRANT MERRILL, NORIYUKI MINEZAWA, JONATHAN MULLIN,
     TAKESHI NAGATA, SEAN NEDD, HEATHER NETZLOFF, BOSILJKA NJEGIC, RYAN OLSON,
     MIKE PAK, BUU PHAM,
     SPENCER PRUITT, LUKE ROSKOP, JIM SHOEMAKER, LYUDMILA SLIPCHENKO,
     TONY SMITH, SAROM SOK LEANG, JIE SONG, TETSUYA TAKETSUGU, SIMON WEBB,
     PENG XU, SOOHAENG YOO, FEDERICO ZAHARIEV

  ADDITIONAL CODE HAS BEEN PROVIDED BY COLLABORATORS IN OTHER GROUPS:
     IOWA STATE UNIVERSITY:
          JOE IVANIC, AARON WEST, LAIMUTIS BYTAUTAS, KLAUS RUEDENBERG
     UNIVERSITY OF TOKYO: KIMIHIKO HIRAO, TAKAHITO NAKAJIMA,
          TAKAO TSUNEDA, MUNEAKI KAMIYA, SUSUMU YANAGISAWA,
          KIYOSHI YAGI, MAHITO CHIBA, SEIKEN TOKURA, NAOAKI KAWAKAMI
     UNIVERSITY OF AARHUS: FRANK JENSEN
     UNIVERSITY OF IOWA: VISVALDAS KAIRYS, HUI LI
     NATIONAL INST. OF STANDARDS AND TECHNOLOGY: WALT STEVENS, DAVID GARMER
     UNIVERSITY OF PISA: BENEDETTA MENNUCCI, JACOPO TOMASI
     UNIVERSITY OF MEMPHIS: HENRY KURTZ, PRAKASHAN KORAMBATH
     UNIVERSITY OF ALBERTA: TOBY ZENG, MARIUSZ KLOBUKOWSKI
     UNIVERSITY OF NEW ENGLAND: MARK SPACKMAN
     MIE UNIVERSITY: HIROAKI UMEDA
     NAT. INST. OF ADVANCED INDUSTRIAL SCIENCE AND TECHNOLOGY: KAZUO KITAURA
     MICHIGAN STATE UNIVERSITY:
          KAROL KOWALSKI, MARTA WLOCH, JEFFREY GOUR, JESSE LUTZ,
          WEI LI, JUN SHEN, J. EMILIANO DEUSTUA, PIOTR PIECUCH
     UNIVERSITY OF MINNESOTA:
          YINAN SHU
     UNIVERSITY OF SILESIA: MONIKA MUSIAL, STANISLAW KUCHARSKI
     FACULTES UNIVERSITAIRES NOTRE-DAME DE LA PAIX:
          OLIVIER QUINET, BENOIT CHAMPAGNE
     UNIVERSITY OF CALIFORNIA - SANTA BARBARA: BERNARD KIRTMAN
     INSTITUTE FOR MOLECULAR SCIENCE:
          KAZUYA ISHIMURA, MICHIO KATOUDA, AND SHIGERU NAGASE
     UNIVERSITY OF NOTRE DAME: ANNA POMOGAEVA, DAN CHIPMAN
     KYUSHU UNIVERSITY:
          HARUYUKI NAKANO,
          FENG LONG GU, JACEK KORCHOWIEC, MARCIN MAKOWSKI, AND YURIKO AOKI,
          HIROTOSHI MORI AND EISAKU MIYOSHI
     PENNSYLVANIA STATE UNIVERSITY:
          TZVETELIN IORDANOV, CHET SWALINA, JONATHAN SKONE,
          SHARON HAMMES-SCHIFFER
     WASEDA UNIVERSITY:
          MASATO KOBAYASHI, TOMOKO AKAMA, TSUGUKI TOUMA,
          TAKESHI YOSHIKAWA, YASUHIRO IKABATA, JUNJI SEINO,
          YUYA NAKAJIMA, HIROMI NAKAI
     NANJING UNIVERSITY: SHUHUA LI
     UNIVERSITY OF NEBRASKA:
          PEIFENG SU, DEJUN SI, NANDUN THELLAMUREGE, YALI WANG, HUI LI
     UNIVERSITY OF ZURICH: ROBERTO PEVERATI, KIM BALDRIDGE
     N. COPERNICUS UNIVERSITY AND JACKSON STATE UNIVERSITY:
          MARIA BARYSZ
     UNIVERSITY OF COPENHAGEN: Jimmy Kromann, CASPER STEINMANN
     TOKYO INSTITUTE OF TECHNOLOGY: HIROYA NAKATA
     NAGOYA UNIVERSITY: YOSHIO NISHIMOTO, STEPHAN IRLE
     MOSCOW STATE UNIVERSITY: VLADIMIR MIRONOV

 EXECUTION OF GAMESS BEGUN Wed Nov 16 19:47:25 2022

            ECHO OF THE FIRST FEW INPUT CARDS -
 INPUT CARD> $system kdiag=3 mwords=100 memddi=1000 parall=.t. $end                         
 INPUT CARD> $contrl runtyp=energy ispher=1 $end                                            
 INPUT CARD> $contrl icut=9 itol=20 inttyp=rysquad qmttol=1.0d-05 nosym=1 $end              
 INPUT CARD> $scf    npunch=2 conv=1.0d-06 dirscf=.t.      $end                             
 INPUT CARD> $contrl scftyp=mcscf  mult=2 maxit=200 icharg=1 mplevl=2 $end                  
 INPUT CARD> $guess  guess=moread norb=29 purify=.t. $end                                   
 INPUT CARD> $basis  gbasis=ccd $end                                                        
 INPUT CARD> $mcscf  cistep=gmcci fullnr=.t. finci=mos                                      
 INPUT CARD>         acurcy=1.d-6 maxit=100 $end                                            
 INPUT CARD> $trans  dirtrf=.t. $end                                                        
 INPUT CARD> $mrmp   mrpt=gmcpt rdvecs=.f. $end                                             
 INPUT CARD> $gmcpt  nmofzc=0 nmodoc=1 nmoact=7 nelact=7 stsym(1)=A                         
 INPUT CARD>         reftyp=ormas nspace=1 mstart(1)=2 mine(1)=7 maxe(1)=7                  
 INPUT CARD>         kstate(1)=1,1,1                                                        
 INPUT CARD>         wstate(1)=1,1,1                                                        
 INPUT CARD>         iwgt=0 thrwgt=-1.0 krot=.f. kszdoe=.f. knospn=.f.                      
 INPUT CARD>         thrde=-1.0 edshft=0.02 $end                                            
 INPUT CARD> $data                                                                          
 INPUT CARD> NH3+ 3 states calculation at NH3 structure.                                    
 INPUT CARD> c1                                                                             
 INPUT CARD>N 7.0 -0.024915672000000007 -0.018686709000000003 -0.1693809002                 
 INPUT CARD>H 1.0 -0.14703573899999994 0.9791856158000001 0.2722486941                      
 INPUT CARD>H 1.0 -0.376311698 -0.9384547018000001 0.1350842611                             
 INPUT CARD>H 1.0 0.8695573719999999 0.21892724000000002 0.3620510371000001                 
 INPUT CARD>$end                                                                            
 INPUT CARD>--- OPTIMIZED RHF      MO-S --- GENERATED AT Mon Nov 14 16:47:08 2022           
 INPUT CARD>E=      -56.3825050291, E(NUC)=   11.8429239490                                 
 INPUT CARD> $VEC                                                                           
 INPUT CARD> 1  1-1.00134066E+00-2.25158504E-03 3.44925845E-03 0.00000000E+00 0.00000000E+00
 INPUT CARD> 1  2-2.13170927E-03 0.00000000E+00 0.00000000E+00 6.57129898E-04-6.87950443E-05
 INPUT CARD> 1  3-6.87950443E-05 1.37590089E-04 0.00000000E+00 0.00000000E+00 0.00000000E+00
 INPUT CARD> 1  4 3.25502815E-04-4.84772356E-04 3.62525460E-04-6.27912517E-04-3.45956485E-04
 INPUT CARD> 1  5 3.25502815E-04-4.84772356E-04 3.62525460E-04 6.27912517E-04-3.45956485E-04
 INPUT CARD> 1  6 3.25502815E-04-4.84772356E-04-7.25050921E-04 0.00000000E+00-3.45956485E-04
 INPUT CARD> 2  1 1.31286642E-02-4.05911371E-01-2.82090992E-01 0.00000000E+00 0.00000000E+00
 INPUT CARD> 2  2-7.71489043E-02 0.00000000E+00 0.00000000E+00 9.73717494E-03 6.62450916E-04
 INPUT CARD> 2  3 6.62450916E-04-1.32490183E-03 0.00000000E+00 0.00000000E+00 0.00000000E+00
 INPUT CARD> 2  4-1.96090317E-01-1.96656153E-02-1.74855877E-02 3.02859263E-02 8.68214399E-03
 INPUT CARD> 2  5-1.96090317E-01-1.96656153E-02-1.74855877E-02-3.02859263E-02 8.68214399E-03
 INPUT CARD> 2  6-1.96090317E-01-1.96656153E-02 3.49711754E-02 0.00000000E+00 8.68214399E-03
 INPUT CARD> 3  1 0.00000000E+00 0.00000000E+00 0.00000000E+00 4.48608762E-01 0.00000000E+00
 INPUT CARD> 3  2 0.00000000E+00 2.18692520E-01 0.00000000E+00 0.00000000E+00 1.30198027E-02
 INPUT CARD> 3  3-1.30198027E-02 0.00000000E+00 0.00000000E+00 2.71832968E-02 0.00000000E+00
 INPUT CARD> 3  4-1.85332726E-01-7.03958951E-02 8.47929477E-03 1.95242443E-02 8.32835058E-03
 INPUT CARD> 3  5-1.85332726E-01-7.03958951E-02 8.47929477E-03-1.95242443E-02 8.32835058E-03
 INPUT CARD> 3  6 3.70665453E-01 1.40791790E-01-2.53376884E-02 0.00000000E+00-1.66567012E-02
 INPUT CARD> 4  1 0.00000000E+00 0.00000000E+00 0.00000000E+00 0.00000000E+00 4.48608762E-01
 INPUT CARD> 4  2 0.00000000E+00 0.00000000E+00 2.18692520E-01 0.00000000E+00 0.00000000E+00
 INPUT CARD> 4  3 0.00000000E+00 0.00000000E+00-1.50339731E-02 0.00000000E+00 2.71832968E-02
 INPUT CARD> 4  4 3.21005698E-01 1.21929267E-01 1.95242443E-02-1.40653607E-02-1.44251263E-02
  100000000 WORDS OF MEMORY AVAILABLE

     BASIS OPTIONS
     -------------
     GBASIS=CCD          IGAUSS=       0      POLAR=NONE    
     NDFUNC=       0     NFFUNC=       0     DIFFSP=       F
     NPFUNC=       0      DIFFS=       F     BASNAM=        


     RUN TITLE
     ---------
  NH3+ 3 states calculation at NH3 structure.                                    

 THE POINT GROUP OF THE MOLECULE IS C1      
 THE ORDER OF THE PRINCIPAL AXIS IS     0

 ATOM      ATOMIC                      COORDINATES (BOHR)
           CHARGE         X                   Y                   Z
 N           7.0    -0.0470837929       -0.0353127596       -0.3200834889
 H           1.0    -0.2778572571        1.8503925050        0.5144754324
 H           1.0    -0.7111259952       -1.7734222383        0.2552722387
 H           1.0     1.6432251637        0.4137124948        0.6841772537

          INTERNUCLEAR DISTANCES (ANGS.)
          ------------------------------

                1 N          2 H          3 H          4 H     

   1 N       0.0000000    1.0980433 *  1.0306073 *  1.0672218 *
   2 H       1.0980433 *  0.0000000    1.9361627 *  1.2726032 *
   3 H       1.0306073 *  1.9361627 *  0.0000000    1.7155864 *
   4 H       1.0672218 *  1.2726032 *  1.7155864 *  0.0000000  

  * ... LESS THAN  3.000


     ATOMIC BASIS SET
     ----------------
 THE CONTRACTED PRIMITIVE FUNCTIONS HAVE BEEN UNNORMALIZED
 THE CONTRACTED BASIS FUNCTIONS ARE NOW NORMALIZED TO UNITY

  SHELL TYPE  PRIMITIVE        EXPONENT          CONTRACTION COEFFICIENT(S)

 N         

      1   S       1          9046.0000000    0.000699617413
      1   S       2          1357.0000000    0.005386054630
      1   S       3           309.3000000    0.027391021189
      1   S       4            87.7300000    0.103150591982
      1   S       5            28.5600000    0.278570663317
      1   S       6            10.2100000    0.448294849454
      1   S       7             3.8380000    0.278085928395
      1   S       8             0.7466000    0.015431561233

      2   S       9          9046.0000000   -0.000304990096
      2   S      10          1357.0000000   -0.002408026379
      2   S      11           309.3000000   -0.011944448725
      2   S      12            87.7300000   -0.048925992909
      2   S      13            28.5600000   -0.134472724725
      2   S      14            10.2100000   -0.315112577700
      2   S      15             3.8380000   -0.242857832550
      2   S      16             0.7466000    1.094382206854

      3   S      17             0.2248000    1.000000000000

      4   P      18            13.5500000    0.058905676772
      4   P      19             2.9170000    0.320461106714
      4   P      20             0.7973000    0.753042061792

      5   P      21             0.2185000    1.000000000000

      6   D      22             0.8170000    1.000000000000

 H         

      7   S      23            13.0100000    0.033498726390
      7   S      24             1.9620000    0.234800801174
      7   S      25             0.4446000    0.813682957883

      8   S      26             0.1220000    1.000000000000

      9   P      27             0.7270000    1.000000000000

 H         

     10   S      28            13.0100000    0.033498726390
     10   S      29             1.9620000    0.234800801174
     10   S      30             0.4446000    0.813682957883

     11   S      31             0.1220000    1.000000000000

     12   P      32             0.7270000    1.000000000000

 H         

     13   S      33            13.0100000    0.033498726390
     13   S      34             1.9620000    0.234800801174
     13   S      35             0.4446000    0.813682957883

     14   S      36             0.1220000    1.000000000000

     15   P      37             0.7270000    1.000000000000

 TOTAL NUMBER OF BASIS SET SHELLS             =   15
 NUMBER OF CARTESIAN GAUSSIAN BASIS FUNCTIONS =   30
 NOTE: THIS RUN WILL RESTRICT THE MO VARIATION SPACE TO SPHERICAL HARMONICS.
 THE NUMBER OF ORBITALS KEPT IN THE VARIATIONAL SPACE WILL BE PRINTED LATER.
 NUMBER OF ELECTRONS                          =    9
 CHARGE OF MOLECULE                           =    1
 SPIN MULTIPLICITY                            =    2
 NUMBER OF OCCUPIED ORBITALS (ALPHA)          =    5
 NUMBER OF OCCUPIED ORBITALS (BETA )          =    4
 TOTAL NUMBER OF ATOMS                        =    4
 THE NUCLEAR REPULSION ENERGY IS       11.4362305340

     $CONTRL OPTIONS
     ---------------
 SCFTYP=MCSCF        RUNTYP=ENERGY       EXETYP=RUN     
 MPLEVL=       2     CITYP =NONE         CCTYP =NONE         VBTYP =NONE    
 DFTTYP=NONE         TDDFT =NONE    
 MULT  =       2     ICHARG=       1     NZVAR =       0     COORD =UNIQUE  
 PP    =NONE         RELWFN=NONE         LOCAL =NONE         NUMGRD=       F
 ISPHER=       1     NOSYM =       1     MAXIT =     200     UNITS =ANGS    
 PLTORB=       F     MOLPLT=       F     AIMPAC=       F     FRIEND=        
 NPRINT=       7     IREST =       0     GEOM  =INPUT   
 NORMF =       0     NORMP =       0     ITOL  =      20     ICUT  =       9
 INTTYP=RYSQUAD      GRDTYP=BEST         QMTTOL= 1.0E-05

     $SYSTEM OPTIONS
     ---------------
  REPLICATED MEMORY=   100000000 WORDS (ON EVERY NODE).
 DISTRIBUTED MEMDDI=        1000 MILLION WORDS IN AGGREGATE,
 MEMDDI DISTRIBUTED OVER   1 PROCESSORS IS  1000000000 WORDS/PROCESSOR.
 TOTAL MEMORY REQUESTED ON EACH PROCESSOR=  1100000000 WORDS.
 TIMLIM=      525600.00 MINUTES, OR     365.0 DAYS.
 PARALL= T  BALTYP=  DLB     KDIAG=    3  COREFL= F
 MXSEQ2=     300 MXSEQ3=     150  mem10=         0

          ----------------
          PROPERTIES INPUT
          ----------------

     MOMENTS            FIELD           POTENTIAL          DENSITY
 IEMOM =       1   IEFLD =       0   IEPOT =       0   IEDEN =       0
 WHERE =COMASS     WHERE =NUCLEI     WHERE =NUCLEI     WHERE =NUCLEI  
 OUTPUT=BOTH       OUTPUT=BOTH       OUTPUT=BOTH       OUTPUT=BOTH    
 IEMINT=       0   IEFINT=       0                     IEDINT=       0
                                                       MORB  =       0

     -------------------------------
     INTEGRAL TRANSFORMATION OPTIONS
     -------------------------------
     NWORD  =            0
     CUTOFF = 1.0E-09     MPTRAN =       0
     DIRTRF =       T     AOINTS =DUP     

          ----------------------
          MCSCF INPUT PARAMETERS
          ----------------------
 CONVERGER SELECTION: FOCAS = F  SOSCF = F  FULLNR = T  QUD = F  JACOBI = F
 SECULAR EQUATION METHOD CISTEP = GMCCI   
 --- GENERAL INPUT OPTIONS:
 MAXIT =     100  MICIT =       1  ACURCY= 1.000E-06
 DAMP  =   0.000  CANONC=       T  ENGTOL= 1.000E-10
 EKT   =       F  NPUNCH=       2  NWORD =         0
 REGENERATE CI AFTER CONVERGENCE = NONE    
 DIABATIZATION AFTER CONVERGENCE =        F
 --- INPUT FOR FULLNR CONVERGER:
 METHOD=DM2       FORS  =       F  DROPC =       T
 LINSER=       F  FCORE =       F  NORB  =      30

          ----------------------
          INTEGRAL INPUT OPTIONS
          ----------------------
 NOPK  =       1 NORDER=       0 SCHWRZ=       T

 ------------------------------------------
 MULTIREFERENCE PERTURBATION THEORY CONTROL
 ------------------------------------------
 MRPT=GMCPT    READ CONVERGED MCSCF VECTORS= F


     ------------------------------------------
     THE POINT GROUP IS C1 , NAXIS= 1, ORDER= 1
     ------------------------------------------

 -- VARIATIONAL SPACE WILL BE RESTRICTED TO PURE SPHERICAL HARMONICS ONLY --
 AFTER EXCLUDING CONTAMINANT COMBINATIONS FROM THE CARTESIAN GAUSSIAN BASIS
 SET, THE NUMBER OF SPHERICAL HARMONICS KEPT IN THE VARIATION SPACE IS   29

     DIMENSIONS OF THE SYMMETRY SUBSPACES ARE
 A   =   29

 ..... DONE SETTING UP THE RUN .....
 CPU     0: STEP CPU TIME=     0.03 TOTAL CPU TIME=          0.0 (      0.0 MIN)
 TOTAL WALL CLOCK TIME=          0.1 SECONDS, CPU UTILIZATION IS    60.00%

          ********************
          1 ELECTRON INTEGRALS
          ********************
 TIME TO DO   DIPOLE INTEGRALS=      0.00
 ...... END OF ONE-ELECTRON INTEGRALS ......
 CPU     0: STEP CPU TIME=     0.00 TOTAL CPU TIME=          0.0 (      0.0 MIN)
 TOTAL WALL CLOCK TIME=          0.1 SECONDS, CPU UTILIZATION IS    60.00%

          -------------
          GUESS OPTIONS
          -------------
          GUESS =MOREAD            NORB  =      29          NORDER=       0
          MIX   =       F          PRTMO =       F          PUNMO =       F
          TOLZ  = 1.0E-08          TOLE  = 1.0E-05
          SYMDEN=       F          PURIFY=       T

 INITIAL GUESS ORBITALS GENERATED BY MOREAD   ROUTINE.

 STATISTICS FOR GENERATION OF SYMMETRY ORBITAL -Q- MATRIX
 NUMBER OF CARTESIAN ATOMIC ORBITALS=         30
 NUMBER OF SPHERICAL CONTAMINANTS DROPPED=     1
 NUMBER OF LINEARLY DEPENDENT MOS DROPPED=     0
 TOTAL NUMBER OF MOS IN VARIATION SPACE=      29
 ORBITAL PURIFICATION WILL OCCUR

 SYMMETRIES FOR INITIAL GUESS ORBITALS FOLLOW.   BOTH SET(S).
     5 ORBITALS ARE OCCUPIED (    1 CORE ORBITALS).
     1=A        2=A        3=A        4=A        5=A        6=A        7=A   
     8=A        9=A       10=A       11=A       12=A       13=A       14=A   
    15=A       16=A       17=A       18=A       19=A       20=A       21=A   
    22=A       23=A       24=A       25=A       26=A       27=A       28=A   
    29=A   
 ...... END OF INITIAL ORBITAL SELECTION ......
 CPU     0: STEP CPU TIME=     0.01 TOTAL CPU TIME=          0.0 (      0.0 MIN)
 TOTAL WALL CLOCK TIME=          0.1 SECONDS, CPU UTILIZATION IS    66.67%

                    ----------------------
                    AO INTEGRAL TECHNOLOGY
                    ----------------------
     S,P,L SHELL ROTATED AXIS INTEGRALS, REPROGRAMMED BY
        KAZUYA ISHIMURA (IMS) AND JOSE SIERRA (SYNSTAR).
     S,P,D,L SHELL ROTATED AXIS INTEGRALS PROGRAMMED BY
        KAZUYA ISHIMURA (INSTITUTE FOR MOLECULAR SCIENCE).
     S,P,D,F,G SHELL TO TOTAL QUARTET ANGULAR MOMENTUM SUM 5,
        ERIC PROGRAM BY GRAHAM FLETCHER (ELORET AND NASA ADVANCED
        SUPERCOMPUTING DIVISION, AMES RESEARCH CENTER).
     S,P,D,F,G,L SHELL GENERAL RYS QUADRATURE PROGRAMMED BY
        MICHEL DUPUIS (PACIFIC NORTHWEST NATIONAL LABORATORY).

          --------------------
          2 ELECTRON INTEGRALS
          --------------------

 DIRECT SCF METHOD SKIPS INTEGRAL STORAGE ON DISK.
 DIRECT TRANSFORMATION SKIPS AO INTEGRAL STORAGE ON DISK.
  ...... END OF TWO-ELECTRON INTEGRALS .....
 STEP CPU TIME =     0.02 TOTAL CPU TIME =          0.1 (      0.0 MIN)
 TOTAL WALL CLOCK TIME=          0.1 SECONDS, CPU UTILIZATION IS    75.00%
 DDI: Creating Array [0] - 900 x 36 = 32400 words.
 DDI: Creating Array [1] - 21 x 288 = 6048 words.
 DDI: Creating Array [2] - 36 x 36 = 1296 words.
 DDI: Creating Array [3] - 465 x 36 = 16740 words.

          -----------------
          MCSCF CALCULATION
          -----------------

 ----- NUCLEAR ENERGY ----- =        11.4362305340

     -------------------------------------------------
     GMC-PT/GMC-QDPT or general MCSCF input parameters
     -------------------------------------------------
 # of frozen core orbs. =         0 ->         0
 # of doubly occ. orbs. =         1
 # of active      orbs. =         7
 # of virtual     orbs. =        21
 # of active electrons  =         7
 # of states in CI      =         3
 Highest state in CI    =         3
 kstate =  1 1 1
 avecoe =  0.333 0.333 0.333
 State symmetry           = A           
 Assigned symmetry number = 1

 <<<Act. MO sym.: 1111111

 <<<Division of 1-ext.:  0
 <<<Division of 2-ext.:  0

 *** Reference space

 Reference type: ORMAS (= Occupation restricted multiple active space)
 # of orbitals          =  7
 # of minimum electrons =  7
 # of maximum electrons =  7
 State symmetry    =    1 (input)
 2*Sz              =    1 (input)
 Spin multiplicity =    2 (input)
 Dimension of reference space =      1225  (from      3432 walks)

 Dimension of reference space =      1225  (from      1225 walks)

 <<<Ionized spaces for Ref-CI:
      0:         1225 /   -1-0:         1960 /  0-1-0:         2891

 EVALUATING EXCHANGE INTEGRALS FOR DIRECT INTEGRAL TRANSFORMATION
 SCHWARZ INEQUALITY OVERHEAD:       465 INTEGRALS, T=        0.00

     --------------------------------------------
     PARTIAL TWO ELECTRON INTEGRAL TRANSFORMATION
     --------------------------------------------

 NUMBER OF CORE MOLECULAR ORBITALS     =    1
 NUMBER OF OCCUPIED MOLECULAR ORBITALS =    8
 TOTAL NUMBER OF MOLECULAR ORBITALS    =   29
 TOTAL NUMBER OF ATOMIC ORBITALS       =   30
 THRESHOLD FOR KEEPING TRANSFORMED 2E- INTEGRALS = 1.000E-09

 -------------------------------     ------------------------------
 DISTRIBUTED DATA TRANSFORMATION     PROGRAM WRITTEN BY G. FLETCHER
 -------------------------------     ------------------------------

 THE DISTRIBUTED MEMORY REQUIRED FOR THIS STEP IS MEMDDI=         1 MWORDS
 CREATING DISTRIBUTED STORAGE FOR [VIR OCC|VIR OCC] INTEGRALS
 CREATING DISTRIBUTED STORAGE FOR [VIR OCC|OCC OCC] INTEGRALS
 CREATING DISTRIBUTED STORAGE FOR [OCC OCC|OCC OCC] INTEGRALS
 CREATING DISTRIBUTED STORAGE FOR [VIR VIR|OCC OCC] INTEGRALS
 FOR    1 PROCESSORS, THE REPLICATED MEMORY NEEDED IS       73700 WORDS.
 SCHWARZ INEQUALITY OVERHEAD:       465 INTEGRALS, T=        0.01

      DIRECT 4-INDEX TRANSFORMATION 
      SCHWARZ INEQUALITY TEST SKIPPED          0 INTEGRAL BLOCKS
 ----- FROZEN CORE ENERGY =       -47.7145182059
 ... END OF INTEGRAL TRANSFORMATION ...
 CPU     0: STEP CPU TIME=     0.22 TOTAL CPU TIME=          0.3 (      0.0 MIN)
 TOTAL WALL CLOCK TIME=          0.3 SECONDS, CPU UTILIZATION IS    93.33%

     --------------------------------     -----------------------------
     MCHF NEWTON-RAPHSON OPTIMIZATION     CODE WRITTEN BY MICHEL DUPUIS
     --------------------------------     -----------------------------
     PARALLEL VERSION WRITTEN BY G. FLETCHER (ELORET)
     NASA ADVANCED SUPERCOMPUTING DIVISION, AMES RESEARCH CENTER

 NUMBER OF INDEPENDENT ORBITAL ROTATION PARAMETERS =   175
 ..... DONE SOLVING NEWTON-RAPHSON EQUATIONS .....
 CPU     0: STEP CPU TIME=     0.89 TOTAL CPU TIME=          1.2 (      0.0 MIN)
 TOTAL WALL CLOCK TIME=          1.2 SECONDS, CPU UTILIZATION IS    98.32%
 ..... DONE WITH NTN-RPH ORBITAL ROTATIONS ..... 
 CPU     0: STEP CPU TIME=     0.00 TOTAL CPU TIME=          1.2 (      0.0 MIN)
 TOTAL WALL CLOCK TIME=          1.2 SECONDS, CPU UTILIZATION IS    98.32%
 MAXIMUM MEMORY USED BY NTN-RPH CODE WAS     57645 WORDS.

 ITER     TOTAL ENERGY      DEL(E)  LAGRANGIAN ASYMMETRY   SQCDF  MICIT   DAMP
   1      -55.641668502 -0.641668502  0.123695   14    4 1.386E-01  1   0.0000
   2      -55.685706161 -0.044037659  0.021971   12    5 4.522E-01  1   0.0000
   3      -55.719691442 -0.033985281  0.012727   11    6 2.215E-01  1   0.0235
   4      -55.734265504 -0.014574062  0.004340   11    6 4.145E-02  1   0.0047
   5      -55.736119751 -0.001854248  0.000735   12    5 1.186E-03  1   0.0000
   6      -55.736173635 -0.000053883  0.000235   12    5 1.012E-04  1   0.0000
   7      -55.736179181 -0.000005546  0.000106   12    5 1.643E-05  1   0.0000
   8      -55.736180138 -0.000000957  0.000050   22    5 3.183E-06  1   0.0000
   9      -55.736180330 -0.000000192  0.000025   22    5 7.137E-07  1   0.0000
  10      -55.736180375 -0.000000044  0.000013   22    5 1.846E-07  1   0.0000
  11      -55.736180386 -0.000000012  0.000007   22    5 5.392E-08  1   0.0000
  12      -55.736180390 -0.000000003  0.000004   22    5 1.719E-08  1   0.0000
  13      -55.736180391 -0.000000001  0.000002   12    7 5.822E-09  1   0.0000
  14      -55.736180391 -0.000000000  0.000001   12    7 2.042E-09  1   0.0000
  15      -55.736180391 -0.000000000  0.000001   12    7 7.445E-10  1   0.0000

          --------------------
          LAGRANGIAN CONVERGED
          --------------------

 FINAL MCSCF ENERGY IS      -55.7361803914 AFTER  15 ITERATIONS

 -MCCI- BASED ON OPTIMIZED ORBITALS
 ----------------------------------

 PLEASE NOTE: IF THE ACTIVE ORBITALS ARE CANONICALIZED BELOW,
 THE FOLLOWING CI EXPANSION COEFFICIENTS AND THE DENSITY DO NOT
 CORRESPOND TO THE PRINTED ORBITALS.  THE PRINTED EXPANSIONS MATCH
 THE ORBITALS USED DURING THE LAST ITERATION.  IF YOU WISH TO SEE
 CI EXPANSIONS BASED ON THE CANONICAL (OR NATURAL) ORBITALS, YOU
 MUST RUN A CI CALCULATION WITH THAT ORBITAL CHOICE READ IN $VEC.

 Averaged energy =     -55.736180391

 State #    1  Energy =     -55.874531519  S =  0.500

      Det      Coef    Occupancy (Ignoring core)
      ---      ----    --------- --------- -----
        1   -0.937940  11110001110000
        5    0.065369  01111001110000
        8    0.128233  10110101110000
       17   -0.131529  11010011110000
       71    0.157113  11110001011000
      211   -0.050163  11110000110100
      386   -0.092559  11110001010010
      393   -0.070548  10110101010010
      701    0.108657  11110001100001
      717   -0.050677  11010011100001

 State #    2  Energy =     -55.743622115  S =  0.500

      Det      Coef    Occupancy (Ignoring core)
      ---      ----    --------- --------- -----
        1   -0.128151  11110001110000
       36   -0.431669  11110001101000
       71   -0.853987  11110001011000
       75    0.056178  01111001011000
       78    0.071385  10110101011000
       87   -0.090441  11010011011000
      806   -0.088603  11110001001001

 State #    3  Energy =     -55.590387540  S =  0.500

      Det      Coef    Occupancy (Ignoring core)
      ---      ----    --------- --------- -----
        1   -0.086369  11110001110000
       36    0.865690  11110001101000
       43   -0.070053  10110101101000
       52    0.057729  11010011101000
       71   -0.422085  11110001011000
      281    0.066063  11110000101100
      456    0.084935  11110001001010
      463    0.067814  10110101001010

 DENSITY MATRIX OVER ACTIVE MO-S

             1           2           3           4           5

    1    1.9768669
    2    0.0126560   1.6324195
    3    0.0021489   0.0014352   1.6346749
    4    0.0020156   0.0021470  -0.0004324   1.6547056
    5    0.1011988  -0.0255647  -0.0037672   0.0255363   0.0281265
    6   -0.0014596  -0.1405593  -0.0125124   0.0291546   0.0038415
    7   -0.0085634  -0.0103301  -0.1501474   0.0054569  -0.0015371

             6           7

    6    0.0389667
    7   -0.0011816   0.0342399

 FORMING THE "STANDARD FOCK OPERATOR" IN DIRECT AO INTEGRAL MODE...
 ONLY THE    1 CORE AND   21 VIRTUAL ORBITALS WILL BE CANONICALIZED

          ----------------------
          MCSCF NATURAL ORBITALS
          ----------------------

                      1          2          3          4          5
                  -15.9857     1.9826     1.6561     1.6503     1.6428
                     A          A          A          A          A   
    1  N  1  S    1.001215   0.008520  -0.010108  -0.002586  -0.001707
    2  N  1  S   -0.001826   0.436512  -0.161695  -0.095264  -0.034911
    3  N  1  S   -0.006290   0.308679  -0.260511  -0.129152  -0.052784
    4  N  1  X   -0.000016   0.028917  -0.107919   0.196217   0.476420
    5  N  1  Y   -0.000136   0.011515  -0.141179   0.400352  -0.236341
    6  N  1  Z    0.001158   0.092309   0.569525   0.155920   0.006894
    7  N  1  X    0.000022  -0.000819  -0.069994   0.067414   0.254686
    8  N  1  Y   -0.000016   0.001987  -0.065600   0.132260  -0.122350
    9  N  1  Z   -0.000499   0.011992   0.376317   0.083600  -0.010866
   10  N  1 XX   -0.000153  -0.001975  -0.013143   0.001294   0.011700
   11  N  1 YY    0.000363   0.001445  -0.009675  -0.008441  -0.012102
   12  N  1 ZZ   -0.000210   0.000531   0.022818   0.007147   0.000402
   13  N  1 XY    0.000271   0.002314   0.001000  -0.002708   0.003262
   14  N  1 XZ    0.000106   0.001593  -0.001795   0.010889   0.022488
   15  N  1 YZ    0.000031   0.001952  -0.005289   0.018812  -0.010512
   16  H  2  S   -0.001709   0.179317   0.044999   0.256797  -0.278723
   17  H  2  S    0.000388   0.000415   0.021747   0.034122  -0.076132
   18  H  2  X   -0.000171   0.005303   0.000150   0.018490   0.010337
   19  H  2  Y    0.000860  -0.031998  -0.009962  -0.024107   0.027048
   20  H  2  Z    0.000437  -0.008585   0.022426  -0.005805   0.012621
   21  H  3  S   -0.002046   0.175207   0.199616  -0.329837   0.000958
   22  H  3  S    0.000636  -0.000733   0.035866  -0.034725  -0.006084
   23  H  3  X   -0.000425   0.014611   0.007505  -0.010453   0.019283
   24  H  3  Y   -0.001000   0.032271   0.021913  -0.031001  -0.004700
   25  H  3  Z    0.000380  -0.003811   0.015214   0.018837   0.000454
   26  H  4  S   -0.001826   0.203317   0.061285   0.221858   0.316097
   27  H  4  S    0.000305   0.006520   0.019893   0.029281   0.083533
   28  H  4  X    0.000862  -0.033242  -0.015197  -0.021966  -0.020905
   29  H  4  Y    0.000199  -0.008589  -0.004443   0.014811  -0.015753
   30  H  4  Z    0.000495  -0.014047   0.021274  -0.005962  -0.018308

                      6          7          8
                    0.0280     0.0219     0.0183
                     A          A          A   
    1  N  1  S   -0.079123  -0.182165  -0.132955
    2  N  1  S   -0.258520  -0.621536  -0.395151
    3  N  1  S   -0.006205  -0.192566   0.012937
    4  N  1  X    0.710742  -0.374586   0.217321
    5  N  1  Y   -0.306058  -0.248209   0.849285
    6  N  1  Z   -0.124055  -0.616066  -0.186613
    7  N  1  X   -0.023811  -0.058991   0.021838
    8  N  1  Y    0.006824  -0.062886   0.078285
    9  N  1  Z    0.027591   0.060199   0.057455
   10  N  1 XX   -0.043211  -0.018524  -0.003929
   11  N  1 YY    0.044864   0.014099   0.012159
   12  N  1 ZZ   -0.001652   0.004425  -0.008230
   13  N  1 XY    0.002558   0.038516  -0.018508
   14  N  1 XZ   -0.013523   0.036137  -0.003397
   15  N  1 YZ    0.013626   0.032318  -0.044055
   16  H  2  S    0.663077   0.411743  -0.294547
   17  H  2  S    0.163032   0.043326  -0.082578
   18  H  2  X   -0.005241   0.035210  -0.020155
   19  H  2  Y   -0.064515  -0.047664   0.013813
   20  H  2  Z   -0.007744   0.023745  -0.005521
   21  H  3  S    0.238658   0.207198   0.839483
   22  H  3  S    0.035357   0.000999   0.144635
   23  H  3  X   -0.002205   0.016504   0.034771
   24  H  3  Y    0.026177   0.032958   0.079634
   25  H  3  Z   -0.002467   0.004940   0.017668
   26  H  4  S   -0.509399   0.687636  -0.012215
   27  H  4  S   -0.154203   0.110540  -0.002893
   28  H  4  X    0.024645  -0.075954  -0.007309
   29  H  4  Y    0.019544   0.010168  -0.035130
   30  H  4  Z    0.020355   0.007746  -0.003943

          ------------------------
          MCSCF OPTIMIZED ORBITALS
          ------------------------

                      1          2          3          4          5
                  -15.9857     0.0000     0.0000     0.0000     0.0000
                     A          A          A          A          A   
    1  N  1  S    1.001215  -0.002940   0.006985   0.007045  -0.014888
    2  N  1  S   -0.001826   0.400841  -0.012485  -0.005127  -0.192371
    3  N  1  S   -0.006290   0.304377  -0.060781  -0.022495  -0.285075
    4  N  1  X   -0.000016   0.008624   0.450428  -0.051079  -0.027269
    5  N  1  Y   -0.000136   0.000627  -0.007437   0.396395  -0.023692
    6  N  1  Z    0.001158   0.052309   0.002228  -0.003016   0.582127
    7  N  1  X    0.000022  -0.011539   0.261943  -0.058307  -0.044760
    8  N  1  Y   -0.000016  -0.000172  -0.037764   0.178490  -0.027423
    9  N  1  Z   -0.000499   0.012844  -0.029309  -0.015310   0.386176
   10  N  1 XX   -0.000153  -0.003885   0.015749  -0.003074  -0.013061
   11  N  1 YY    0.000363   0.003537  -0.016601   0.001897  -0.010732
   12  N  1 ZZ   -0.000210   0.000348   0.000852   0.001177   0.023794
   13  N  1 XY    0.000271   0.003964   0.002738  -0.001801   0.000341
   14  N  1 XZ    0.000106   0.002234   0.026752  -0.001298   0.001646
   15  N  1 YZ    0.000031   0.002990   0.002030   0.026829  -0.000128
   16  H  2  S   -0.001709   0.206085  -0.150955   0.396235   0.122845
   17  H  2  S    0.000388   0.005087  -0.061215   0.074232   0.031289
   18  H  2  X   -0.000171   0.005925   0.019715   0.012333   0.005381
   19  H  2  Y    0.000860  -0.035115   0.015835  -0.035462  -0.017470
   20  H  2  Z    0.000437  -0.007856   0.005740  -0.015767   0.019982
   21  H  3  S   -0.002046   0.206382  -0.227342  -0.380108   0.118921
   22  H  3  S    0.000636   0.002524  -0.035579  -0.045356   0.027298
   23  H  3  X   -0.000425   0.015518   0.010149  -0.022693   0.005310
   24  H  3  Y   -0.001000   0.035993  -0.025498  -0.033668   0.014452
   25  H  3  Z    0.000380  -0.003945   0.006477   0.010345   0.020046
   26  H  4  S   -0.001826   0.213748   0.428374   0.009897   0.122966
   27  H  4  S    0.000305   0.006389   0.097275  -0.024789   0.026564
   28  H  4  X    0.000862  -0.035371  -0.030342  -0.004373  -0.021544
   29  H  4  Y    0.000199  -0.008161  -0.006106   0.024906  -0.000542
   30  H  4  Z    0.000495  -0.012830  -0.023558   0.000247   0.018695

                      6          7          8          9         10
                    0.0000     0.0000     0.0000     0.1388     0.1982
                     A          A          A          A          A   
    1  N  1  S    0.228307  -0.043402  -0.054493  -0.129248   0.008158
    2  N  1  S    0.777731  -0.119090  -0.139123  -0.194347   0.003273
    3  N  1  S    0.185720   0.071975   0.046002   1.339178  -0.186555
    4  N  1  X    0.066679   0.870499  -0.046153  -0.033245  -0.027239
    5  N  1  Y    0.054047   0.121274   0.968190  -0.016722  -0.130267
    6  N  1  Z    0.665078   0.053303  -0.014040  -0.186605  -0.003042
    7  N  1  X    0.048439   0.032565   0.035722   0.141416   0.295733
    8  N  1  Y    0.031386   0.054968   0.094106   0.119769   0.716371
    9  N  1  Z   -0.072924   0.010860   0.026930   0.427548   0.034870
   10  N  1 XX    0.029671  -0.030066   0.017706  -0.020175   0.030695
   11  N  1 YY   -0.028978   0.036321  -0.010340   0.064301  -0.052650
   12  N  1 ZZ   -0.000693  -0.006256  -0.007366  -0.044125   0.021954
   13  N  1 XY   -0.030040  -0.018511  -0.024192   0.050446  -0.039596
   14  N  1 XZ   -0.028363  -0.024292  -0.003274   0.043940   0.045148
   15  N  1 YZ   -0.019886  -0.015108  -0.048069   0.031567   0.095455
   16  H  2  S   -0.459684   0.304194  -0.576695   0.347399   0.193534
   17  H  2  S   -0.059060   0.091057  -0.143760  -0.912535  -0.741066
   18  H  2  X   -0.024445  -0.023056  -0.020404   0.039940  -0.004117
   19  H  2  Y    0.055268  -0.031532   0.044331   0.082946   0.033885
   20  H  2  Z   -0.017923  -0.017583  -0.007140   0.039926   0.071082
   21  H  3  S   -0.494206   0.388134   0.579801   0.315718  -0.533027
   22  H  3  S   -0.053600   0.075427   0.109834  -0.717080   1.914425
   23  H  3  X   -0.024198   0.004263   0.027322  -0.044002   0.035939
   24  H  3  Y   -0.059049   0.034437   0.051548  -0.083370   0.108712
   25  H  3  Z   -0.009188   0.002278   0.016961  -0.016025  -0.078134
   26  H  4  S   -0.472599  -0.670821   0.094604   0.270185   0.234266
   27  H  4  S   -0.056935  -0.168524   0.042593  -0.815528  -0.834379
   28  H  4  X    0.062791   0.045411  -0.005030   0.066825   0.026405
   29  H  4  Y   -0.004532   0.000749  -0.039178   0.080756  -0.002687
   30  H  4  Z   -0.011623   0.010916  -0.013678   0.055305   0.055720

                     11         12         13         14         15
                    0.2244     0.5350     0.5754     0.6421     0.8166
                     A          A          A          A          A   
    1  N  1  S    0.017811   0.082092  -0.004699   0.025518  -0.399924
    2  N  1  S    0.036269   0.079977   0.073383   0.121434  -0.909036
    3  N  1  S   -0.117816  -0.728667   0.412510   0.113254   1.591687
    4  N  1  X   -0.002649  -0.466592  -0.444892  -0.080674  -0.019968
    5  N  1  Y   -0.039707  -0.044775   0.280271  -0.402072  -0.062915
    6  N  1  Z    0.025764   0.529869  -0.348871  -0.281394   0.277262
    7  N  1  X   -0.350601   1.015192   1.184209   0.606138   0.025195
    8  N  1  Y    0.320880   0.295574  -0.736718   1.800760   0.187246
    9  N  1  Z   -0.079763  -0.772196   0.668438   0.628178  -0.114543
   10  N  1 XX   -0.069846   0.014548  -0.002987   0.014720   0.036536
   11  N  1 YY    0.073001   0.007827  -0.021160  -0.021615   0.015027
   12  N  1 ZZ   -0.003155  -0.022374   0.024147   0.006895  -0.051564
   13  N  1 XY   -0.040028   0.027773  -0.051732   0.009124  -0.119530
   14  N  1 XZ   -0.060431   0.021716   0.002381  -0.021973   0.014634
   15  N  1 YZ    0.036355   0.004798  -0.006005  -0.052874  -0.058790
   16  H  2  S    0.560884   0.286687   0.128802  -0.709154   0.030142
   17  H  2  S   -1.858559   0.355259   0.726784  -0.443041  -0.369210
   18  H  2  X   -0.032535   0.092939  -0.118263  -0.023533  -0.388333
   19  H  2  Y    0.064060  -0.014707  -0.070913   0.202300   0.154866
   20  H  2  Z    0.023151  -0.088375  -0.012749  -0.070772  -0.094769
   21  H  3  S    0.037728   0.585519  -0.378450   0.468904  -0.079184
   22  H  3  S   -0.017022   0.474759   0.018722   0.782905  -0.313593
   23  H  3  X    0.045960   0.026979   0.087532   0.032007   0.099072
   24  H  3  Y    0.000752   0.076506  -0.051507   0.195930  -0.062769
   25  H  3  Z   -0.008476  -0.066452   0.038028   0.122505   0.184311
   26  H  4  S   -0.578406   0.015204  -0.605483  -0.473807   0.070883
   27  H  4  S    1.950111  -0.563612  -0.795555  -0.205399  -0.247008
   28  H  4  X   -0.082003   0.043135   0.099055   0.148827   0.234557
   29  H  4  Y   -0.004336   0.114129  -0.047152  -0.022046  -0.352823
   30  H  4  Z   -0.036347   0.000458   0.103883  -0.040239   0.009450

                     16         17         18         19         20
                    0.9879     1.0601     1.2768     1.3729     1.4847
                     A          A          A          A          A   
    1  N  1  S   -0.435330  -0.175948   0.070449  -0.299119  -0.447259
    2  N  1  S   -0.917907  -0.368978   0.146135  -0.631718  -0.926953
    3  N  1  S    1.832648   0.849922  -0.268874   1.099253   1.694198
    4  N  1  X   -0.051921  -0.061296   0.030440   0.042683   0.012810
    5  N  1  Y   -0.057740   0.058344  -0.219867   0.003755  -0.074741
    6  N  1  Z    0.123833   0.039091   0.019529  -0.021423  -0.033075
    7  N  1  X    0.283294   0.336212   0.186516  -0.481201   0.502787
    8  N  1  Y    0.261257  -0.315280   0.977943  -0.482417   0.381113
    9  N  1  Z   -0.083655   0.235490  -0.033199   0.403867   0.803453
   10  N  1 XX   -0.154231   0.170045  -0.009431   0.087715   0.022465
   11  N  1 YY   -0.085836  -0.111489  -0.014481   0.075307   0.090725
   12  N  1 ZZ    0.240067  -0.058555   0.023913  -0.163023  -0.113190
   13  N  1 XY    0.065244   0.103965  -0.056206  -0.057170   0.055574
   14  N  1 XZ   -0.027882  -0.252092  -0.072676  -0.001063  -0.083642
   15  N  1 YZ   -0.009282   0.114225   0.072043   0.011364   0.033781
   16  H  2  S   -0.388139   0.031953  -0.405563  -0.188446  -0.597208
   17  H  2  S   -0.212498   0.025415  -0.104395  -0.001340  -0.038855
   18  H  2  X    0.200978  -0.094230  -0.477892   0.260668   0.076897
   19  H  2  Y   -0.052894  -0.036777  -0.434226  -0.026499  -0.035538
   20  H  2  Z    0.371494   0.278138   0.438108  -0.248361  -0.406518
   21  H  3  S   -0.132849  -0.211551   0.514719  -0.550351  -0.253595
   22  H  3  S   -0.223239  -0.175562   0.260317  -0.267162  -0.041140
   23  H  3  X    0.001069  -0.512992   0.292333   0.579522  -0.268770
   24  H  3  Y    0.018124   0.120997  -0.306938  -0.114821  -0.017938
   25  H  3  Z    0.273377   0.033911  -0.350345   0.094417  -0.783488
   26  H  4  S   -0.423317  -0.249863   0.002360  -0.079244  -0.647782
   27  H  4  S   -0.246861  -0.195297  -0.039549  -0.024853  -0.299626
   28  H  4  X   -0.191299   0.258376   0.112018   0.160804  -0.021321
   29  H  4  Y    0.162587   0.171502   0.152819   0.533976  -0.052624
   30  H  4  Z    0.361909  -0.447741   0.033947  -0.441343   0.240582

                     21         22         23         24         25
                    1.6157     1.8764     1.9285     1.9678     2.0740
                     A          A          A          A          A   
    1  N  1  S   -0.124109   0.000602   0.084795   0.103045  -0.024868
    2  N  1  S   -0.251728   0.031117   0.288120   0.238903  -0.032494
    3  N  1  S    0.470467   0.071132   1.286304   0.152467   0.398290
    4  N  1  X   -0.257948   0.290346   0.041061   0.184736  -0.064731
    5  N  1  Y    0.019601   0.578606   0.070392  -0.181568  -0.145080
    6  N  1  Z   -0.027231   0.098298   0.270418   0.113799   0.032104
    7  N  1  X   -0.168587  -0.049454  -0.038610  -0.191347  -0.166337
    8  N  1  Y    0.658599   0.212385   0.002167   0.120367  -0.093153
    9  N  1  Z    0.211632   0.066255   0.471086   0.011132   0.401779
   10  N  1 XX    0.132838  -0.203565   0.175750  -0.058374  -0.667909
   11  N  1 YY   -0.013620   0.059351  -0.238000   0.097271  -0.131814
   12  N  1 ZZ   -0.119218   0.144214   0.062250  -0.038897   0.799722
   13  N  1 XY    0.005534   0.228648  -0.112822  -0.273264   0.426773
   14  N  1 XZ    0.196350  -0.062511  -0.214853  -0.160150   0.165243
   15  N  1 YZ   -0.123125  -0.177471   0.012210   0.025733   0.221387
   16  H  2  S   -0.239406  -0.023331  -0.283472   0.025845  -0.087009
   17  H  2  S   -0.408630  -0.209550  -0.423734   0.259197   0.022088
   18  H  2  X    0.345174  -0.011328  -0.014192   0.840322  -0.051886
   19  H  2  Y    0.296995   0.383071   0.916830  -0.339403   0.062138
   20  H  2  Z    0.534913   0.392291   0.001673   0.118794  -0.348707
   21  H  3  S    0.119555  -0.007151  -0.269004  -0.021788  -0.216352
   22  H  3  S   -0.001612   0.395512  -0.300238  -0.058369  -0.220147
   23  H  3  X    0.198729   0.398074  -0.108197  -0.115416  -0.028070
   24  H  3  Y   -0.278358   0.603877  -0.744127  -0.278653  -0.417553
   25  H  3  Z   -0.309174  -0.454657  -0.148940   0.074165  -0.069625
   26  H  4  S   -0.288159   0.035008  -0.240439  -0.060333  -0.086850
   27  H  4  S    0.291141  -0.250219  -0.045054  -0.363564   0.051711
   28  H  4  X   -0.261551   0.532189   0.178942   0.809915   0.292738
   29  H  4  Y   -0.498317   0.006937   0.462534  -0.414753  -0.178165
   30  H  4  Z   -0.456265   0.164143   0.315640   0.168197  -0.501294

                     26         27         28         29
                    2.2871     2.6243     2.6762     2.9643
                     A          A          A          A   
    1  N  1  S   -0.066771  -0.080794  -0.072628   0.006054
    2  N  1  S   -0.097026  -0.010376  -0.161019   0.083151
    3  N  1  S    0.722622   2.087168  -0.281917   0.870978
    4  N  1  X    0.053493   0.235061   0.037018  -0.436130
    5  N  1  Y    0.007953   0.037417   0.546264  -0.125654
    6  N  1  Z    0.074168   0.307106  -0.060661   0.086673
    7  N  1  X    0.431934   0.662077   0.150229  -0.694384
    8  N  1  Y   -0.234579   0.406259   1.339026  -0.218250
    9  N  1  Z    0.357283   0.520817   0.027903   0.043572
   10  N  1 XX   -0.353001   0.224132  -0.192212  -0.962664
   11  N  1 YY    0.215502   0.395584   0.016198   1.417127
   12  N  1 ZZ    0.137499  -0.619716   0.176015  -0.454463
   13  N  1 XY   -0.586507   0.621676  -0.737192   0.055591
   14  N  1 XZ    0.674655   0.770556   0.065242  -0.598758
   15  N  1 YZ   -0.439107   0.524065   1.096449  -0.025114
   16  H  2  S   -0.092151  -0.649902  -0.906003  -0.792353
   17  H  2  S    0.046556  -0.111073  -0.398151  -0.249795
   18  H  2  X   -0.095779  -0.193690   0.020438  -0.163591
   19  H  2  Y    0.017927   0.285756   0.736640   0.721345
   20  H  2  Z    0.153493   0.264870   0.195297   0.445819
   21  H  3  S   -0.211102  -0.417141   1.176006  -1.033544
   22  H  3  S   -0.074244  -0.059705   0.461947  -0.304572
   23  H  3  X   -0.652636  -0.144789   0.225101  -0.377170
   24  H  3  Y    0.078907  -0.294683   0.891700  -0.684457
   25  H  3  Z   -0.193612   0.402320  -0.146165   0.382420
   26  H  4  S   -0.360311  -1.231412   0.044779   0.837490
   27  H  4  S   -0.234356  -0.457822   0.063514   0.290210
   28  H  4  X    0.271893   0.812528  -0.135460  -0.672727
   29  H  4  Y    0.552519   0.102577  -0.100171  -0.177486
   30  H  4  Z   -0.191331   0.569062  -0.146868  -0.375855
 .....DONE WITH MCSCF ITERATIONS.....
 CPU     0: STEP CPU TIME=     9.51 TOTAL CPU TIME=         10.7 (      0.2 MIN)
 TOTAL WALL CLOCK TIME=         10.7 SECONDS, CPU UTILIZATION IS    99.91%

     ----------------------------------------------------------------
     PROPERTY VALUES FOR THE MCSCF SELF-CONSISTENT FIELD WAVEFUNCTION
     ----------------------------------------------------------------

          -----------------
          ENERGY COMPONENTS
          -----------------

         WAVEFUNCTION NORMALIZATION =       1.0000000000

                ONE ELECTRON ENERGY =     -94.3339157711
                TWO ELECTRON ENERGY =      27.1615048457
           NUCLEAR REPULSION ENERGY =      11.4362305340
                                      ------------------
                       TOTAL ENERGY =     -55.7361803914

 ELECTRON-ELECTRON POTENTIAL ENERGY =      27.1615048457
  NUCLEUS-ELECTRON POTENTIAL ENERGY =    -150.1428420361
   NUCLEUS-NUCLEUS POTENTIAL ENERGY =      11.4362305340
                                      ------------------
             TOTAL POTENTIAL ENERGY =    -111.5451066564
               TOTAL KINETIC ENERGY =      55.8089262650
                 VIRIAL RATIO (V/T) =       1.9986965190

          ---------------------------------------
          MULLIKEN AND LOWDIN POPULATION ANALYSES
          ---------------------------------------

     ATOMIC MULLIKEN POPULATION IN EACH MOLECULAR ORBITAL

                      1          2          3          4          5

                  2.000000   1.982588   1.656064   1.650252   1.642834

    1             2.000847   1.332817   1.511617   0.910718   1.113432
    2            -0.000226   0.202562   0.011999   0.216584   0.237423
    3            -0.000334   0.188929   0.113066   0.363844   0.008056
    4            -0.000287   0.258280   0.019382   0.159106   0.283923

                      6          7          8

                  0.028040   0.021888   0.018334

    1             0.013063   0.011663   0.009712
    2             0.009042   0.002749   0.000891
    3             0.001167   0.000556   0.007721
    4             0.004768   0.006920   0.000010
 WARNING! MCSCF POPULATIONS SHOWN ABOVE ARE FOR THE NATURAL ORBITALS.
 IGNORE THE ABOVE DATA FOR MCSCF FUNCTIONS WHICH ARE NOT OF -FORS- TYPE.
 THE FOLLOWING POPULATIONS ARE CORRECT FOR ANY MCSCF WAVEFUNCTION.

               ----- POPULATIONS IN EACH AO -----
                             MULLIKEN      LOWDIN
              1  N  1  S      2.00252     1.89876
              2  N  1  S      0.82222     0.57658
              3  N  1  S      0.66239     0.39995
              4  N  1  X      0.72041     0.65707
              5  N  1  Y      0.65911     0.57753
              6  N  1  Z      0.87333     0.81865
              7  N  1  X      0.36303     0.43490
              8  N  1  Y      0.26163     0.38459
              9  N  1  Z      0.52193     0.55847
             10  N  1 XX      0.00052     0.15633
             11  N  1 YY      0.00434     0.18619
             12  N  1 ZZ      0.00081     0.14233
             13  N  1 XY      0.00579     0.00440
             14  N  1 XZ      0.00585     0.01032
             15  N  1 YZ      0.00000     0.01149
             16  H  2  S      0.58034     0.44820
             17  H  2  S      0.04534     0.14692
             18  H  2  X      0.00976     0.02786
             19  H  2  Y      0.03181     0.05228
             20  H  2  Z      0.01377     0.03311
             21  H  3  S      0.59845     0.46569
             22  H  3  S      0.02743     0.14378
             23  H  3  X      0.01216     0.02642
             24  H  3  Y      0.03304     0.05827
             25  H  3  Z      0.01192     0.03339
             26  H  4  S      0.62385     0.48116
             27  H  4  S      0.04973     0.14500
             28  H  4  X      0.02991     0.05363
             29  H  4  Y      0.01108     0.02628
             30  H  4  Z      0.01752     0.04044

          ----- MULLIKEN ATOMIC OVERLAP POPULATIONS -----
          (OFF-DIAGONAL ELEMENTS NEED TO BE MULTIPLIED BY 2)

             1           2           3           4

    1    6.0188213
    2    0.2807147   0.4162708
    3    0.3154814  -0.0058963   0.3785814
    4    0.2888523  -0.0100654  -0.0051629   0.4584788

          TOTAL MULLIKEN AND LOWDIN ATOMIC POPULATIONS
       ATOM         MULL.POP.    CHARGE          LOW.POP.     CHARGE
    1 N             6.903870    0.096130         6.817555    0.182445
    2 H             0.681024    0.318976         0.708374    0.291626
    3 H             0.683004    0.316996         0.727553    0.272447
    4 H             0.732103    0.267897         0.746518    0.253482

          MULLIKEN SPHERICAL HARMONIC POPULATIONS
       ATOM           S       P       D      F      G      H      I    TOTAL
    1 N             3.49    3.40    0.02   0.00   0.00   0.00   0.00    6.90
    2 H             0.63    0.06    0.00   0.00   0.00   0.00   0.00    0.68
    3 H             0.63    0.06    0.00   0.00   0.00   0.00   0.00    0.68
    4 H             0.67    0.06    0.00   0.00   0.00   0.00   0.00    0.73

          ---------------------
          ELECTROSTATIC MOMENTS
          ---------------------

 POINT   1           X           Y           Z (BOHR)    CHARGE
                 0.000003    0.000002   -0.177185        1.00 (A.U.)
         DX          DY          DZ         /D/  (DEBYE)
     0.448312    0.345345    2.161601    2.234450
 ...... END OF PROPERTY EVALUATION ......
 CPU     0: STEP CPU TIME=     0.00 TOTAL CPU TIME=         10.7 (      0.2 MIN)
 TOTAL WALL CLOCK TIME=         10.7 SECONDS, CPU UTILIZATION IS    99.91%

     -------------------------------------------------
     GMC-PT/GMC-QDPT or general MCSCF input parameters
     -------------------------------------------------
 # of frozen core orbs. =         0 ->         0
 # of doubly occ. orbs. =         1
 # of active      orbs. =         7
 # of virtual     orbs. =        21
 # of active electrons  =         7
 # of states in CI      =         3
 Highest state in CI    =         3
 kstate =  1 1 1
 avecoe =  0.333 0.333 0.333
 State symmetry           = A           
 Assigned symmetry number = 1

 <<<Act. MO sym.: 1111111

 <<<Division of 1-ext.:  0
 <<<Division of 2-ext.:  0

     ------------------------
     Orbital canonicalization
     ------------------------

 MOs are canonicalized for core, virtual, and invariant-active orbital spaces.
 This is a part of the GMC-QDPT calculation.
 SCHWARZ INEQUALITY OVERHEAD:       465 INTEGRALS, T=        0.00
 DIRECT TRANSFORMATION SKIPS AO INTEGRAL STORAGE ON DISK.

 Averaged energy =     -55.736180391

 State #    1  Energy =     -55.874531519  S =  0.500
 State #    2  Energy =     -55.743622115  S =  0.500
 State #    3  Energy =     -55.590387540  S =  0.500

 Orbital energies for filled orbital space
  -15.985724
 Orbital energies for active orbital space
   -1.517862  -0.838829  -0.999494  -0.746685   0.331245
    0.232077   0.418284
 Orbital energies for external orbital space
    0.138801   0.198219   0.224379   0.535004   0.575417
    0.642121   0.816579   0.987851   1.060147   1.276794
    1.372872   1.484696   1.615717   1.876396   1.928542
    1.967813   2.073989   2.287113   2.624336   2.676220
    2.964291

 Zero values mean non-canonical orbitals.
 ... done with orbital canonicalization ...
 CPU     0: STEP CPU TIME=     0.59 TOTAL CPU TIME=         11.3 (      0.2 MIN)
 TOTAL WALL CLOCK TIME=         11.3 SECONDS, CPU UTILIZATION IS    99.82%

     --------------------------------------------
     PARTIAL TWO ELECTRON INTEGRAL TRANSFORMATION
     --------------------------------------------

 NUMBER OF CORE MOLECULAR ORBITALS     =    0
 NUMBER OF OCCUPIED MOLECULAR ORBITALS =    8
 TOTAL NUMBER OF MOLECULAR ORBITALS    =   29
 TOTAL NUMBER OF ATOMIC ORBITALS       =   30
 THRESHOLD FOR KEEPING TRANSFORMED 2E- INTEGRALS = 1.000E-09
 AO INTEGRALS WILL BE CALCULATED IN DIRECT MODE...
 DIRECT TRANSFORMATION SKIPS AO INTEGRAL STORAGE ON DISK.
 SCHWARZ INEQUALITY OVERHEAD:       465 INTEGRALS, T=        0.00

 PLAN A: REQUIREMENTS FOR FULLY IN-MEMORY TRANSFORMATION:
 # OF WORDS AVAILABLE =            100000000
 # OF WORDS NEEDED    =               221798

 PARALLEL ONLY WORKS WITH THE SEGMENTED ALGORITHM.
 ADJUSTING MEMORY TO USE SEGMENTED ALGORITHM.


 PLAN B: REQUIREMENTS FOR THE SEGMENTED TRANSFORMATION:
       MINIMUM=         124148 WORDS FOR 1 MOLECULAR ORBITAL PER PASS
       MAXIMUM=         221798 WORDS FOR ALL MOLECULAR ORBITALS IN 1 PASS
              (          13950 EXTRA WORDS INCLUDES 1 EXTRA ORBITAL/PASS)
 THIS RUN USES=         221798 WORDS,
 DISTRIBUTING   1 PASSES EACH CONTAINING     8 ORBITALS OVER   1 PROCESSORS.

 CHOOSING SEGMENTED PARTIAL TRANSFORMATION...
 DIRECT TRANSFORMATION SKIPS AO INTEGRAL STORAGE ON DISK.
 PASS #   1 TOOK        0.04 SECONDS.
 TOTAL NUMBER OF TRANSFORMED 2E- INTEGRALS KEPT =        29226
 ... END OF INTEGRAL TRANSFORMATION ...
 CPU     0: STEP CPU TIME=     0.04 TOTAL CPU TIME=         11.3 (      0.2 MIN)
 TOTAL WALL CLOCK TIME=         11.3 SECONDS, CPU UTILIZATION IS    99.82%

     --------     ------------------------------------------
     GMC-QDPT     Program written by H.Nakano (Kyushu Univ.)
     --------     ------------------------------------------

 *** Reference space

 Reference type: ORMAS (= Occupation restricted multiple active space)
 # of orbitals          =  7
 # of minimum electrons =  7
 # of maximum electrons =  7
 State symmetry    =    1 (input)
 2*Sz              =    1 (input)
 Spin multiplicity =    2 (input)
 Dimension of reference space =      1225  (from      3432 walks)

 Dimension of reference space =      1225  (from      1225 walks)

 <<<Ionized spaces for Ref-CI:
      0:         1225 /   -1-0:         1960 /  0-1-0:         2891

 ***                    ***
 *** Reference space CI ***
 ***                    ***

 Converged after   27 iterations

 Reference wavefunctions:

 State #    1  Energy =     -55.874531519  S =  0.500

      Det      Coef    Occupancy (Ignoring core)
      ---      ----    --------- --------- -----
        1   -0.976645  11110001110000
      393   -0.071629  10110101010010
      717   -0.060312  11010011100001

 State #    2  Energy =     -55.743622115  S =  0.500

      Det      Coef    Occupancy (Ignoring core)
      ---      ----    --------- --------- -----
        1   -0.051538  11110001110000
       71    0.982046  11110001011000
      822   -0.060307  11010011001001

 State #    3  Energy =     -55.590387540  S =  0.500

      Det      Coef    Occupancy (Ignoring core)
      ---      ----    --------- --------- -----
       36   -0.978815  11110001101000
      463   -0.072258  10110101001010

 Davidson method: CPU/Wall time =           0.41 /           0.40 sec.

 Oscillator strength (invalid if E(1)/=E(GS)):
 -----------------------------------------
   State                        f
 -----------------------------------------
     2     F(REF-CI)=        0.0007206494
     3     F(REF-CI)=        0.0025991852
 -----------------------------------------

 Dipole moment matrix elements, x, y, z, in A.U.

 Dimension of ionized spaces for PT:
 (N-2) space:         1715 /  (N-1) space:         2842 /  N space:         2891
 (N+1) space:         2842 /  (N+2) space:         1715

 <<<Ionized spaces for internal:
         0:         1225 /      -1-0:         1960 /     0-1-0:         2891
  -1-0-1-0:         2842 / 0-1-0-1-0:         3381

 Diagonal elements of averaged one-particle density matrix:
       2       3       4       5       6       7       8
  0.9936  0.9859  0.9885  0.9925  0.0124  0.0164  0.0108
  0.9889  0.6571  0.6618  0.6631  0.0098  0.0116  0.0077

 Orbital energies:
 -------- Doubly-occupied orbitals (highest several orbs.) -------
             1
 -1.598572D+01
 -------- Active orbitals ----------------------------------------
             2            3            4            5            6
 -1.517862D+00-8.388288D-01-9.994943D-01-7.466845D-01 3.312454D-01
             7            8
  2.320766D-01 4.182839D-01
 -------- External orbitals (lowest several orbs.) ---------------
             9           10           11           12           13
  1.388008D-01 1.982193D-01 2.243794D-01 5.350041D-01 5.754167D-01
            14           15           16           17           18
  6.421207D-01 8.165794D-01 9.878505D-01 1.060147D+00 1.276794D+00

 *** Quasi-degeneracy checking

 === Det (|Ci| > 1.0D-01 and dE < 5.0D-03)

 # of small denominators (single excitations)
 State       dEmin  dE < 5.0D-03  dE < 5.0D-04  dE < 5.0D-05  dE < 5.0D-06
 ----- ----------- ------------- ------------- ------------- -------------
     1    5.00D-03             0             0             0             0
     2    5.00D-03             0             0             0             0
     3    5.00D-03             0             0             0             0

 # of small denominators (double excitations)
 State       dEmin  dE < 5.0D-03  dE < 5.0D-04  dE < 5.0D-05  dE < 5.0D-06
 ----- ----------- ------------- ------------- ------------- -------------
     1    5.00D-03             0             0             0             0
     2    5.00D-03             0             0             0             0
     3    5.00D-03             0             0             0             0

 *** Zeroth-Order Setup (Granovsky's zeroth-order vectors)
 Zeroth-order effective Hamiltonian
  (= Sum_i e(i)*<I|a+(i)a(i)|J> ):
                   1            2            3
     1 -7.354849D+00
     2 -8.179703D-03-7.285472D+00
     3 -1.930975D-03 2.533363D-03-7.113750D+00

 Zeroth-order vectors:
 State #    1
       MC st            1           2           3
       Coeff    9.933D-01   1.153D-01   6.717D-03
 State #    2
       MC st            2           1           3
       Coeff   -9.932D-01   1.152D-01   1.603D-02
 State #    3
       MC st            3           2           1
       Coeff    9.998D-01   1.515D-02  -8.520D-03

 *** GMC-QDPT computation

 (Integral reading:  CPU/Wall time =           0.00 /           0.00 sec.)

 One-external:
   0 -ionized terms: CPU/Wall time =           0.03 /           0.03 sec.
 (-1)-ionized terms: CPU/Wall time =           0.09 /           0.09 sec.
 (+1)-ionized terms: CPU/Wall time =           0.02 /           0.03 sec.
 (+1)-ionized terms: CPU/Wall time =           0.00 /           0.00 sec.
 (+2)-ionized terms: CPU/Wall time =           0.01 /           0.00 sec.

 Internal:
 # of macro loops for internal contribution =         1 (input)
 Loop:    1
 Dimension of internal CISD space     =         0  (after screening)
 Space construction: CPU/Wall time =           0.01 /           0.02 sec.
 Internal terms:     CPU/Wall time =           0.00 /           0.00 sec.

 Two-external:
   0 -ionized terms: CPU/Wall time =           0.06 /           0.06 sec.
 (-1)-ionized terms: CPU/Wall time =           1.00 /           1.00 sec.
 (-2)-ionized terms: CPU/Wall time =           0.17 /           0.16 sec.

 Total time:         CPU/Wall time =           1.39 /           1.39 sec.

 ***                  ***
 *** GMC-QDPT Results ***
 ***                  ***

 Diagonal elements of effective Hamiltonian:
 Heff(  1) =   -55.97124616
 Heff(  2) =   -55.85333856
 Heff(  3) =   -55.70172622

 Off-diagonal elements of effective Hamiltonian:
                   1            2
     2 -1.329731D-02
     3  1.695942D-03 2.398642D-03

 ******** GMC-QDPT energies ********
 ----------------------------------------------------------------------------
   State                        1st order                           2nd order
 ----------------------------------------------------------------------------
     1     E(REF-CI)=      -55.8745315185   E(GMC-QDPT2)=      -55.9727412418
     2     E(REF-CI)=      -55.7436221153   E(GMC-QDPT2)=      -55.8518896444
     3     E(REF-CI)=      -55.5903875404   E(GMC-QDPT2)=      -55.7016800588
 ----------------------------------------------------------------------------

 Excitation energies (invalid if E(1)/=E(GS)):
 ----------------------------------------------------------------------------
   State                        1st order                           2nd order
 ----------------------------------------------------------------------------

     TZ Sorted GMC-PT ENERGIES:
         1      -55.9727412418
         2      -55.8518896444
         3      -55.7016800588
     2     E(REF-CI)=        3.5622281 eV   E(GMC-QDPT2)=        3.2885412 eV
     3     E(REF-CI)=        7.7319554 eV   E(GMC-QDPT2)=        7.3759543 eV
 ----------------------------------------------------------------------------

 Main characters of perturbed GMC-QDPT states:

 State #    1  Energy =     -55.972741242  S =  0.500

      Det      Coef    Occupancy (Ignoring core)
      ---      ----    --------- --------- -----
        1   -0.976862  11110001110000
      393   -0.071563  10110101010010
      717   -0.060301  11010011100001

 State #    2  Energy =     -55.851889644  S =  0.500

      Det      Coef    Occupancy (Ignoring core)
      ---      ----    --------- --------- -----
       71    0.982258  11110001011000
      822   -0.060316  11010011001001

 State #    3  Energy =     -55.701680059  S =  0.500

      Det      Coef    Occupancy (Ignoring core)
      ---      ----    --------- --------- -----
       36   -0.978821  11110001101000
      463   -0.072265  10110101001010

 <<<Max |V/de| = 2.411D-02  Thresh = 1.000D+00

 Oscillator strength (invalid if E(1)/=E(GS)):
 ----------------------------------------------------------------------------
   State                        1st order                           2nd order
 ----------------------------------------------------------------------------
     2     F(REF-CI)=        0.0007206494     F(GMC-PT2)=        0.0006939972
     3     F(REF-CI)=        0.0025991852     F(GMC-PT2)=        0.0025234354
 ----------------------------------------------------------------------------

 Dipole moment matrix elements, x, y, z, in A.U.
States    1    1        0.1993637854        0.1696885061        0.7344927837
States    1    2       -0.0407398377        0.0008487914       -0.0833869337
States    1    3        0.0302623757        0.0952934755       -0.0629884430
States    2    1       -0.0407398377        0.0008487914       -0.0833869337
States    2    2        0.1462629091       -0.0329363690        0.2738052108
States    2    3       -0.1025016124        0.1449506894       -0.0014389237
States    3    1        0.0302623757        0.0952934755       -0.0629884430
States    3    2       -0.1025016124        0.1449506894       -0.0014389237
States    3    3        0.3817462365        0.3980563732        0.2525499773

 Oscillator strength (valid only when positive): 
 ----------------------------------------------------------------------------
  States                        1st order                           2nd order
 ----------------------------------------------------------------------------
  1  1     F(REF-CI)=        0.0000000000     F(GMC-PT2)=        0.0000000000
  1  2     F(REF-CI)=       -0.0007206494     F(GMC-PT2)=       -0.0006939972
  1  3     F(REF-CI)=       -0.0025991852     F(GMC-PT2)=       -0.0025234354
  2  1     F(REF-CI)=        0.0007206494     F(GMC-PT2)=        0.0006939972
  2  2     F(REF-CI)=        0.0000000000     F(GMC-PT2)=        0.0000000000
  2  3     F(REF-CI)=       -0.0032351282     F(GMC-PT2)=       -0.0031563393
  3  1     F(REF-CI)=        0.0025991852     F(GMC-PT2)=        0.0025234354
  3  2     F(REF-CI)=        0.0032351282     F(GMC-PT2)=        0.0031563393
  3  3     F(REF-CI)=        0.0000000000     F(GMC-PT2)=        0.0000000000
 CPU     0: STEP CPU TIME=     1.87 TOTAL CPU TIME=         13.2 (      0.2 MIN)
 TOTAL WALL CLOCK TIME=         13.2 SECONDS, CPU UTILIZATION IS    99.92%

     !!! DIABATIZATION FOR REF CI STATES !!!

 *******************************************************
          $DMO GROUP FOUND IN THE INPUT.
        DIABATIZATION OF ADIABATIC STATES BEGINS.
     PROGRAMMED BY TAO ZENG (CARLETON UNIVERSITY).
               Email: toby.zeng@carleton.ca
     See T. Zeng, J. Chem. Phys. 2017, 146, 144103
 *******************************************************

 *************************************************************************
     STEP 1: TRANSFORMATION OF ADIABATIC STATES TO THE DMO REPRESENTATION
         See Atchity and Ruedenberg, J. Chem. Phys. 1999, 111, 2910
 *************************************************************************

Read in Diabatic Molecualr Orbitals:

                      1          2          3          4          5

    1  N  1  S    0.008609   0.000000   0.000000  -0.013219   0.279491
    2  N  1  S    0.442914  -0.000000   0.000000  -0.184329   0.867803
    3  N  1  S    0.276913   0.000000  -0.000000  -0.288315   0.144236
    4  N  1  X   -0.000000   0.493155  -0.024636  -0.000000  -0.000000
    5  N  1  Y    0.000000   0.024636   0.493155  -0.000000   0.000000
    6  N  1  Z    0.090197   0.000000   0.000000   0.593421   0.705309
    7  N  1  X   -0.000000   0.210628  -0.010522   0.000000   0.000000
    8  N  1  Y    0.000000   0.010522   0.210628  -0.000000  -0.000000
    9  N  1  Z   -0.004381   0.000000   0.000000   0.381592  -0.106092
   10  N  1 XX   -0.000457   0.010719  -0.000535  -0.012387   0.006153
   11  N  1 YY   -0.000457  -0.010719   0.000535  -0.012387   0.006153
   12  N  1 ZZ    0.000914  -0.000000   0.000000   0.024773  -0.012306
   13  N  1 XY    0.000000  -0.000618  -0.012377  -0.000000   0.000000
   14  N  1 XZ   -0.000000   0.026529  -0.001325  -0.000000   0.000000
   15  N  1 YZ    0.000000   0.001325   0.026529  -0.000000   0.000000
   16  H  2  S    0.194462  -0.176074   0.343485   0.112865  -0.523343
   17  H  2  S    0.003574  -0.023812   0.046452   0.024014  -0.054445
   18  H  2  X    0.018760   0.009101   0.022834   0.009336  -0.039151
   19  H  2  Y   -0.032493   0.022287  -0.020044  -0.016171   0.067811
   20  H  2  Z   -0.009251   0.008464  -0.016511   0.018769  -0.010566
   21  H  3  S    0.194462  -0.209430  -0.324227   0.112865  -0.523343
   22  H  3  S    0.003574  -0.028322  -0.043847   0.024014  -0.054445
   23  H  3  X    0.018760   0.006781  -0.023627   0.009336  -0.039151
   24  H  3  Y    0.032493  -0.024174  -0.017723   0.016171  -0.067811
   25  H  3  Z   -0.009251   0.010067   0.015585   0.018769  -0.010566
   26  H  4  S    0.194462   0.385503  -0.019258   0.112865  -0.523343
   27  H  4  S    0.003574   0.052134  -0.002604   0.024014  -0.054445
   28  H  4  X   -0.037519  -0.032295   0.001613  -0.018672   0.078302
   29  H  4  Y    0.000000   0.001067   0.021353  -0.000000   0.000000
   30  H  4  Z   -0.009251  -0.018530   0.000926   0.018769  -0.010566

                      6          7

    1  N  1  S    0.000000  -0.000000
    2  N  1  S    0.000000  -0.000000
    3  N  1  S   -0.000000   0.000000
    4  N  1  X   -0.930415  -0.002083
    5  N  1  Y   -0.002083   0.930415
    6  N  1  Z   -0.000000   0.000000
    7  N  1  X   -0.046866  -0.000105
    8  N  1  Y   -0.000105   0.046866
    9  N  1  Z   -0.000000   0.000000
   10  N  1 XX    0.001538   0.000003
   11  N  1 YY   -0.001538  -0.000003
   12  N  1 ZZ   -0.000000   0.000000
   13  N  1 XY   -0.000004   0.001776
   14  N  1 XZ    0.039985   0.000090
   15  N  1 YZ    0.000090  -0.039985
   16  H  2  S   -0.362630  -0.631354
   17  H  2  S   -0.065964  -0.114846
   18  H  2  X    0.002763  -0.037520
   19  H  2  Y    0.037435   0.040736
   20  H  2  Z    0.001882   0.003276
   21  H  3  S   -0.365454   0.629724
   22  H  3  S   -0.066477   0.114549
   23  H  3  X    0.002595   0.037532
   24  H  3  Y   -0.037617   0.040567
   25  H  3  Z    0.001896  -0.003268
   26  H  4  S    0.728084   0.001630
   27  H  4  S    0.132441   0.000297
   28  H  4  X   -0.062317  -0.000140
   29  H  4  Y    0.000055  -0.024345
   30  H  4  Z   -0.003778  -0.000008

NUMBER OF SUB ACTIVE SPACES:   1
ROTATE ACTIVE MOS TO DMOS IN EACH SUB-SPACE

SPACE  1:

OVERLAP BETWEEN ORTHONORMAL AND PRE-ORTHONORMAL REF. DMOS

             1           2           3           4           5

    1    0.9881939   0.0199216   0.0062842  -0.0041996  -0.0004663
    2    0.0199216   0.9388370   0.0458726   0.0275809  -0.0488586
    3    0.0062842   0.0458726   1.0184413   0.0155061  -0.0384070
    4   -0.0041996   0.0275809   0.0155061   0.9968488  -0.0054424
    5   -0.0004663  -0.0488586  -0.0384070  -0.0054424   1.0776928
    6   -0.0021516  -0.0431410   0.0437497   0.0296408   0.0048588
    7    0.0029161  -0.0353693  -0.0276721  -0.0266504   0.0380860

             6           7

    1   -0.0021516   0.0029161
    2   -0.0431410  -0.0353693
    3    0.0437497  -0.0276721
    4    0.0296408  -0.0266504
    5    0.0048588   0.0380860
    6    1.0437375   0.0082135
    7    0.0082135   1.0109262
REFERENCE DMOS AFTER ORTHONORMALIZATION:

                      1          2          3          4          5

    1  N  1  S    0.008489   0.012915   0.009151  -0.012537   0.260532
    2  N  1  S    0.447035   0.035370   0.027826  -0.181036   0.808324
    3  N  1  S    0.278891   0.009074   0.006585  -0.288272   0.133571
    4  N  1  X   -0.011675   0.487554  -0.007310   0.013200   0.025082
    5  N  1  Y   -0.006689   0.034265   0.508694   0.016964  -0.013204
    6  N  1  Z    0.093759   0.012737   0.015211   0.599073   0.659030
    7  N  1  X   -0.004524   0.224633  -0.018307  -0.004673   0.009413
    8  N  1  Y   -0.001564   0.002929   0.208738  -0.001642   0.005767
    9  N  1  Z   -0.002540  -0.015924  -0.007976   0.383491  -0.097928
   10  N  1 XX   -0.000751   0.012268  -0.000752  -0.012797   0.006170
   11  N  1 YY   -0.000300  -0.010962   0.001451  -0.012091   0.005241
   12  N  1 ZZ    0.001051  -0.001306  -0.000700   0.024888  -0.011410
   13  N  1 XY    0.000075  -0.000021  -0.012156   0.000211  -0.000486
   14  N  1 XZ   -0.000509   0.030440  -0.004294  -0.001939   0.001016
   15  N  1 YZ   -0.000028  -0.001163   0.025175  -0.001370   0.002220
   16  H  2  S    0.201454  -0.274786   0.328744   0.108880  -0.462768
   17  H  2  S    0.004356  -0.037965   0.045028   0.023212  -0.046302
   18  H  2  X    0.018881   0.005117   0.019619   0.007809  -0.034124
   19  H  2  Y   -0.033482   0.032264  -0.018925  -0.016733   0.062102
   20  H  2  Z   -0.009370   0.009239  -0.017229   0.018782  -0.010060
   21  H  3  S    0.201214  -0.236999  -0.298690   0.149827  -0.526919
   22  H  3  S    0.004106  -0.030889  -0.038393   0.030241  -0.056893
   23  H  3  X    0.018911   0.007323  -0.024348   0.010336  -0.038174
   24  H  3  Y    0.033432  -0.029793  -0.016321   0.019302  -0.066055
   25  H  3  Z   -0.009558   0.009228   0.014246   0.018185  -0.008736
   26  H  4  S    0.190524   0.417924  -0.088120   0.080611  -0.473526
   27  H  4  S    0.002836   0.059082  -0.012840   0.018636  -0.048903
   28  H  4  X   -0.037520  -0.032780   0.008782  -0.015998   0.071789
   29  H  4  Y   -0.000051  -0.000675   0.020454  -0.000904   0.001531
   30  H  4  Z   -0.008882  -0.020965   0.001438   0.019449  -0.010596

                      6          7

    1  N  1  S   -0.000615  -0.009463
    2  N  1  S    0.002867  -0.034539
    3  N  1  S    0.008341  -0.013006
    4  N  1  X   -0.871651   0.021316
    5  N  1  Y   -0.029708   0.936688
    6  N  1  Z   -0.019933  -0.008282
    7  N  1  X   -0.034826   0.007072
    8  N  1  Y   -0.009122   0.051994
    9  N  1  Z   -0.010867   0.013119
   10  N  1 XX    0.002347  -0.000175
   11  N  1 YY   -0.001662  -0.000849
   12  N  1 ZZ   -0.000684   0.001024
   13  N  1 XY    0.000490   0.001443
   14  N  1 XZ    0.039792   0.000625
   15  N  1 YZ   -0.000682  -0.039019
   16  H  2  S   -0.368353  -0.602429
   17  H  2  S   -0.066219  -0.110818
   18  H  2  X    0.002288  -0.034980
   19  H  2  Y    0.037811   0.037915
   20  H  2  Z    0.002370   0.003974
   21  H  3  S   -0.353780   0.632545
   22  H  3  S   -0.064847   0.114635
   23  H  3  X    0.003431   0.038344
   24  H  3  Y   -0.037089   0.041842
   25  H  3  Z    0.001119  -0.001693
   26  H  4  S    0.718634   0.027399
   27  H  4  S    0.129550   0.003282
   28  H  4  X   -0.061358  -0.003564
   29  H  4  Y   -0.000629  -0.023622
   30  H  4  Z   -0.005070   0.000276

 -------------------------------------------
       MAXIMIZING MORMO OVERLAP TERM        
 -------------------------------------------
   SWEEP    VALUE       PROGRESS
     0     5.66179
     1     6.97141     1.30961531
     2     6.97597     0.00456945
     3     6.97597     0.00000013
     4     6.97597     0.00000000
     5     6.97597     0.00000000
 THE ROTATION IS DONE
FLIPPING SIGN FOR ORBITAL   7
ACTIVE ORBITALS AFTER MORMO:

                      1          2          3          4          5

    1  N  1  S    0.007515   0.018595   0.010345  -0.012304   0.231105
    2  N  1  S    0.435001   0.042523   0.018543  -0.185912   0.771098
    3  N  1  S    0.310070  -0.030470   0.004166  -0.280092   0.175875
    4  N  1  X   -0.003792   0.460554   0.002407   0.024434   0.012571
    5  N  1  Y   -0.007784   0.044718   0.501642   0.017022  -0.018154
    6  N  1  Z    0.086957   0.026000   0.020970   0.599114   0.645724
    7  N  1  X   -0.015463   0.267596  -0.050120  -0.033834   0.033288
    8  N  1  Y   -0.000631  -0.030333   0.192261  -0.020087   0.019407
    9  N  1  Z    0.013789  -0.044660  -0.022871   0.383532  -0.080267
   10  N  1 XX   -0.002921   0.018515  -0.001550  -0.012628   0.029267
   11  N  1 YY    0.002305  -0.018108   0.002039  -0.010631  -0.028599
   12  N  1 ZZ    0.000616  -0.000407  -0.000489   0.023259  -0.000668
   13  N  1 XY    0.002893  -0.000498  -0.006910  -0.001949  -0.028180
   14  N  1 XZ    0.000626   0.024440  -0.004740   0.000494  -0.028823
   15  N  1 YZ    0.002313  -0.001872   0.019795  -0.002361  -0.018068
   16  H  2  S    0.188907  -0.207316   0.330802   0.105984  -0.457099
   17  H  2  S    0.003908  -0.072300   0.061686   0.028594  -0.054721
   18  H  2  X    0.004684   0.016711   0.007303   0.003798  -0.024469
   19  H  2  Y   -0.032960   0.021244  -0.029901  -0.015771   0.056253
   20  H  2  Z   -0.008276   0.003322  -0.018851   0.018522  -0.016511
   21  H  3  S    0.186178  -0.222640  -0.318018   0.127132  -0.518095
   22  H  3  S    0.000190  -0.033163  -0.032071   0.030856  -0.058436
   23  H  3  X    0.014204   0.010232  -0.020729   0.005547  -0.026119
   24  H  3  Y    0.033654  -0.025802  -0.028846   0.014465  -0.061658
   25  H  3  Z   -0.004506   0.005963   0.011199   0.020739  -0.011168
   26  H  4  S    0.188594   0.394842  -0.050458   0.094374  -0.488933
   27  H  4  S    0.003113   0.093108  -0.034898   0.021308  -0.058362
   28  H  4  X   -0.032359  -0.026003   0.001557  -0.018646   0.065105
   29  H  4  Y   -0.008135  -0.008591   0.020547  -0.001571  -0.002761
   30  H  4  Z   -0.012625  -0.025634  -0.001357   0.017864  -0.009604

                      6          7

    1  N  1  S    0.031791  -0.047172
    2  N  1  S    0.073968  -0.101302
    3  N  1  S   -0.087683   0.075770
    4  N  1  X   -0.870466   0.007814
    5  N  1  Y   -0.014111   0.926414
    6  N  1  Z   -0.048993   0.003965
    7  N  1  X   -0.033295   0.033367
    8  N  1  Y   -0.038286   0.082271
    9  N  1  Z    0.008384   0.015292
   10  N  1 XX    0.030052   0.016374
   11  N  1 YY   -0.036686  -0.007655
   12  N  1 ZZ    0.006634  -0.008719
   13  N  1 XY    0.016982  -0.026726
   14  N  1 XZ    0.024844  -0.007870
   15  N  1 YZ    0.012828  -0.052630
   16  H  2  S   -0.315056  -0.605182
   17  H  2  S   -0.096571  -0.143260
   18  H  2  X    0.022843  -0.025706
   19  H  2  Y    0.031271   0.047306
   20  H  2  Z    0.017333  -0.008540
   21  H  3  S   -0.340269   0.631049
   22  H  3  S   -0.065475   0.117975
   23  H  3  X   -0.002207   0.027986
   24  H  3  Y   -0.029731   0.055611
   25  H  3  Z    0.001003   0.014373
   26  H  4  S    0.696163  -0.009584
   27  H  4  S    0.173239   0.022601
   28  H  4  X   -0.048528   0.004270
   29  H  4  Y   -0.002701  -0.041243
   30  H  4  Z   -0.011096  -0.012556

Actually Used Diabatic Molecualr Orbitals:

                      1          2          3          4          5

    1  N  1  S    0.007515   0.018595   0.010345  -0.012304   0.231105
    2  N  1  S    0.435001   0.042523   0.018543  -0.185912   0.771098
    3  N  1  S    0.310070  -0.030470   0.004166  -0.280092   0.175875
    4  N  1  X   -0.003792   0.460554   0.002407   0.024434   0.012571
    5  N  1  Y   -0.007784   0.044718   0.501642   0.017022  -0.018154
    6  N  1  Z    0.086957   0.026000   0.020970   0.599114   0.645724
    7  N  1  X   -0.015463   0.267596  -0.050120  -0.033834   0.033288
    8  N  1  Y   -0.000631  -0.030333   0.192261  -0.020087   0.019407
    9  N  1  Z    0.013789  -0.044660  -0.022871   0.383532  -0.080267
   10  N  1 XX   -0.002921   0.018515  -0.001550  -0.012628   0.029267
   11  N  1 YY    0.002305  -0.018108   0.002039  -0.010631  -0.028599
   12  N  1 ZZ    0.000616  -0.000407  -0.000489   0.023259  -0.000668
   13  N  1 XY    0.002893  -0.000498  -0.006910  -0.001949  -0.028180
   14  N  1 XZ    0.000626   0.024440  -0.004740   0.000494  -0.028823
   15  N  1 YZ    0.002313  -0.001872   0.019795  -0.002361  -0.018068
   16  H  2  S    0.188907  -0.207316   0.330802   0.105984  -0.457099
   17  H  2  S    0.003908  -0.072300   0.061686   0.028594  -0.054721
   18  H  2  X    0.004684   0.016711   0.007303   0.003798  -0.024469
   19  H  2  Y   -0.032960   0.021244  -0.029901  -0.015771   0.056253
   20  H  2  Z   -0.008276   0.003322  -0.018851   0.018522  -0.016511
   21  H  3  S    0.186178  -0.222640  -0.318018   0.127132  -0.518095
[...]
        1    0.027077   -0.027077  222+000
      248   -0.026537    0.026537  2+02200
      716    0.024479    0.024479  22+0002
      113    0.023639   -0.023639  +-220+0
      771   -0.023439   -0.023439  +22+00-
      356    0.023082    0.023082  22+0020
       77    0.022561   -0.022561  2+-20+0
       76    0.022504    0.022504  2+2-0+0
       52   -0.022230    0.022230  220200+
      284   -0.021907    0.021907  +-+2200
      498    0.021647   -0.021647  +-+2020
        7    0.021593    0.021593  22-+0+0
      142    0.021317    0.021317  22+0200
      499    0.020743   -0.020743  02+2020
        8   -0.020707    0.020707  2-2+0+0
       51   -0.020699    0.020699  22+-00+
      464   -0.020259   -0.020259  -++2020

 ---------------------------------------
    -DIABATIC STATES IN PROTOTYPES-     
 ---------------------------------------

     STATE:    1
 Group Ref#    Coefficients
     1    1    0.975376
     2    2    0.001867
     3    3   -0.001637

WEIGHT OF LISTED PROTOTYPES:   95.14%

     STATE:    2
 Group Ref#    Coefficients
     1    1    0.001867
     2    2    0.976046
     3    3   -0.000444

WEIGHT OF LISTED PROTOTYPES:   95.27%

     STATE:    3
 Group Ref#    Coefficients
     1    1   -0.001637
     2    2   -0.000444
     3    3    0.972582

WEIGHT OF LISTED PROTOTYPES:   94.59%

 --------------------------------------------------
 IN DIRECT MAX. DIABATIZATION FOR GMC-QDPT

 DIRECT MAXIMIZATION (DM) WITHOUT TRUNCATING ADIABATS
 EXPANSIONS INTO THE REFERENCE CONFIGURATION SPACE
 --------------------------------------------------

 -------------------------------------------
 - DM DIABT PT HAMILTONIAN MATRIX ELEMENTS -
 -------------------------------------------
                                            
 --- DIABATIC ENERGIES (DIAGONAL ELEMENT) ---       HARTREE            EV
 STATE #  1'S GMC-PT-LEVEL DIABATIC ENERGY=     -55.965525511       0.000000000
 STATE #  2'S GMC-PT-LEVEL DIABATIC ENERGY=     -55.833718233       3.586658709
 STATE #  3'S GMC-PT-LEVEL DIABATIC ENERGY=     -55.727067201       6.488781108

 --- DIABATIC COUPLINGS (OFF DIAGONAL ELEMENTS)---  HATREE            EV
 STATE #  1 &  2'S GMC-PT-LEVEL COUPLING  =      -0.030473864      -0.829236083
 STATE #  1 &  3'S GMC-PT-LEVEL COUPLING  =      -0.022474569      -0.611564173
 STATE #  2 &  3'S GMC-PT-LEVEL COUPLING  =       0.052328531       1.423931844

 ---------------------------------------
     - ROTATION TO DIABATIC STATES -    
 ---------------------------------------
 ROWS=ADIABATIC, COLUMNS=DIABATIC STATES

             1           2           3

    1    0.9793007   0.1967131   0.0476878
    2   -0.1609195   0.8995539  -0.4060883
    3   -0.1227806   0.3900086   0.9125887

 ---------------------------------------
          - DIABATIC STATES -           
 ---------------------------------------

 State #    1  Energy =     -55.965525511

      Det      Coef        Coefp    Occupancy (Ignoring core)
      ---      ----        ----    --------- --------- -----
        1    0.956756   -0.956756  222+000
        8   -0.110240    0.110240  2-2+0+0
      386    0.079880   -0.079880  2+2+0-0
      393   -0.074955   -0.074955  202+020
        4   -0.074505    0.074505  2-2++00
      176    0.072028   -0.072028  2+2+-00
      717   -0.065680   -0.065680  220+002
        7    0.055561    0.055561  22-+0+0
      351   -0.051262   -0.051262  22++0-0
        6    0.048659   -0.048659  22200+0
        3   -0.046287   -0.046287  22-++00
      141    0.045485    0.045485  22++-00
      708    0.041041   -0.041041  2-++0+-
      402    0.038701   -0.038701  2+-+0-+
       18   -0.037835    0.037835  2-2+00+
      215   -0.036421   -0.036421  022+200
      736    0.036174   -0.036174  2+2+00-
      218    0.033995   -0.033995  +-2+-+0
      390    0.033637   -0.033637  -+2++-0
      705   -0.033503   -0.033503  -2+++0-
      227   -0.033485   -0.033485  +2-+-0+
       16   -0.030656    0.030656  222000+
       76    0.030361    0.030361  2+2-0+0
      212    0.029174    0.029174  +220200
      113   -0.028173    0.028173  +-220+0
       51   -0.026406    0.026406  22+-00+
      143   -0.026092   -0.026092  220+200
      424   -0.025180   -0.025180  +-2++-0
      387   -0.024041    0.024041  2+20+-0
      184   -0.023819   -0.023819  -+2+-+0
      122    0.023464    0.023464  +2-200+
     1051   -0.022499   -0.022499  2+++0--
      702    0.022319    0.022319  22+0+0-
      773    0.022227   -0.022227  +2-++0-
       17    0.021763    0.021763  22-+00+
      159    0.021761   -0.021761  -2++-0+
        2    0.021210   -0.021210  2220+00

 State #    2  Energy =     -55.833718233

      Det      Coef        Coefp    Occupancy (Ignoring core)
      ---      ----        ----    --------- --------- -----
       71   -0.959406    0.959406  2+22000
       74    0.102653   -0.102653  2022+00
       76    0.078703    0.078703  2+2-0+0
      386   -0.066081    0.066081  2+2+0-0
      822    0.063968   -0.063968  2+02002
       77    0.058368   -0.058368  2+-20+0
      246    0.057138    0.057138  2++2-00
       78    0.056828   -0.056828  20220+0
      456   -0.052522   -0.052522  2++20-0
      106    0.048113    0.048113  +222000
       36    0.045767    0.045767  22+2000
       73   -0.045745    0.045745  2+-2+00
      813    0.044170   -0.044170  20+20+-
      736    0.037605   -0.037605  2+2+00-
      323   -0.036953    0.036953  +022-+0
       88    0.036402   -0.036402  202200+
      320    0.035854    0.035854  0+22200
       86   -0.035507   -0.035507  2+2-00+
      113    0.034945   -0.034945  +-220+0
      810   -0.033937   -0.033937  -++2+0-
      111    0.031900   -0.031900  +22-0+0
      332   -0.031792    0.031792  ++-2-0+
      180   -0.030580    0.030580  -+2+200
      317    0.030229   -0.030229  ++2-200
       99   -0.029697    0.029697  20-20++
       38   -0.029612    0.029612  2202+00
      183   -0.029351    0.029351  202+-+0
      177    0.028998   -0.028998  2+20200
       81    0.028260    0.028260  202-++0
      248    0.026327   -0.026327  2+02200
      526   -0.023606   -0.023606  ++220-0
      529    0.023520    0.023520  +022+-0
        6    0.023239   -0.023239  22200+0
      807   -0.023222    0.023222  2++-+0-
      192   -0.022633    0.022633  2+-+-0+
       51    0.021385   -0.021385  22+-00+
      878    0.021286    0.021286  ++-2+0-
      393   -0.021082   -0.021082  202+020
      534    0.021044    0.021044  0+22020
      751    0.020656   -0.020656  2+20002
      264    0.020654   -0.020654  -++2-0+
      391    0.020447   -0.020447  2+20020
      252   -0.020393   -0.020393  2+02-+0

 State #    3  Energy =     -55.727067201

      Det      Coef        Coefp    Occupancy (Ignoring core)
      ---      ----        ----    --------- --------- -----
       36   -0.960270   -0.960270  22+2000
      456   -0.082449   -0.082449  2++20-0
      246   -0.079824   -0.079824  2++2-00
      463    0.078111   -0.078111  20+2020
       43    0.065333    0.065333  2-+20+0
       39    0.050668    0.050668  2-+2+00
       42   -0.048969    0.048969  22020+0
      351   -0.048830   -0.048830  22++0-0
       38    0.048460   -0.048460  2202+00
       71   -0.046464    0.046464  2+22000
      472   -0.045347   -0.045347  2+020-+
       53    0.042117    0.042117  2-+200+
      121   -0.041823    0.041823  +22-00+
      806   -0.040083   -0.040083  2++200-
       52    0.039759   -0.039759  220200+
       51   -0.039375    0.039375  22+-00+
      112   -0.037652   -0.037652  +2-20+0
      285    0.037006   -0.037006  02+2200
      701    0.036183    0.036183  22++00-
      460   -0.035722   -0.035722  -++2+-0
       41    0.034406   -0.034406  22+-0+0
      288   -0.033769   -0.033769  +-+2-+0
      297    0.033347   -0.033347  +202-0+
      282    0.030565    0.030565  +2+-200
      145   -0.030194   -0.030194  -2++200
       64    0.029889   -0.029889  2-020++
       73    0.029156   -0.029156  2+-2+00
      142    0.029113    0.029113  22+0200
      457   -0.027978    0.027978  2++-+-0
      148   -0.027191   -0.027191  2-++-+0
       16   -0.026851    0.026851  222000+
      254    0.025688   -0.025688  -++2-+0
      494    0.023970   -0.023970  +-+2+-0
      157    0.023764   -0.023764  220+-0+
      716    0.022780    0.022780  22+0002
      106    0.022760    0.022760  +222000
      249    0.022560   -0.022560  20+2200
      771    0.022516    0.022516  +22+00-
       46    0.021578   -0.021578  2-+-++0
       44    0.021253   -0.021253  -2+20+0
      281    0.021117   -0.021117  +2+2-00
       37   -0.021060    0.021060  22+-+00
      108   -0.021017   -0.021017  +2-2+00
      461    0.020495   -0.020495  2++-020
      561    0.020435    0.020435  2+++--0
      358   -0.020253    0.020253  2-++020

 ---------------------------------------
      - DIABATIC STATES IN CMO -        
 ---------------------------------------

 State #    1  Energy =     -55.965525511

      Det      Coef        Coefp    Occupancy (Ignoring core)
      ---      ----        ----    --------- --------- -----
        1    0.949079   -0.949079  222+000
       71    0.200852   -0.200852  2+22000
       36    0.121235    0.121235  22+2000
      393   -0.072581   -0.072581  202+020
      717   -0.060699   -0.060699  220+002
       17   -0.038796   -0.038796  22-+00+
      179   -0.037871   -0.037871  202+200
        8   -0.032528    0.032528  2-2+0+0
      402   -0.031753    0.031753  2+-+0-+
      215   -0.031574   -0.031574  022+200
      106   -0.030210   -0.030210  +222000
      708   -0.026861    0.026861  2-++0+-
      357   -0.026183   -0.026183  220+020
        4    0.026031   -0.026031  2-2++00
      389    0.025987    0.025987  202++-0
      388   -0.025573   -0.025573  2+-++-0
      113   -0.025335    0.025335  +-220+0
      390    0.024916   -0.024916  -+2++-0
       76    0.024534    0.024534  2+2-0+0
      394    0.024102   -0.024102  -+2+020
        6    0.023379   -0.023379  22200+0
      214    0.023315    0.023315  +-2+200
      391   -0.023051    0.023051  2+20020
      428   -0.022809   -0.022809  +-2+020
       51    0.022544   -0.022544  22+-00+
      183   -0.021899    0.021899  202+-+0
      148   -0.021297   -0.021297  2-++-+0
      122   -0.021092   -0.021092  +2-200+
      143   -0.021049   -0.021049  220+200
      180   -0.020403    0.020403  -+2+200
      218    0.020300   -0.020300  +-2+-+0
      705    0.020253    0.020253  -2+++0-
        3    0.020208    0.020208  22-++00
      429   -0.020077   -0.020077  022+020

 State #    2  Energy =     -55.833718233

      Det      Coef        Coefp    Occupancy (Ignoring core)
      ---      ----        ----    --------- --------- -----
       71   -0.870899    0.870899  2+22000
       36   -0.390333   -0.390333  22+2000
        1    0.234539   -0.234539  222+000
      822    0.057096   -0.057096  2+02002
      463    0.037023   -0.037023  20+2020
      113    0.035320   -0.035320  +-220+0
      813   -0.031217    0.031217  20+20+-
      462    0.030787   -0.030787  2+02020
      320    0.029471    0.029471  0+22200
      177    0.026925   -0.026925  2+20200
      183   -0.025919    0.025919  202+-+0
        6    0.025238   -0.025238  22200+0
      107   -0.023756    0.023756  +22-+00
       42   -0.023509    0.023509  22020+0
       74    0.022927   -0.022927  2022+00
      810    0.021293    0.021293  -++2+0-
      751    0.021033   -0.021033  2+20002
      533    0.020377    0.020377  +022020
      534    0.020209    0.020209  0+22020
      179   -0.020062   -0.020062  202+200

 State #    3  Energy =     -55.727067201

      Det      Coef        Coefp    Occupancy (Ignoring core)
      ---      ----        ----    --------- --------- -----
       36   -0.889450   -0.889450  22+2000
       71    0.410050   -0.410050  2+22000
      463    0.061836   -0.061836  20+2020
      249    0.045921   -0.045921  20+2200
      121    0.040245   -0.040245  +22-00+
      253    0.036427    0.036427  20+2-+0
      112   -0.034973   -0.034973  +2-20+0
      472    0.029296    0.029296  2+020-+
      285    0.029295   -0.029295  02+2200
      250    0.027825    0.027825  -++2200
      459   -0.027158    0.027158  20+2+-0
        1    0.027075   -0.027075  222+000
      248   -0.026537    0.026537  2+02200
      716    0.024479    0.024479  22+0002
      113    0.023639   -0.023639  +-220+0
      771   -0.023439   -0.023439  +22+00-
      356    0.023082    0.023082  22+0020
       77    0.022561   -0.022561  2+-20+0
       76    0.022504    0.022504  2+2-0+0
       52   -0.022230    0.022230  220200+
      284   -0.021907    0.021907  +-+2200
      498    0.021647   -0.021647  +-+2020
        7    0.021593    0.021593  22-+0+0
      142    0.021317    0.021317  22+0200
      499    0.020743   -0.020743  02+2020
        8   -0.020707    0.020707  2-2+0+0
       51   -0.020699    0.020699  22+-00+
      464   -0.020259   -0.020259  -++2020

 ---------------------------------------
    -DIABATIC STATES IN PROTOTYPES-     
 ---------------------------------------

     STATE:    1
 Group Ref#    Coefficients
     1    1    0.975376
     2    2    0.001868
     3    3   -0.001635

WEIGHT OF LISTED PROTOTYPES:   95.14%

     STATE:    2
 Group Ref#    Coefficients
     1    1    0.001866
     2    2    0.976046
     3    3   -0.000443

WEIGHT OF LISTED PROTOTYPES:   95.27%

     STATE:    3
 Group Ref#    Coefficients
     1    1   -0.001640
     2    2   -0.000445
     3    3    0.972582

WEIGHT OF LISTED PROTOTYPES:   94.59%

     DIRECT MAX. DIABATIZATION FINISHED    
 CPU     0: STEP CPU TIME=     0.24 TOTAL CPU TIME=         13.4 (      0.2 MIN)
 TOTAL WALL CLOCK TIME=         13.4 SECONDS, CPU UTILIZATION IS    99.85%

DIABATS FOR SPIN-ORBIT CALCULATION ARE READY

TRANSITION DIPOLES BETWEEN ADIABATS (in A.U.):

STATE PAIR      X         Y         Z
    1    1  0.199364  0.169689  0.734493
    2    1 -0.040740  0.000849 -0.083387
    2    2  0.146263 -0.032936  0.273805
    3    1  0.030262  0.095293 -0.062988
    3    2 -0.102502  0.144951 -0.001439
    3    3  0.381746  0.398056  0.252550


TRANSITION DIPOLES BETWEEN DIABATS (in A.U.):

STATE PAIR      X         Y         Z
    1    1  0.202250  0.150428  0.756670
    2    1 -0.007065  0.028104 -0.003340
    2    2  0.102439  0.157090  0.248213
    3    1  0.029418  0.031373  0.001914
    3    2  0.023901  0.270183 -0.013592
    3    3  0.422683  0.227290  0.255965

TRANSITION DIPOLES BETWEEN DIRECT MAX. DIABATS (in A.U.):

STATE PAIR      X         Y         Z
    1    1  0.202251  0.150428  0.756670
    2    1 -0.007065  0.028104 -0.003340
    2    2  0.102440  0.157091  0.248213
    3    1  0.029419  0.031373  0.001913
    3    2  0.023901  0.270183 -0.013592
    3    3  0.422683  0.227289  0.255965
 No $TRANST Group Found.
 Quit without doing spin-orbit coupling
 ..... DONE WITH MP2 ENERGY .....
 CPU     0: STEP CPU TIME=     0.01 TOTAL CPU TIME=         13.4 (      0.2 MIN)
 TOTAL WALL CLOCK TIME=         13.4 SECONDS, CPU UTILIZATION IS    99.93%
            100000000  WORDS OF DYNAMIC MEMORY USED
 EXECUTION OF GAMESS TERMINATED NORMALLY Wed Nov 16 19:47:38 2022
 DDI: 715512 bytes (0.7 MB / 0 MWords) used by master data server.

 ----------------------------------------
 CPU timing information for all processes
 ========================================
 0: 13.162 + 0.276 = 13.438
 ----------------------------------------
Note: The following floating-point exceptions are signalling: IEEE_DENORMAL
 ddikick.x: exited gracefully.
unset echo
----- accounting info -----
Files used on the master node io002 were:
-rw-r--r-- 1 bsonghao nooijen   20739 Nov 16 19:47 /scratch/bsonghao/nh3_diabatization_2d_at_mode_7_8_dist0.3_0.4.F05
-rw-r--r-- 1 bsonghao nooijen  363520 Nov 16 19:47 /scratch/bsonghao/nh3_diabatization_2d_at_mode_7_8_dist0.3_0.4.F09
-rw-r--r-- 1 bsonghao nooijen 1995920 Nov 16 19:47 /scratch/bsonghao/nh3_diabatization_2d_at_mode_7_8_dist0.3_0.4.F10
-rw-r--r-- 1 bsonghao nooijen  131264 Nov 16 19:47 /scratch/bsonghao/nh3_diabatization_2d_at_mode_7_8_dist0.3_0.4.F13
-rw-r--r-- 1 bsonghao nooijen  180312 Nov 16 19:47 /scratch/bsonghao/nh3_diabatization_2d_at_mode_7_8_dist0.3_0.4.F15
-rw-r--r-- 1 bsonghao nooijen       0 Nov 16 19:47 /scratch/bsonghao/nh3_diabatization_2d_at_mode_7_8_dist0.3_0.4.F16
-rw-r--r-- 1 bsonghao nooijen    9808 Nov 16 19:47 /scratch/bsonghao/nh3_diabatization_2d_at_mode_7_8_dist0.3_0.4.F70
-rw-r--r-- 1 bsonghao nooijen    9808 Nov 16 19:47 /scratch/bsonghao/nh3_diabatization_2d_at_mode_7_8_dist0.3_0.4.F71
-rw-r--r-- 1 bsonghao nooijen   19608 Nov 16 19:47 /scratch/bsonghao/nh3_diabatization_2d_at_mode_7_8_dist0.3_0.4.F72
-rw-r--r-- 1 bsonghao nooijen   19608 Nov 16 19:47 /scratch/bsonghao/nh3_diabatization_2d_at_mode_7_8_dist0.3_0.4.F73
-rw-r--r-- 1 bsonghao nooijen 1920824 Nov 16 19:47 /scratch/bsonghao/nh3_diabatization_2d_at_mode_7_8_dist0.3_0.4.F74
-rw-r--r-- 1 bsonghao nooijen       0 Nov 16 19:47 /scratch/bsonghao/nh3_diabatization_2d_at_mode_7_8_dist0.3_0.4.F75
-rw-r--r-- 1 bsonghao nooijen   58848 Nov 16 19:47 /scratch/bsonghao/nh3_diabatization_2d_at_mode_7_8_dist0.3_0.4.F76
-rw-r--r-- 1 bsonghao nooijen       0 Nov 16 19:47 /scratch/bsonghao/nh3_diabatization_2d_at_mode_7_8_dist0.3_0.4.F77
-rw-r--r-- 1 bsonghao nooijen    1864 Nov 16 19:47 /scratch/bsonghao/nh3_diabatization_2d_at_mode_7_8_dist0.3_0.4.F78
-rw-r--r-- 1 bsonghao nooijen   39208 Nov 16 19:47 /scratch/bsonghao/nh3_diabatization_2d_at_mode_7_8_dist0.3_0.4.F79
-rw-r--r-- 1 bsonghao nooijen     104 Nov 16 19:47 /scratch/bsonghao/nh3_diabatization_2d_at_mode_7_8_dist0.3_0.4.F80
-rw-r--r-- 1 bsonghao nooijen   13472 Nov 16 19:47 /scratch/bsonghao/nh3_diabatization_2d_at_mode_7_8_dist0.3_0.4.F81
-rw-r--r-- 1 bsonghao nooijen      16 Nov 16 19:47 /scratch/bsonghao/nh3_diabatization_2d_at_mode_7_8_dist0.3_0.4.F82
-rw-r--r-- 1 bsonghao nooijen   19216 Nov 16 19:47 /scratch/bsonghao/nh3_diabatization_2d_at_mode_7_8_dist0.3_0.4.F83
-rw-r--r-- 1 bsonghao nooijen   29712 Nov 16 19:47 /scratch/bsonghao/nh3_diabatization_2d_at_mode_7_8_dist0.3_0.4.F84
-rw-r--r-- 1 bsonghao nooijen  401576 Nov 16 19:47 /scratch/bsonghao/nh3_diabatization_2d_at_mode_7_8_dist0.3_0.4.F85
-rw-r--r-- 1 bsonghao nooijen  903672 Nov 16 19:47 /scratch/bsonghao/nh3_diabatization_2d_at_mode_7_8_dist0.3_0.4.F86
-rw-r--r-- 1 bsonghao nooijen     656 Nov 16 19:47 /scratch/bsonghao/nh3_diabatization_2d_at_mode_7_8_dist0.3_0.4.F87
-rw-r--r-- 1 bsonghao nooijen   34096 Nov 16 19:47 /scratch/bsonghao/nh3_diabatization_2d_at_mode_7_8_dist0.3_0.4.F88
-rw-r--r-- 1 bsonghao nooijen     240 Nov 16 19:47 /scratch/bsonghao/nh3_diabatization_2d_at_mode_7_8_dist0.3_0.4.F89
-rw-r--r-- 1 bsonghao nooijen       0 Nov 16 19:47 /scratch/bsonghao/nh3_diabatization_2d_at_mode_7_8_dist0.3_0.4.F90
-rw-r--r-- 1 bsonghao nooijen   13760 Nov 16 19:47 /scratch/bsonghao/nh3_diabatization_2d_at_mode_7_8_dist0.3_0.4.F91
-rw-r--r-- 1 bsonghao nooijen   22776 Nov 16 19:47 /scratch/bsonghao/nh3_diabatization_2d_at_mode_7_8_dist0.3_0.4.F92
-rw-r--r-- 1 bsonghao nooijen   23168 Nov 16 19:47 /scratch/bsonghao/nh3_diabatization_2d_at_mode_7_8_dist0.3_0.4.F93
-rw-r--r-- 1 bsonghao nooijen   22776 Nov 16 19:47 /scratch/bsonghao/nh3_diabatization_2d_at_mode_7_8_dist0.3_0.4.F94
-rw-r--r-- 1 bsonghao nooijen   13760 Nov 16 19:47 /scratch/bsonghao/nh3_diabatization_2d_at_mode_7_8_dist0.3_0.4.F95
-rw-r--r-- 1 bsonghao nooijen   29440 Nov 16 19:47 /scratch/bsonghao/nh3_diabatization_2d_at_mode_7_8_dist0.3_0.4.F96
-rw-r--r-- 1 bsonghao nooijen    1184 Nov 16 19:47 /scratch/bsonghao/nh3_diabatization_2d_at_mode_7_8_dist0.3_0.4.F97
-rw-r--r-- 1 bsonghao nooijen    9808 Nov 16 19:47 /scratch/bsonghao/nh3_diabatization_2d_at_mode_7_8_dist0.3_0.4.F98
-rw-r--r-- 1 bsonghao nooijen   30264 Nov 16 19:47 /scratch/bsonghao/nh3_diabatization_2d_at_mode_7_8_dist0.3_0.4.F99
ls: No match.
ls: No match.
ls: No match.
Wed 16 Nov 2022 07:47:41 PM EST
0.293u 0.035s 0:16.80 1.9%	0+0k 48+224io 0pf+0w
