----- GAMESS execution script 'rungms' -----
This job is running on host io002
under operating system Linux at Wed 16 Nov 2022 07:53:21 PM EST
Available scratch disk space (Kbyte units) at beginning of the job is
Filesystem       1K-blocks       Used   Available Use% Mounted on
/dev/sdc1      15378471580 3278917120 11318349060  23% /scratch
GAMESS temporary binary files will be written to /scratch/bsonghao
GAMESS supplementary output files will be written to /home/bsonghao/.gamess_ascii_files/267638
Copying input file nh3_diabatization_2d_at_mode_7_8_dist0.4_0.0.inp to your run's scratch directory...
cp nh3_diabatization_2d_at_mode_7_8_dist0.4_0.0.inp /scratch/bsonghao/nh3_diabatization_2d_at_mode_7_8_dist0.4_0.0.F05
unset echo
/home/bjb2chen/gamess/ddikick.x /home/bjb2chen/gamess/gamess.00.x nh3_diabatization_2d_at_mode_7_8_dist0.4_0.0 -ddi 1 1 io002 -scr /scratch/bsonghao

 Distributed Data Interface kickoff program.
 Initiating 1 compute processes on 1 nodes to run the following command:
 /home/bjb2chen/gamess/gamess.00.x nh3_diabatization_2d_at_mode_7_8_dist0.4_0.0 

          ******************************************************
          *         GAMESS VERSION = 02 AUG 2018 (R2)         *
          *             FROM IOWA STATE UNIVERSITY             *
          * M.W.SCHMIDT, K.K.BALDRIDGE, J.A.BOATZ, S.T.ELBERT, *
          *   M.S.GORDON, J.H.JENSEN, S.KOSEKI, N.MATSUNAGA,   *
          *          K.A.NGUYEN, S.J.SU, T.L.WINDUS,           *
          *       TOGETHER WITH M.DUPUIS, J.A.MONTGOMERY       *
          *         J.COMPUT.CHEM.  14, 1347-1363(1993)        *
          **************** 64 BIT LINUX VERSION ****************

  SINCE 1993, STUDENTS AND POSTDOCS WORKING AT IOWA STATE UNIVERSITY
  AND ALSO IN THEIR VARIOUS JOBS AFTER LEAVING ISU HAVE MADE IMPORTANT
  CONTRIBUTIONS TO THE CODE:
     IVANA ADAMOVIC, CHRISTINE AIKENS, YURI ALEXEEV, POOJA ARORA,
     ANDREY ASADCHEV, ROB BELL, PRADIPTA BANDYOPADHYAY, JONATHAN BENTZ,
     BRETT BODE, KURT BRORSEN, CALEB CARLIN, GALINA CHABAN, WEI CHEN,
     CHEOL HO CHOI, PAUL DAY, ALBERT DEFUSCO, NUWAN DESILVA, TIM DUDLEY,
     DMITRI FEDOROV, ALEX FINDLATER, GRAHAM FLETCHER, MARK FREITAG,
     KURT GLAESEMANN, ANASTASIA GUININA,
     DAN KEMP, GRANT MERRILL, NORIYUKI MINEZAWA, JONATHAN MULLIN,
     TAKESHI NAGATA, SEAN NEDD, HEATHER NETZLOFF, BOSILJKA NJEGIC, RYAN OLSON,
     MIKE PAK, BUU PHAM,
     SPENCER PRUITT, LUKE ROSKOP, JIM SHOEMAKER, LYUDMILA SLIPCHENKO,
     TONY SMITH, SAROM SOK LEANG, JIE SONG, TETSUYA TAKETSUGU, SIMON WEBB,
     PENG XU, SOOHAENG YOO, FEDERICO ZAHARIEV

  ADDITIONAL CODE HAS BEEN PROVIDED BY COLLABORATORS IN OTHER GROUPS:
     IOWA STATE UNIVERSITY:
          JOE IVANIC, AARON WEST, LAIMUTIS BYTAUTAS, KLAUS RUEDENBERG
     UNIVERSITY OF TOKYO: KIMIHIKO HIRAO, TAKAHITO NAKAJIMA,
          TAKAO TSUNEDA, MUNEAKI KAMIYA, SUSUMU YANAGISAWA,
          KIYOSHI YAGI, MAHITO CHIBA, SEIKEN TOKURA, NAOAKI KAWAKAMI
     UNIVERSITY OF AARHUS: FRANK JENSEN
     UNIVERSITY OF IOWA: VISVALDAS KAIRYS, HUI LI
     NATIONAL INST. OF STANDARDS AND TECHNOLOGY: WALT STEVENS, DAVID GARMER
     UNIVERSITY OF PISA: BENEDETTA MENNUCCI, JACOPO TOMASI
     UNIVERSITY OF MEMPHIS: HENRY KURTZ, PRAKASHAN KORAMBATH
     UNIVERSITY OF ALBERTA: TOBY ZENG, MARIUSZ KLOBUKOWSKI
     UNIVERSITY OF NEW ENGLAND: MARK SPACKMAN
     MIE UNIVERSITY: HIROAKI UMEDA
     NAT. INST. OF ADVANCED INDUSTRIAL SCIENCE AND TECHNOLOGY: KAZUO KITAURA
     MICHIGAN STATE UNIVERSITY:
          KAROL KOWALSKI, MARTA WLOCH, JEFFREY GOUR, JESSE LUTZ,
          WEI LI, JUN SHEN, J. EMILIANO DEUSTUA, PIOTR PIECUCH
     UNIVERSITY OF MINNESOTA:
          YINAN SHU
     UNIVERSITY OF SILESIA: MONIKA MUSIAL, STANISLAW KUCHARSKI
     FACULTES UNIVERSITAIRES NOTRE-DAME DE LA PAIX:
          OLIVIER QUINET, BENOIT CHAMPAGNE
     UNIVERSITY OF CALIFORNIA - SANTA BARBARA: BERNARD KIRTMAN
     INSTITUTE FOR MOLECULAR SCIENCE:
          KAZUYA ISHIMURA, MICHIO KATOUDA, AND SHIGERU NAGASE
     UNIVERSITY OF NOTRE DAME: ANNA POMOGAEVA, DAN CHIPMAN
     KYUSHU UNIVERSITY:
          HARUYUKI NAKANO,
          FENG LONG GU, JACEK KORCHOWIEC, MARCIN MAKOWSKI, AND YURIKO AOKI,
          HIROTOSHI MORI AND EISAKU MIYOSHI
     PENNSYLVANIA STATE UNIVERSITY:
          TZVETELIN IORDANOV, CHET SWALINA, JONATHAN SKONE,
          SHARON HAMMES-SCHIFFER
     WASEDA UNIVERSITY:
          MASATO KOBAYASHI, TOMOKO AKAMA, TSUGUKI TOUMA,
          TAKESHI YOSHIKAWA, YASUHIRO IKABATA, JUNJI SEINO,
          YUYA NAKAJIMA, HIROMI NAKAI
     NANJING UNIVERSITY: SHUHUA LI
     UNIVERSITY OF NEBRASKA:
          PEIFENG SU, DEJUN SI, NANDUN THELLAMUREGE, YALI WANG, HUI LI
     UNIVERSITY OF ZURICH: ROBERTO PEVERATI, KIM BALDRIDGE
     N. COPERNICUS UNIVERSITY AND JACKSON STATE UNIVERSITY:
          MARIA BARYSZ
     UNIVERSITY OF COPENHAGEN: Jimmy Kromann, CASPER STEINMANN
     TOKYO INSTITUTE OF TECHNOLOGY: HIROYA NAKATA
     NAGOYA UNIVERSITY: YOSHIO NISHIMOTO, STEPHAN IRLE
     MOSCOW STATE UNIVERSITY: VLADIMIR MIRONOV

 EXECUTION OF GAMESS BEGUN Wed Nov 16 19:53:21 2022

            ECHO OF THE FIRST FEW INPUT CARDS -
 INPUT CARD> $system kdiag=3 mwords=100 memddi=1000 parall=.t. $end                         
 INPUT CARD> $contrl runtyp=energy ispher=1 $end                                            
 INPUT CARD> $contrl icut=9 itol=20 inttyp=rysquad qmttol=1.0d-05 nosym=1 $end              
 INPUT CARD> $scf    npunch=2 conv=1.0d-06 dirscf=.t.      $end                             
 INPUT CARD> $contrl scftyp=mcscf  mult=2 maxit=200 icharg=1 mplevl=2 $end                  
 INPUT CARD> $guess  guess=moread norb=29 purify=.t. $end                                   
 INPUT CARD> $basis  gbasis=ccd $end                                                        
 INPUT CARD> $mcscf  cistep=gmcci fullnr=.t. finci=mos                                      
 INPUT CARD>         acurcy=1.d-6 maxit=100 $end                                            
 INPUT CARD> $trans  dirtrf=.t. $end                                                        
 INPUT CARD> $mrmp   mrpt=gmcpt rdvecs=.f. $end                                             
 INPUT CARD> $gmcpt  nmofzc=0 nmodoc=1 nmoact=7 nelact=7 stsym(1)=A                         
 INPUT CARD>         reftyp=ormas nspace=1 mstart(1)=2 mine(1)=7 maxe(1)=7                  
 INPUT CARD>         kstate(1)=1,1,1                                                        
 INPUT CARD>         wstate(1)=1,1,1                                                        
 INPUT CARD>         iwgt=0 thrwgt=-1.0 krot=.f. kszdoe=.f. knospn=.f.                      
 INPUT CARD>         thrde=-1.0 edshft=0.02 $end                                            
 INPUT CARD> $data                                                                          
 INPUT CARD> NH3+ 3 states calculation at NH3 structure.                                    
 INPUT CARD> c1                                                                             
 INPUT CARD>N 7.0 0.0 -0.02491561200000001 -0.1693806842                                    
 INPUT CARD>H 1.0 -0.31247614199999996 0.8331235438000001 0.34790318010000004               
 INPUT CARD>H 1.0 -0.61817741 -0.7788156638 0.1650172801                                    
 INPUT CARD>H 1.0 0.93065354 0.2919029760000001 0.2564602241                                
 INPUT CARD>$end                                                                            
 INPUT CARD>--- OPTIMIZED RHF      MO-S --- GENERATED AT Mon Nov 14 16:47:08 2022           
 INPUT CARD>E=      -56.3825050291, E(NUC)=   11.8429239490                                 
 INPUT CARD> $VEC                                                                           
 INPUT CARD> 1  1-1.00134066E+00-2.25158504E-03 3.44925845E-03 0.00000000E+00 0.00000000E+00
 INPUT CARD> 1  2-2.13170927E-03 0.00000000E+00 0.00000000E+00 6.57129898E-04-6.87950443E-05
 INPUT CARD> 1  3-6.87950443E-05 1.37590089E-04 0.00000000E+00 0.00000000E+00 0.00000000E+00
 INPUT CARD> 1  4 3.25502815E-04-4.84772356E-04 3.62525460E-04-6.27912517E-04-3.45956485E-04
 INPUT CARD> 1  5 3.25502815E-04-4.84772356E-04 3.62525460E-04 6.27912517E-04-3.45956485E-04
 INPUT CARD> 1  6 3.25502815E-04-4.84772356E-04-7.25050921E-04 0.00000000E+00-3.45956485E-04
 INPUT CARD> 2  1 1.31286642E-02-4.05911371E-01-2.82090992E-01 0.00000000E+00 0.00000000E+00
 INPUT CARD> 2  2-7.71489043E-02 0.00000000E+00 0.00000000E+00 9.73717494E-03 6.62450916E-04
 INPUT CARD> 2  3 6.62450916E-04-1.32490183E-03 0.00000000E+00 0.00000000E+00 0.00000000E+00
 INPUT CARD> 2  4-1.96090317E-01-1.96656153E-02-1.74855877E-02 3.02859263E-02 8.68214399E-03
 INPUT CARD> 2  5-1.96090317E-01-1.96656153E-02-1.74855877E-02-3.02859263E-02 8.68214399E-03
 INPUT CARD> 2  6-1.96090317E-01-1.96656153E-02 3.49711754E-02 0.00000000E+00 8.68214399E-03
 INPUT CARD> 3  1 0.00000000E+00 0.00000000E+00 0.00000000E+00 4.48608762E-01 0.00000000E+00
 INPUT CARD> 3  2 0.00000000E+00 2.18692520E-01 0.00000000E+00 0.00000000E+00 1.30198027E-02
 INPUT CARD> 3  3-1.30198027E-02 0.00000000E+00 0.00000000E+00 2.71832968E-02 0.00000000E+00
 INPUT CARD> 3  4-1.85332726E-01-7.03958951E-02 8.47929477E-03 1.95242443E-02 8.32835058E-03
 INPUT CARD> 3  5-1.85332726E-01-7.03958951E-02 8.47929477E-03-1.95242443E-02 8.32835058E-03
 INPUT CARD> 3  6 3.70665453E-01 1.40791790E-01-2.53376884E-02 0.00000000E+00-1.66567012E-02
 INPUT CARD> 4  1 0.00000000E+00 0.00000000E+00 0.00000000E+00 0.00000000E+00 4.48608762E-01
 INPUT CARD> 4  2 0.00000000E+00 0.00000000E+00 2.18692520E-01 0.00000000E+00 0.00000000E+00
 INPUT CARD> 4  3 0.00000000E+00 0.00000000E+00-1.50339731E-02 0.00000000E+00 2.71832968E-02
 INPUT CARD> 4  4 3.21005698E-01 1.21929267E-01 1.95242443E-02-1.40653607E-02-1.44251263E-02
  100000000 WORDS OF MEMORY AVAILABLE

     BASIS OPTIONS
     -------------
     GBASIS=CCD          IGAUSS=       0      POLAR=NONE    
     NDFUNC=       0     NFFUNC=       0     DIFFSP=       F
     NPFUNC=       0      DIFFS=       F     BASNAM=        


     RUN TITLE
     ---------
  NH3+ 3 states calculation at NH3 structure.                                    

 THE POINT GROUP OF THE MOLECULE IS C1      
 THE ORDER OF THE PRINCIPAL AXIS IS     0

 ATOM      ATOMIC                      COORDINATES (BOHR)
           CHARGE         X                   Y                   Z
 N           7.0     0.0000000000       -0.0470836795       -0.3200830808
 H           1.0    -0.5904942861        1.5743752117        0.6574416806
 H           1.0    -1.1681859167       -1.4717481995        0.3118374426
 H           1.0     1.7586801801        0.5516166396        0.4846395503

          INTERNUCLEAR DISTANCES (ANGS.)
          ------------------------------

                1 N          2 H          3 H          4 H     

   1 N       0.0000000    1.0495023 *  1.0306942 *  1.0713685 *
   2 H       1.0495023 *  0.0000000    1.6508327 *  1.3589161 *
   3 H       1.0306942 *  1.6508327 *  0.0000000    1.8851200 *
   4 H       1.0713685 *  1.3589161 *  1.8851200 *  0.0000000  

  * ... LESS THAN  3.000


     ATOMIC BASIS SET
     ----------------
 THE CONTRACTED PRIMITIVE FUNCTIONS HAVE BEEN UNNORMALIZED
 THE CONTRACTED BASIS FUNCTIONS ARE NOW NORMALIZED TO UNITY

  SHELL TYPE  PRIMITIVE        EXPONENT          CONTRACTION COEFFICIENT(S)

 N         

      1   S       1          9046.0000000    0.000699617413
      1   S       2          1357.0000000    0.005386054630
      1   S       3           309.3000000    0.027391021189
      1   S       4            87.7300000    0.103150591982
      1   S       5            28.5600000    0.278570663317
      1   S       6            10.2100000    0.448294849454
      1   S       7             3.8380000    0.278085928395
      1   S       8             0.7466000    0.015431561233

      2   S       9          9046.0000000   -0.000304990096
      2   S      10          1357.0000000   -0.002408026379
      2   S      11           309.3000000   -0.011944448725
      2   S      12            87.7300000   -0.048925992909
      2   S      13            28.5600000   -0.134472724725
      2   S      14            10.2100000   -0.315112577700
      2   S      15             3.8380000   -0.242857832550
      2   S      16             0.7466000    1.094382206854

      3   S      17             0.2248000    1.000000000000

      4   P      18            13.5500000    0.058905676772
      4   P      19             2.9170000    0.320461106714
      4   P      20             0.7973000    0.753042061792

      5   P      21             0.2185000    1.000000000000

      6   D      22             0.8170000    1.000000000000

 H         

      7   S      23            13.0100000    0.033498726390
      7   S      24             1.9620000    0.234800801174
      7   S      25             0.4446000    0.813682957883

      8   S      26             0.1220000    1.000000000000

      9   P      27             0.7270000    1.000000000000

 H         

     10   S      28            13.0100000    0.033498726390
     10   S      29             1.9620000    0.234800801174
     10   S      30             0.4446000    0.813682957883

     11   S      31             0.1220000    1.000000000000

     12   P      32             0.7270000    1.000000000000

 H         

     13   S      33            13.0100000    0.033498726390
     13   S      34             1.9620000    0.234800801174
     13   S      35             0.4446000    0.813682957883

     14   S      36             0.1220000    1.000000000000

     15   P      37             0.7270000    1.000000000000

 TOTAL NUMBER OF BASIS SET SHELLS             =   15
 NUMBER OF CARTESIAN GAUSSIAN BASIS FUNCTIONS =   30
 NOTE: THIS RUN WILL RESTRICT THE MO VARIATION SPACE TO SPHERICAL HARMONICS.
 THE NUMBER OF ORBITALS KEPT IN THE VARIATIONAL SPACE WILL BE PRINTED LATER.
 NUMBER OF ELECTRONS                          =    9
 CHARGE OF MOLECULE                           =    1
 SPIN MULTIPLICITY                            =    2
 NUMBER OF OCCUPIED ORBITALS (ALPHA)          =    5
 NUMBER OF OCCUPIED ORBITALS (BETA )          =    4
 TOTAL NUMBER OF ATOMS                        =    4
 THE NUCLEAR REPULSION ENERGY IS       11.5716100328

     $CONTRL OPTIONS
     ---------------
 SCFTYP=MCSCF        RUNTYP=ENERGY       EXETYP=RUN     
 MPLEVL=       2     CITYP =NONE         CCTYP =NONE         VBTYP =NONE    
 DFTTYP=NONE         TDDFT =NONE    
 MULT  =       2     ICHARG=       1     NZVAR =       0     COORD =UNIQUE  
 PP    =NONE         RELWFN=NONE         LOCAL =NONE         NUMGRD=       F
 ISPHER=       1     NOSYM =       1     MAXIT =     200     UNITS =ANGS    
 PLTORB=       F     MOLPLT=       F     AIMPAC=       F     FRIEND=        
 NPRINT=       7     IREST =       0     GEOM  =INPUT   
 NORMF =       0     NORMP =       0     ITOL  =      20     ICUT  =       9
 INTTYP=RYSQUAD      GRDTYP=BEST         QMTTOL= 1.0E-05

     $SYSTEM OPTIONS
     ---------------
  REPLICATED MEMORY=   100000000 WORDS (ON EVERY NODE).
 DISTRIBUTED MEMDDI=        1000 MILLION WORDS IN AGGREGATE,
 MEMDDI DISTRIBUTED OVER   1 PROCESSORS IS  1000000000 WORDS/PROCESSOR.
 TOTAL MEMORY REQUESTED ON EACH PROCESSOR=  1100000000 WORDS.
 TIMLIM=      525600.00 MINUTES, OR     365.0 DAYS.
 PARALL= T  BALTYP=  DLB     KDIAG=    3  COREFL= F
 MXSEQ2=     300 MXSEQ3=     150  mem10=         0

          ----------------
          PROPERTIES INPUT
          ----------------

     MOMENTS            FIELD           POTENTIAL          DENSITY
 IEMOM =       1   IEFLD =       0   IEPOT =       0   IEDEN =       0
 WHERE =COMASS     WHERE =NUCLEI     WHERE =NUCLEI     WHERE =NUCLEI  
 OUTPUT=BOTH       OUTPUT=BOTH       OUTPUT=BOTH       OUTPUT=BOTH    
 IEMINT=       0   IEFINT=       0                     IEDINT=       0
                                                       MORB  =       0

     -------------------------------
     INTEGRAL TRANSFORMATION OPTIONS
     -------------------------------
     NWORD  =            0
     CUTOFF = 1.0E-09     MPTRAN =       0
     DIRTRF =       T     AOINTS =DUP     

          ----------------------
          MCSCF INPUT PARAMETERS
          ----------------------
 CONVERGER SELECTION: FOCAS = F  SOSCF = F  FULLNR = T  QUD = F  JACOBI = F
 SECULAR EQUATION METHOD CISTEP = GMCCI   
 --- GENERAL INPUT OPTIONS:
 MAXIT =     100  MICIT =       1  ACURCY= 1.000E-06
 DAMP  =   0.000  CANONC=       T  ENGTOL= 1.000E-10
 EKT   =       F  NPUNCH=       2  NWORD =         0
 REGENERATE CI AFTER CONVERGENCE = NONE    
 DIABATIZATION AFTER CONVERGENCE =        F
 --- INPUT FOR FULLNR CONVERGER:
 METHOD=DM2       FORS  =       F  DROPC =       T
 LINSER=       F  FCORE =       F  NORB  =      30

          ----------------------
          INTEGRAL INPUT OPTIONS
          ----------------------
 NOPK  =       1 NORDER=       0 SCHWRZ=       T

 ------------------------------------------
 MULTIREFERENCE PERTURBATION THEORY CONTROL
 ------------------------------------------
 MRPT=GMCPT    READ CONVERGED MCSCF VECTORS= F


     ------------------------------------------
     THE POINT GROUP IS C1 , NAXIS= 1, ORDER= 1
     ------------------------------------------

 -- VARIATIONAL SPACE WILL BE RESTRICTED TO PURE SPHERICAL HARMONICS ONLY --
 AFTER EXCLUDING CONTAMINANT COMBINATIONS FROM THE CARTESIAN GAUSSIAN BASIS
 SET, THE NUMBER OF SPHERICAL HARMONICS KEPT IN THE VARIATION SPACE IS   29

     DIMENSIONS OF THE SYMMETRY SUBSPACES ARE
 A   =   29

 ..... DONE SETTING UP THE RUN .....
 CPU     0: STEP CPU TIME=     0.03 TOTAL CPU TIME=          0.0 (      0.0 MIN)
 TOTAL WALL CLOCK TIME=          0.1 SECONDS, CPU UTILIZATION IS    60.00%

          ********************
          1 ELECTRON INTEGRALS
          ********************
 TIME TO DO   DIPOLE INTEGRALS=      0.00
 ...... END OF ONE-ELECTRON INTEGRALS ......
 CPU     0: STEP CPU TIME=     0.00 TOTAL CPU TIME=          0.0 (      0.0 MIN)
 TOTAL WALL CLOCK TIME=          0.1 SECONDS, CPU UTILIZATION IS    60.00%

          -------------
          GUESS OPTIONS
          -------------
          GUESS =MOREAD            NORB  =      29          NORDER=       0
          MIX   =       F          PRTMO =       F          PUNMO =       F
          TOLZ  = 1.0E-08          TOLE  = 1.0E-05
          SYMDEN=       F          PURIFY=       T

 INITIAL GUESS ORBITALS GENERATED BY MOREAD   ROUTINE.

 STATISTICS FOR GENERATION OF SYMMETRY ORBITAL -Q- MATRIX
 NUMBER OF CARTESIAN ATOMIC ORBITALS=         30
 NUMBER OF SPHERICAL CONTAMINANTS DROPPED=     1
 NUMBER OF LINEARLY DEPENDENT MOS DROPPED=     0
 TOTAL NUMBER OF MOS IN VARIATION SPACE=      29
 ORBITAL PURIFICATION WILL OCCUR

 SYMMETRIES FOR INITIAL GUESS ORBITALS FOLLOW.   BOTH SET(S).
     5 ORBITALS ARE OCCUPIED (    1 CORE ORBITALS).
     1=A        2=A        3=A        4=A        5=A        6=A        7=A   
     8=A        9=A       10=A       11=A       12=A       13=A       14=A   
    15=A       16=A       17=A       18=A       19=A       20=A       21=A   
    22=A       23=A       24=A       25=A       26=A       27=A       28=A   
    29=A   
 ...... END OF INITIAL ORBITAL SELECTION ......
 CPU     0: STEP CPU TIME=     0.01 TOTAL CPU TIME=          0.0 (      0.0 MIN)
 TOTAL WALL CLOCK TIME=          0.1 SECONDS, CPU UTILIZATION IS    80.00%

                    ----------------------
                    AO INTEGRAL TECHNOLOGY
                    ----------------------
     S,P,L SHELL ROTATED AXIS INTEGRALS, REPROGRAMMED BY
        KAZUYA ISHIMURA (IMS) AND JOSE SIERRA (SYNSTAR).
     S,P,D,L SHELL ROTATED AXIS INTEGRALS PROGRAMMED BY
        KAZUYA ISHIMURA (INSTITUTE FOR MOLECULAR SCIENCE).
     S,P,D,F,G SHELL TO TOTAL QUARTET ANGULAR MOMENTUM SUM 5,
        ERIC PROGRAM BY GRAHAM FLETCHER (ELORET AND NASA ADVANCED
        SUPERCOMPUTING DIVISION, AMES RESEARCH CENTER).
     S,P,D,F,G,L SHELL GENERAL RYS QUADRATURE PROGRAMMED BY
        MICHEL DUPUIS (PACIFIC NORTHWEST NATIONAL LABORATORY).

          --------------------
          2 ELECTRON INTEGRALS
          --------------------

 DIRECT SCF METHOD SKIPS INTEGRAL STORAGE ON DISK.
 DIRECT TRANSFORMATION SKIPS AO INTEGRAL STORAGE ON DISK.
  ...... END OF TWO-ELECTRON INTEGRALS .....
 STEP CPU TIME =     0.02 TOTAL CPU TIME =          0.1 (      0.0 MIN)
 TOTAL WALL CLOCK TIME=          0.1 SECONDS, CPU UTILIZATION IS    75.00%
 DDI: Creating Array [0] - 900 x 36 = 32400 words.
 DDI: Creating Array [1] - 21 x 288 = 6048 words.
 DDI: Creating Array [2] - 36 x 36 = 1296 words.
 DDI: Creating Array [3] - 465 x 36 = 16740 words.

          -----------------
          MCSCF CALCULATION
          -----------------

 ----- NUCLEAR ENERGY ----- =        11.5716100328

     -------------------------------------------------
     GMC-PT/GMC-QDPT or general MCSCF input parameters
     -------------------------------------------------
 # of frozen core orbs. =         0 ->         0
 # of doubly occ. orbs. =         1
 # of active      orbs. =         7
 # of virtual     orbs. =        21
 # of active electrons  =         7
 # of states in CI      =         3
 Highest state in CI    =         3
 kstate =  1 1 1
 avecoe =  0.333 0.333 0.333
 State symmetry           = A           
 Assigned symmetry number = 1

 <<<Act. MO sym.: 1111111

 <<<Division of 1-ext.:  0
 <<<Division of 2-ext.:  0

 *** Reference space

 Reference type: ORMAS (= Occupation restricted multiple active space)
 # of orbitals          =  7
 # of minimum electrons =  7
 # of maximum electrons =  7
 State symmetry    =    1 (input)
 2*Sz              =    1 (input)
 Spin multiplicity =    2 (input)
 Dimension of reference space =      1225  (from      3432 walks)

 Dimension of reference space =      1225  (from      1225 walks)

 <<<Ionized spaces for Ref-CI:
      0:         1225 /   -1-0:         1960 /  0-1-0:         2891

 EVALUATING EXCHANGE INTEGRALS FOR DIRECT INTEGRAL TRANSFORMATION
 SCHWARZ INEQUALITY OVERHEAD:       465 INTEGRALS, T=        0.01

     --------------------------------------------
     PARTIAL TWO ELECTRON INTEGRAL TRANSFORMATION
     --------------------------------------------

 NUMBER OF CORE MOLECULAR ORBITALS     =    1
 NUMBER OF OCCUPIED MOLECULAR ORBITALS =    8
 TOTAL NUMBER OF MOLECULAR ORBITALS    =   29
 TOTAL NUMBER OF ATOMIC ORBITALS       =   30
 THRESHOLD FOR KEEPING TRANSFORMED 2E- INTEGRALS = 1.000E-09

 -------------------------------     ------------------------------
 DISTRIBUTED DATA TRANSFORMATION     PROGRAM WRITTEN BY G. FLETCHER
 -------------------------------     ------------------------------

 THE DISTRIBUTED MEMORY REQUIRED FOR THIS STEP IS MEMDDI=         1 MWORDS
 CREATING DISTRIBUTED STORAGE FOR [VIR OCC|VIR OCC] INTEGRALS
 CREATING DISTRIBUTED STORAGE FOR [VIR OCC|OCC OCC] INTEGRALS
 CREATING DISTRIBUTED STORAGE FOR [OCC OCC|OCC OCC] INTEGRALS
 CREATING DISTRIBUTED STORAGE FOR [VIR VIR|OCC OCC] INTEGRALS
 FOR    1 PROCESSORS, THE REPLICATED MEMORY NEEDED IS       73700 WORDS.
 SCHWARZ INEQUALITY OVERHEAD:       465 INTEGRALS, T=        0.00

      DIRECT 4-INDEX TRANSFORMATION 
      SCHWARZ INEQUALITY TEST SKIPPED          0 INTEGRAL BLOCKS
 ----- FROZEN CORE ENERGY =       -47.7552105800
 ... END OF INTEGRAL TRANSFORMATION ...
 CPU     0: STEP CPU TIME=     0.22 TOTAL CPU TIME=          0.3 (      0.0 MIN)
 TOTAL WALL CLOCK TIME=          0.3 SECONDS, CPU UTILIZATION IS    93.33%

     --------------------------------     -----------------------------
     MCHF NEWTON-RAPHSON OPTIMIZATION     CODE WRITTEN BY MICHEL DUPUIS
     --------------------------------     -----------------------------
     PARALLEL VERSION WRITTEN BY G. FLETCHER (ELORET)
     NASA ADVANCED SUPERCOMPUTING DIVISION, AMES RESEARCH CENTER

 NUMBER OF INDEPENDENT ORBITAL ROTATION PARAMETERS =   175
 ..... DONE SOLVING NEWTON-RAPHSON EQUATIONS .....
 CPU     0: STEP CPU TIME=     0.70 TOTAL CPU TIME=          1.0 (      0.0 MIN)
 TOTAL WALL CLOCK TIME=          1.0 SECONDS, CPU UTILIZATION IS    98.99%
 ..... DONE WITH NTN-RPH ORBITAL ROTATIONS ..... 
 CPU     0: STEP CPU TIME=     0.00 TOTAL CPU TIME=          1.0 (      0.0 MIN)
 TOTAL WALL CLOCK TIME=          1.0 SECONDS, CPU UTILIZATION IS    98.99%
 MAXIMUM MEMORY USED BY NTN-RPH CODE WAS     57645 WORDS.

 ITER     TOTAL ENERGY      DEL(E)  LAGRANGIAN ASYMMETRY   SQCDF  MICIT   DAMP
   1      -55.660361807 -0.660361807  0.124563   12    5 1.535E-01  1   0.0000
   2      -55.700587623 -0.040225816  0.023187   12    5 4.511E-01  1   0.0000
   3      -55.733628072 -0.033040449  0.012305   11    6 2.149E-01  1   0.0249
   4      -55.747482437 -0.013854366  0.004198   11    6 3.853E-02  1   0.0044
   5      -55.749176959 -0.001694522  0.000723   12    5 1.078E-03  1   0.0000
   6      -55.749225210 -0.000048251  0.000237   12    5 8.711E-05  1   0.0000
   7      -55.749229937 -0.000004728  0.000107   12    5 1.283E-05  1   0.0000
   8      -55.749230682 -0.000000744  0.000047   12    5 2.195E-06  1   0.0000
   9      -55.749230814 -0.000000132  0.000019   12    5 4.251E-07  1   0.0000
  10      -55.749230840 -0.000000026  0.000010   23    5 9.554E-08  1   0.0000
  11      -55.749230846 -0.000000006  0.000005   23    5 2.486E-08  1   0.0000
  12      -55.749230848 -0.000000002  0.000003   23    5 7.300E-09  1   0.0000
  13      -55.749230848 -0.000000000  0.000002   23    5 2.321E-09  1   0.0000
  14      -55.749230848 -0.000000000  0.000001   12    8 7.719E-10  1   0.0000

          --------------------
          LAGRANGIAN CONVERGED
          --------------------

 FINAL MCSCF ENERGY IS      -55.7492308485 AFTER  14 ITERATIONS

 -MCCI- BASED ON OPTIMIZED ORBITALS
 ----------------------------------

 PLEASE NOTE: IF THE ACTIVE ORBITALS ARE CANONICALIZED BELOW,
 THE FOLLOWING CI EXPANSION COEFFICIENTS AND THE DENSITY DO NOT
 CORRESPOND TO THE PRINTED ORBITALS.  THE PRINTED EXPANSIONS MATCH
 THE ORBITALS USED DURING THE LAST ITERATION.  IF YOU WISH TO SEE
 CI EXPANSIONS BASED ON THE CANONICAL (OR NATURAL) ORBITALS, YOU
 MUST RUN A CI CALCULATION WITH THAT ORBITAL CHOICE READ IN $VEC.

 Averaged energy =     -55.749230848

 State #    1  Energy =     -55.889638556  S =  0.500

      Det      Coef    Occupancy (Ignoring core)
      ---      ----    --------- --------- -----
        1   -0.943027  11110001110000
        2   -0.052123  11101001110000
        5    0.062941  01111001110000
        8    0.127368  10110101110000
       17   -0.129676  11010011110000
       36   -0.129751  11110001101000
      386   -0.100777  11110001010010
      393   -0.058389  10110101010010
      701    0.099576  11110001100001
      717   -0.061263  11010011100001

 State #    2  Energy =     -55.738025774  S =  0.500

      Det      Coef    Occupancy (Ignoring core)
      ---      ----    --------- --------- -----
        1    0.115106  11110001110000
       36   -0.656106  11110001101000
       43    0.063834  10110101101000
       52   -0.052967  11010011101000
       71   -0.701473  11110001011000
       78    0.054942  10110101011000
       87   -0.068899  11010011011000
      456   -0.070530  11110001001010
      806   -0.072880  11110001001001

 State #    3  Energy =     -55.620028216  S =  0.500

      Det      Coef    Occupancy (Ignoring core)
      ---      ----    --------- --------- -----
        1   -0.065285  11110001110000
       36    0.699614  11110001101000
       43   -0.061545  10110101101000
       71   -0.667288  11110001011000
       87   -0.058329  11010011011000
      456    0.063033  11110001001010
      806   -0.068218  11110001001001

 DENSITY MATRIX OVER ACTIVE MO-S

             1           2           3           4           5

    1    1.9782471
    2   -0.0030944   1.6351315
    3    0.0109044   0.0005422   1.6353899
    4    0.0026335  -0.0009352   0.0013946   1.6551872
    5    0.0979908   0.0061881  -0.0159574   0.0360390   0.0259433
    6   -0.0047385  -0.1403204  -0.0183740  -0.0055685  -0.0020752
    7   -0.0038637  -0.0070413  -0.1445943   0.0221427   0.0025041

             6           7

    6    0.0341779
    7   -0.0013589   0.0359232

 FORMING THE "STANDARD FOCK OPERATOR" IN DIRECT AO INTEGRAL MODE...
 ONLY THE    1 CORE AND   21 VIRTUAL ORBITALS WILL BE CANONICALIZED

          ----------------------
          MCSCF NATURAL ORBITALS
          ----------------------

                      1          2          3          4          5
                  -15.9862     1.9836     1.6564     1.6505     1.6451
                     A          A          A          A          A   
    1  N  1  S    1.001268   0.008600  -0.010647  -0.001689   0.001627
    2  N  1  S   -0.001810   0.437797  -0.173118  -0.065407   0.039098
    3  N  1  S   -0.006332   0.297165  -0.274606  -0.089666   0.058512
    4  N  1  X   -0.000070  -0.005601  -0.035145   0.288524   0.415657
    5  N  1  Y   -0.000056   0.027654  -0.117798   0.372700  -0.317500
    6  N  1  Z    0.001155   0.095015   0.584342   0.098478  -0.017078
    7  N  1  X   -0.000021   0.001893  -0.007751   0.100740   0.207793
    8  N  1  Y    0.000037  -0.002069  -0.073340   0.133317  -0.162041
    9  N  1  Z   -0.000465   0.008699   0.381361   0.049228   0.005302
   10  N  1 XX    0.000076  -0.000980  -0.011832  -0.001254   0.009098
   11  N  1 YY    0.000122   0.000102  -0.011905  -0.003385  -0.008184
   12  N  1 ZZ   -0.000198   0.000878   0.023737   0.004639  -0.000914
   13  N  1 XY    0.000346   0.001876   0.001544  -0.006796   0.010949
   14  N  1 XZ   -0.000030   0.000540  -0.002393   0.013044   0.019726
   15  N  1 YZ    0.000110   0.001782  -0.002545   0.018808  -0.015850
   16  H  2  S   -0.001929   0.205279   0.078785   0.180655  -0.339805
   17  H  2  S    0.000329   0.006697   0.020340   0.022984  -0.073819
   18  H  2  X   -0.000336   0.011900   0.005942   0.024280  -0.001079
   19  H  2  Y    0.000854  -0.032917  -0.016227  -0.005809   0.027444
   20  H  2  Z    0.000490  -0.013708   0.020434  -0.005946   0.018689
   21  H  3  S   -0.002064   0.179082   0.165447  -0.349141   0.024537
   22  H  3  S    0.000601  -0.000042   0.032148  -0.039522   0.009059
   23  H  3  X   -0.000645   0.021354   0.013180  -0.020915   0.015460
   24  H  3  Y   -0.000868   0.029320   0.015703  -0.026045  -0.012559
   25  H  3  Z    0.000400  -0.004790   0.016681   0.018297  -0.001824
   26  H  4  S   -0.001852   0.182961   0.070913   0.265702   0.270091
   27  H  4  S    0.000436   0.000826   0.023671   0.034267   0.060939
   28  H  4  X    0.000911  -0.032578  -0.012180  -0.029651  -0.018226
   29  H  4  Y    0.000233  -0.009587  -0.004337   0.005870  -0.021277
   30  H  4  Z    0.000441  -0.008368   0.021231  -0.008621  -0.012865

                      6          7          8
                    0.0261     0.0199     0.0184
                     A          A          A   
    1  N  1  S   -0.076776  -0.199923  -0.130102
    2  N  1  S   -0.243415  -0.660581  -0.394258
    3  N  1  S    0.005991  -0.177123  -0.012603
    4  N  1  X   -0.599321  -0.105575   0.664464
    5  N  1  Y    0.539045  -0.448305   0.557748
    6  N  1  Z   -0.098455  -0.626030  -0.227863
    7  N  1  X    0.004580  -0.016960   0.055159
    8  N  1  Y   -0.003830  -0.074205   0.041924
    9  N  1  Z    0.024982   0.076586   0.050581
   10  N  1 XX    0.019053  -0.019024   0.019944
   11  N  1 YY   -0.017663   0.011975  -0.016833
   12  N  1 ZZ   -0.001389   0.007049  -0.003111
   13  N  1 XY    0.038418   0.033228  -0.002954
   14  N  1 XZ    0.018272   0.009844  -0.038094
   15  N  1 YZ   -0.010588   0.046570  -0.021866
   16  H  2  S   -0.553182   0.667321   0.061594
   17  H  2  S   -0.141616   0.097301   0.004974
   18  H  2  X   -0.003868   0.050275  -0.022043
   19  H  2  Y    0.034298  -0.062229  -0.030392
   20  H  2  Z    0.017237   0.008395  -0.001798
   21  H  3  S    0.274465   0.164964   0.837176
   22  H  3  S    0.042686  -0.006455   0.140918
   23  H  3  X    0.027752   0.019061   0.050289
   24  H  3  Y    0.012724   0.029768   0.072163
   25  H  3  Z   -0.003101   0.006442   0.014431
   26  H  4  S    0.621812   0.499989  -0.305869
   27  H  4  S    0.134141   0.062588  -0.082197
   28  H  4  X   -0.052434  -0.069126   0.020979
   29  H  4  Y   -0.032168   0.003508  -0.009073
   30  H  4  Z   -0.007988   0.020926  -0.003292

          ------------------------
          MCSCF OPTIMIZED ORBITALS
          ------------------------

                      1          2          3          4          5
                  -15.9862     0.0000     0.0000     0.0000     0.0000
                     A          A          A          A          A   
    1  N  1  S    1.001268  -0.003371   0.002140   0.006489  -0.016642
    2  N  1  S   -0.001810   0.401657   0.002160  -0.013742  -0.196164
    3  N  1  S   -0.006332   0.294467   0.007783  -0.057554  -0.286463
    4  N  1  X   -0.000070  -0.003120   0.425305  -0.054466  -0.001573
    5  N  1  Y   -0.000056   0.007334  -0.009501   0.421035  -0.029455
    6  N  1  Z    0.001155   0.052909  -0.002454  -0.000744   0.579986
    7  N  1  X   -0.000021   0.005156   0.219459  -0.060862   0.003502
    8  N  1  Y    0.000037  -0.011065  -0.036630   0.210011  -0.043881
    9  N  1  Z   -0.000465   0.008545   0.001378  -0.027614   0.385837
   10  N  1 XX    0.000076  -0.000944   0.006609  -0.007884  -0.011875
   11  N  1 YY    0.000122   0.000166  -0.007029   0.006991  -0.012366
   12  N  1 ZZ   -0.000198   0.000777   0.000420   0.000893   0.024240
   13  N  1 XY    0.000346   0.004238   0.006714  -0.013404   0.001090
   14  N  1 XZ   -0.000030   0.000883   0.027182  -0.000952  -0.000766
   15  N  1 YZ    0.000110   0.002692   0.001668   0.027956   0.001578
   16  H  2  S   -0.001929   0.216607  -0.176244   0.394779   0.124567
   17  H  2  S    0.000329   0.006951  -0.050021   0.072387   0.025698
   18  H  2  X   -0.000336   0.013211   0.016037   0.021300   0.010682
   19  H  2  Y    0.000854  -0.034788   0.021745  -0.022360  -0.019070
   20  H  2  Z    0.000490  -0.012719   0.009989  -0.020650   0.018630
   21  H  3  S   -0.002064   0.208820  -0.255811  -0.359730   0.121038
   22  H  3  S    0.000601   0.003070  -0.027981  -0.051715   0.026839
   23  H  3  X   -0.000645   0.024000  -0.004257  -0.031102   0.010462
   24  H  3  Y   -0.000868   0.031971  -0.031238  -0.017286   0.013289
   25  H  3  Z    0.000400  -0.004905   0.007803   0.011574   0.019837
   26  H  4  S   -0.001852   0.209136   0.429351   0.016444   0.123636
   27  H  4  S    0.000436   0.004684   0.079894  -0.018141   0.029385
   28  H  4  X    0.000911  -0.035739  -0.036797  -0.009756  -0.018636
   29  H  4  Y    0.000233  -0.010558  -0.013162   0.020954  -0.003258
   30  H  4  Z    0.000441  -0.007889  -0.016959  -0.000444   0.019825

                      6          7          8          9         10
                    0.0000     0.0000     0.0000     0.1479     0.1990
                     A          A          A          A          A   
    1  N  1  S    0.245085  -0.021760  -0.045915  -0.145392  -0.004808
    2  N  1  S    0.812523  -0.052243  -0.124805  -0.222596  -0.015234
    3  N  1  S    0.172445   0.008580   0.069217   1.462539  -0.042620
    4  N  1  X    0.001344   0.940748  -0.016017   0.006599  -0.092832
    5  N  1  Y    0.073697   0.123420   0.926303  -0.033185  -0.079721
    6  N  1  Z    0.686800  -0.025628   0.049598  -0.214341  -0.020918
    7  N  1  X   -0.003656   0.058847   0.036873   0.005733   0.460585
    8  N  1  Y    0.049212   0.042166   0.070701   0.149070   0.603293
    9  N  1  Z   -0.084133   0.013056   0.007401   0.489964   0.067571
   10  N  1 XX    0.005362   0.005242   0.032312   0.016845   0.004907
   11  N  1 YY   -0.000991  -0.003076  -0.026405   0.029220  -0.018700
   12  N  1 ZZ   -0.004371  -0.002166  -0.005906  -0.046065   0.013793
   13  N  1 XY   -0.037696  -0.031157   0.011182   0.061496  -0.061669
   14  N  1 XZ    0.000564  -0.039403  -0.012375  -0.001595   0.060686
   15  N  1 YZ   -0.031913  -0.014778  -0.036643   0.046246   0.090302
   16  H  2  S   -0.486230   0.315988  -0.604943   0.212721   0.260636
   17  H  2  S   -0.056359   0.081128  -0.133322  -0.754648  -0.942423
   18  H  2  X   -0.035939  -0.018554  -0.034067   0.009357  -0.029266
   19  H  2  Y    0.057240  -0.036005   0.031412   0.100766   0.027463
   20  H  2  Z   -0.011005  -0.013048   0.005875   0.053568   0.053155
   21  H  3  S   -0.498328   0.400571   0.568738   0.319867  -0.530277
   22  H  3  S   -0.053577   0.075370   0.107987  -0.830886   1.889130
   23  H  3  X   -0.040095   0.016418   0.037691  -0.061262   0.068748
   24  H  3  Y   -0.053853   0.039164   0.035925  -0.085806   0.077191
   25  H  3  Z   -0.010163   0.012899   0.004068  -0.005912  -0.078349
   26  H  4  S   -0.475206  -0.661556   0.071632   0.316852   0.204455
   27  H  4  S   -0.057533  -0.150628   0.022801  -0.919238  -0.815655
   28  H  4  X    0.065192   0.055339   0.001654   0.074264   0.045197
   29  H  4  Y    0.006818   0.012948  -0.027907   0.062907   0.003260
   30  H  4  Z   -0.015890  -0.001268  -0.016613   0.033495   0.069105

                     11         12         13         14         15
                    0.2131     0.5393     0.5808     0.6368     0.8010
                     A          A          A          A          A   
    1  N  1  S    0.021498   0.061592  -0.004994   0.064373  -0.279851
    2  N  1  S    0.041871   0.056006  -0.100093   0.234649  -0.639741
    3  N  1  S   -0.147837  -0.547226  -0.384038   0.085076   1.142888
    4  N  1  X   -0.036103   0.253758  -0.449603  -0.235125  -0.060360
    5  N  1  Y   -0.023323  -0.485614   0.080911  -0.273536  -0.049107
    6  N  1  Z    0.033445   0.414882   0.379159  -0.398312   0.217589
    7  N  1  X    0.473037  -0.475371   1.429473   1.027321   0.310451
    8  N  1  Y   -0.148299   1.259523  -0.153693   1.378663   0.238736
    9  N  1  Z   -0.095727  -0.580182  -0.674021   0.767055  -0.063052
   10  N  1 XX    0.067264  -0.009587  -0.021667  -0.029665   0.122873
   11  N  1 YY   -0.064526   0.028904   0.053246  -0.002019  -0.070451
   12  N  1 ZZ   -0.002738  -0.019317  -0.031579   0.031685  -0.052423
   13  N  1 XY    0.052476   0.001614   0.041175  -0.013660  -0.085577
   14  N  1 XZ    0.069780  -0.012382   0.006477  -0.022201  -0.078835
   15  N  1 YZ   -0.035090   0.030698   0.006245  -0.044473  -0.041973
   16  H  2  S   -0.552961  -0.131066   0.540136  -0.594215   0.043451
   17  H  2  S    1.880439  -0.793136   0.558922  -0.243574  -0.195296
   18  H  2  X    0.028135   0.036444   0.105157  -0.068716  -0.474185
   19  H  2  Y   -0.078492   0.117151  -0.013259   0.073114  -0.018751
   20  H  2  Z   -0.043544   0.045784  -0.085925  -0.008125  -0.035142
   21  H  3  S    0.030707   0.522045   0.581736   0.326055   0.021433
   22  H  3  S    0.012298   0.523174   0.207873   0.786635  -0.131887
   23  H  3  X   -0.021351   0.037693   0.115062   0.144760  -0.081809
   24  H  3  Y    0.042008   0.066288  -0.025456   0.123868   0.127793
   25  H  3  Z   -0.013423  -0.069386  -0.042574   0.102511   0.221972
   26  H  4  S    0.539037   0.307526  -0.207811  -0.732014  -0.034639
   27  H  4  S   -1.774275   0.453379  -0.761480  -0.307805  -0.351471
   28  H  4  X    0.066663  -0.055405   0.049605   0.134981   0.347048
   29  H  4  Y    0.014708   0.049870   0.161448   0.053113  -0.288801
   30  H  4  Z    0.032960  -0.079809   0.005991  -0.037506  -0.168588

                     16         17         18         19         20
                    0.9719     1.0251     1.2984     1.4259     1.4999
                     A          A          A          A          A   
    1  N  1  S   -0.502092  -0.167461   0.036059  -0.381402  -0.424499
    2  N  1  S   -1.064075  -0.352625   0.074291  -0.798480  -0.870283
    3  N  1  S    2.134100   0.848965  -0.130195   1.401398   1.711330
    4  N  1  X   -0.007852   0.062251  -0.200428   0.004937  -0.070645
    5  N  1  Y   -0.068103  -0.030878  -0.072243   0.009256   0.018019
    6  N  1  Z    0.150561   0.051393   0.011970  -0.029391  -0.012682
    7  N  1  X    0.009074  -0.374992   0.719400  -0.216243   0.089481
    8  N  1  Y    0.310458   0.208831   0.484734  -0.611872   0.692034
    9  N  1  Z   -0.064657   0.249714  -0.011208   0.544187   0.789034
   10  N  1 XX   -0.132194  -0.096828   0.048330   0.123968   0.041440
   11  N  1 YY   -0.093875   0.163076  -0.060736   0.082133   0.073106
   12  N  1 ZZ    0.226069  -0.066248   0.012406  -0.206101  -0.114547
   13  N  1 XY    0.048422  -0.098236  -0.034018  -0.020534   0.045832
   14  N  1 XZ    0.012336   0.204601   0.050337  -0.002387   0.061854
   15  N  1 YZ   -0.025494  -0.161228  -0.012795   0.024182  -0.076702
   16  H  2  S   -0.425277  -0.246351   0.018288  -0.214392  -0.654135
   17  H  2  S   -0.296990  -0.214952  -0.021926  -0.046528  -0.332975
   18  H  2  X    0.165149  -0.020581   0.145816   0.338194  -0.138627
   19  H  2  Y   -0.075235   0.346712   0.188388   0.349361  -0.056659
   20  H  2  Z    0.341738  -0.446368   0.005615  -0.448001   0.309136
   21  H  3  S   -0.217432  -0.163564   0.415002  -0.633224  -0.241444
   22  H  3  S   -0.283445  -0.142534   0.201523  -0.281480  -0.005688
   23  H  3  X    0.012071   0.321211  -0.526544  -0.318850   0.134600
   24  H  3  Y    0.007916  -0.366956   0.183154   0.409735  -0.289879
   25  H  3  Z    0.282945   0.027928  -0.314321   0.056517  -0.795119
   26  H  4  S   -0.364690  -0.009107  -0.385689  -0.247239  -0.596224
   27  H  4  S   -0.264588   0.004124  -0.120511  -0.034277  -0.076969
   28  H  4  X   -0.102100   0.028492  -0.143061  -0.109761  -0.010844
   29  H  4  Y    0.097934  -0.185032  -0.614530   0.329358  -0.051322
   30  H  4  Z    0.358979   0.265585   0.367459  -0.340646  -0.367565

                     21         22         23         24         25
                    1.6163     1.8663     1.9057     1.9949     2.1385
                     A          A          A          A          A   
    1  N  1  S   -0.109659   0.044882  -0.046017   0.120849  -0.078481
    2  N  1  S   -0.223702   0.092204  -0.063007   0.365796  -0.155212
    3  N  1  S    0.398277  -0.324844   0.452059   1.415653   0.336740
    4  N  1  X    0.156674   0.187430   0.433897  -0.072464  -0.065469
    5  N  1  Y   -0.189539   0.502282   0.160624   0.108391  -0.141238
    6  N  1  Z   -0.025045   0.045929   0.050209   0.331786  -0.005840
    7  N  1  X    0.718508   0.239008  -0.083058   0.118878  -0.035970
    8  N  1  Y    0.174210  -0.026011   0.102851  -0.159560  -0.065325
    9  N  1  Z    0.168782  -0.103670   0.202573   0.547829   0.421019
   10  N  1 XX    0.025405  -0.087328  -0.259626  -0.059594  -0.556641
   11  N  1 YY    0.085944  -0.037982   0.205251  -0.129883  -0.226198
   12  N  1 ZZ   -0.111349   0.125310   0.054375   0.189478   0.782839
   13  N  1 XY   -0.050220   0.279581   0.020220  -0.167456   0.538132
   14  N  1 XZ   -0.184480  -0.079174  -0.117667   0.148197   0.024161
   15  N  1 YZ    0.087800  -0.125443  -0.034933  -0.189707   0.374334
   16  H  2  S   -0.207689   0.167666  -0.133390  -0.304366  -0.110607
   17  H  2  S    0.243476  -0.328207   0.177664  -0.207106   0.066439
   18  H  2  X   -0.422215  -0.522367   0.544657  -0.202163  -0.229836
   19  H  2  Y   -0.476273   0.516598  -0.103303   0.651969   0.066817
   20  H  2  Z   -0.442697   0.128234   0.032695   0.266136  -0.595458
   21  H  3  S    0.140545   0.059418  -0.113093  -0.363632  -0.183681
   22  H  3  S    0.025909   0.425312   0.097265  -0.316836  -0.161387
   23  H  3  X   -0.293630   0.367364   0.056221  -0.684636  -0.181540
   24  H  3  Y    0.018383   0.656107   0.271945  -0.480729  -0.198950
   25  H  3  Z   -0.318907  -0.312184  -0.306202  -0.097508  -0.088554
   26  H  4  S   -0.277969   0.038438  -0.083236  -0.345324  -0.096250
   27  H  4  S   -0.367200   0.023981  -0.474561  -0.265648   0.033294
   28  H  4  X    0.012898  -0.114484   1.018801   0.486124   0.088901
   29  H  4  Y    0.430960   0.151560  -0.149419   0.637226  -0.198596
   30  H  4  Z    0.571520   0.343086   0.139822   0.010728  -0.388869

                     26         27         28         29
                    2.3224     2.5893     2.7090     2.9758
                     A          A          A          A   
    1  N  1  S    0.058938  -0.054455  -0.058301   0.018083
    2  N  1  S    0.084925   0.040633  -0.121055   0.090756
    3  N  1  S   -0.663910   2.159600  -0.103208   0.639551
    4  N  1  X   -0.015242  -0.118378   0.491002   0.201190
    5  N  1  Y   -0.069531   0.182738   0.337165  -0.473696
    6  N  1  Z   -0.072150   0.323715  -0.029791   0.062526
    7  N  1  X    0.392222  -0.115923   1.155800   0.309188
    8  N  1  Y   -0.215913   0.677063   0.846359  -0.768766
    9  N  1  Z   -0.320434   0.517102   0.050934  -0.002970
   10  N  1 XX   -0.634878   0.013440   0.496227   0.800642
   11  N  1 YY    0.740534   0.671992  -0.601326  -0.415547
   12  N  1 ZZ   -0.105656  -0.685433   0.105099  -0.385095
   13  N  1 XY    0.087922   0.447375  -0.294314   1.184254
   14  N  1 XZ    0.707632  -0.071374   0.970881   0.354717
   15  N  1 YZ   -0.273392   0.835783   0.670627  -0.617110
   16  H  2  S    0.339712  -1.194429  -0.056758   1.007798
   17  H  2  S    0.204334  -0.453878   0.014471   0.349236
   18  H  2  X   -0.342780  -0.381716  -0.092212   0.253368
   19  H  2  Y   -0.492621   0.678554  -0.096611  -0.750445
   20  H  2  Z    0.172012   0.533206  -0.068775  -0.437581
   21  H  3  S    0.187352  -0.556659   1.191724  -0.918687
   22  H  3  S    0.042703  -0.108169   0.470298  -0.276671
   23  H  3  X   -0.423877  -0.187709   0.624464  -0.384547
   24  H  3  Y    0.468040  -0.375349   0.655175  -0.588415
   25  H  3  Z    0.208882   0.450935  -0.179447   0.374299
   26  H  4  S    0.097285  -0.636893  -1.023893  -0.824444
   27  H  4  S   -0.013309  -0.098519  -0.419906  -0.268586
   28  H  4  X   -0.082269   0.364465   0.697129   0.706053
   29  H  4  Y   -0.008081  -0.152031   0.319844   0.196265
   30  H  4  Z   -0.205913   0.295597   0.216676   0.440199
 .....DONE WITH MCSCF ITERATIONS.....
 CPU     0: STEP CPU TIME=     8.86 TOTAL CPU TIME=          9.8 (      0.2 MIN)
 TOTAL WALL CLOCK TIME=          9.8 SECONDS, CPU UTILIZATION IS    99.90%

     ----------------------------------------------------------------
     PROPERTY VALUES FOR THE MCSCF SELF-CONSISTENT FIELD WAVEFUNCTION
     ----------------------------------------------------------------

          -----------------
          ENERGY COMPONENTS
          -----------------

         WAVEFUNCTION NORMALIZATION =       1.0000000000

                ONE ELECTRON ENERGY =     -94.5808090458
                TWO ELECTRON ENERGY =      27.2599681645
           NUCLEAR REPULSION ENERGY =      11.5716100328
                                      ------------------
                       TOTAL ENERGY =     -55.7492308485

 ELECTRON-ELECTRON POTENTIAL ENERGY =      27.2599681645
  NUCLEUS-ELECTRON POTENTIAL ENERGY =    -150.4406907628
   NUCLEUS-NUCLEUS POTENTIAL ENERGY =      11.5716100328
                                      ------------------
             TOTAL POTENTIAL ENERGY =    -111.6091125655
               TOTAL KINETIC ENERGY =      55.8598817170
                 VIRIAL RATIO (V/T) =       1.9980191353

          ---------------------------------------
          MULLIKEN AND LOWDIN POPULATION ANALYSES
          ---------------------------------------

     ATOMIC MULLIKEN POPULATION IN EACH MOLECULAR ORBITAL

                      1          2          3          4          5

                  2.000000   1.983569   1.656432   1.650497   1.645083

    1             2.000930   1.316833   1.533040   0.916246   1.077939
    2            -0.000319   0.261023   0.026299   0.107970   0.332434
    3            -0.000341   0.197189   0.077609   0.397705   0.009957
    4            -0.000270   0.208524   0.019484   0.228577   0.224753

                      6          7          8

                  0.026077   0.019898   0.018443

    1             0.012514   0.010712   0.009771
    2             0.005150   0.005583   0.000033
    3             0.001370   0.000273   0.007697
    4             0.007042   0.003330   0.000941
 WARNING! MCSCF POPULATIONS SHOWN ABOVE ARE FOR THE NATURAL ORBITALS.
 IGNORE THE ABOVE DATA FOR MCSCF FUNCTIONS WHICH ARE NOT OF -FORS- TYPE.
 THE FOLLOWING POPULATIONS ARE CORRECT FOR ANY MCSCF WAVEFUNCTION.

               ----- POPULATIONS IN EACH AO -----
                             MULLIKEN      LOWDIN
              1  N  1  S      2.00262     1.89654
              2  N  1  S      0.82493     0.57630
              3  N  1  S      0.64216     0.39501
              4  N  1  X      0.69176     0.61902
              5  N  1  Y      0.68830     0.61464
              6  N  1  Z      0.88173     0.82497
              7  N  1  X      0.31365     0.40659
              8  N  1  Y      0.29487     0.39702
              9  N  1  Z      0.51978     0.55652
             10  N  1 XX      0.00055     0.16808
             11  N  1 YY      0.00204     0.16805
             12  N  1 ZZ      0.00330     0.14213
             13  N  1 XY      0.00566     0.01121
             14  N  1 XZ      0.00663     0.01005
             15  N  1 YZ      0.00000     0.01307
             16  H  2  S      0.63251     0.48899
             17  H  2  S      0.04638     0.14281
             18  H  2  X      0.01289     0.02835
             19  H  2  Y      0.02887     0.04866
             20  H  2  Z      0.01752     0.04178
             21  H  3  S      0.60502     0.47000
             22  H  3  S      0.02879     0.14279
             23  H  3  X      0.01905     0.03741
             24  H  3  Y      0.02603     0.04491
             25  H  3  Z      0.01256     0.03472
             26  H  4  S      0.59561     0.46156
             27  H  4  S      0.04012     0.14467
             28  H  4  X      0.03168     0.05344
             29  H  4  Y      0.01097     0.02567
             30  H  4  Z      0.01401     0.03504

          ----- MULLIKEN ATOMIC OVERLAP POPULATIONS -----
          (OFF-DIAGONAL ELEMENTS NEED TO BE MULTIPLIED BY 2)

             1           2           3           4

    1    5.9647383
    2    0.3006325   0.4508702
    3    0.3169994  -0.0051601   0.3855942
    4    0.2956157  -0.0081691  -0.0059753   0.4109110

          TOTAL MULLIKEN AND LOWDIN ATOMIC POPULATIONS
       ATOM         MULL.POP.    CHARGE          LOW.POP.     CHARGE
    1 N             6.877986    0.122014         6.799190    0.200810
    2 H             0.738174    0.261826         0.750592    0.249408
    3 H             0.691458    0.308542         0.729839    0.270161
    4 H             0.692382    0.307618         0.720378    0.279622

          MULLIKEN SPHERICAL HARMONIC POPULATIONS
       ATOM           S       P       D      F      G      H      I    TOTAL
    1 N             3.47    3.39    0.02   0.00   0.00   0.00   0.00    6.88
    2 H             0.68    0.06    0.00   0.00   0.00   0.00   0.00    0.74
    3 H             0.63    0.06    0.00   0.00   0.00   0.00   0.00    0.69
    4 H             0.64    0.06    0.00   0.00   0.00   0.00   0.00    0.69

          ---------------------
          ELECTROSTATIC MOMENTS
          ---------------------

 POINT   1           X           Y           Z (BOHR)    CHARGE
                -0.000000    0.000003   -0.177185        1.00 (A.U.)
         DX          DY          DZ         /D/  (DEBYE)
     0.006635    0.433012    2.151522    2.194673
 ...... END OF PROPERTY EVALUATION ......
 CPU     0: STEP CPU TIME=     0.00 TOTAL CPU TIME=          9.8 (      0.2 MIN)
 TOTAL WALL CLOCK TIME=          9.9 SECONDS, CPU UTILIZATION IS    99.80%

     -------------------------------------------------
     GMC-PT/GMC-QDPT or general MCSCF input parameters
     -------------------------------------------------
 # of frozen core orbs. =         0 ->         0
 # of doubly occ. orbs. =         1
 # of active      orbs. =         7
 # of virtual     orbs. =        21
 # of active electrons  =         7
 # of states in CI      =         3
 Highest state in CI    =         3
 kstate =  1 1 1
 avecoe =  0.333 0.333 0.333
 State symmetry           = A           
 Assigned symmetry number = 1

 <<<Act. MO sym.: 1111111

 <<<Division of 1-ext.:  0
 <<<Division of 2-ext.:  0

     ------------------------
     Orbital canonicalization
     ------------------------

 MOs are canonicalized for core, virtual, and invariant-active orbital spaces.
 This is a part of the GMC-QDPT calculation.
 SCHWARZ INEQUALITY OVERHEAD:       465 INTEGRALS, T=        0.00
 DIRECT TRANSFORMATION SKIPS AO INTEGRAL STORAGE ON DISK.

 Averaged energy =     -55.749230848

 State #    1  Energy =     -55.889638556  S =  0.500
 State #    2  Energy =     -55.738025774  S =  0.500
 State #    3  Energy =     -55.620028216  S =  0.500

 Orbital energies for filled orbital space
  -15.986212
 Orbital energies for active orbital space
   -1.525830  -0.865901  -0.989679  -0.752192   0.380311
    0.418525   0.261566
 Orbital energies for external orbital space
    0.147922   0.199042   0.213139   0.539340   0.580760
    0.636776   0.801016   0.971929   1.025077   1.298369
    1.425927   1.499873   1.616309   1.866267   1.905700
    1.994907   2.138460   2.322422   2.589301   2.708987
    2.975799

 Zero values mean non-canonical orbitals.
 ... done with orbital canonicalization ...
 CPU     0: STEP CPU TIME=     0.60 TOTAL CPU TIME=         10.4 (      0.2 MIN)
 TOTAL WALL CLOCK TIME=         10.4 SECONDS, CPU UTILIZATION IS    99.90%

     --------------------------------------------
     PARTIAL TWO ELECTRON INTEGRAL TRANSFORMATION
     --------------------------------------------

 NUMBER OF CORE MOLECULAR ORBITALS     =    0
 NUMBER OF OCCUPIED MOLECULAR ORBITALS =    8
 TOTAL NUMBER OF MOLECULAR ORBITALS    =   29
 TOTAL NUMBER OF ATOMIC ORBITALS       =   30
 THRESHOLD FOR KEEPING TRANSFORMED 2E- INTEGRALS = 1.000E-09
 AO INTEGRALS WILL BE CALCULATED IN DIRECT MODE...
 DIRECT TRANSFORMATION SKIPS AO INTEGRAL STORAGE ON DISK.
 SCHWARZ INEQUALITY OVERHEAD:       465 INTEGRALS, T=        0.01

 PLAN A: REQUIREMENTS FOR FULLY IN-MEMORY TRANSFORMATION:
 # OF WORDS AVAILABLE =            100000000
 # OF WORDS NEEDED    =               221798

 PARALLEL ONLY WORKS WITH THE SEGMENTED ALGORITHM.
 ADJUSTING MEMORY TO USE SEGMENTED ALGORITHM.


 PLAN B: REQUIREMENTS FOR THE SEGMENTED TRANSFORMATION:
       MINIMUM=         124148 WORDS FOR 1 MOLECULAR ORBITAL PER PASS
       MAXIMUM=         221798 WORDS FOR ALL MOLECULAR ORBITALS IN 1 PASS
              (          13950 EXTRA WORDS INCLUDES 1 EXTRA ORBITAL/PASS)
 THIS RUN USES=         221798 WORDS,
 DISTRIBUTING   1 PASSES EACH CONTAINING     8 ORBITALS OVER   1 PROCESSORS.

 CHOOSING SEGMENTED PARTIAL TRANSFORMATION...
 DIRECT TRANSFORMATION SKIPS AO INTEGRAL STORAGE ON DISK.
 PASS #   1 TOOK        0.04 SECONDS.
 TOTAL NUMBER OF TRANSFORMED 2E- INTEGRALS KEPT =        29226
 ... END OF INTEGRAL TRANSFORMATION ...
 CPU     0: STEP CPU TIME=     0.05 TOTAL CPU TIME=         10.5 (      0.2 MIN)
 TOTAL WALL CLOCK TIME=         10.5 SECONDS, CPU UTILIZATION IS    99.90%

     --------     ------------------------------------------
     GMC-QDPT     Program written by H.Nakano (Kyushu Univ.)
     --------     ------------------------------------------

 *** Reference space

 Reference type: ORMAS (= Occupation restricted multiple active space)
 # of orbitals          =  7
 # of minimum electrons =  7
 # of maximum electrons =  7
 State symmetry    =    1 (input)
 2*Sz              =    1 (input)
 Spin multiplicity =    2 (input)
 Dimension of reference space =      1225  (from      3432 walks)

 Dimension of reference space =      1225  (from      1225 walks)

 <<<Ionized spaces for Ref-CI:
      0:         1225 /   -1-0:         1960 /  0-1-0:         2891

 ***                    ***
 *** Reference space CI ***
 ***                    ***

 Converged after   25 iterations

 Reference wavefunctions:

 State #    1  Energy =     -55.889638556  S =  0.500

      Det      Coef    Occupancy (Ignoring core)
      ---      ----    --------- --------- -----
        1    0.978242  11110001110000
      357    0.062261  11010101100010
      753    0.072844  10110011010001

 State #    2  Energy =     -55.738025774  S =  0.500

      Det      Coef    Occupancy (Ignoring core)
      ---      ----    --------- --------- -----
       71    0.983205  11110001011000
      462   -0.062210  11010101001010

 State #    3  Energy =     -55.620028216  S =  0.500

      Det      Coef    Occupancy (Ignoring core)
      ---      ----    --------- --------- -----
       36   -0.980604  11110001101000
      823   -0.073236  10110011001001

 Davidson method: CPU/Wall time =           0.39 /           0.38 sec.

 Oscillator strength (invalid if E(1)/=E(GS)):
 -----------------------------------------
   State                        f
 -----------------------------------------
     2     F(REF-CI)=        0.0007053021
     3     F(REF-CI)=        0.0015892328
 -----------------------------------------

 Dipole moment matrix elements, x, y, z, in A.U.

 Dimension of ionized spaces for PT:
 (N-2) space:         1715 /  (N-1) space:         2842 /  N space:         2891
 (N+1) space:         2842 /  (N+2) space:         1715

 <<<Ionized spaces for internal:
         0:         1225 /      -1-0:         1960 /     0-1-0:         2891
  -1-0-1-0:         2842 / 0-1-0-1-0:         3381

 Diagonal elements of averaged one-particle density matrix:
       2       3       4       5       6       7       8
  0.9939  0.9870  0.9889  0.9929  0.0111  0.0109  0.0153
  0.9895  0.6581  0.6615  0.6633  0.0090  0.0077  0.0108

 Orbital energies:
 -------- Doubly-occupied orbitals (highest several orbs.) -------
             1
 -1.598621D+01
 -------- Active orbitals ----------------------------------------
             2            3            4            5            6
 -1.525830D+00-8.659009D-01-9.896790D-01-7.521916D-01 3.803106D-01
             7            8
  4.185251D-01 2.615662D-01
 -------- External orbitals (lowest several orbs.) ---------------
             9           10           11           12           13
  1.479217D-01 1.990421D-01 2.131390D-01 5.393397D-01 5.807605D-01
            14           15           16           17           18
  6.367761D-01 8.010159D-01 9.719290D-01 1.025077D+00 1.298369D+00

 *** Quasi-degeneracy checking

 === Det (|Ci| > 1.0D-01 and dE < 5.0D-03)

 # of small denominators (single excitations)
 State       dEmin  dE < 5.0D-03  dE < 5.0D-04  dE < 5.0D-05  dE < 5.0D-06
 ----- ----------- ------------- ------------- ------------- -------------
     1    5.00D-03             0             0             0             0
     2    5.00D-03             0             0             0             0
     3    5.00D-03             0             0             0             0

 # of small denominators (double excitations)
 State       dEmin  dE < 5.0D-03  dE < 5.0D-04  dE < 5.0D-05  dE < 5.0D-06
 ----- ----------- ------------- ------------- ------------- -------------
     1    5.00D-03             0             0             0             0
     2    5.00D-03             0             0             0             0
     3    5.00D-03             0             0             0             0

 *** Zeroth-Order Setup (Granovsky's zeroth-order vectors)
 Zeroth-order effective Hamiltonian
  (= Sum_i e(i)*<I|a+(i)a(i)|J> ):
                   1            2            3
     1 -7.412920D+00
     2 -7.230426D-03-7.321153D+00
     3  2.041756D-03-1.865912D-03-7.189194D+00

 Zeroth-order vectors:
 State #    1
       MC st            1           2           3
       Coeff    9.969D-01   7.788D-02  -8.427D-03
 State #    2
       MC st            2           1           3
       Coeff   -9.969D-01   7.775D-02  -1.536D-02
 State #    3
       MC st            3           2           1
       Coeff    9.998D-01  -1.466D-02   9.597D-03

 *** GMC-QDPT computation

 (Integral reading:  CPU/Wall time =           0.00 /           0.00 sec.)

 One-external:
   0 -ionized terms: CPU/Wall time =           0.03 /           0.03 sec.
 (-1)-ionized terms: CPU/Wall time =           0.09 /           0.09 sec.
 (+1)-ionized terms: CPU/Wall time =           0.02 /           0.02 sec.
 (+1)-ionized terms: CPU/Wall time =           0.01 /           0.01 sec.
 (+2)-ionized terms: CPU/Wall time =           0.00 /           0.00 sec.

 Internal:
 # of macro loops for internal contribution =         1 (input)
 Loop:    1
 Dimension of internal CISD space     =         0  (after screening)
 Space construction: CPU/Wall time =           0.01 /           0.02 sec.
 Internal terms:     CPU/Wall time =           0.00 /           0.00 sec.

 Two-external:
   0 -ionized terms: CPU/Wall time =           0.07 /           0.06 sec.
 (-1)-ionized terms: CPU/Wall time =           0.99 /           0.99 sec.
 (-2)-ionized terms: CPU/Wall time =           0.17 /           0.17 sec.

 Total time:         CPU/Wall time =           1.39 /           1.39 sec.

 ***                  ***
 *** GMC-QDPT Results ***
 ***                  ***

 Diagonal elements of effective Hamiltonian:
 Heff(  1) =   -55.98672398
 Heff(  2) =   -55.84747755
 Heff(  3) =   -55.73114647

 Off-diagonal elements of effective Hamiltonian:
                   1            2
     2 -1.044061D-02
     3 -2.086135D-03-1.775709D-03

 ******** GMC-QDPT energies ********
 ----------------------------------------------------------------------------
   State                        1st order                           2nd order
 ----------------------------------------------------------------------------
     1     E(REF-CI)=      -55.8896385556   E(GMC-QDPT2)=      -55.9875215487
     2     E(REF-CI)=      -55.7380257741   E(GMC-QDPT2)=      -55.8467216550
     3     E(REF-CI)=      -55.6200282158   E(GMC-QDPT2)=      -55.7311047964
 ----------------------------------------------------------------------------

 Excitation energies (invalid if E(1)/=E(GS)):
 ----------------------------------------------------------------------------
   State                        1st order                           2nd order
 ----------------------------------------------------------------------------

     TZ Sorted GMC-PT ENERGIES:
         1      -55.9875215487
         2      -55.8467216550
         3      -55.7311047964
     2     E(REF-CI)=        4.1255960 eV   E(GMC-QDPT2)=        3.8313622 eV
     3     E(REF-CI)=        7.3364748 eV   E(GMC-QDPT2)=        6.9774588 eV
 ----------------------------------------------------------------------------

 Main characters of perturbed GMC-QDPT states:

 State #    1  Energy =     -55.987521549  S =  0.500

      Det      Coef    Occupancy (Ignoring core)
      ---      ----    --------- --------- -----
        1   -0.978361  11110001110000
      357   -0.062252  11010101100010
      753   -0.072813  10110011010001

 State #    2  Energy =     -55.846721655  S =  0.500

      Det      Coef    Occupancy (Ignoring core)
      ---      ----    --------- --------- -----
       71    0.983321  11110001011000
      462   -0.062213  11010101001010

 State #    3  Energy =     -55.731104796  S =  0.500

      Det      Coef    Occupancy (Ignoring core)
      ---      ----    --------- --------- -----
       36   -0.980613  11110001101000
      823   -0.073240  10110011001001

 <<<Max |V/de| = 2.185D-02  Thresh = 1.000D+00

 Oscillator strength (invalid if E(1)/=E(GS)):
 ----------------------------------------------------------------------------
   State                        1st order                           2nd order
 ----------------------------------------------------------------------------
     2     F(REF-CI)=        0.0007053021     F(GMC-PT2)=        0.0006802440
     3     F(REF-CI)=        0.0015892328     F(GMC-PT2)=        0.0015407336
 ----------------------------------------------------------------------------

 Dipole moment matrix elements, x, y, z, in A.U.
States    1    1        0.0104600585        0.2123346287        0.7497453317
States    1    2       -0.0170775701        0.0289412878        0.0782156103
States    1    3        0.0587938733        0.0565806028       -0.0485281258
States    2    1       -0.0170775701        0.0289412878        0.0782156103
States    2    2       -0.1028223797        0.0479437716        0.2672235106
States    2    3       -0.2140074346       -0.0078060849        0.0015857931
States    3    1        0.0587938733        0.0565806028       -0.0485281258
States    3    2       -0.2140074346       -0.0078060849        0.0015857931
States    3    3        0.0845452182        0.4851805346        0.2557992416

 Oscillator strength (valid only when positive): 
 ----------------------------------------------------------------------------
  States                        1st order                           2nd order
 ----------------------------------------------------------------------------
  1  1     F(REF-CI)=        0.0000000000     F(GMC-PT2)=        0.0000000000
  1  2     F(REF-CI)=       -0.0007053021     F(GMC-PT2)=       -0.0006802440
  1  3     F(REF-CI)=       -0.0015892328     F(GMC-PT2)=       -0.0015407336
  2  1     F(REF-CI)=        0.0007053021     F(GMC-PT2)=        0.0006802440
  2  2     F(REF-CI)=        0.0000000000     F(GMC-PT2)=        0.0000000000
  2  3     F(REF-CI)=       -0.0036200230     F(GMC-PT2)=       -0.0035349956
  3  1     F(REF-CI)=        0.0015892328     F(GMC-PT2)=        0.0015407336
  3  2     F(REF-CI)=        0.0036200230     F(GMC-PT2)=        0.0035349956
  3  3     F(REF-CI)=        0.0000000000     F(GMC-PT2)=        0.0000000000
 CPU     0: STEP CPU TIME=     1.84 TOTAL CPU TIME=         12.3 (      0.2 MIN)
 TOTAL WALL CLOCK TIME=         12.3 SECONDS, CPU UTILIZATION IS    99.92%

     !!! DIABATIZATION FOR REF CI STATES !!!

 *******************************************************
          $DMO GROUP FOUND IN THE INPUT.
        DIABATIZATION OF ADIABATIC STATES BEGINS.
     PROGRAMMED BY TAO ZENG (CARLETON UNIVERSITY).
               Email: toby.zeng@carleton.ca
     See T. Zeng, J. Chem. Phys. 2017, 146, 144103
 *******************************************************

 *************************************************************************
     STEP 1: TRANSFORMATION OF ADIABATIC STATES TO THE DMO REPRESENTATION
         See Atchity and Ruedenberg, J. Chem. Phys. 1999, 111, 2910
 *************************************************************************

Read in Diabatic Molecualr Orbitals:

                      1          2          3          4          5

    1  N  1  S    0.008609   0.000000   0.000000  -0.013219   0.279491
    2  N  1  S    0.442914  -0.000000   0.000000  -0.184329   0.867803
    3  N  1  S    0.276913   0.000000  -0.000000  -0.288315   0.144236
    4  N  1  X   -0.000000   0.493155  -0.024636  -0.000000  -0.000000
    5  N  1  Y    0.000000   0.024636   0.493155  -0.000000   0.000000
    6  N  1  Z    0.090197   0.000000   0.000000   0.593421   0.705309
    7  N  1  X   -0.000000   0.210628  -0.010522   0.000000   0.000000
    8  N  1  Y    0.000000   0.010522   0.210628  -0.000000  -0.000000
    9  N  1  Z   -0.004381   0.000000   0.000000   0.381592  -0.106092
   10  N  1 XX   -0.000457   0.010719  -0.000535  -0.012387   0.006153
   11  N  1 YY   -0.000457  -0.010719   0.000535  -0.012387   0.006153
   12  N  1 ZZ    0.000914  -0.000000   0.000000   0.024773  -0.012306
   13  N  1 XY    0.000000  -0.000618  -0.012377  -0.000000   0.000000
   14  N  1 XZ   -0.000000   0.026529  -0.001325  -0.000000   0.000000
   15  N  1 YZ    0.000000   0.001325   0.026529  -0.000000   0.000000
   16  H  2  S    0.194462  -0.176074   0.343485   0.112865  -0.523343
   17  H  2  S    0.003574  -0.023812   0.046452   0.024014  -0.054445
   18  H  2  X    0.018760   0.009101   0.022834   0.009336  -0.039151
   19  H  2  Y   -0.032493   0.022287  -0.020044  -0.016171   0.067811
   20  H  2  Z   -0.009251   0.008464  -0.016511   0.018769  -0.010566
   21  H  3  S    0.194462  -0.209430  -0.324227   0.112865  -0.523343
   22  H  3  S    0.003574  -0.028322  -0.043847   0.024014  -0.054445
   23  H  3  X    0.018760   0.006781  -0.023627   0.009336  -0.039151
   24  H  3  Y    0.032493  -0.024174  -0.017723   0.016171  -0.067811
   25  H  3  Z   -0.009251   0.010067   0.015585   0.018769  -0.010566
   26  H  4  S    0.194462   0.385503  -0.019258   0.112865  -0.523343
   27  H  4  S    0.003574   0.052134  -0.002604   0.024014  -0.054445
   28  H  4  X   -0.037519  -0.032295   0.001613  -0.018672   0.078302
   29  H  4  Y    0.000000   0.001067   0.021353  -0.000000   0.000000
   30  H  4  Z   -0.009251  -0.018530   0.000926   0.018769  -0.010566

                      6          7

    1  N  1  S    0.000000  -0.000000
    2  N  1  S    0.000000  -0.000000
    3  N  1  S   -0.000000   0.000000
    4  N  1  X   -0.930415  -0.002083
    5  N  1  Y   -0.002083   0.930415
    6  N  1  Z   -0.000000   0.000000
    7  N  1  X   -0.046866  -0.000105
    8  N  1  Y   -0.000105   0.046866
    9  N  1  Z   -0.000000   0.000000
   10  N  1 XX    0.001538   0.000003
   11  N  1 YY   -0.001538  -0.000003
   12  N  1 ZZ   -0.000000   0.000000
   13  N  1 XY   -0.000004   0.001776
   14  N  1 XZ    0.039985   0.000090
   15  N  1 YZ    0.000090  -0.039985
   16  H  2  S   -0.362630  -0.631354
   17  H  2  S   -0.065964  -0.114846
   18  H  2  X    0.002763  -0.037520
   19  H  2  Y    0.037435   0.040736
   20  H  2  Z    0.001882   0.003276
   21  H  3  S   -0.365454   0.629724
   22  H  3  S   -0.066477   0.114549
   23  H  3  X    0.002595   0.037532
   24  H  3  Y   -0.037617   0.040567
   25  H  3  Z    0.001896  -0.003268
   26  H  4  S    0.728084   0.001630
   27  H  4  S    0.132441   0.000297
   28  H  4  X   -0.062317  -0.000140
   29  H  4  Y    0.000055  -0.024345
   30  H  4  Z   -0.003778  -0.000008

NUMBER OF SUB ACTIVE SPACES:   1
ROTATE ACTIVE MOS TO DMOS IN EACH SUB-SPACE

SPACE  1:

OVERLAP BETWEEN ORTHONORMAL AND PRE-ORTHONORMAL REF. DMOS

             1           2           3           4           5

    1    0.9920768  -0.0032513   0.0184336  -0.0027743   0.0003171
    2   -0.0032513   0.9863015   0.0470813  -0.0004902  -0.0056929
    3    0.0184336   0.0470813   0.9863056   0.0264883  -0.0502673
    4   -0.0027743  -0.0004902   0.0264883   0.9979933  -0.0037362
    5    0.0003171  -0.0056929  -0.0502673  -0.0037362   1.0501306
    6   -0.0007341  -0.0079704   0.0382465   0.0026375  -0.0240679
    7    0.0033953  -0.0422037   0.0012846  -0.0308064   0.0030133

             6           7

    1   -0.0007341   0.0033953
    2   -0.0079704  -0.0422037
    3    0.0382465   0.0012846
    4    0.0026375  -0.0308064
    5   -0.0240679   0.0030133
    6    1.0169583   0.0183541
    7    0.0183541   1.0214421
REFERENCE DMOS AFTER ORTHONORMALIZATION:

                      1          2          3          4          5

    1  N  1  S    0.008318   0.000909   0.013517  -0.012636   0.266892
    2  N  1  S    0.445036   0.004093   0.037830  -0.181713   0.827896
    3  N  1  S    0.278141   0.000719   0.009337  -0.288179   0.136813
    4  N  1  X    0.001112   0.494717  -0.014387   0.004046  -0.018985
    5  N  1  Y   -0.012261   0.040007   0.499200   0.015093   0.020712
    6  N  1  Z    0.092049   0.004518   0.015861   0.597425   0.674788
    7  N  1  X    0.001000   0.214530  -0.019307   0.001030  -0.000791
    8  N  1  Y   -0.004154   0.002360   0.214416  -0.004230   0.009931
    9  N  1  Z   -0.003070   0.000817  -0.015282   0.382758  -0.100495
   10  N  1 XX   -0.000451   0.010934  -0.000493  -0.012376   0.005892
   11  N  1 YY   -0.000564  -0.010974   0.001767  -0.012465   0.005809
   12  N  1 ZZ    0.001015   0.000040  -0.001273   0.024841  -0.011701
   13  N  1 XY    0.000230   0.000052  -0.012615   0.000387  -0.000598
   14  N  1 XZ    0.000195   0.027444  -0.004155   0.000038   0.000858
   15  N  1 YZ   -0.000382  -0.001631   0.027164  -0.001930   0.001393
   16  H  2  S    0.191123  -0.226513   0.343493   0.084473  -0.489651
   17  H  2  S    0.003007  -0.032039   0.048171   0.019307  -0.050841
   18  H  2  X    0.018710   0.006574   0.020421   0.007609  -0.036102
   19  H  2  Y   -0.032487   0.025766  -0.018815  -0.014414   0.064541
   20  H  2  Z   -0.008911   0.009567  -0.018190   0.019354  -0.010771
   21  H  3  S    0.199939  -0.174770  -0.341079   0.140816  -0.525497
   22  H  3  S    0.004018  -0.022569  -0.044610   0.028719  -0.055871
   23  H  3  X    0.019363   0.009641  -0.027170   0.011143  -0.038557
   24  H  3  Y    0.032955  -0.022420  -0.019940   0.017905  -0.066600
   25  H  3  Z   -0.009502   0.009351   0.014530   0.018293  -0.009215
   26  H  4  S    0.200103   0.399596  -0.097638   0.113041  -0.484258
   27  H  4  S    0.004207   0.054340  -0.013501   0.023965  -0.049139
   28  H  4  X   -0.038241  -0.033491   0.010530  -0.018712   0.073456
   29  H  4  Y   -0.000331  -0.000983   0.021837  -0.001315   0.001097
   30  H  4  Z   -0.009356  -0.018961   0.001162   0.018711  -0.010136

                      6          7

    1  N  1  S    0.005877  -0.001281
    2  N  1  S    0.019169  -0.009625
    3  N  1  S    0.004022  -0.010074
    4  N  1  X   -0.911572   0.034973
    5  N  1  Y   -0.036545   0.913001
    6  N  1  Z    0.013644   0.015643
    7  N  1  X   -0.043871   0.009604
    8  N  1  Y   -0.008731   0.045724
    9  N  1  Z   -0.003008   0.011958
   10  N  1 XX    0.001787   0.000035
   11  N  1 YY   -0.001480  -0.000824
   12  N  1 ZZ   -0.000307   0.000789
   13  N  1 XY    0.000424   0.001762
   14  N  1 XZ    0.039701   0.000511
   15  N  1 YZ   -0.000199  -0.039305
   16  H  2  S   -0.371795  -0.617854
   17  H  2  S   -0.066158  -0.111908
   18  H  2  X    0.001794  -0.036244
   19  H  2  Y    0.038544   0.039759
   20  H  2  Z    0.002222   0.004231
   21  H  3  S   -0.371777   0.621526
   22  H  3  S   -0.067310   0.113495
   23  H  3  X    0.002045   0.037525
   24  H  3  Y   -0.038738   0.040138
   25  H  3  Z    0.001160  -0.002241
   26  H  4  S    0.710963   0.009627
   27  H  4  S    0.129925   0.001072
   28  H  4  X   -0.060157  -0.001107
   29  H  4  Y   -0.000314  -0.023938
   30  H  4  Z   -0.004201  -0.000092

 -------------------------------------------
       MAXIMIZING MORMO OVERLAP TERM        
 -------------------------------------------
   SWEEP    VALUE       PROGRESS
     0     4.75663
     1     6.94414     2.18750483
     2     6.98404     0.03990959
     3     6.98405     0.00000872
     4     6.98405     0.00000000
     5     6.98405     0.00000000
 THE ROTATION IS DONE
FLIPPING SIGN FOR ORBITAL   7
ACTIVE ORBITALS AFTER MORMO:

                      1          2          3          4          5

    1  N  1  S    0.007720  -0.000128   0.018568  -0.012483   0.246459
    2  N  1  S    0.437211  -0.003397   0.041125  -0.185185   0.801806
    3  N  1  S    0.300119   0.013233  -0.027116  -0.282754   0.164864
    4  N  1  X   -0.002726   0.483016  -0.002719  -0.000694  -0.016286
    5  N  1  Y   -0.005606   0.049207   0.488101   0.024196   0.009036
    6  N  1  Z    0.087742   0.003562   0.027445   0.597409   0.667801
    7  N  1  X    0.006474   0.224933  -0.055166   0.002986  -0.003937
    8  N  1  Y   -0.014150  -0.030938   0.219747  -0.033443   0.034245
    9  N  1  Z    0.008305   0.002089  -0.043703   0.382687  -0.091317
   10  N  1 XX   -0.000887   0.008892  -0.004851  -0.010540   0.004693
   11  N  1 YY    0.000078  -0.008783   0.005481  -0.013308  -0.000012
   12  N  1 ZZ    0.000809  -0.000109  -0.000629   0.023848  -0.004682
   13  N  1 XY    0.002831   0.005167  -0.016734   0.000092  -0.036763
   14  N  1 XZ    0.001192   0.023869  -0.003816  -0.001552   0.001798
   15  N  1 YZ    0.001049  -0.001856   0.022663  -0.000100  -0.031871
   16  H  2  S    0.191272  -0.197788   0.341416   0.097391  -0.502603
   17  H  2  S    0.003900  -0.053388   0.063933   0.020961  -0.057581
   18  H  2  X    0.011613   0.012356   0.015640   0.008682  -0.036240
   19  H  2  Y   -0.031994   0.021895  -0.018637  -0.016832   0.059777
   20  H  2  Z   -0.012621   0.009572  -0.022404   0.018038  -0.009528
   21  H  3  S    0.188260  -0.198065  -0.332301   0.123843  -0.516571
   22  H  3  S    0.000808  -0.016856  -0.044790   0.029067  -0.056692
   23  H  3  X    0.022535  -0.001149  -0.030149   0.010114  -0.041196
   24  H  3  Y    0.029509  -0.026917  -0.016096   0.013003  -0.056450
   25  H  3  Z   -0.005463   0.008673   0.011106   0.020124  -0.011486
   26  H  4  S    0.190621   0.385535  -0.046527   0.109720  -0.477199
   27  H  4  S    0.003121   0.071030  -0.029508   0.027524  -0.055112
   28  H  4  X   -0.032995  -0.032378  -0.002400  -0.016588   0.066474
   29  H  4  Y   -0.010535  -0.013982   0.020175  -0.003534   0.006967
   30  H  4  Z   -0.008340  -0.018033  -0.003322   0.018779  -0.015100

                      6          7

    1  N  1  S    0.014914  -0.038188
    2  N  1  S    0.029628  -0.087068
    3  N  1  S   -0.008180   0.092562
    4  N  1  X   -0.913668   0.027440
    5  N  1  Y   -0.029945   0.902620
    6  N  1  Z    0.019151   0.048098
    7  N  1  X   -0.045648   0.030871
    8  N  1  Y   -0.028410   0.064409
    9  N  1  Z   -0.012510  -0.009094
   10  N  1 XX   -0.002769   0.033224
   11  N  1 YY    0.000945  -0.025956
   12  N  1 ZZ    0.001824  -0.007268
   13  N  1 XY    0.032093   0.008028
   14  N  1 XZ    0.039741  -0.016628
   15  N  1 YZ    0.013819  -0.040604
   16  H  2  S   -0.344457  -0.615270
   17  H  2  S   -0.089481  -0.131411
   18  H  2  X    0.018340  -0.039227
   19  H  2  Y    0.037550   0.031451
   20  H  2  Z    0.013116   0.004460
   21  H  3  S   -0.379993   0.611292
   22  H  3  S   -0.069980   0.114683
   23  H  3  X   -0.014638   0.039204
   24  H  3  Y   -0.038069   0.039225
   25  H  3  Z   -0.011289   0.002427
   26  H  4  S    0.696232  -0.024671
   27  H  4  S    0.156111   0.004978
   28  H  4  X   -0.058492   0.011438
   29  H  4  Y   -0.014851  -0.027059
   30  H  4  Z   -0.000839  -0.016911

Actually Used Diabatic Molecualr Orbitals:

                      1          2          3          4          5

    1  N  1  S    0.007720  -0.000128   0.018568  -0.012483   0.246459
    2  N  1  S    0.437211  -0.003397   0.041125  -0.185185   0.801806
    3  N  1  S    0.300119   0.013233  -0.027116  -0.282754   0.164864
    4  N  1  X   -0.002726   0.483016  -0.002719  -0.000694  -0.016286
    5  N  1  Y   -0.005606   0.049207   0.488101   0.024196   0.009036
    6  N  1  Z    0.087742   0.003562   0.027445   0.597409   0.667801
    7  N  1  X    0.006474   0.224933  -0.055166   0.002986  -0.003937
    8  N  1  Y   -0.014150  -0.030938   0.219747  -0.033443   0.034245
    9  N  1  Z    0.008305   0.002089  -0.043703   0.382687  -0.091317
   10  N  1 XX   -0.000887   0.008892  -0.004851  -0.010540   0.004693
   11  N  1 YY    0.000078  -0.008783   0.005481  -0.013308  -0.000012
   12  N  1 ZZ    0.000809  -0.000109  -0.000629   0.023848  -0.004682
   13  N  1 XY    0.002831   0.005167  -0.016734   0.000092  -0.036763
   14  N  1 XZ    0.001192   0.023869  -0.003816  -0.001552   0.001798
   15  N  1 YZ    0.001049  -0.001856   0.022663  -0.000100  -0.031871
   16  H  2  S    0.191272  -0.197788   0.341416   0.097391  -0.502603
   17  H  2  S    0.003900  -0.053388   0.063933   0.020961  -0.057581
   18  H  2  X    0.011613   0.012356   0.015640   0.008682  -0.036240
   19  H  2  Y   -0.031994   0.021895  -0.018637  -0.016832   0.059777
   20  H  2  Z   -0.012621   0.009572  -0.022404   0.018038  -0.009528
   21  H  3  S    0.188260  -0.198065  -0.332301   0.123843  -0.516571
   22  H  3  S    0.000808  -0.016856  -0.044790   0.029067  -0.056692
[...]
      249    0.032570   -0.032570  20+2200
      812    0.027072   -0.027072  2+020+-
       76    0.024575    0.024575  2+2-0+0
      320    0.024502    0.024502  0+22200
      248    0.023435   -0.023435  2+02200
      809   -0.022950    0.022950  20+2+0-
      250   -0.022495   -0.022495  -++2200
      121   -0.021239    0.021239  +22-00+
      177    0.021162   -0.021162  2+20200
      193    0.021035   -0.021035  202+-0+
       87   -0.020899    0.020899  2+-200+
      285    0.020465   -0.020465  02+2200
       51   -0.020385    0.020385  22+-00+
       39    0.020160    0.020160  2-+2+00
      333    0.020122   -0.020122  +022-0+
      822    0.020080   -0.020080  2+02002

 State #    3  Energy =     -55.784674274

      Det      Coef        Coefp    Occupancy (Ignoring core)
      ---      ----        ----    --------- --------- -----
       36   -0.745761   -0.745761  22+2000
       71    0.611914   -0.611914  2+22000
        1    0.183808   -0.183808  222+000
      823    0.058059   -0.058059  20+2002
      462   -0.044598    0.044598  2+02020
      123   -0.040613    0.040613  +-2200+
       74    0.030162   -0.030162  2022+00
      473    0.029354    0.029354  20+20-+
      111    0.026429   -0.026429  +22-0+0
      285    0.025154   -0.025154  02+2200
       41   -0.023672    0.023672  22+-0+0
      107   -0.023065    0.023065  +22-+00
       52   -0.022494    0.022494  220200+
      808   -0.021932    0.021932  2+02+0-
      320   -0.020988   -0.020988  0+22200
      158    0.020979    0.020979  2-++-0+
       16    0.020947   -0.020947  222000+
      822   -0.020857    0.020857  2+02002
      249    0.020692   -0.020692  20+2200
      810    0.020622    0.020622  -++2+0-
      142    0.020475    0.020475  22+0200
      460   -0.020432   -0.020432  -++2+-0
       89    0.020399    0.020399  -+2200+
      876    0.020214    0.020214  ++2200-

 ---------------------------------------
    -DIABATIC STATES IN PROTOTYPES-     
 ---------------------------------------

     STATE:    1
 Group Ref#    Coefficients
     1    1    0.984355
     2    2   -0.001438
     3    3    0.001065

WEIGHT OF LISTED PROTOTYPES:   96.90%

     STATE:    2
 Group Ref#    Coefficients
     1    1   -0.001438
     2    2    0.982985
     3    3   -0.001676

WEIGHT OF LISTED PROTOTYPES:   96.63%

     STATE:    3
 Group Ref#    Coefficients
     1    1    0.001065
     2    2   -0.001676
     3    3    0.983518

WEIGHT OF LISTED PROTOTYPES:   96.73%

 --------------------------------------------------
 IN DIRECT MAX. DIABATIZATION FOR GMC-QDPT

 DIRECT MAXIMIZATION (DM) WITHOUT TRUNCATING ADIABATS
 EXPANSIONS INTO THE REFERENCE CONFIGURATION SPACE
 --------------------------------------------------

 -------------------------------------------
 - DM DIABT PT HAMILTONIAN MATRIX ELEMENTS -
 -------------------------------------------
                                            
 --- DIABATIC ENERGIES (DIAGONAL ELEMENT) ---       HARTREE            EV
 STATE #  1'S GMC-PT-LEVEL DIABATIC ENERGY=     -55.982340333       0.000000000
 STATE #  2'S GMC-PT-LEVEL DIABATIC ENERGY=     -55.798333419       5.007083158
 STATE #  3'S GMC-PT-LEVEL DIABATIC ENERGY=     -55.784674249       5.378768111

 --- DIABATIC COUPLINGS (OFF DIAGONAL ELEMENTS)---  HATREE            EV
 STATE #  1 &  2'S GMC-PT-LEVEL COUPLING  =       0.000363875       0.009901539
 STATE #  1 &  3'S GMC-PT-LEVEL COUPLING  =      -0.030857556      -0.839676859
 STATE #  2 &  3'S GMC-PT-LEVEL COUPLING  =       0.057894292       1.575383916

 ---------------------------------------
     - ROTATION TO DIABATIC STATES -    
 ---------------------------------------
 ROWS=ADIABATIC, COLUMNS=DIABATIC STATES

             1           2           3

    1    0.9849449  -0.0523142   0.1647628
    2    0.1465008   0.7585565  -0.6349248
    3   -0.0917663   0.6495038   0.7548005

 ---------------------------------------
          - DIABATIC STATES -           
 ---------------------------------------

 State #    1  Energy =     -55.982340333

      Det      Coef        Coefp    Occupancy (Ignoring core)
      ---      ----        ----    --------- --------- -----
        1    0.966467   -0.966467  222+000
      393   -0.072573   -0.072573  202+020
      717   -0.071902   -0.071902  220+002
        3   -0.070129   -0.070129  22-++00
      141    0.068068    0.068068  22++-00
        8   -0.061619    0.061619  2-2+0+0
       17    0.056359    0.056359  22-+00+
       18   -0.048077    0.048077  2-2+00+
        7    0.047101    0.047101  22-+0+0
      736    0.046866   -0.046866  2+2+00-
       16   -0.046019    0.046019  222000+
      351   -0.043165   -0.043165  22++0-0
      708    0.037726   -0.037726  2-++0+-
      402    0.037672   -0.037672  2+-+0-+
      215   -0.035411   -0.035411  022+200
      218    0.033727   -0.033727  +-2+-+0
      390    0.033463   -0.033463  -+2++-0
      386    0.032925   -0.032925  2+2+0-0
      227   -0.032847   -0.032847  +2-+-0+
      705   -0.032767   -0.032767  -2+++0-
      701   -0.028777   -0.028777  22++00-
       76    0.028694    0.028694  2+2-0+0
      212    0.028595    0.028595  +220200
       51   -0.027582    0.027582  22+-00+
      122    0.025850    0.025850  +2-200+
      113   -0.025606    0.025606  +-220+0
        2    0.025456   -0.025456  2220+00
      179   -0.024878   -0.024878  202+200
      773    0.023378   -0.023378  +2-++0-
      387   -0.022614    0.022614  2+20+-0
      424   -0.022491   -0.022491  +-2++-0
      702    0.022418    0.022418  22+0+0-
      159    0.022250   -0.022250  -2++-0+
      184   -0.022051   -0.022051  -+2+-+0
     1051   -0.020356   -0.020356  2+++0--

 State #    2  Energy =     -55.798333419

      Det      Coef        Coefp    Occupancy (Ignoring core)
      ---      ----        ----    --------- --------- -----
       71   -0.969063    0.969063  2+22000
      246    0.078383    0.078383  2++2-00
      822    0.072051   -0.072051  2+02002
       73   -0.071321    0.071321  2+-2+00
      736    0.055626   -0.055626  2+2+00-
       86   -0.052176   -0.052176  2+2-00+
       77    0.049565   -0.049565  2+-20+0
      456   -0.047422   -0.047422  2++20-0
       36    0.046422    0.046422  22+2000
       88    0.042333   -0.042333  202200+
      813    0.041367   -0.041367  20+20+-
      111    0.038539   -0.038539  +22-0+0
      320    0.035342    0.035342  0+22200
      810   -0.033622   -0.033622  -++2+0-
      323   -0.033252    0.033252  +022-+0
      332   -0.032575    0.032575  ++-2-0+
      180   -0.029209    0.029209  -+2+200
      317    0.029078   -0.029078  ++2-200
       38   -0.028913    0.028913  2202+00
       74    0.028067   -0.028067  2022+00
      177    0.027771   -0.027771  2+20200
       99   -0.026989    0.026989  20-20++
      183   -0.025785    0.025785  202+-+0
        6    0.025405   -0.025405  22200+0
      113    0.025042   -0.025042  +-220+0
      391    0.024408   -0.024408  2+20020
      807   -0.024248    0.024248  2++-+0-
      192   -0.024162    0.024162  2+-+-0+
      122    0.023290    0.023290  +2-200+
      878    0.023042    0.023042  ++-2+0-
       51    0.022773   -0.022773  22+-00+
      264    0.022409   -0.022409  -++2-0+
      806   -0.021299   -0.021299  2++200-
      248    0.021188   -0.021188  2+02200
      421   -0.020299   -0.020299  +22+0-0

 State #    3  Energy =     -55.784674249

      Det      Coef        Coefp    Occupancy (Ignoring core)
      ---      ----        ----    --------- --------- -----
       36   -0.969301   -0.969301  22+2000
       38    0.073010   -0.073010  2202+00
      463    0.073001   -0.073001  20+2020
       53    0.058006    0.058006  2-+200+
       51   -0.056062    0.056062  22+-00+
      806   -0.054652   -0.054652  2++200-
      701    0.054161    0.054161  22++00-
       71   -0.046982    0.046982  2+22000
      106    0.046342    0.046342  +222000
      472   -0.042132   -0.042132  2+020-+
       42   -0.038515    0.038515  22020+0
      121   -0.037011    0.037011  +22-00+
      285    0.035113   -0.035113  02+2200
      460   -0.034542   -0.034542  -++2+-0
      288   -0.034165   -0.034165  +-+2-+0
      297    0.033189   -0.033189  +202-0+
      456   -0.029892   -0.029892  2++20-0
      145   -0.029489   -0.029489  -2++200
      282    0.029406    0.029406  +2+-200
      123    0.029239   -0.029239  +-2200+
      142    0.027601    0.027601  22+0200
       64    0.027093   -0.027093  2-020++
      112   -0.027014   -0.027014  +2-20+0
      249    0.026761   -0.026761  20+2200
       39   -0.025625   -0.025625  2-+2+00
       16   -0.025514    0.025514  222000+
      157    0.025213   -0.025213  220+-0+
       41   -0.024827    0.024827  22+-0+0
       73    0.024740   -0.024740  2+-2+00
      457   -0.024709    0.024709  2++-+-0
      148   -0.024166   -0.024166  2-++-+0
       43    0.022882    0.022882  2-+20+0
      494    0.022630   -0.022630  +-+2+-0
      716    0.022285    0.022285  22+0002
      254    0.022067   -0.022067  -++2-+0
      356    0.020587    0.020587  22+0020
      843   -0.020174   -0.020174  +202+0-

 ---------------------------------------
      - DIABATIC STATES IN CMO -        
 ---------------------------------------

 State #    1  Energy =     -55.982340333

      Det      Coef        Coefp    Occupancy (Ignoring core)
      ---      ----        ----    --------- --------- -----
        1    0.958576   -0.958576  222+000
       71   -0.174021    0.174021  2+22000
       36    0.093035    0.093035  22+2000
      753   -0.073082   -0.073082  202+002
      357   -0.062443   -0.062443  220+020
        7   -0.040628   -0.040628  22-+0+0
       18    0.037484   -0.037484  2-2+00+
      742   -0.034280   -0.034280  2+-+0+-
      179   -0.033508   -0.033508  202+200
      215   -0.032180   -0.032180  022+200
      368   -0.030325   -0.030325  2-++0-+
      740   -0.028466    0.028466  -+2++0-
      106   -0.028000   -0.028000  +222000
       86   -0.026255   -0.026255  2+2-00+
      717   -0.025966   -0.025966  220+002
      123    0.025510   -0.025510  +-2200+
      228   -0.024891    0.024891  +-2+-0+
       41    0.023552   -0.023552  22+-0+0
      355    0.023186    0.023186  -2+++-0
      217    0.022917    0.022917  +2-+-+0
        2    0.022902   -0.022902  2220+00
      739    0.022893    0.022893  202++0-
      738    0.022748    0.022748  2+-++0-
        4   -0.022304    0.022304  2-2++00
      112   -0.022120   -0.022120  +2-20+0
      737    0.021728   -0.021728  2+20+0-

 State #    2  Energy =     -55.798333419

      Det      Coef        Coefp    Occupancy (Ignoring core)
      ---      ----        ----    --------- --------- -----
       71   -0.750515    0.750515  2+22000
       36   -0.629981   -0.629981  22+2000
        1   -0.075150    0.075150  222+000
      823    0.044151   -0.044151  20+2002
      462    0.042353   -0.042353  2+02020
      122   -0.038203   -0.038203  +2-200+
      263    0.035049    0.035049  20+2-0+
      111    0.032866   -0.032866  +22-0+0
      249    0.032570   -0.032570  20+2200
      812    0.027072   -0.027072  2+020+-
       76    0.024575    0.024575  2+2-0+0
      320    0.024502    0.024502  0+22200
      248    0.023435   -0.023435  2+02200
      809   -0.022950    0.022950  20+2+0-
      250   -0.022495   -0.022495  -++2200
      121   -0.021239    0.021239  +22-00+
      177    0.021162   -0.021162  2+20200
      193    0.021035   -0.021035  202+-0+
       87   -0.020899    0.020899  2+-200+
      285    0.020465   -0.020465  02+2200
       51   -0.020385    0.020385  22+-00+
       39    0.020160    0.020160  2-+2+00
      333    0.020122   -0.020122  +022-0+
      822    0.020080   -0.020080  2+02002

 State #    3  Energy =     -55.784674249

      Det      Coef        Coefp    Occupancy (Ignoring core)
      ---      ----        ----    --------- --------- -----
       36   -0.745761   -0.745761  22+2000
       71    0.611913   -0.611913  2+22000
        1    0.183809   -0.183809  222+000
      823    0.058059   -0.058059  20+2002
      462   -0.044598    0.044598  2+02020
      123   -0.040613    0.040613  +-2200+
       74    0.030162   -0.030162  2022+00
      473    0.029354    0.029354  20+20-+
      111    0.026429   -0.026429  +22-0+0
      285    0.025154   -0.025154  02+2200
       41   -0.023672    0.023672  22+-0+0
      107   -0.023065    0.023065  +22-+00
       52   -0.022494    0.022494  220200+
      808   -0.021932    0.021932  2+02+0-
      320   -0.020988   -0.020988  0+22200
      158    0.020979    0.020979  2-++-0+
       16    0.020947   -0.020947  222000+
      822   -0.020857    0.020857  2+02002
      249    0.020692   -0.020692  20+2200
      810    0.020622    0.020622  -++2+0-
      142    0.020475    0.020475  22+0200
      460   -0.020432   -0.020432  -++2+-0
       89    0.020399    0.020399  -+2200+
      876    0.020214    0.020214  ++2200-

 ---------------------------------------
    -DIABATIC STATES IN PROTOTYPES-     
 ---------------------------------------

     STATE:    1
 Group Ref#    Coefficients
     1    1    0.984355
     2    2   -0.001437
     3    3    0.001064

WEIGHT OF LISTED PROTOTYPES:   96.90%

     STATE:    2
 Group Ref#    Coefficients
     1    1   -0.001439
     2    2    0.982985
     3    3   -0.001677

WEIGHT OF LISTED PROTOTYPES:   96.63%

     STATE:    3
 Group Ref#    Coefficients
     1    1    0.001065
     2    2   -0.001676
     3    3    0.983518

WEIGHT OF LISTED PROTOTYPES:   96.73%

     DIRECT MAX. DIABATIZATION FINISHED    
 CPU     0: STEP CPU TIME=     0.24 TOTAL CPU TIME=         12.6 (      0.2 MIN)
 TOTAL WALL CLOCK TIME=         12.6 SECONDS, CPU UTILIZATION IS    99.92%

DIABATS FOR SPIN-ORBIT CALCULATION ARE READY

TRANSITION DIPOLES BETWEEN ADIABATS (in A.U.):

STATE PAIR      X         Y         Z
    1    1  0.010460  0.212335  0.749745
    2    1 -0.017078  0.028941  0.078216
    2    2 -0.102822  0.047944  0.267224
    3    1  0.058794  0.056581 -0.048528
    3    2 -0.214007 -0.007806  0.001586
    3    3  0.084545  0.485181  0.255799


TRANSITION DIPOLES BETWEEN DIABATS (in A.U.):

STATE PAIR      X         Y         Z
    1    1 -0.001150  0.209438  0.766532
    2    1  0.002795  0.023139  0.002420
    2    2 -0.236987  0.219011  0.262377
    3    1  0.022360  0.018883 -0.003006
    3    2  0.057870  0.220085 -0.000409
    3    3  0.230320  0.317010  0.243859

TRANSITION DIPOLES BETWEEN DIRECT MAX. DIABATS (in A.U.):

STATE PAIR      X         Y         Z
    1    1 -0.001150  0.209438  0.766532
    2    1  0.002795  0.023139  0.002419
    2    2 -0.236987  0.219010  0.262377
    3    1  0.022360  0.018883 -0.003006
    3    2  0.057870  0.220085 -0.000409
    3    3  0.230320  0.317010  0.243859
 No $TRANST Group Found.
 Quit without doing spin-orbit coupling
 ..... DONE WITH MP2 ENERGY .....
 CPU     0: STEP CPU TIME=     0.01 TOTAL CPU TIME=         12.6 (      0.2 MIN)
 TOTAL WALL CLOCK TIME=         12.6 SECONDS, CPU UTILIZATION IS    99.92%
            100000000  WORDS OF DYNAMIC MEMORY USED
 EXECUTION OF GAMESS TERMINATED NORMALLY Wed Nov 16 19:53:34 2022
 DDI: 715512 bytes (0.7 MB / 0 MWords) used by master data server.

 ----------------------------------------
 CPU timing information for all processes
 ========================================
 0: 12.291 + 0.292 = 12.583
 ----------------------------------------
Note: The following floating-point exceptions are signalling: IEEE_DENORMAL
 ddikick.x: exited gracefully.
unset echo
----- accounting info -----
Files used on the master node io002 were:
-rw-r--r-- 1 bsonghao nooijen   20705 Nov 16 19:53 /scratch/bsonghao/nh3_diabatization_2d_at_mode_7_8_dist0.4_0.0.F05
-rw-r--r-- 1 bsonghao nooijen  363520 Nov 16 19:53 /scratch/bsonghao/nh3_diabatization_2d_at_mode_7_8_dist0.4_0.0.F09
-rw-r--r-- 1 bsonghao nooijen 1995920 Nov 16 19:53 /scratch/bsonghao/nh3_diabatization_2d_at_mode_7_8_dist0.4_0.0.F10
-rw-r--r-- 1 bsonghao nooijen  131264 Nov 16 19:53 /scratch/bsonghao/nh3_diabatization_2d_at_mode_7_8_dist0.4_0.0.F13
-rw-r--r-- 1 bsonghao nooijen  180312 Nov 16 19:53 /scratch/bsonghao/nh3_diabatization_2d_at_mode_7_8_dist0.4_0.0.F15
-rw-r--r-- 1 bsonghao nooijen       0 Nov 16 19:53 /scratch/bsonghao/nh3_diabatization_2d_at_mode_7_8_dist0.4_0.0.F16
-rw-r--r-- 1 bsonghao nooijen    9808 Nov 16 19:53 /scratch/bsonghao/nh3_diabatization_2d_at_mode_7_8_dist0.4_0.0.F70
-rw-r--r-- 1 bsonghao nooijen    9808 Nov 16 19:53 /scratch/bsonghao/nh3_diabatization_2d_at_mode_7_8_dist0.4_0.0.F71
-rw-r--r-- 1 bsonghao nooijen   19608 Nov 16 19:53 /scratch/bsonghao/nh3_diabatization_2d_at_mode_7_8_dist0.4_0.0.F72
-rw-r--r-- 1 bsonghao nooijen   19608 Nov 16 19:53 /scratch/bsonghao/nh3_diabatization_2d_at_mode_7_8_dist0.4_0.0.F73
-rw-r--r-- 1 bsonghao nooijen 1920824 Nov 16 19:53 /scratch/bsonghao/nh3_diabatization_2d_at_mode_7_8_dist0.4_0.0.F74
-rw-r--r-- 1 bsonghao nooijen       0 Nov 16 19:53 /scratch/bsonghao/nh3_diabatization_2d_at_mode_7_8_dist0.4_0.0.F75
-rw-r--r-- 1 bsonghao nooijen   58848 Nov 16 19:53 /scratch/bsonghao/nh3_diabatization_2d_at_mode_7_8_dist0.4_0.0.F76
-rw-r--r-- 1 bsonghao nooijen       0 Nov 16 19:53 /scratch/bsonghao/nh3_diabatization_2d_at_mode_7_8_dist0.4_0.0.F77
-rw-r--r-- 1 bsonghao nooijen    1864 Nov 16 19:53 /scratch/bsonghao/nh3_diabatization_2d_at_mode_7_8_dist0.4_0.0.F78
-rw-r--r-- 1 bsonghao nooijen   39208 Nov 16 19:53 /scratch/bsonghao/nh3_diabatization_2d_at_mode_7_8_dist0.4_0.0.F79
-rw-r--r-- 1 bsonghao nooijen     104 Nov 16 19:53 /scratch/bsonghao/nh3_diabatization_2d_at_mode_7_8_dist0.4_0.0.F80
-rw-r--r-- 1 bsonghao nooijen   13472 Nov 16 19:53 /scratch/bsonghao/nh3_diabatization_2d_at_mode_7_8_dist0.4_0.0.F81
-rw-r--r-- 1 bsonghao nooijen      16 Nov 16 19:53 /scratch/bsonghao/nh3_diabatization_2d_at_mode_7_8_dist0.4_0.0.F82
-rw-r--r-- 1 bsonghao nooijen   19216 Nov 16 19:53 /scratch/bsonghao/nh3_diabatization_2d_at_mode_7_8_dist0.4_0.0.F83
-rw-r--r-- 1 bsonghao nooijen   29712 Nov 16 19:53 /scratch/bsonghao/nh3_diabatization_2d_at_mode_7_8_dist0.4_0.0.F84
-rw-r--r-- 1 bsonghao nooijen  401576 Nov 16 19:53 /scratch/bsonghao/nh3_diabatization_2d_at_mode_7_8_dist0.4_0.0.F85
-rw-r--r-- 1 bsonghao nooijen  903672 Nov 16 19:53 /scratch/bsonghao/nh3_diabatization_2d_at_mode_7_8_dist0.4_0.0.F86
-rw-r--r-- 1 bsonghao nooijen     656 Nov 16 19:53 /scratch/bsonghao/nh3_diabatization_2d_at_mode_7_8_dist0.4_0.0.F87
-rw-r--r-- 1 bsonghao nooijen   31088 Nov 16 19:53 /scratch/bsonghao/nh3_diabatization_2d_at_mode_7_8_dist0.4_0.0.F88
-rw-r--r-- 1 bsonghao nooijen     240 Nov 16 19:53 /scratch/bsonghao/nh3_diabatization_2d_at_mode_7_8_dist0.4_0.0.F89
-rw-r--r-- 1 bsonghao nooijen       0 Nov 16 19:53 /scratch/bsonghao/nh3_diabatization_2d_at_mode_7_8_dist0.4_0.0.F90
-rw-r--r-- 1 bsonghao nooijen   13760 Nov 16 19:53 /scratch/bsonghao/nh3_diabatization_2d_at_mode_7_8_dist0.4_0.0.F91
-rw-r--r-- 1 bsonghao nooijen   22776 Nov 16 19:53 /scratch/bsonghao/nh3_diabatization_2d_at_mode_7_8_dist0.4_0.0.F92
-rw-r--r-- 1 bsonghao nooijen   23168 Nov 16 19:53 /scratch/bsonghao/nh3_diabatization_2d_at_mode_7_8_dist0.4_0.0.F93
-rw-r--r-- 1 bsonghao nooijen   22776 Nov 16 19:53 /scratch/bsonghao/nh3_diabatization_2d_at_mode_7_8_dist0.4_0.0.F94
-rw-r--r-- 1 bsonghao nooijen   13760 Nov 16 19:53 /scratch/bsonghao/nh3_diabatization_2d_at_mode_7_8_dist0.4_0.0.F95
-rw-r--r-- 1 bsonghao nooijen   29440 Nov 16 19:53 /scratch/bsonghao/nh3_diabatization_2d_at_mode_7_8_dist0.4_0.0.F96
-rw-r--r-- 1 bsonghao nooijen    1184 Nov 16 19:53 /scratch/bsonghao/nh3_diabatization_2d_at_mode_7_8_dist0.4_0.0.F97
-rw-r--r-- 1 bsonghao nooijen    9808 Nov 16 19:53 /scratch/bsonghao/nh3_diabatization_2d_at_mode_7_8_dist0.4_0.0.F98
-rw-r--r-- 1 bsonghao nooijen   30264 Nov 16 19:53 /scratch/bsonghao/nh3_diabatization_2d_at_mode_7_8_dist0.4_0.0.F99
ls: No match.
ls: No match.
ls: No match.
Wed 16 Nov 2022 07:53:37 PM EST
0.292u 0.037s 0:15.96 2.0%	0+0k 48+224io 0pf+0w
