----- GAMESS execution script 'rungms' -----
This job is running on host io002
under operating system Linux at Wed 16 Nov 2022 06:43:46 PM EST
Available scratch disk space (Kbyte units) at beginning of the job is
Filesystem       1K-blocks       Used   Available Use% Mounted on
/dev/sdc1      15378471580 3278917120 11318349060  23% /scratch
GAMESS temporary binary files will be written to /scratch/bsonghao
GAMESS supplementary output files will be written to /home/bsonghao/.gamess_ascii_files/267638
Copying input file nh3_diabatization_2d_at_mode_7_8_dist-0.5_-0.3.inp to your run's scratch directory...
cp nh3_diabatization_2d_at_mode_7_8_dist-0.5_-0.3.inp /scratch/bsonghao/nh3_diabatization_2d_at_mode_7_8_dist-0.5_-0.3.F05
unset echo
/home/bjb2chen/gamess/ddikick.x /home/bjb2chen/gamess/gamess.00.x nh3_diabatization_2d_at_mode_7_8_dist-0.5_-0.3 -ddi 1 1 io002 -scr /scratch/bsonghao

 Distributed Data Interface kickoff program.
 Initiating 1 compute processes on 1 nodes to run the following command:
 /home/bjb2chen/gamess/gamess.00.x nh3_diabatization_2d_at_mode_7_8_dist-0.5_-0.3 

          ******************************************************
          *         GAMESS VERSION = 02 AUG 2018 (R2)         *
          *             FROM IOWA STATE UNIVERSITY             *
          * M.W.SCHMIDT, K.K.BALDRIDGE, J.A.BOATZ, S.T.ELBERT, *
          *   M.S.GORDON, J.H.JENSEN, S.KOSEKI, N.MATSUNAGA,   *
          *          K.A.NGUYEN, S.J.SU, T.L.WINDUS,           *
          *       TOGETHER WITH M.DUPUIS, J.A.MONTGOMERY       *
          *         J.COMPUT.CHEM.  14, 1347-1363(1993)        *
          **************** 64 BIT LINUX VERSION ****************

  SINCE 1993, STUDENTS AND POSTDOCS WORKING AT IOWA STATE UNIVERSITY
  AND ALSO IN THEIR VARIOUS JOBS AFTER LEAVING ISU HAVE MADE IMPORTANT
  CONTRIBUTIONS TO THE CODE:
     IVANA ADAMOVIC, CHRISTINE AIKENS, YURI ALEXEEV, POOJA ARORA,
     ANDREY ASADCHEV, ROB BELL, PRADIPTA BANDYOPADHYAY, JONATHAN BENTZ,
     BRETT BODE, KURT BRORSEN, CALEB CARLIN, GALINA CHABAN, WEI CHEN,
     CHEOL HO CHOI, PAUL DAY, ALBERT DEFUSCO, NUWAN DESILVA, TIM DUDLEY,
     DMITRI FEDOROV, ALEX FINDLATER, GRAHAM FLETCHER, MARK FREITAG,
     KURT GLAESEMANN, ANASTASIA GUININA,
     DAN KEMP, GRANT MERRILL, NORIYUKI MINEZAWA, JONATHAN MULLIN,
     TAKESHI NAGATA, SEAN NEDD, HEATHER NETZLOFF, BOSILJKA NJEGIC, RYAN OLSON,
     MIKE PAK, BUU PHAM,
     SPENCER PRUITT, LUKE ROSKOP, JIM SHOEMAKER, LYUDMILA SLIPCHENKO,
     TONY SMITH, SAROM SOK LEANG, JIE SONG, TETSUYA TAKETSUGU, SIMON WEBB,
     PENG XU, SOOHAENG YOO, FEDERICO ZAHARIEV

  ADDITIONAL CODE HAS BEEN PROVIDED BY COLLABORATORS IN OTHER GROUPS:
     IOWA STATE UNIVERSITY:
          JOE IVANIC, AARON WEST, LAIMUTIS BYTAUTAS, KLAUS RUEDENBERG
     UNIVERSITY OF TOKYO: KIMIHIKO HIRAO, TAKAHITO NAKAJIMA,
          TAKAO TSUNEDA, MUNEAKI KAMIYA, SUSUMU YANAGISAWA,
          KIYOSHI YAGI, MAHITO CHIBA, SEIKEN TOKURA, NAOAKI KAWAKAMI
     UNIVERSITY OF AARHUS: FRANK JENSEN
     UNIVERSITY OF IOWA: VISVALDAS KAIRYS, HUI LI
     NATIONAL INST. OF STANDARDS AND TECHNOLOGY: WALT STEVENS, DAVID GARMER
     UNIVERSITY OF PISA: BENEDETTA MENNUCCI, JACOPO TOMASI
     UNIVERSITY OF MEMPHIS: HENRY KURTZ, PRAKASHAN KORAMBATH
     UNIVERSITY OF ALBERTA: TOBY ZENG, MARIUSZ KLOBUKOWSKI
     UNIVERSITY OF NEW ENGLAND: MARK SPACKMAN
     MIE UNIVERSITY: HIROAKI UMEDA
     NAT. INST. OF ADVANCED INDUSTRIAL SCIENCE AND TECHNOLOGY: KAZUO KITAURA
     MICHIGAN STATE UNIVERSITY:
          KAROL KOWALSKI, MARTA WLOCH, JEFFREY GOUR, JESSE LUTZ,
          WEI LI, JUN SHEN, J. EMILIANO DEUSTUA, PIOTR PIECUCH
     UNIVERSITY OF MINNESOTA:
          YINAN SHU
     UNIVERSITY OF SILESIA: MONIKA MUSIAL, STANISLAW KUCHARSKI
     FACULTES UNIVERSITAIRES NOTRE-DAME DE LA PAIX:
          OLIVIER QUINET, BENOIT CHAMPAGNE
     UNIVERSITY OF CALIFORNIA - SANTA BARBARA: BERNARD KIRTMAN
     INSTITUTE FOR MOLECULAR SCIENCE:
          KAZUYA ISHIMURA, MICHIO KATOUDA, AND SHIGERU NAGASE
     UNIVERSITY OF NOTRE DAME: ANNA POMOGAEVA, DAN CHIPMAN
     KYUSHU UNIVERSITY:
          HARUYUKI NAKANO,
          FENG LONG GU, JACEK KORCHOWIEC, MARCIN MAKOWSKI, AND YURIKO AOKI,
          HIROTOSHI MORI AND EISAKU MIYOSHI
     PENNSYLVANIA STATE UNIVERSITY:
          TZVETELIN IORDANOV, CHET SWALINA, JONATHAN SKONE,
          SHARON HAMMES-SCHIFFER
     WASEDA UNIVERSITY:
          MASATO KOBAYASHI, TOMOKO AKAMA, TSUGUKI TOUMA,
          TAKESHI YOSHIKAWA, YASUHIRO IKABATA, JUNJI SEINO,
          YUYA NAKAJIMA, HIROMI NAKAI
     NANJING UNIVERSITY: SHUHUA LI
     UNIVERSITY OF NEBRASKA:
          PEIFENG SU, DEJUN SI, NANDUN THELLAMUREGE, YALI WANG, HUI LI
     UNIVERSITY OF ZURICH: ROBERTO PEVERATI, KIM BALDRIDGE
     N. COPERNICUS UNIVERSITY AND JACKSON STATE UNIVERSITY:
          MARIA BARYSZ
     UNIVERSITY OF COPENHAGEN: Jimmy Kromann, CASPER STEINMANN
     TOKYO INSTITUTE OF TECHNOLOGY: HIROYA NAKATA
     NAGOYA UNIVERSITY: YOSHIO NISHIMOTO, STEPHAN IRLE
     MOSCOW STATE UNIVERSITY: VLADIMIR MIRONOV

 EXECUTION OF GAMESS BEGUN Wed Nov 16 18:43:46 2022

            ECHO OF THE FIRST FEW INPUT CARDS -
 INPUT CARD> $system kdiag=3 mwords=100 memddi=1000 parall=.t. $end                         
 INPUT CARD> $contrl runtyp=energy ispher=1 $end                                            
 INPUT CARD> $contrl icut=9 itol=20 inttyp=rysquad qmttol=1.0d-05 nosym=1 $end              
 INPUT CARD> $scf    npunch=2 conv=1.0d-06 dirscf=.t.      $end                             
 INPUT CARD> $contrl scftyp=mcscf  mult=2 maxit=200 icharg=1 mplevl=2 $end                  
 INPUT CARD> $guess  guess=moread norb=29 purify=.t. $end                                   
 INPUT CARD> $basis  gbasis=ccd $end                                                        
 INPUT CARD> $mcscf  cistep=gmcci fullnr=.t. finci=mos                                      
 INPUT CARD>         acurcy=1.d-6 maxit=100 $end                                            
 INPUT CARD> $trans  dirtrf=.t. $end                                                        
 INPUT CARD> $mrmp   mrpt=gmcpt rdvecs=.f. $end                                             
 INPUT CARD> $gmcpt  nmofzc=0 nmodoc=1 nmoact=7 nelact=7 stsym(1)=A                         
 INPUT CARD>         reftyp=ormas nspace=1 mstart(1)=2 mine(1)=7 maxe(1)=7                  
 INPUT CARD>         kstate(1)=1,1,1                                                        
 INPUT CARD>         wstate(1)=1,1,1                                                        
 INPUT CARD>         iwgt=0 thrwgt=-1.0 krot=.f. kszdoe=.f. knospn=.f.                      
 INPUT CARD>         thrde=-1.0 edshft=0.02 $end                                            
 INPUT CARD> $data                                                                          
 INPUT CARD> NH3+ 3 states calculation at NH3 structure.                                    
 INPUT CARD> c1                                                                             
 INPUT CARD>N 7.0 0.018686754000000003 0.031144515 -0.1693805222                            
 INPUT CARD>H 1.0 -0.80912985 0.6573892708 0.18175184910000003                              
 INPUT CARD>H 1.0 -0.427003259 -0.7252741238 0.4103592301                                   
 INPUT CARD>H 1.0 0.976475666 -0.364878726 0.1772671241                                     
 INPUT CARD>$end                                                                            
 INPUT CARD>--- OPTIMIZED RHF      MO-S --- GENERATED AT Mon Nov 14 16:47:08 2022           
 INPUT CARD>E=      -56.3825050291, E(NUC)=   11.8429239490                                 
 INPUT CARD> $VEC                                                                           
 INPUT CARD> 1  1-1.00134066E+00-2.25158504E-03 3.44925845E-03 0.00000000E+00 0.00000000E+00
 INPUT CARD> 1  2-2.13170927E-03 0.00000000E+00 0.00000000E+00 6.57129898E-04-6.87950443E-05
 INPUT CARD> 1  3-6.87950443E-05 1.37590089E-04 0.00000000E+00 0.00000000E+00 0.00000000E+00
 INPUT CARD> 1  4 3.25502815E-04-4.84772356E-04 3.62525460E-04-6.27912517E-04-3.45956485E-04
 INPUT CARD> 1  5 3.25502815E-04-4.84772356E-04 3.62525460E-04 6.27912517E-04-3.45956485E-04
 INPUT CARD> 1  6 3.25502815E-04-4.84772356E-04-7.25050921E-04 0.00000000E+00-3.45956485E-04
 INPUT CARD> 2  1 1.31286642E-02-4.05911371E-01-2.82090992E-01 0.00000000E+00 0.00000000E+00
 INPUT CARD> 2  2-7.71489043E-02 0.00000000E+00 0.00000000E+00 9.73717494E-03 6.62450916E-04
 INPUT CARD> 2  3 6.62450916E-04-1.32490183E-03 0.00000000E+00 0.00000000E+00 0.00000000E+00
 INPUT CARD> 2  4-1.96090317E-01-1.96656153E-02-1.74855877E-02 3.02859263E-02 8.68214399E-03
 INPUT CARD> 2  5-1.96090317E-01-1.96656153E-02-1.74855877E-02-3.02859263E-02 8.68214399E-03
 INPUT CARD> 2  6-1.96090317E-01-1.96656153E-02 3.49711754E-02 0.00000000E+00 8.68214399E-03
 INPUT CARD> 3  1 0.00000000E+00 0.00000000E+00 0.00000000E+00 4.48608762E-01 0.00000000E+00
 INPUT CARD> 3  2 0.00000000E+00 2.18692520E-01 0.00000000E+00 0.00000000E+00 1.30198027E-02
 INPUT CARD> 3  3-1.30198027E-02 0.00000000E+00 0.00000000E+00 2.71832968E-02 0.00000000E+00
 INPUT CARD> 3  4-1.85332726E-01-7.03958951E-02 8.47929477E-03 1.95242443E-02 8.32835058E-03
 INPUT CARD> 3  5-1.85332726E-01-7.03958951E-02 8.47929477E-03-1.95242443E-02 8.32835058E-03
 INPUT CARD> 3  6 3.70665453E-01 1.40791790E-01-2.53376884E-02 0.00000000E+00-1.66567012E-02
 INPUT CARD> 4  1 0.00000000E+00 0.00000000E+00 0.00000000E+00 0.00000000E+00 4.48608762E-01
 INPUT CARD> 4  2 0.00000000E+00 0.00000000E+00 2.18692520E-01 0.00000000E+00 0.00000000E+00
 INPUT CARD> 4  3 0.00000000E+00 0.00000000E+00-1.50339731E-02 0.00000000E+00 2.71832968E-02
 INPUT CARD> 4  4 3.21005698E-01 1.21929267E-01 1.95242443E-02-1.40653607E-02-1.44251263E-02
  100000000 WORDS OF MEMORY AVAILABLE

     BASIS OPTIONS
     -------------
     GBASIS=CCD          IGAUSS=       0      POLAR=NONE    
     NDFUNC=       0     NFFUNC=       0     DIFFSP=       F
     NPFUNC=       0      DIFFS=       F     BASNAM=        


     RUN TITLE
     ---------
  NH3+ 3 states calculation at NH3 structure.                                    

 THE POINT GROUP OF THE MOLECULE IS C1      
 THE ORDER OF THE PRINCIPAL AXIS IS     0

 ATOM      ATOMIC                      COORDINATES (BOHR)
           CHARGE         X                   Y                   Z
 N           7.0     0.0353128447        0.0588545994       -0.3200827746
 H           1.0    -1.5290337050        1.2422855891        0.3434611926
 H           1.0    -0.8069191554       -1.3705693600        0.7754665014
 H           1.0     1.8452714424       -0.6895208109        0.3349862912

          INTERNUCLEAR DISTANCES (ANGS.)
          ------------------------------

                1 N          2 H          3 H          4 H     

   1 N       0.0000000    1.0957905 *  1.0520964 *  1.0928671 *
   2 H       1.0957905 *  0.0000000    1.4525977 *  2.0575323 *
   3 H       1.0520964 *  1.4525977 *  0.0000000    1.4676409 *
   4 H       1.0928671 *  2.0575323 *  1.4676409 *  0.0000000  

  * ... LESS THAN  3.000


     ATOMIC BASIS SET
     ----------------
 THE CONTRACTED PRIMITIVE FUNCTIONS HAVE BEEN UNNORMALIZED
 THE CONTRACTED BASIS FUNCTIONS ARE NOW NORMALIZED TO UNITY

  SHELL TYPE  PRIMITIVE        EXPONENT          CONTRACTION COEFFICIENT(S)

 N         

      1   S       1          9046.0000000    0.000699617413
      1   S       2          1357.0000000    0.005386054630
      1   S       3           309.3000000    0.027391021189
      1   S       4            87.7300000    0.103150591982
      1   S       5            28.5600000    0.278570663317
      1   S       6            10.2100000    0.448294849454
      1   S       7             3.8380000    0.278085928395
      1   S       8             0.7466000    0.015431561233

      2   S       9          9046.0000000   -0.000304990096
      2   S      10          1357.0000000   -0.002408026379
      2   S      11           309.3000000   -0.011944448725
      2   S      12            87.7300000   -0.048925992909
      2   S      13            28.5600000   -0.134472724725
      2   S      14            10.2100000   -0.315112577700
      2   S      15             3.8380000   -0.242857832550
      2   S      16             0.7466000    1.094382206854

      3   S      17             0.2248000    1.000000000000

      4   P      18            13.5500000    0.058905676772
      4   P      19             2.9170000    0.320461106714
      4   P      20             0.7973000    0.753042061792

      5   P      21             0.2185000    1.000000000000

      6   D      22             0.8170000    1.000000000000

 H         

      7   S      23            13.0100000    0.033498726390
      7   S      24             1.9620000    0.234800801174
      7   S      25             0.4446000    0.813682957883

      8   S      26             0.1220000    1.000000000000

      9   P      27             0.7270000    1.000000000000

 H         

     10   S      28            13.0100000    0.033498726390
     10   S      29             1.9620000    0.234800801174
     10   S      30             0.4446000    0.813682957883

     11   S      31             0.1220000    1.000000000000

     12   P      32             0.7270000    1.000000000000

 H         

     13   S      33            13.0100000    0.033498726390
     13   S      34             1.9620000    0.234800801174
     13   S      35             0.4446000    0.813682957883

     14   S      36             0.1220000    1.000000000000

     15   P      37             0.7270000    1.000000000000

 TOTAL NUMBER OF BASIS SET SHELLS             =   15
 NUMBER OF CARTESIAN GAUSSIAN BASIS FUNCTIONS =   30
 NOTE: THIS RUN WILL RESTRICT THE MO VARIATION SPACE TO SPHERICAL HARMONICS.
 THE NUMBER OF ORBITALS KEPT IN THE VARIATIONAL SPACE WILL BE PRINTED LATER.
 NUMBER OF ELECTRONS                          =    9
 CHARGE OF MOLECULE                           =    1
 SPIN MULTIPLICITY                            =    2
 NUMBER OF OCCUPIED ORBITALS (ALPHA)          =    5
 NUMBER OF OCCUPIED ORBITALS (BETA )          =    4
 TOTAL NUMBER OF ATOMS                        =    4
 THE NUCLEAR REPULSION ENERGY IS       11.2727674693

     $CONTRL OPTIONS
     ---------------
 SCFTYP=MCSCF        RUNTYP=ENERGY       EXETYP=RUN     
 MPLEVL=       2     CITYP =NONE         CCTYP =NONE         VBTYP =NONE    
 DFTTYP=NONE         TDDFT =NONE    
 MULT  =       2     ICHARG=       1     NZVAR =       0     COORD =UNIQUE  
 PP    =NONE         RELWFN=NONE         LOCAL =NONE         NUMGRD=       F
 ISPHER=       1     NOSYM =       1     MAXIT =     200     UNITS =ANGS    
 PLTORB=       F     MOLPLT=       F     AIMPAC=       F     FRIEND=        
 NPRINT=       7     IREST =       0     GEOM  =INPUT   
 NORMF =       0     NORMP =       0     ITOL  =      20     ICUT  =       9
 INTTYP=RYSQUAD      GRDTYP=BEST         QMTTOL= 1.0E-05

     $SYSTEM OPTIONS
     ---------------
  REPLICATED MEMORY=   100000000 WORDS (ON EVERY NODE).
 DISTRIBUTED MEMDDI=        1000 MILLION WORDS IN AGGREGATE,
 MEMDDI DISTRIBUTED OVER   1 PROCESSORS IS  1000000000 WORDS/PROCESSOR.
 TOTAL MEMORY REQUESTED ON EACH PROCESSOR=  1100000000 WORDS.
 TIMLIM=      525600.00 MINUTES, OR     365.0 DAYS.
 PARALL= T  BALTYP=  DLB     KDIAG=    3  COREFL= F
 MXSEQ2=     300 MXSEQ3=     150  mem10=         0

          ----------------
          PROPERTIES INPUT
          ----------------

     MOMENTS            FIELD           POTENTIAL          DENSITY
 IEMOM =       1   IEFLD =       0   IEPOT =       0   IEDEN =       0
 WHERE =COMASS     WHERE =NUCLEI     WHERE =NUCLEI     WHERE =NUCLEI  
 OUTPUT=BOTH       OUTPUT=BOTH       OUTPUT=BOTH       OUTPUT=BOTH    
 IEMINT=       0   IEFINT=       0                     IEDINT=       0
                                                       MORB  =       0

     -------------------------------
     INTEGRAL TRANSFORMATION OPTIONS
     -------------------------------
     NWORD  =            0
     CUTOFF = 1.0E-09     MPTRAN =       0
     DIRTRF =       T     AOINTS =DUP     

          ----------------------
          MCSCF INPUT PARAMETERS
          ----------------------
 CONVERGER SELECTION: FOCAS = F  SOSCF = F  FULLNR = T  QUD = F  JACOBI = F
 SECULAR EQUATION METHOD CISTEP = GMCCI   
 --- GENERAL INPUT OPTIONS:
 MAXIT =     100  MICIT =       1  ACURCY= 1.000E-06
 DAMP  =   0.000  CANONC=       T  ENGTOL= 1.000E-10
 EKT   =       F  NPUNCH=       2  NWORD =         0
 REGENERATE CI AFTER CONVERGENCE = NONE    
 DIABATIZATION AFTER CONVERGENCE =        F
 --- INPUT FOR FULLNR CONVERGER:
 METHOD=DM2       FORS  =       F  DROPC =       T
 LINSER=       F  FCORE =       F  NORB  =      30

          ----------------------
          INTEGRAL INPUT OPTIONS
          ----------------------
 NOPK  =       1 NORDER=       0 SCHWRZ=       T

 ------------------------------------------
 MULTIREFERENCE PERTURBATION THEORY CONTROL
 ------------------------------------------
 MRPT=GMCPT    READ CONVERGED MCSCF VECTORS= F


     ------------------------------------------
     THE POINT GROUP IS C1 , NAXIS= 1, ORDER= 1
     ------------------------------------------

 -- VARIATIONAL SPACE WILL BE RESTRICTED TO PURE SPHERICAL HARMONICS ONLY --
 AFTER EXCLUDING CONTAMINANT COMBINATIONS FROM THE CARTESIAN GAUSSIAN BASIS
 SET, THE NUMBER OF SPHERICAL HARMONICS KEPT IN THE VARIATION SPACE IS   29

     DIMENSIONS OF THE SYMMETRY SUBSPACES ARE
 A   =   29

 ..... DONE SETTING UP THE RUN .....
 CPU     0: STEP CPU TIME=     0.03 TOTAL CPU TIME=          0.0 (      0.0 MIN)
 TOTAL WALL CLOCK TIME=          0.0 SECONDS, CPU UTILIZATION IS    60.00%

          ********************
          1 ELECTRON INTEGRALS
          ********************
 TIME TO DO   DIPOLE INTEGRALS=      0.00
 ...... END OF ONE-ELECTRON INTEGRALS ......
 CPU     0: STEP CPU TIME=     0.00 TOTAL CPU TIME=          0.0 (      0.0 MIN)
 TOTAL WALL CLOCK TIME=          0.0 SECONDS, CPU UTILIZATION IS    60.00%

          -------------
          GUESS OPTIONS
          -------------
          GUESS =MOREAD            NORB  =      29          NORDER=       0
          MIX   =       F          PRTMO =       F          PUNMO =       F
          TOLZ  = 1.0E-08          TOLE  = 1.0E-05
          SYMDEN=       F          PURIFY=       T

 INITIAL GUESS ORBITALS GENERATED BY MOREAD   ROUTINE.

 STATISTICS FOR GENERATION OF SYMMETRY ORBITAL -Q- MATRIX
 NUMBER OF CARTESIAN ATOMIC ORBITALS=         30
 NUMBER OF SPHERICAL CONTAMINANTS DROPPED=     1
 NUMBER OF LINEARLY DEPENDENT MOS DROPPED=     0
 TOTAL NUMBER OF MOS IN VARIATION SPACE=      29
 ORBITAL PURIFICATION WILL OCCUR

 SYMMETRIES FOR INITIAL GUESS ORBITALS FOLLOW.   BOTH SET(S).
     5 ORBITALS ARE OCCUPIED (    1 CORE ORBITALS).
     1=A        2=A        3=A        4=A        5=A        6=A        7=A   
     8=A        9=A       10=A       11=A       12=A       13=A       14=A   
    15=A       16=A       17=A       18=A       19=A       20=A       21=A   
    22=A       23=A       24=A       25=A       26=A       27=A       28=A   
    29=A   
 ...... END OF INITIAL ORBITAL SELECTION ......
 CPU     0: STEP CPU TIME=     0.01 TOTAL CPU TIME=          0.0 (      0.0 MIN)
 TOTAL WALL CLOCK TIME=          0.0 SECONDS, CPU UTILIZATION IS    80.00%

                    ----------------------
                    AO INTEGRAL TECHNOLOGY
                    ----------------------
     S,P,L SHELL ROTATED AXIS INTEGRALS, REPROGRAMMED BY
        KAZUYA ISHIMURA (IMS) AND JOSE SIERRA (SYNSTAR).
     S,P,D,L SHELL ROTATED AXIS INTEGRALS PROGRAMMED BY
        KAZUYA ISHIMURA (INSTITUTE FOR MOLECULAR SCIENCE).
     S,P,D,F,G SHELL TO TOTAL QUARTET ANGULAR MOMENTUM SUM 5,
        ERIC PROGRAM BY GRAHAM FLETCHER (ELORET AND NASA ADVANCED
        SUPERCOMPUTING DIVISION, AMES RESEARCH CENTER).
     S,P,D,F,G,L SHELL GENERAL RYS QUADRATURE PROGRAMMED BY
        MICHEL DUPUIS (PACIFIC NORTHWEST NATIONAL LABORATORY).

          --------------------
          2 ELECTRON INTEGRALS
          --------------------

 DIRECT SCF METHOD SKIPS INTEGRAL STORAGE ON DISK.
 DIRECT TRANSFORMATION SKIPS AO INTEGRAL STORAGE ON DISK.
  ...... END OF TWO-ELECTRON INTEGRALS .....
 STEP CPU TIME =     0.02 TOTAL CPU TIME =          0.1 (      0.0 MIN)
 TOTAL WALL CLOCK TIME=          0.1 SECONDS, CPU UTILIZATION IS    75.00%
 DDI: Creating Array [0] - 900 x 36 = 32400 words.
 DDI: Creating Array [1] - 21 x 288 = 6048 words.
 DDI: Creating Array [2] - 36 x 36 = 1296 words.
 DDI: Creating Array [3] - 465 x 36 = 16740 words.

          -----------------
          MCSCF CALCULATION
          -----------------

 ----- NUCLEAR ENERGY ----- =        11.2727674693

     -------------------------------------------------
     GMC-PT/GMC-QDPT or general MCSCF input parameters
     -------------------------------------------------
 # of frozen core orbs. =         0 ->         0
 # of doubly occ. orbs. =         1
 # of active      orbs. =         7
 # of virtual     orbs. =        21
 # of active electrons  =         7
 # of states in CI      =         3
 Highest state in CI    =         3
 kstate =  1 1 1
 avecoe =  0.333 0.333 0.333
 State symmetry           = A           
 Assigned symmetry number = 1

 <<<Act. MO sym.: 1111111

 <<<Division of 1-ext.:  0
 <<<Division of 2-ext.:  0

 *** Reference space

 Reference type: ORMAS (= Occupation restricted multiple active space)
 # of orbitals          =  7
 # of minimum electrons =  7
 # of maximum electrons =  7
 State symmetry    =    1 (input)
 2*Sz              =    1 (input)
 Spin multiplicity =    2 (input)
 Dimension of reference space =      1225  (from      3432 walks)

 Dimension of reference space =      1225  (from      1225 walks)

 <<<Ionized spaces for Ref-CI:
      0:         1225 /   -1-0:         1960 /  0-1-0:         2891

 EVALUATING EXCHANGE INTEGRALS FOR DIRECT INTEGRAL TRANSFORMATION
 SCHWARZ INEQUALITY OVERHEAD:       465 INTEGRALS, T=        0.01

     --------------------------------------------
     PARTIAL TWO ELECTRON INTEGRAL TRANSFORMATION
     --------------------------------------------

 NUMBER OF CORE MOLECULAR ORBITALS     =    1
 NUMBER OF OCCUPIED MOLECULAR ORBITALS =    8
 TOTAL NUMBER OF MOLECULAR ORBITALS    =   29
 TOTAL NUMBER OF ATOMIC ORBITALS       =   30
 THRESHOLD FOR KEEPING TRANSFORMED 2E- INTEGRALS = 1.000E-09

 -------------------------------     ------------------------------
 DISTRIBUTED DATA TRANSFORMATION     PROGRAM WRITTEN BY G. FLETCHER
 -------------------------------     ------------------------------

 THE DISTRIBUTED MEMORY REQUIRED FOR THIS STEP IS MEMDDI=         1 MWORDS
 CREATING DISTRIBUTED STORAGE FOR [VIR OCC|VIR OCC] INTEGRALS
 CREATING DISTRIBUTED STORAGE FOR [VIR OCC|OCC OCC] INTEGRALS
 CREATING DISTRIBUTED STORAGE FOR [OCC OCC|OCC OCC] INTEGRALS
 CREATING DISTRIBUTED STORAGE FOR [VIR VIR|OCC OCC] INTEGRALS
 FOR    1 PROCESSORS, THE REPLICATED MEMORY NEEDED IS       73700 WORDS.
 SCHWARZ INEQUALITY OVERHEAD:       465 INTEGRALS, T=        0.00

      DIRECT 4-INDEX TRANSFORMATION 
      SCHWARZ INEQUALITY TEST SKIPPED          0 INTEGRAL BLOCKS
 ----- FROZEN CORE ENERGY =       -47.6722243325
 ... END OF INTEGRAL TRANSFORMATION ...
 CPU     0: STEP CPU TIME=     0.22 TOTAL CPU TIME=          0.3 (      0.0 MIN)
 TOTAL WALL CLOCK TIME=          0.3 SECONDS, CPU UTILIZATION IS    93.33%

     --------------------------------     -----------------------------
     MCHF NEWTON-RAPHSON OPTIMIZATION     CODE WRITTEN BY MICHEL DUPUIS
     --------------------------------     -----------------------------
     PARALLEL VERSION WRITTEN BY G. FLETCHER (ELORET)
     NASA ADVANCED SUPERCOMPUTING DIVISION, AMES RESEARCH CENTER

 NUMBER OF INDEPENDENT ORBITAL ROTATION PARAMETERS =   175
 ..... DONE SOLVING NEWTON-RAPHSON EQUATIONS .....
 CPU     0: STEP CPU TIME=     0.89 TOTAL CPU TIME=          1.2 (      0.0 MIN)
 TOTAL WALL CLOCK TIME=          1.2 SECONDS, CPU UTILIZATION IS    98.32%
 ..... DONE WITH NTN-RPH ORBITAL ROTATIONS ..... 
 CPU     0: STEP CPU TIME=     0.00 TOTAL CPU TIME=          1.2 (      0.0 MIN)
 TOTAL WALL CLOCK TIME=          1.2 SECONDS, CPU UTILIZATION IS    98.32%
 MAXIMUM MEMORY USED BY NTN-RPH CODE WAS     57645 WORDS.

 ITER     TOTAL ENERGY      DEL(E)  LAGRANGIAN ASYMMETRY   SQCDF  MICIT   DAMP
   1      -55.634333783 -0.634333783  0.115995   12    5 1.218E-01  1   0.0000
   2      -55.682758461 -0.048424678  0.020609   12    5 4.594E-01  1   0.0000
   3      -55.717676281 -0.034917820  0.013251   11    6 2.180E-01  1   0.0220
   4      -55.732849512 -0.015173231  0.004576   11    6 3.948E-02  1   0.0050
   5      -55.734736199 -0.001886687  0.000799   14    5 8.980E-04  1   0.0000
   6      -55.734784996 -0.000048797  0.000312   14    5 5.614E-05  1   0.0000
   7      -55.734789373 -0.000004377  0.000130   14    5 9.304E-06  1   0.0000
   8      -55.734790158 -0.000000785  0.000059   14    5 1.963E-06  1   0.0000
   9      -55.734790326 -0.000000168  0.000028   14    5 4.708E-07  1   0.0000
  10      -55.734790366 -0.000000040  0.000014   23    5 1.235E-07  1   0.0000
  11      -55.734790376 -0.000000010  0.000007   23    5 3.451E-08  1   0.0000
  12      -55.734790378 -0.000000003  0.000004   12    8 1.004E-08  1   0.0000
  13      -55.734790379 -0.000000001  0.000002   12    8 3.001E-09  1   0.0000
  14      -55.734790379 -0.000000000  0.000001   12    8 9.119E-10  1   0.0000

          --------------------
          LAGRANGIAN CONVERGED
          --------------------

 FINAL MCSCF ENERGY IS      -55.7347903795 AFTER  14 ITERATIONS

 -MCCI- BASED ON OPTIMIZED ORBITALS
 ----------------------------------

 PLEASE NOTE: IF THE ACTIVE ORBITALS ARE CANONICALIZED BELOW,
 THE FOLLOWING CI EXPANSION COEFFICIENTS AND THE DENSITY DO NOT
 CORRESPOND TO THE PRINTED ORBITALS.  THE PRINTED EXPANSIONS MATCH
 THE ORBITALS USED DURING THE LAST ITERATION.  IF YOU WISH TO SEE
 CI EXPANSIONS BASED ON THE CANONICAL (OR NATURAL) ORBITALS, YOU
 MUST RUN A CI CALCULATION WITH THAT ORBITAL CHOICE READ IN $VEC.

 Averaged energy =     -55.734790379

 State #    1  Energy =     -55.874786852  S =  0.500

      Det      Coef    Occupancy (Ignoring core)
      ---      ----    --------- --------- -----
        1   -0.908812  11110001110000
        2   -0.056892  11101001110000
        5    0.068169  01111001110000
        8    0.129658  10110101110000
       17    0.136183  11010011110000
       36    0.238437  11110001101000
       71   -0.121151  11110001011000
      211   -0.050937  11110000110100
      386   -0.104400  11110001010010
      393   -0.051573  10110101010010
      701   -0.094917  11110001100001
      717   -0.069484  11010011100001

 State #    2  Energy =     -55.723066245  S =  0.500

      Det      Coef    Occupancy (Ignoring core)
      ---      ----    --------- --------- -----
        1    0.260077  11110001110000
       36    0.828141  11110001101000
       40   -0.057202  01111001101000
       43   -0.089530  10110101101000
       52   -0.080411  11010011101000
       71   -0.403352  11110001011000
      281    0.050419  11110000101100
      456    0.082281  11110001001010
      463    0.050659  10110101001010
      701    0.063368  11110001100001

 State #    3  Energy =     -55.606518042  S =  0.500

      Det      Coef    Occupancy (Ignoring core)
      ---      ----    --------- --------- -----
       36   -0.423080  11110001101000
       71   -0.865290  11110001011000
       78    0.058782  10110101011000
       87    0.080122  11010011011000
      316   -0.068103  11110000011100
      806    0.101551  11110001001001
      822    0.068708  11010011001001

 DENSITY MATRIX OVER ACTIVE MO-S

             1           2           3           4           5

    1    1.9755412
    2   -0.0109580   1.6328246
    3   -0.0214832  -0.0031367   1.6279928
    4   -0.0005538  -0.0031112  -0.0062026   1.6516792
    5    0.1055096   0.0233103   0.0458190   0.0427097   0.0312395
    6   -0.0028162  -0.1497195  -0.0028154  -0.0275037  -0.0048194
    7    0.0066316   0.0073488   0.1568819   0.0561045   0.0100732

             6           7

    6    0.0358328
    7   -0.0057125   0.0448900

 FORMING THE "STANDARD FOCK OPERATOR" IN DIRECT AO INTEGRAL MODE...
 ONLY THE    1 CORE AND   21 VIRTUAL ORBITALS WILL BE CANONICALIZED

          ----------------------
          MCSCF NATURAL ORBITALS
          ----------------------

                      1          2          3          4          5
                  -15.9814     1.9825     1.6553     1.6478     1.6429
                     A          A          A          A          A   
    1  N  1  S    1.001142   0.009597  -0.009388   0.000113   0.003457
    2  N  1  S   -0.001969   0.436614  -0.171071   0.004441   0.090086
    3  N  1  S   -0.006343   0.313656  -0.271466   0.006152   0.135120
    4  N  1  X   -0.000029  -0.025047   0.053244   0.419677   0.249072
    5  N  1  Y   -0.000060  -0.042796   0.083495  -0.228053   0.458113
    6  N  1  Z    0.001089   0.091267   0.589587  -0.004975  -0.032612
    7  N  1  X   -0.000020   0.000032   0.045974   0.162909   0.130142
    8  N  1  Y   -0.000036   0.000370   0.075314  -0.088000   0.238392
    9  N  1  Z   -0.000478   0.011338   0.389157  -0.002026   0.016462
   10  N  1 XX    0.000205   0.000657  -0.011189   0.000892   0.009201
   11  N  1 YY   -0.000049  -0.001129  -0.012377  -0.000647  -0.007248
   12  N  1 ZZ   -0.000155   0.000472   0.023566  -0.000246  -0.001952
   13  N  1 XY   -0.000239  -0.001609  -0.001165  -0.000071  -0.016558
   14  N  1 XZ   -0.000091  -0.001251  -0.000736   0.017450   0.011896
   15  N  1 YZ   -0.000156  -0.001988  -0.001584  -0.009304   0.021690
   16  H  2  S   -0.001705   0.167306   0.102344  -0.330224   0.143252
   17  H  2  S    0.000503  -0.000792   0.030768  -0.048150   0.043554
   18  H  2  X   -0.000679   0.023719   0.011410  -0.025416   0.020995
   19  H  2  Y    0.000593  -0.021680  -0.007736   0.027365   0.009377
   20  H  2  Z    0.000354  -0.005058   0.020482   0.011599  -0.006376
   21  H  3  S   -0.001918   0.216411   0.109736  -0.012104  -0.376608
   22  H  3  S    0.000282   0.008885   0.023423  -0.001907  -0.091096
   23  H  3  X   -0.000451   0.017129   0.010823   0.020549  -0.012876
   24  H  3  Y   -0.000765   0.029063   0.018456  -0.013002  -0.020627
   25  H  3  Z    0.000540  -0.017352   0.018774   0.000536   0.022877
   26  H  4  S   -0.001717   0.167394   0.107030   0.335971   0.126211
   27  H  4  S    0.000512  -0.000739   0.031266   0.048998   0.039817
   28  H  4  X    0.000862  -0.030884  -0.012863  -0.036463  -0.000645
   29  H  4  Y   -0.000288   0.009461   0.006116   0.009194   0.022396
   30  H  4  Z    0.000352  -0.004923   0.020283  -0.012114  -0.005799

                      6          7          8
                    0.0310     0.0209     0.0197
                     A          A          A   
    1  N  1  S    0.123168  -0.187527   0.008845
    2  N  1  S    0.402363  -0.634322   0.028106
    3  N  1  S   -0.021216  -0.188331   0.003879
    4  N  1  X    0.332958   0.235256   0.812102
    5  N  1  Y    0.595274   0.347472  -0.474530
    6  N  1  Z    0.147792  -0.655358   0.021994
    7  N  1  X   -0.016454   0.043025   0.068720
    8  N  1  Y   -0.029715   0.066297  -0.041445
    9  N  1  Z   -0.056167   0.088390  -0.004713
   10  N  1 XX   -0.031723   0.007668   0.037611
   11  N  1 YY    0.028006  -0.010528  -0.037842
   12  N  1 ZZ    0.003717   0.002860   0.000231
   13  N  1 XY    0.058755  -0.013144   0.026266
   14  N  1 XZ   -0.001847  -0.027323  -0.047763
   15  N  1 YZ   -0.004230  -0.042534   0.029343
   16  H  2  S   -0.511168   0.312710   0.569769
   17  H  2  S   -0.108325   0.029305   0.132382
   18  H  2  X   -0.050837   0.027059   0.036145
   19  H  2  Y    0.017527  -0.038515  -0.044050
   20  H  2  Z    0.002564   0.021308   0.017614
   21  H  3  S    0.453356   0.724330  -0.017824
   22  H  3  S    0.143130   0.124420  -0.003471
   23  H  3  X    0.007462   0.035047  -0.043085
   24  H  3  Y    0.011672   0.064265   0.022461
   25  H  3  Z   -0.021019   0.002091   0.000067
   26  H  4  S   -0.499023   0.279659  -0.600268
   27  H  4  S   -0.104063   0.021764  -0.135327
   28  H  4  X    0.039696  -0.043462   0.060221
   29  H  4  Y   -0.034347   0.004087  -0.010264
   30  H  4  Z    0.002632   0.019630  -0.019158

          ------------------------
          MCSCF OPTIMIZED ORBITALS
          ------------------------

                      1          2          3          4          5
                  -15.9814     0.0000     0.0000     0.0000     0.0000
                     A          A          A          A          A   
    1  N  1  S    1.001142  -0.002418  -0.004011  -0.007378  -0.016672
    2  N  1  S   -0.001969   0.400192   0.008080   0.015422  -0.197497
    3  N  1  S   -0.006343   0.313278   0.046707   0.090566  -0.278421
    4  N  1  X   -0.000029  -0.008919   0.402554   0.046877   0.017619
    5  N  1  Y   -0.000060  -0.015535   0.002114   0.436484   0.028912
    6  N  1  Z    0.001089   0.051811  -0.003335  -0.006788   0.578476
    7  N  1  X   -0.000020   0.010174   0.198279   0.053128   0.036353
    8  N  1  Y   -0.000036   0.017922   0.029095   0.255526   0.061287
    9  N  1  Z   -0.000478   0.016512   0.021096   0.040336   0.390002
   10  N  1 XX    0.000205   0.002407   0.002646   0.011609  -0.010296
   11  N  1 YY   -0.000049  -0.002707  -0.002213  -0.010856  -0.013177
   12  N  1 ZZ   -0.000155   0.000300  -0.000433  -0.000752   0.023473
   13  N  1 XY   -0.000239  -0.004829  -0.011853  -0.019069  -0.002860
   14  N  1 XZ   -0.000091  -0.001684   0.024933   0.001712  -0.001811
   15  N  1 YZ   -0.000156  -0.002659  -0.001014   0.025379  -0.003161
   16  H  2  S   -0.001705   0.202006  -0.262069   0.333740   0.121707
   17  H  2  S    0.000503   0.005695  -0.029638   0.076444   0.033207
   18  H  2  X   -0.000679   0.027392  -0.014970   0.034951   0.012826
   19  H  2  Y    0.000593  -0.023212   0.031978  -0.005621  -0.009814
   20  H  2  Z    0.000354  -0.004561   0.006878  -0.009015   0.020744
   21  H  3  S   -0.001918   0.215116  -0.198074  -0.387239   0.121499
   22  H  3  S    0.000282   0.005414  -0.047135  -0.094556   0.024063
   23  H  3  X   -0.000451   0.017833   0.015809  -0.023401   0.011552
   24  H  3  Y   -0.000765   0.030352  -0.023458  -0.014238   0.020054
   25  H  3  Z    0.000540  -0.015353   0.012306   0.024137   0.017999
   26  H  4  S   -0.001717   0.202144   0.424723  -0.014161   0.121546
   27  H  4  S    0.000512   0.005631   0.077774   0.020471   0.033027
   28  H  4  X    0.000862  -0.034063  -0.039072   0.015106  -0.014845
   29  H  4  Y   -0.000288   0.011880   0.020136   0.018684   0.006146
   30  H  4  Z    0.000352  -0.004461  -0.011210   0.000162   0.020737

                      6          7          8          9         10
                    0.0000     0.0000     0.0000     0.1563     0.2076
                     A          A          A          A          A   
    1  N  1  S    0.221777   0.016089   0.028439  -0.144919  -0.000132
    2  N  1  S    0.764138   0.047727   0.086238  -0.221452  -0.000996
    3  N  1  S    0.175458  -0.043960  -0.086831   1.420273  -0.005196
    4  N  1  X   -0.040777   0.949193   0.008747   0.025245   0.147320
    5  N  1  Y   -0.067060  -0.119924   0.872047   0.042695  -0.084824
    6  N  1  Z    0.676569  -0.050323  -0.105815  -0.224723  -0.000487
    7  N  1  X   -0.037818   0.083717  -0.020810  -0.098818  -0.769057
    8  N  1  Y   -0.063475  -0.030662   0.045346  -0.163695   0.427308
    9  N  1  Z   -0.091423   0.001125   0.005573   0.491252   0.003510
   10  N  1 XX   -0.018916   0.023183  -0.039268   0.050567  -0.015061
   11  N  1 YY    0.019334  -0.025808   0.034511  -0.005506   0.013959
   12  N  1 ZZ   -0.000418   0.002625   0.004757  -0.045061   0.001102
   13  N  1 XY    0.036439   0.042689   0.030120  -0.052575  -0.005643
   14  N  1 XZ    0.022853  -0.047206   0.009898  -0.033319  -0.090984
   15  N  1 YZ    0.038308   0.015749  -0.029560  -0.055647   0.049528
   16  H  2  S   -0.461622   0.357887  -0.524302   0.350865   0.419513
   17  H  2  S   -0.065126   0.081035  -0.128901  -0.894921  -1.529866
   18  H  2  X   -0.042242   0.017320  -0.044246  -0.073358  -0.069905
   19  H  2  Y    0.039809  -0.038174   0.019140   0.046809   0.050901
   20  H  2  Z   -0.017602   0.022315   0.001924   0.016140   0.073733
   21  H  3  S   -0.467542   0.296740   0.611952   0.184968   0.017319
   22  H  3  S   -0.055495   0.074846   0.156384  -0.708769  -0.059813
   23  H  3  X   -0.029241  -0.026883   0.036225  -0.046358   0.001403
   24  H  3  Y   -0.051391   0.036497   0.022383  -0.072764  -0.003217
   25  H  3  Z   -0.010212  -0.006248  -0.013650   0.070475   0.002878
   26  H  4  S   -0.462997  -0.635364  -0.039446   0.347487  -0.441090
   27  H  4  S   -0.064893  -0.150213  -0.014668  -0.884926   1.602637
   28  H  4  X    0.055724   0.056735  -0.009003   0.079579  -0.082361
   29  H  4  Y   -0.016838  -0.019785  -0.020159  -0.037287   0.036137
   30  H  4  Z   -0.017193  -0.012802   0.018445   0.013749  -0.073908

                     11         12         13         14         15
                    0.2219     0.5357     0.6352     0.6811     0.7430
                     A          A          A          A          A   
    1  N  1  S    0.036111  -0.075772   0.107094  -0.002298  -0.016815
    2  N  1  S    0.076604  -0.108668   0.375829  -0.007301  -0.040865
    3  N  1  S   -0.199577   0.401465   0.140724   0.002482   0.054510
    4  N  1  X    0.007483  -0.319781   0.098736  -0.413534   0.027634
    5  N  1  Y    0.003701  -0.555704   0.186555   0.238732  -0.017834
    6  N  1  Z    0.056734  -0.389633  -0.596457   0.010244   0.020919
    7  N  1  X    0.182114   0.640217  -0.454785   1.717596  -0.232932
    8  N  1  Y    0.368192   1.099459  -0.822869  -0.972709   0.150946
    9  N  1  Z   -0.188095   0.424659   1.101501  -0.022622  -0.025545
   10  N  1 XX    0.047030   0.000065  -0.045340  -0.050851  -0.140119
   11  N  1 YY   -0.032925  -0.016184  -0.007228   0.050969   0.143149
   12  N  1 ZZ   -0.014106   0.016120   0.052568  -0.000119  -0.003031
   13  N  1 XY   -0.082665  -0.017890   0.024327  -0.035580  -0.095725
   14  N  1 XZ    0.038635   0.015014   0.025758  -0.073138   0.062874
   15  N  1 YZ    0.072129   0.025764   0.042831   0.040763  -0.040543
   16  H  2  S    0.360631  -0.299945  -0.321426   0.714757   0.049276
   17  H  2  S   -1.111786  -0.458511   0.410057   0.604603  -0.120762
   18  H  2  X   -0.024673  -0.016285   0.031208   0.227959   0.097555
   19  H  2  Y    0.007905   0.038201   0.003754  -0.038757   0.377677
   20  H  2  Z    0.002716   0.063986   0.037562   0.120720  -0.180475
   21  H  3  S   -0.626042   0.145474  -0.825281   0.015963   0.020254
   22  H  3  S    2.188668   0.789988  -0.476765   0.004116  -0.002080
   23  H  3  X    0.047016   0.050148  -0.018361  -0.011614   0.448204
   24  H  3  Y    0.080114   0.079352  -0.060499   0.013109  -0.267249
   25  H  3  Z   -0.068526  -0.062296   0.050413   0.002562   0.002020
   26  H  4  S    0.330941  -0.306572  -0.344563  -0.705197  -0.034677
   27  H  4  S   -1.002348  -0.456510   0.397560  -0.618068   0.080111
   28  H  4  X    0.012865   0.040922  -0.026496   0.148179  -0.264665
   29  H  4  Y   -0.017442   0.002323   0.007201  -0.177987  -0.272546
   30  H  4  Z    0.000126   0.063298   0.044839  -0.121525   0.179820

                     16         17         18         19         20
                    0.9840     1.0197     1.2076     1.4005     1.4201
                     A          A          A          A          A   
    1  N  1  S   -0.594028  -0.255361  -0.000076  -0.401806  -0.231951
    2  N  1  S   -1.261363  -0.538892  -0.000038  -0.849370  -0.479167
    3  N  1  S    2.500974   1.249470  -0.000983   1.436937   0.996638
    4  N  1  X    0.045208   0.007233  -0.264377   0.028176  -0.066791
    5  N  1  Y    0.073254   0.020426   0.154265   0.045736  -0.114406
    6  N  1  Z    0.166493   0.067841  -0.001283  -0.051694   0.004143
    7  N  1  X   -0.248966  -0.144170   0.986490   0.124184  -0.273893
    8  N  1  Y   -0.416721  -0.289969  -0.560149   0.190178  -0.464112
    9  N  1  Z    0.058033   0.466758  -0.004190   0.627995   0.526173
   10  N  1 XX   -0.092651   0.021194   0.103696   0.096329   0.019933
   11  N  1 YY   -0.107467   0.139168  -0.104569   0.122432  -0.054293
   12  N  1 ZZ    0.200118  -0.160362   0.000874  -0.218761   0.034359
   13  N  1 XY   -0.008396   0.125587   0.068645   0.020361  -0.065388
   14  N  1 XZ    0.037251   0.093247   0.069663  -0.008853   0.050289
   15  N  1 YZ    0.065237   0.168683  -0.043431  -0.015533   0.091159
   16  H  2  S   -0.324505  -0.144750   0.544185  -0.369397  -0.286381
   17  H  2  S   -0.302926  -0.140926   0.220225  -0.124939   0.064990
   18  H  2  X   -0.022644   0.089055  -0.437995  -0.357582   0.197318
   19  H  2  Y    0.012449   0.312048  -0.180778  -0.436641   0.210143
   20  H  2  Z    0.318481   0.007401  -0.388619  -0.294494  -0.561269
   21  H  3  S   -0.521799  -0.280606   0.002991  -0.378257  -0.346533
   22  H  3  S   -0.381454  -0.232821   0.002526  -0.099079  -0.352059
   23  H  3  X    0.032541  -0.251652   0.161248  -0.046320  -0.044720
   24  H  3  Y    0.073043  -0.424285  -0.085878  -0.050736  -0.085253
   25  H  3  Z    0.279542  -0.468807  -0.000567  -0.282607   0.549039
   26  H  4  S   -0.316765  -0.161788  -0.542177  -0.379415  -0.280394
   27  H  4  S   -0.305809  -0.152692  -0.224519  -0.133518   0.061968
   28  H  4  X    0.029025   0.232241  -0.064132  -0.198236   0.089698
   29  H  4  Y   -0.004805   0.246642   0.459958  -0.536524   0.290282
   30  H  4  Z    0.313176   0.002731   0.391040  -0.284860  -0.566419

                     21         22         23         24         25
                    1.6738     1.7708     1.9076     1.9133     2.1576
                     A          A          A          A          A   
    1  N  1  S    0.007910  -0.002088  -0.212238   0.098644  -0.093592
    2  N  1  S    0.013308   0.087046  -0.505350   0.232777  -0.179965
    3  N  1  S   -0.054673   1.030048  -0.204745   0.081617   0.379282
    4  N  1  X    0.101207   0.062182   0.381777   0.373035   0.043919
    5  N  1  Y   -0.073351   0.080802   0.174672  -0.390682   0.066376
    6  N  1  Z   -0.000203   0.108133  -0.251516   0.112136  -0.017074
    7  N  1  X    0.847988   0.022841  -0.076504   0.187104   0.017793
    8  N  1  Y   -0.484910  -0.033025  -0.280299   0.043559   0.032631
    9  N  1  Z   -0.023489   0.391591  -0.039669   0.012436   0.462772
   10  N  1 XX   -0.054656  -0.105285   0.013405  -0.164689  -0.198088
   11  N  1 YY    0.049412   0.065855   0.181795   0.077681  -0.649416
   12  N  1 ZZ    0.005244   0.039430  -0.195200   0.087008   0.847504
   13  N  1 XY   -0.043915   0.162289   0.016433  -0.116289  -0.366400
   14  N  1 XZ   -0.090578   0.018916  -0.200628  -0.106805  -0.207864
   15  N  1 YZ    0.057420   0.049288  -0.171761   0.192720  -0.337221
   16  H  2  S    0.322827  -0.125283   0.047172   0.031116  -0.146158
   17  H  2  S    0.275486  -0.439430   0.142565   0.334155  -0.063969
   18  H  2  X    0.252434  -0.670375   0.504479   0.185807  -0.048959
   19  H  2  Y    0.161087   0.502911  -0.109037  -0.670387   0.141913
   20  H  2  Z   -0.572849  -0.148615  -0.230348  -0.266080  -0.237002
   21  H  3  S    0.025733  -0.289645  -0.101338   0.046174  -0.137691
   22  H  3  S   -0.017845   0.287977   0.341310  -0.157208   0.062993
   23  H  3  X   -0.728097   0.111162   0.571294   0.137291  -0.118056
   24  H  3  Y    0.394166   0.273361   0.657539  -0.533218  -0.233797
   25  H  3  Z    0.008083   0.087113  -0.369427   0.163913  -0.680478
   26  H  4  S   -0.312202  -0.146827   0.009591  -0.052306  -0.146947
   27  H  4  S   -0.233476  -0.461168  -0.161207  -0.317282  -0.072331
   28  H  4  X   -0.068021   0.778723   0.267508   0.694700   0.148496
   29  H  4  Y   -0.255947  -0.352054   0.365428  -0.164792  -0.003743
   30  H  4  Z    0.583643  -0.097131   0.069705   0.346267  -0.228030

                     26         27         28         29
                    2.2595     2.5947     2.6000     3.1043
                     A          A          A          A   
    1  N  1  S    0.006908  -0.033531  -0.153811   0.058932
    2  N  1  S    0.013061  -0.029526  -0.144961   0.034724
    3  N  1  S   -0.030519   0.565418   2.427949  -0.878711
    4  N  1  X    0.090325   0.343890  -0.235470  -0.199224
    5  N  1  Y   -0.055133  -0.276417  -0.208077  -0.331846
    6  N  1  Z    0.000595   0.076445   0.326927  -0.023393
    7  N  1  X   -0.060119   1.096238  -0.710320  -0.289138
    8  N  1  Y    0.048944  -0.857859  -0.582589  -0.478037
    9  N  1  Z   -0.025016   0.171762   0.741070   0.000600
   10  N  1 XX    0.833194   0.261326   0.300405  -0.911572
   11  N  1 YY   -0.805179  -0.143574   0.207873   0.376018
   12  N  1 ZZ   -0.028015  -0.117752  -0.508278   0.535554
   13  N  1 XY    0.570081   0.091769  -0.169058   1.282382
   14  N  1 XZ   -0.225214   0.938281  -0.767288  -0.284179
   15  N  1 YZ    0.162887  -0.816018  -0.748378  -0.486676
   16  H  2  S    0.023066   0.765489  -0.822567   0.875385
   17  H  2  S    0.077155   0.384479  -0.174737   0.250123
   18  H  2  X    0.371749   0.588038  -0.314025   0.607980
   19  H  2  Y    0.210729  -0.303746   0.446411  -0.495808
   20  H  2  Z   -0.136183   0.014986   0.239978  -0.412846
   21  H  3  S    0.012735  -0.321262  -1.399741  -0.854363
   22  H  3  S    0.002296  -0.130071  -0.554584  -0.243178
   23  H  3  X    0.392087  -0.309095  -0.388728  -0.344028
   24  H  3  Y   -0.217179  -0.051922  -0.764974  -0.586573
   25  H  3  Z    0.027219   0.130732   0.565051   0.455447
   26  H  4  S   -0.005931  -1.054007  -0.403452   0.889271
   27  H  4  S   -0.071241  -0.424462   0.007974   0.254133
   28  H  4  X   -0.015010   0.748092   0.249632  -0.738682
   29  H  4  Y   -0.447140  -0.334741   0.111210   0.275618
   30  H  4  Z    0.155882   0.084265   0.224437  -0.413538
 .....DONE WITH MCSCF ITERATIONS.....
 CPU     0: STEP CPU TIME=     9.73 TOTAL CPU TIME=         10.9 (      0.2 MIN)
 TOTAL WALL CLOCK TIME=         10.9 SECONDS, CPU UTILIZATION IS    99.91%

     ----------------------------------------------------------------
     PROPERTY VALUES FOR THE MCSCF SELF-CONSISTENT FIELD WAVEFUNCTION
     ----------------------------------------------------------------

          -----------------
          ENERGY COMPONENTS
          -----------------

         WAVEFUNCTION NORMALIZATION =       1.0000000000

                ONE ELECTRON ENERGY =     -94.0901210444
                TWO ELECTRON ENERGY =      27.0825631957
           NUCLEAR REPULSION ENERGY =      11.2727674693
                                      ------------------
                       TOTAL ENERGY =     -55.7347903795

 ELECTRON-ELECTRON POTENTIAL ENERGY =      27.0825631957
  NUCLEUS-ELECTRON POTENTIAL ENERGY =    -149.8393359297
   NUCLEUS-NUCLEUS POTENTIAL ENERGY =      11.2727674693
                                      ------------------
             TOTAL POTENTIAL ENERGY =    -111.4840052647
               TOTAL KINETIC ENERGY =      55.7492148853
                 VIRIAL RATIO (V/T) =       1.9997412608

          ---------------------------------------
          MULLIKEN AND LOWDIN POPULATION ANALYSES
          ---------------------------------------

     ATOMIC MULLIKEN POPULATION IN EACH MOLECULAR ORBITAL

                      1          2          3          4          5

                  2.000000   1.982544   1.655287   1.647771   1.642880

    1             2.000747   1.342582   1.541167   0.902070   1.111597
    2            -0.000211   0.175782   0.033042   0.360569   0.073590
    3            -0.000321   0.288357   0.045425   0.011945   0.398547
    4            -0.000215   0.175823   0.035653   0.373187   0.059146

                      6          7          8

                  0.030951   0.020899   0.019668

    1             0.013702   0.011244   0.010803
    2             0.006632   0.001454   0.004155
    3             0.004299   0.007053   0.000079
    4             0.006317   0.001148   0.004631
 WARNING! MCSCF POPULATIONS SHOWN ABOVE ARE FOR THE NATURAL ORBITALS.
 IGNORE THE ABOVE DATA FOR MCSCF FUNCTIONS WHICH ARE NOT OF -FORS- TYPE.
 THE FOLLOWING POPULATIONS ARE CORRECT FOR ANY MCSCF WAVEFUNCTION.

               ----- POPULATIONS IN EACH AO -----
                             MULLIKEN      LOWDIN
              1  N  1  S      2.00239     1.90151
              2  N  1  S      0.82280     0.57737
              3  N  1  S      0.67866     0.40818
              4  N  1  X      0.66348     0.58654
              5  N  1  Y      0.70872     0.64457
              6  N  1  Z      0.87300     0.81931
              7  N  1  X      0.29152     0.40221
              8  N  1  Y      0.34989     0.43326
              9  N  1  Z      0.52568     0.56432
             10  N  1 XX      0.00063     0.17815
             11  N  1 YY      0.00156     0.15819
             12  N  1 ZZ      0.00463     0.14372
             13  N  1 XY      0.00521     0.01238
             14  N  1 XZ      0.00577     0.01017
             15  N  1 YZ      0.00000     0.01135
             16  H  2  S      0.55964     0.43608
             17  H  2  S      0.04024     0.14880
             18  H  2  X      0.02431     0.04322
             19  H  2  Y      0.01914     0.03426
             20  H  2  Z      0.01169     0.02958
             21  H  3  S      0.64124     0.49582
             22  H  3  S      0.05312     0.14575
             23  H  3  X      0.01619     0.03033
             24  H  3  Y      0.02497     0.04575
             25  H  3  Z      0.01987     0.04482
             26  H  4  S      0.56084     0.43775
             27  H  4  S      0.03958     0.14873
             28  H  4  X      0.03174     0.05188
             29  H  4  Y      0.01188     0.02633
             30  H  4  Z      0.01165     0.02966

          ----- MULLIKEN ATOMIC OVERLAP POPULATIONS -----
          (OFF-DIAGONAL ELEMENTS NEED TO BE MULTIPLIED BY 2)

             1           2           3           4

    1    6.0661292
    2    0.2881502   0.3801097
    3    0.2900062  -0.0073577   0.4798566
    4    0.2896255  -0.0058892  -0.0071204   0.3790750

          TOTAL MULLIKEN AND LOWDIN ATOMIC POPULATIONS
       ATOM         MULL.POP.    CHARGE          LOW.POP.     CHARGE
    1 N             6.933911    0.066089         6.851239    0.148761
    2 H             0.655013    0.344987         0.691948    0.308052
    3 H             0.755385    0.244615         0.762466    0.237534
    4 H             0.655691    0.344309         0.694347    0.305653

          MULLIKEN SPHERICAL HARMONIC POPULATIONS
       ATOM           S       P       D      F      G      H      I    TOTAL
    1 N             3.50    3.41    0.02   0.00   0.00   0.00   0.00    6.93
    2 H             0.60    0.06    0.00   0.00   0.00   0.00   0.00    0.66
    3 H             0.69    0.06    0.00   0.00   0.00   0.00   0.00    0.76
    4 H             0.60    0.06    0.00   0.00   0.00   0.00   0.00    0.66

          ---------------------
          ELECTROSTATIC MOMENTS
          ---------------------

 POINT   1           X           Y           Z (BOHR)    CHARGE
                -0.000002   -0.000003   -0.177185        1.00 (A.U.)
         DX          DY          DZ         /D/  (DEBYE)
    -0.346433   -0.576118    2.126233    2.229977
 ...... END OF PROPERTY EVALUATION ......
 CPU     0: STEP CPU TIME=     0.00 TOTAL CPU TIME=         10.9 (      0.2 MIN)
 TOTAL WALL CLOCK TIME=         10.9 SECONDS, CPU UTILIZATION IS    99.82%

     -------------------------------------------------
     GMC-PT/GMC-QDPT or general MCSCF input parameters
     -------------------------------------------------
 # of frozen core orbs. =         0 ->         0
 # of doubly occ. orbs. =         1
 # of active      orbs. =         7
 # of virtual     orbs. =        21
 # of active electrons  =         7
 # of states in CI      =         3
 Highest state in CI    =         3
 kstate =  1 1 1
 avecoe =  0.333 0.333 0.333
 State symmetry           = A           
 Assigned symmetry number = 1

 <<<Act. MO sym.: 1111111

 <<<Division of 1-ext.:  0
 <<<Division of 2-ext.:  0

     ------------------------
     Orbital canonicalization
     ------------------------

 MOs are canonicalized for core, virtual, and invariant-active orbital spaces.
 This is a part of the GMC-QDPT calculation.
 SCHWARZ INEQUALITY OVERHEAD:       465 INTEGRALS, T=        0.00
 DIRECT TRANSFORMATION SKIPS AO INTEGRAL STORAGE ON DISK.

 Averaged energy =     -55.734790379

 State #    1  Energy =     -55.874786852  S =  0.500
 State #    2  Energy =     -55.723066245  S =  0.500
 State #    3  Energy =     -55.606518042  S =  0.500

 Orbital energies for filled orbital space
  -15.981371
 Orbital energies for active orbital space
   -1.507588  -0.965164  -0.851960  -0.732643   0.369324
    0.391300   0.175428
 Orbital energies for external orbital space
    0.156312   0.207608   0.221937   0.535704   0.635174
    0.681055   0.743040   0.984036   1.019716   1.207640
    1.400519   1.420097   1.673803   1.770787   1.907567
    1.913302   2.157591   2.259501   2.594679   2.600010
    3.104317

 Zero values mean non-canonical orbitals.
 ... done with orbital canonicalization ...
 CPU     0: STEP CPU TIME=     0.67 TOTAL CPU TIME=         11.6 (      0.2 MIN)
 TOTAL WALL CLOCK TIME=         11.6 SECONDS, CPU UTILIZATION IS   100.00%

     --------------------------------------------
     PARTIAL TWO ELECTRON INTEGRAL TRANSFORMATION
     --------------------------------------------

 NUMBER OF CORE MOLECULAR ORBITALS     =    0
 NUMBER OF OCCUPIED MOLECULAR ORBITALS =    8
 TOTAL NUMBER OF MOLECULAR ORBITALS    =   29
 TOTAL NUMBER OF ATOMIC ORBITALS       =   30
 THRESHOLD FOR KEEPING TRANSFORMED 2E- INTEGRALS = 1.000E-09
 AO INTEGRALS WILL BE CALCULATED IN DIRECT MODE...
 DIRECT TRANSFORMATION SKIPS AO INTEGRAL STORAGE ON DISK.
 SCHWARZ INEQUALITY OVERHEAD:       465 INTEGRALS, T=        0.00

 PLAN A: REQUIREMENTS FOR FULLY IN-MEMORY TRANSFORMATION:
 # OF WORDS AVAILABLE =            100000000
 # OF WORDS NEEDED    =               221798

 PARALLEL ONLY WORKS WITH THE SEGMENTED ALGORITHM.
 ADJUSTING MEMORY TO USE SEGMENTED ALGORITHM.


 PLAN B: REQUIREMENTS FOR THE SEGMENTED TRANSFORMATION:
       MINIMUM=         124148 WORDS FOR 1 MOLECULAR ORBITAL PER PASS
       MAXIMUM=         221798 WORDS FOR ALL MOLECULAR ORBITALS IN 1 PASS
              (          13950 EXTRA WORDS INCLUDES 1 EXTRA ORBITAL/PASS)
 THIS RUN USES=         221798 WORDS,
 DISTRIBUTING   1 PASSES EACH CONTAINING     8 ORBITALS OVER   1 PROCESSORS.

 CHOOSING SEGMENTED PARTIAL TRANSFORMATION...
 DIRECT TRANSFORMATION SKIPS AO INTEGRAL STORAGE ON DISK.
 PASS #   1 TOOK        0.04 SECONDS.
 TOTAL NUMBER OF TRANSFORMED 2E- INTEGRALS KEPT =        29226
 ... END OF INTEGRAL TRANSFORMATION ...
 CPU     0: STEP CPU TIME=     0.04 TOTAL CPU TIME=         11.6 (      0.2 MIN)
 TOTAL WALL CLOCK TIME=         11.6 SECONDS, CPU UTILIZATION IS    99.91%

     --------     ------------------------------------------
     GMC-QDPT     Program written by H.Nakano (Kyushu Univ.)
     --------     ------------------------------------------

 *** Reference space

 Reference type: ORMAS (= Occupation restricted multiple active space)
 # of orbitals          =  7
 # of minimum electrons =  7
 # of maximum electrons =  7
 State symmetry    =    1 (input)
 2*Sz              =    1 (input)
 Spin multiplicity =    2 (input)
 Dimension of reference space =      1225  (from      3432 walks)

 Dimension of reference space =      1225  (from      1225 walks)

 <<<Ionized spaces for Ref-CI:
      0:         1225 /   -1-0:         1960 /  0-1-0:         2891

 ***                    ***
 *** Reference space CI ***
 ***                    ***

 Converged after   40 iterations

 Reference wavefunctions:

 State #    1  Energy =     -55.874786852  S =  0.500

      Det      Coef    Occupancy (Ignoring core)
      ---      ----    --------- --------- -----
        1   -0.974935  11110001110000
       36   -0.067327  11110001101000
      143   -0.052092  11011001100100
      393   -0.063198  10110101010010
      717   -0.060425  11010011100001

 State #    2  Energy =     -55.723066245  S =  0.500

      Det      Coef    Occupancy (Ignoring core)
      ---      ----    --------- --------- -----
        1    0.071209  11110001110000
       36   -0.978817  11110001101000
      122    0.050942  11010010111000
      463   -0.064742  10110101001010

 State #    3  Energy =     -55.606518042  S =  0.500

      Det      Coef    Occupancy (Ignoring core)
      ---      ----    --------- --------- -----
       71    0.978798  11110001011000
      248   -0.053887  11011001001100
      822   -0.061854  11010011001001

 Davidson method: CPU/Wall time =           0.50 /           0.50 sec.

 Oscillator strength (invalid if E(1)/=E(GS)):
 -----------------------------------------
   State                        f
 -----------------------------------------
     2     F(REF-CI)=        0.0026510557
     3     F(REF-CI)=        0.0025872080
 -----------------------------------------

 Dipole moment matrix elements, x, y, z, in A.U.

 Dimension of ionized spaces for PT:
 (N-2) space:         1715 /  (N-1) space:         2842 /  N space:         2891
 (N+1) space:         2842 /  (N+2) space:         1715

 <<<Ionized spaces for internal:
         0:         1225 /      -1-0:         1960 /     0-1-0:         2891
  -1-0-1-0:         2842 / 0-1-0-1-0:         3381

 Diagonal elements of averaged one-particle density matrix:
       2       3       4       5       6       7       8
  0.9935  0.9871  0.9859  0.9919  0.0117  0.0117  0.0181
  0.9889  0.6604  0.6578  0.6624  0.0095  0.0082  0.0128

 Orbital energies:
 -------- Doubly-occupied orbitals (highest several orbs.) -------
             1
 -1.598137D+01
 -------- Active orbitals ----------------------------------------
             2            3            4            5            6
 -1.507588D+00-9.651638D-01-8.519596D-01-7.326428D-01 3.693242D-01
             7            8
  3.913002D-01 1.754284D-01
 -------- External orbitals (lowest several orbs.) ---------------
             9           10           11           12           13
  1.563120D-01 2.076079D-01 2.219368D-01 5.357040D-01 6.351736D-01
            14           15           16           17           18
  6.810549D-01 7.430395D-01 9.840363D-01 1.019716D+00 1.207640D+00

 *** Quasi-degeneracy checking

 === Det (|Ci| > 1.0D-01 and dE < 5.0D-03)

 # of small denominators (single excitations)
 State       dEmin  dE < 5.0D-03  dE < 5.0D-04  dE < 5.0D-05  dE < 5.0D-06
 ----- ----------- ------------- ------------- ------------- -------------
     1    5.00D-03             0             0             0             0
     2    5.00D-03             0             0             0             0
     3    5.00D-03             0             0             0             0

 # of small denominators (double excitations)
 State       dEmin  dE < 5.0D-03  dE < 5.0D-04  dE < 5.0D-05  dE < 5.0D-06
 ----- ----------- ------------- ------------- ------------- -------------
     1    5.00D-03             0             0             0             0
     2    5.00D-03             0             0             0             0
     3    5.00D-03             0             0             0             0

 *** Zeroth-Order Setup (Granovsky's zeroth-order vectors)
 Zeroth-order effective Hamiltonian
  (= Sum_i e(i)*<I|a+(i)a(i)|J> ):
                   1            2            3
     1 -7.276448D+00
     2  1.480799D-02-7.176364D+00
     3  1.051524D-04 2.759357D-04-7.057954D+00

 Zeroth-order vectors:
 State #    1
       MC st            1           2           3
       Coeff    9.897D-01  -1.434D-01  -2.924D-04
 State #    2
       MC st            2           1           3
       Coeff   -9.897D-01  -1.434D-01   2.478D-03
 State #    3
       MC st            3           2           1
       Coeff    1.000D+00   2.411D-03   6.447D-04

 *** GMC-QDPT computation

 (Integral reading:  CPU/Wall time =           0.00 /           0.00 sec.)

 One-external:
   0 -ionized terms: CPU/Wall time =           0.04 /           0.03 sec.
 (-1)-ionized terms: CPU/Wall time =           0.08 /           0.09 sec.
 (+1)-ionized terms: CPU/Wall time =           0.03 /           0.03 sec.
 (+1)-ionized terms: CPU/Wall time =           0.00 /           0.00 sec.
 (+2)-ionized terms: CPU/Wall time =           0.01 /           0.00 sec.

 Internal:
 # of macro loops for internal contribution =         1 (input)
 Loop:    1
 Dimension of internal CISD space     =         0  (after screening)
 Space construction: CPU/Wall time =           0.01 /           0.02 sec.
 Internal terms:     CPU/Wall time =           0.00 /           0.00 sec.

 Two-external:
   0 -ionized terms: CPU/Wall time =           0.06 /           0.06 sec.
 (-1)-ionized terms: CPU/Wall time =           0.96 /           0.96 sec.
 (-2)-ionized terms: CPU/Wall time =           0.17 /           0.17 sec.

 Total time:         CPU/Wall time =           1.36 /           1.36 sec.

 ***                  ***
 *** GMC-QDPT Results ***
 ***                  ***

 Diagonal elements of effective Hamiltonian:
 Heff(  1) =   -55.97037665
 Heff(  2) =   -55.83396156
 Heff(  3) =   -55.71740209

 Off-diagonal elements of effective Hamiltonian:
                   1            2
     2  1.911993D-02
     3 -1.018623D-04 2.840391D-04

 ******** GMC-QDPT energies ********
 ----------------------------------------------------------------------------
   State                        1st order                           2nd order
 ----------------------------------------------------------------------------
     1     E(REF-CI)=      -55.8747868516   E(GMC-QDPT2)=      -55.9730058981
     2     E(REF-CI)=      -55.7230662451   E(GMC-QDPT2)=      -55.8313330099
     3     E(REF-CI)=      -55.6065180418   E(GMC-QDPT2)=      -55.7174013877
 ----------------------------------------------------------------------------

 Excitation energies (invalid if E(1)/=E(GS)):
 ----------------------------------------------------------------------------
   State                        1st order                           2nd order
 ----------------------------------------------------------------------------

     TZ Sorted GMC-PT ENERGIES:
         1      -55.9730058981
         2      -55.8313330099
         3      -55.7174013877
     2     E(REF-CI)=        4.1285301 eV   E(GMC-QDPT2)=        3.8551176 eV
     3     E(REF-CI)=        7.2999699 eV   E(GMC-QDPT2)=        6.9553566 eV
 ----------------------------------------------------------------------------

 Main characters of perturbed GMC-QDPT states:

 State #    1  Energy =     -55.973005898  S =  0.500

      Det      Coef    Occupancy (Ignoring core)
      ---      ----    --------- --------- -----
        1   -0.975423  11110001110000
       36   -0.060282  11110001101000
      143   -0.052191  11011001100100
      393   -0.063211  10110101010010
      717   -0.060303  11010011100001

 State #    2  Energy =     -55.831333010  S =  0.500

      Det      Coef    Occupancy (Ignoring core)
      ---      ----    --------- --------- -----
        1    0.064192  11110001110000
       36   -0.979276  11110001101000
      122    0.050996  11010010111000
      463   -0.064776  10110101001010

 State #    3  Energy =     -55.717401388  S =  0.500

      Det      Coef    Occupancy (Ignoring core)
      ---      ----    --------- --------- -----
       71    0.978798  11110001011000
      248   -0.053887  11011001001100
      822   -0.061854  11010011001001

 <<<Max |V/de| = 2.899D-02  Thresh = 1.000D+00

 Oscillator strength (invalid if E(1)/=E(GS)):
 ----------------------------------------------------------------------------
   State                        1st order                           2nd order
 ----------------------------------------------------------------------------
     2     F(REF-CI)=        0.0026510557     F(GMC-PT2)=        0.0025627879
     3     F(REF-CI)=        0.0025872080     F(GMC-PT2)=        0.0025458265
 ----------------------------------------------------------------------------

 Dipole moment matrix elements, x, y, z, in A.U.
States    1    1       -0.1450406900       -0.2403750631        0.7020417219
States    1    2       -0.0054578848       -0.0071936871        0.1644769661
States    1    3        0.1063936760       -0.0600926070        0.0030490660
States    2    1       -0.0054578848       -0.0071936871        0.1644769661
States    2    2       -0.1268199380       -0.2298065709        0.3115633925
States    2    3       -0.2327495597        0.1388228351       -0.0001738035
States    3    1        0.1063936760       -0.0600926070        0.0030490660
States    3    2       -0.2327495597        0.1388228351       -0.0001738035
States    3    3       -0.2616184599       -0.4204488415        0.2890173809

 Oscillator strength (valid only when positive): 
 ----------------------------------------------------------------------------
  States                        1st order                           2nd order
 ----------------------------------------------------------------------------
  1  1     F(REF-CI)=        0.0000000000     F(GMC-PT2)=        0.0000000000
  1  2     F(REF-CI)=       -0.0026510557     F(GMC-PT2)=       -0.0025627879
  1  3     F(REF-CI)=       -0.0025872080     F(GMC-PT2)=       -0.0025458265
  2  1     F(REF-CI)=        0.0026510557     F(GMC-PT2)=        0.0025627879
  2  2     F(REF-CI)=        0.0000000000     F(GMC-PT2)=        0.0000000000
  2  3     F(REF-CI)=       -0.0057433544     F(GMC-PT2)=       -0.0055784088
  3  1     F(REF-CI)=        0.0025872080     F(GMC-PT2)=        0.0025458265
  3  2     F(REF-CI)=        0.0057433544     F(GMC-PT2)=        0.0055784088
  3  3     F(REF-CI)=        0.0000000000     F(GMC-PT2)=        0.0000000000
 CPU     0: STEP CPU TIME=     1.92 TOTAL CPU TIME=         13.5 (      0.2 MIN)
 TOTAL WALL CLOCK TIME=         13.5 SECONDS, CPU UTILIZATION IS    99.85%

     !!! DIABATIZATION FOR REF CI STATES !!!

 *******************************************************
          $DMO GROUP FOUND IN THE INPUT.
        DIABATIZATION OF ADIABATIC STATES BEGINS.
     PROGRAMMED BY TAO ZENG (CARLETON UNIVERSITY).
               Email: toby.zeng@carleton.ca
     See T. Zeng, J. Chem. Phys. 2017, 146, 144103
 *******************************************************

 *************************************************************************
     STEP 1: TRANSFORMATION OF ADIABATIC STATES TO THE DMO REPRESENTATION
         See Atchity and Ruedenberg, J. Chem. Phys. 1999, 111, 2910
 *************************************************************************

Read in Diabatic Molecualr Orbitals:

                      1          2          3          4          5

    1  N  1  S    0.008609   0.000000   0.000000  -0.013219   0.279491
    2  N  1  S    0.442914  -0.000000   0.000000  -0.184329   0.867803
    3  N  1  S    0.276913   0.000000  -0.000000  -0.288315   0.144236
    4  N  1  X   -0.000000   0.493155  -0.024636  -0.000000  -0.000000
    5  N  1  Y    0.000000   0.024636   0.493155  -0.000000   0.000000
    6  N  1  Z    0.090197   0.000000   0.000000   0.593421   0.705309
    7  N  1  X   -0.000000   0.210628  -0.010522   0.000000   0.000000
    8  N  1  Y    0.000000   0.010522   0.210628  -0.000000  -0.000000
    9  N  1  Z   -0.004381   0.000000   0.000000   0.381592  -0.106092
   10  N  1 XX   -0.000457   0.010719  -0.000535  -0.012387   0.006153
   11  N  1 YY   -0.000457  -0.010719   0.000535  -0.012387   0.006153
   12  N  1 ZZ    0.000914  -0.000000   0.000000   0.024773  -0.012306
   13  N  1 XY    0.000000  -0.000618  -0.012377  -0.000000   0.000000
   14  N  1 XZ   -0.000000   0.026529  -0.001325  -0.000000   0.000000
   15  N  1 YZ    0.000000   0.001325   0.026529  -0.000000   0.000000
   16  H  2  S    0.194462  -0.176074   0.343485   0.112865  -0.523343
   17  H  2  S    0.003574  -0.023812   0.046452   0.024014  -0.054445
   18  H  2  X    0.018760   0.009101   0.022834   0.009336  -0.039151
   19  H  2  Y   -0.032493   0.022287  -0.020044  -0.016171   0.067811
   20  H  2  Z   -0.009251   0.008464  -0.016511   0.018769  -0.010566
   21  H  3  S    0.194462  -0.209430  -0.324227   0.112865  -0.523343
   22  H  3  S    0.003574  -0.028322  -0.043847   0.024014  -0.054445
   23  H  3  X    0.018760   0.006781  -0.023627   0.009336  -0.039151
   24  H  3  Y    0.032493  -0.024174  -0.017723   0.016171  -0.067811
   25  H  3  Z   -0.009251   0.010067   0.015585   0.018769  -0.010566
   26  H  4  S    0.194462   0.385503  -0.019258   0.112865  -0.523343
   27  H  4  S    0.003574   0.052134  -0.002604   0.024014  -0.054445
   28  H  4  X   -0.037519  -0.032295   0.001613  -0.018672   0.078302
   29  H  4  Y    0.000000   0.001067   0.021353  -0.000000   0.000000
   30  H  4  Z   -0.009251  -0.018530   0.000926   0.018769  -0.010566

                      6          7

    1  N  1  S    0.000000  -0.000000
    2  N  1  S    0.000000  -0.000000
    3  N  1  S   -0.000000   0.000000
    4  N  1  X   -0.930415  -0.002083
    5  N  1  Y   -0.002083   0.930415
    6  N  1  Z   -0.000000   0.000000
    7  N  1  X   -0.046866  -0.000105
    8  N  1  Y   -0.000105   0.046866
    9  N  1  Z   -0.000000   0.000000
   10  N  1 XX    0.001538   0.000003
   11  N  1 YY   -0.001538  -0.000003
   12  N  1 ZZ   -0.000000   0.000000
   13  N  1 XY   -0.000004   0.001776
   14  N  1 XZ    0.039985   0.000090
   15  N  1 YZ    0.000090  -0.039985
   16  H  2  S   -0.362630  -0.631354
   17  H  2  S   -0.065964  -0.114846
   18  H  2  X    0.002763  -0.037520
   19  H  2  Y    0.037435   0.040736
   20  H  2  Z    0.001882   0.003276
   21  H  3  S   -0.365454   0.629724
   22  H  3  S   -0.066477   0.114549
   23  H  3  X    0.002595   0.037532
   24  H  3  Y   -0.037617   0.040567
   25  H  3  Z    0.001896  -0.003268
   26  H  4  S    0.728084   0.001630
   27  H  4  S    0.132441   0.000297
   28  H  4  X   -0.062317  -0.000140
   29  H  4  Y    0.000055  -0.024345
   30  H  4  Z   -0.003778  -0.000008

NUMBER OF SUB ACTIVE SPACES:   1
ROTATE ACTIVE MOS TO DMOS IN EACH SUB-SPACE

SPACE  1:

OVERLAP BETWEEN ORTHONORMAL AND PRE-ORTHONORMAL REF. DMOS

             1           2           3           4           5

    1    0.9819283  -0.0185797  -0.0284842  -0.0059374   0.0051715
    2   -0.0185797   0.9983937  -0.0500732  -0.0222918   0.0339811
    3   -0.0284842  -0.0500732   0.9500947  -0.0335904   0.0501054
    4   -0.0059374  -0.0222918  -0.0335904   0.9964298  -0.0085649
    5    0.0051715   0.0339811   0.0501054  -0.0085649   1.0895261
    6    0.0006921   0.0154465  -0.0392650  -0.0202903  -0.0183522
    7   -0.0009945   0.0392195   0.0274540   0.0331704   0.0348929

             6           7

    1    0.0006921  -0.0009945
    2    0.0154465   0.0392195
    3   -0.0392650   0.0274540
    4   -0.0202903   0.0331704
    5   -0.0183522   0.0348929
    6    1.0334321  -0.0199648
    7   -0.0199648   1.0566195
REFERENCE DMOS AFTER ORTHONORMALIZATION:

                      1          2          3          4          5

    1  N  1  S    0.006751  -0.009364  -0.013910  -0.011367   0.257636
    2  N  1  S    0.444304  -0.023954  -0.035260  -0.176429   0.796109
    3  N  1  S    0.279214  -0.006234  -0.009236  -0.287280   0.129184
    4  N  1  X    0.009346   0.508719  -0.034181  -0.007305  -0.028581
    5  N  1  Y    0.015848   0.016809   0.498909  -0.011440  -0.050939
    6  N  1  Z    0.091633  -0.006314  -0.008681   0.603053   0.653899
    7  N  1  X    0.004077   0.212422  -0.001004   0.003980  -0.007108
    8  N  1  Y    0.007003   0.020787   0.223127   0.006834  -0.011964
    9  N  1  Z   -0.000834   0.013071   0.019787   0.383547  -0.095255
   10  N  1 XX   -0.000394   0.010230  -0.000693  -0.012154   0.005290
   11  N  1 YY   -0.000811  -0.011282  -0.000895  -0.012718   0.005900
   12  N  1 ZZ    0.001205   0.001052   0.001588   0.024873  -0.011190
   13  N  1 XY   -0.000415  -0.001397  -0.013242  -0.000553   0.000576
   14  N  1 XZ    0.000525   0.026120   0.001653   0.001431  -0.000228
   15  N  1 YZ    0.000913   0.004400   0.029418   0.002395  -0.000225
   16  H  2  S    0.210525  -0.104254   0.395258   0.134136  -0.481966
   17  H  2  S    0.005266  -0.013516   0.052441   0.027529  -0.049327
   18  H  2  X    0.020428   0.013818   0.028850   0.011703  -0.036507
   19  H  2  Y   -0.033925   0.015905  -0.024738  -0.016885   0.062317
   20  H  2  Z   -0.009576   0.008069  -0.016145   0.018266  -0.009091
   21  H  3  S    0.187384  -0.224875  -0.352466   0.065340  -0.483422
   22  H  3  S    0.002097  -0.032113  -0.050364   0.016258  -0.051168
   23  H  3  X    0.018827   0.005918  -0.022814   0.007340  -0.036254
   24  H  3  Y    0.032610  -0.023114  -0.017840   0.012660  -0.062678
   25  H  3  Z   -0.008500   0.011768   0.018248   0.019765  -0.010531
   26  H  4  S    0.210447   0.401714   0.065986   0.135393  -0.484449
   27  H  4  S    0.005248   0.053061   0.009045   0.027748  -0.049743
   28  H  4  X   -0.039587  -0.035450  -0.008308  -0.020581   0.072433
   29  H  4  Y    0.000729   0.003237   0.023454   0.001666  -0.000400
   30  H  4  Z   -0.009579  -0.017950   0.000725   0.018250  -0.009045

                      6          7

    1  N  1  S    0.003817  -0.007364
    2  N  1  S    0.009040  -0.018357
    3  N  1  S   -0.003686   0.005417
    4  N  1  X   -0.910571  -0.035990
    5  N  1  Y    0.032349   0.869639
    6  N  1  Z    0.022392  -0.039556
    7  N  1  X   -0.048783  -0.008766
    8  N  1  Y    0.008719   0.038137
    9  N  1  Z    0.006207  -0.009778
   10  N  1 XX    0.001162  -0.000130
   11  N  1 YY   -0.001486   0.000614
   12  N  1 ZZ    0.000324  -0.000484
   13  N  1 XY   -0.000447   0.002066
   14  N  1 XZ    0.038383  -0.000239
   15  N  1 YZ    0.000431  -0.038829
   16  H  2  S   -0.351955  -0.598670
   17  H  2  S   -0.064099  -0.109994
   18  H  2  X    0.002438  -0.035868
   19  H  2  Y    0.036573   0.037736
   20  H  2  Z    0.001348   0.002964
   21  H  3  S   -0.359096   0.620789
   22  H  3  S   -0.064209   0.110880
   23  H  3  X    0.001757   0.036911
   24  H  3  Y   -0.036832   0.040722
   25  H  3  Z    0.002477  -0.004238
   26  H  4  S    0.695140   0.009998
   27  H  4  S    0.127389   0.001260
   28  H  4  X   -0.059207  -0.001502
   29  H  4  Y    0.000461  -0.023799
   30  H  4  Z   -0.003150   0.000297

 -------------------------------------------
       MAXIMIZING MORMO OVERLAP TERM        
 -------------------------------------------
   SWEEP    VALUE       PROGRESS
     0     5.09382
     1     6.92130     1.82748145
     2     6.96750     0.04620283
     3     6.96751     0.00000726
     4     6.96751     0.00000000
     5     6.96751     0.00000000
 THE ROTATION IS DONE
ACTIVE ORBITALS AFTER MORMO:

                      1          2          3          4          5

    1  N  1  S    0.005767  -0.014604  -0.022023  -0.012216   0.221153
    2  N  1  S    0.427690  -0.035666  -0.054265  -0.187482   0.751896
    3  N  1  S    0.319222   0.034719   0.054448  -0.275413   0.174679
    4  N  1  X    0.000570   0.493097  -0.048014  -0.019160  -0.014587
    5  N  1  Y    0.000419   0.000385   0.466904  -0.032147  -0.026982
    6  N  1  Z    0.083464  -0.019164  -0.028148   0.601085   0.656307
    7  N  1  X    0.014158   0.212529   0.030516   0.027628  -0.027556
    8  N  1  Y    0.024856   0.054305   0.258911   0.046650  -0.046438
    9  N  1  Z    0.019270   0.038827   0.058693   0.383775  -0.096843
   10  N  1 XX    0.001820   0.008275   0.009565  -0.009918  -0.018103
   11  N  1 YY   -0.002386  -0.008429  -0.009772  -0.013195   0.019044
   12  N  1 ZZ    0.000566   0.000155   0.000207   0.023113  -0.000941
   13  N  1 XY   -0.003965  -0.012643  -0.021819  -0.003463   0.035542
   14  N  1 XZ   -0.000457   0.018931   0.000786  -0.001052   0.023618
   15  N  1 YZ   -0.000563   0.002726   0.020992  -0.002023   0.039793
   16  H  2  S    0.189959  -0.147348   0.350745   0.116304  -0.460828
   17  H  2  S    0.005050  -0.004328   0.075810   0.033300  -0.062592
   18  H  2  X    0.026556  -0.005852   0.036401   0.012071  -0.042022
   19  H  2  Y   -0.021441   0.024988  -0.008312  -0.008906   0.041504
   20  H  2  Z   -0.005076   0.009255  -0.008839   0.019803  -0.017961
   21  H  3  S    0.187215  -0.215998  -0.336597   0.087339  -0.500691
   22  H  3  S    0.000910  -0.053487  -0.084989   0.017360  -0.061643
   23  H  3  X    0.016466   0.010302  -0.020357   0.010019  -0.030904
   24  H  3  Y    0.027985  -0.020021  -0.010091   0.017280  -0.054104
   25  H  3  Z   -0.014642   0.015883   0.024461   0.017455  -0.008067
   26  H  4  S    0.189957   0.380325   0.009596   0.116941  -0.463311
   27  H  4  S    0.004917   0.069181   0.026447   0.033343  -0.062798
   28  H  4  X   -0.032102  -0.033539   0.011993  -0.013767   0.057183
   29  H  4  Y    0.012038   0.021574   0.018139   0.005911  -0.015791
   30  H  4  Z   -0.004979  -0.011712   0.004585   0.019888  -0.017681

                      6          7

    1  N  1  S   -0.015722   0.023889
    2  N  1  S   -0.039945   0.062087
    3  N  1  S    0.061104  -0.100653
    4  N  1  X   -0.905548  -0.035991
    5  N  1  Y    0.032156   0.866112
    6  N  1  Z    0.046358  -0.080828
    7  N  1  X   -0.066170  -0.015256
    8  N  1  Y    0.015477   0.045487
    9  N  1  Z   -0.013781   0.025708
   10  N  1 XX   -0.020189  -0.041156
   11  N  1 YY    0.023855   0.035447
   12  N  1 ZZ   -0.003666   0.005709
   13  N  1 XY   -0.044409   0.026343
   14  N  1 XZ    0.048609   0.014086
   15  N  1 YZ   -0.014289  -0.031802
   16  H  2  S   -0.363531  -0.559366
   17  H  2  S   -0.078697  -0.135164
   18  H  2  X   -0.017613  -0.046003
   19  H  2  Y    0.040309   0.022755
   20  H  2  Z   -0.021954   0.002213
   21  H  3  S   -0.347349   0.597818
   22  H  3  S   -0.087068   0.152123
   23  H  3  X    0.026035   0.040174
   24  H  3  Y   -0.040361   0.020244
   25  H  3  Z    0.006582  -0.012052
   26  H  4  S    0.667253   0.038138
   27  H  4  S    0.154959   0.001800
   28  H  4  X   -0.059224  -0.016568
   29  H  4  Y    0.021879  -0.017675
   30  H  4  Z    0.009444   0.019874

Actually Used Diabatic Molecualr Orbitals:

                      1          2          3          4          5

    1  N  1  S    0.005767  -0.014604  -0.022023  -0.012216   0.221153
    2  N  1  S    0.427690  -0.035666  -0.054265  -0.187482   0.751896
    3  N  1  S    0.319222   0.034719   0.054448  -0.275413   0.174679
    4  N  1  X    0.000570   0.493097  -0.048014  -0.019160  -0.014587
    5  N  1  Y    0.000419   0.000385   0.466904  -0.032147  -0.026982
    6  N  1  Z    0.083464  -0.019164  -0.028148   0.601085   0.656307
    7  N  1  X    0.014158   0.212529   0.030516   0.027628  -0.027556
    8  N  1  Y    0.024856   0.054305   0.258911   0.046650  -0.046438
    9  N  1  Z    0.019270   0.038827   0.058693   0.383775  -0.096843
   10  N  1 XX    0.001820   0.008275   0.009565  -0.009918  -0.018103
   11  N  1 YY   -0.002386  -0.008429  -0.009772  -0.013195   0.019044
   12  N  1 ZZ    0.000566   0.000155   0.000207   0.023113  -0.000941
   13  N  1 XY   -0.003965  -0.012643  -0.021819  -0.003463   0.035542
   14  N  1 XZ   -0.000457   0.018931   0.000786  -0.001052   0.023618
   15  N  1 YZ   -0.000563   0.002726   0.020992  -0.002023   0.039793
[...]
      822   -0.029811    0.029811  2+02002
      248   -0.027777    0.027777  2+02200
       16   -0.027408    0.027408  222000+
      472   -0.027219   -0.027219  2+020-+
      157    0.026969   -0.026969  220+-0+
       88    0.026951   -0.026951  202200+
      285    0.026924   -0.026924  02+2200
      143    0.026198    0.026198  220+200
      123    0.024474   -0.024474  +-2200+
      471    0.024208    0.024208  2++-0-+
      142    0.023365    0.023365  22+0200
       38   -0.021883    0.021883  2202+00
      262   -0.021581   -0.021581  2+02-0+
      111   -0.021402    0.021402  +22-0+0
      283    0.020753    0.020753  +202200
       54   -0.020677    0.020677  -2+200+
      848    0.020025   -0.020025  +-+20+-

 ---------------------------------------
    -DIABATIC STATES IN PROTOTYPES-     
 ---------------------------------------

     STATE:    1
 Group Ref#    Coefficients
     1    1    0.970094
     2    2   -0.002128
     3    3   -0.004218

WEIGHT OF LISTED PROTOTYPES:   94.11%

     STATE:    2
 Group Ref#    Coefficients
     1    1   -0.002128
     2    2    0.963532
     3    3    0.003246

WEIGHT OF LISTED PROTOTYPES:   92.84%

     STATE:    3
 Group Ref#    Coefficients
     1    1   -0.004218
     2    2    0.003246
     3    3    0.967944

WEIGHT OF LISTED PROTOTYPES:   93.69%

 --------------------------------------------------
 IN DIRECT MAX. DIABATIZATION FOR GMC-QDPT

 DIRECT MAXIMIZATION (DM) WITHOUT TRUNCATING ADIABATS
 EXPANSIONS INTO THE REFERENCE CONFIGURATION SPACE
 --------------------------------------------------

 -------------------------------------------
 - DM DIABT PT HAMILTONIAN MATRIX ELEMENTS -
 -------------------------------------------
                                            
 --- DIABATIC ENERGIES (DIAGONAL ELEMENT) ---       HARTREE            EV
 STATE #  1'S GMC-PT-LEVEL DIABATIC ENERGY=     -55.957512230       0.000000000
 STATE #  2'S GMC-PT-LEVEL DIABATIC ENERGY=     -55.748480905       5.688032077
 STATE #  3'S GMC-PT-LEVEL DIABATIC ENERGY=     -55.815747161       3.857624008

 --- DIABATIC COUPLINGS (OFF DIAGONAL ELEMENTS)---  HATREE            EV
 STATE #  1 &  2'S GMC-PT-LEVEL COUPLING  =       0.022865260       0.622195418
 STATE #  1 &  3'S GMC-PT-LEVEL COUPLING  =       0.037858375       1.030178866
 STATE #  2 &  3'S GMC-PT-LEVEL COUPLING  =      -0.055276047      -1.504137858

 ---------------------------------------
     - ROTATION TO DIABATIC STATES -    
 ---------------------------------------
 ROWS=ADIABATIC, COLUMNS=DIABATIC STATES

             1           2           3

    1    0.9437521  -0.1664480  -0.2857044
    2    0.3305968   0.4589501   0.8246639
    3    0.0061396   0.8727313  -0.4881623

 ---------------------------------------
          - DIABATIC STATES -           
 ---------------------------------------

 State #    1  Energy =     -55.957512230

      Det      Coef        Coefp    Occupancy (Ignoring core)
      ---      ----        ----    --------- --------- -----
        1    0.950553   -0.950553  222+000
       17    0.101445    0.101445  22-+00+
        3    0.087411    0.087411  22-++00
      141   -0.083905   -0.083905  22++-00
      717   -0.075710   -0.075710  220+002
      701   -0.070758   -0.070758  22++00-
      393   -0.070151   -0.070151  202+020
       16    0.066812   -0.066812  222000+
        4    0.058310   -0.058310  2-2++00
       18    0.057955   -0.057955  2-2+00+
      176   -0.056027    0.056027  2+2+-00
      736   -0.054693    0.054693  2+2+00-
        7   -0.052048   -0.052048  22-+0+0
      351    0.051597    0.051597  22++0-0
        8   -0.041780    0.041780  2-2+0+0
        6   -0.039854    0.039854  22200+0
      402    0.039297   -0.039297  2+-+0-+
      708    0.037641   -0.037641  2-++0+-
      215   -0.036342   -0.036342  022+200
      390    0.033932   -0.033932  -+2++-0
      218    0.033619   -0.033619  +-2+-+0
      705   -0.032955   -0.032955  -2+++0-
      227   -0.032837   -0.032837  +2-+-0+
       51   -0.030687    0.030687  22+-00+
      212    0.029406    0.029406  +220200
       76    0.028519    0.028519  2+2-0+0
        2    0.027846   -0.027846  2220+00
      122    0.027474    0.027474  +2-200+
        5    0.026790    0.026790  -22++00
      773    0.024789   -0.024789  +2-++0-
      179   -0.024622   -0.024622  202+200
      113   -0.024176    0.024176  +-220+0
      702    0.023816    0.023816  22+0+0-
      387   -0.023202    0.023202  2+20+-0
     1051   -0.022941   -0.022941  2+++0--
      159    0.022928   -0.022928  -2++-0+
      424   -0.022680   -0.022680  +-2++-0
      184   -0.021852   -0.021852  -+2+-+0

 State #    2  Energy =     -55.748480905

      Det      Coef        Coefp    Occupancy (Ignoring core)
      ---      ----        ----    --------- --------- -----
       71   -0.951006    0.951006  2+22000
      246   -0.098013   -0.098013  2++2-00
       73    0.095569   -0.095569  2+-2+00
      736   -0.080079    0.080079  2+2+00-
      822    0.078365   -0.078365  2+02002
       86    0.076916    0.076916  2+2-00+
      806   -0.071331   -0.071331  2++200-
       77   -0.064909    0.064909  2+-20+0
      456    0.059457    0.059457  2++20-0
       87    0.058638   -0.058638  2+-200+
       36    0.045582    0.045582  22+2000
      813    0.044377   -0.044377  20+20+-
       88   -0.043404    0.043404  202200+
      106   -0.040370   -0.040370  +222000
      111    0.037299   -0.037299  +22-0+0
      320    0.036654    0.036654  0+22200
      386    0.036259   -0.036259  2+2+0-0
      332   -0.035152    0.035152  ++-2-0+
      810   -0.034933   -0.034933  -++2+0-
      122    0.034929    0.034929  +2-200+
      323   -0.032297    0.032297  +022-+0
      317    0.030770   -0.030770  ++2-200
      180   -0.030622    0.030622  -+2+200
       74   -0.030441    0.030441  2022+00
       99   -0.030383    0.030383  20-20++
      177    0.029820   -0.029820  2+20200
        6    0.027755   -0.027755  22200+0
      807   -0.027542    0.027542  2++-+0-
      316    0.027310    0.027310  ++22-00
      192   -0.026939    0.026939  2+-+-0+
       76   -0.026331   -0.026331  2+2-0+0
       90    0.025164    0.025164  2+--+0+
      183   -0.025128    0.025128  202+-+0
      878    0.025034    0.025034  ++-2+0-
      264    0.024998   -0.024998  -++2-0+
       38   -0.023727    0.023727  2202+00
      391    0.023402   -0.023402  2+20020
      911    0.022158    0.022158  2+++-0-
       78   -0.021412    0.021412  20220+0
      108    0.021248    0.021248  +2-2+00
      248    0.020352   -0.020352  2+02200

 State #    3  Energy =     -55.815747161

      Det      Coef        Coefp    Occupancy (Ignoring core)
      ---      ----        ----    --------- --------- -----
       36   -0.951200   -0.951200  22+2000
       39   -0.090280   -0.090280  2-+2+00
       38   -0.085717    0.085717  2202+00
       51    0.077420   -0.077420  22+-00+
      701   -0.076468   -0.076468  22++00-
       53   -0.069841   -0.069841  2-+200+
      463    0.069251   -0.069251  20+2020
      106   -0.068396   -0.068396  +222000
       41   -0.065982    0.065982  22+-0+0
      246    0.058927    0.058927  2++2-00
      806    0.058431    0.058431  2++200-
      351    0.057116    0.057116  22++0-0
       71   -0.045801    0.045801  2+22000
       42    0.045795   -0.045795  22020+0
       52   -0.044905    0.044905  220200+
      472   -0.043281   -0.043281  2+020-+
      285    0.035800   -0.035800  02+2200
      123    0.035777   -0.035777  +-2200+
      288   -0.034984   -0.034984  +-+2-+0
      460   -0.034943   -0.034943  -++2+-0
      297    0.033941   -0.033941  +202-0+
       73    0.031353   -0.031353  2+-2+00
      145   -0.030976   -0.030976  -2++200
      282    0.030622    0.030622  +2+-200
       64    0.030384   -0.030384  2-020++
      142    0.029690    0.029690  22+0200
      121   -0.029083    0.029083  +22-00+
      157    0.028258   -0.028258  220+-0+
       55   -0.026279   -0.026279  220-+0+
      249    0.025706   -0.025706  20+2200
       86    0.025671    0.025671  2+2-00+
       16   -0.024760    0.024760  222000+
      457   -0.024746    0.024746  2++-+-0
      148   -0.024165   -0.024165  2-++-+0
      494    0.023437   -0.023437  +-+2+-0
      254    0.021461   -0.021461  -++2-+0
       40   -0.021193    0.021193  -2+2+00
      843   -0.020881   -0.020881  +202+0-
      109    0.020840   -0.020840  +-22+00
      859    0.020623   -0.020623  02+2002
      876   -0.020442   -0.020442  ++2200-
      716    0.020007    0.020007  22+0002

 ---------------------------------------
      - DIABATIC STATES IN CMO -        
 ---------------------------------------

 State #    1  Energy =     -55.957512230

      Det      Coef        Coefp    Occupancy (Ignoring core)
      ---      ----        ----    --------- --------- -----
        1    0.899336   -0.899336  222+000
       36   -0.380627   -0.380627  22+2000
      717   -0.062583   -0.062583  220+002
      393   -0.059133   -0.059133  202+020
      143   -0.044740   -0.044740  220+200
      708    0.042527   -0.042527  2-++0+-
        8   -0.042525    0.042525  2-2+0+0
      753   -0.039566   -0.039566  202+002
      703    0.037277    0.037277  220++0-
        3   -0.036084   -0.036084  22-++00
      716    0.031733    0.031733  22+0002
      402    0.030217   -0.030217  2+-+0-+
      106   -0.030020   -0.030020  +222000
       16    0.029787   -0.029787  222000+
      215   -0.029752   -0.029752  022+200
      157   -0.029301    0.029301  220+-0+
      213   -0.027471    0.027471  +2-+200
      719   -0.025944   -0.025944  -2++002
      368   -0.025637   -0.025637  2-++0-+
      463    0.025585   -0.025585  20+2020
       76    0.025043    0.025043  2+2-0+0
      401    0.024718    0.024718  2+200-+
      122    0.023817    0.023817  +2-200+
      113   -0.023626    0.023626  +-220+0
      778   -0.023416   -0.023416  +-2+0+-
      145    0.023354    0.023354  -2++200
      218    0.023055   -0.023055  +-2+-+0
      741   -0.023001    0.023001  2+200+-
      390    0.022469   -0.022469  -+2++-0
       17    0.022248    0.022248  22-+00+
      108   -0.022206   -0.022206  +2-2+00
       37    0.022126   -0.022126  22+-+00
      404   -0.021846   -0.021846  -+2+0-+
      705   -0.021803   -0.021803  -2+++0-
       43    0.020385    0.020385  2-+20+0

 State #    2  Energy =     -55.748480905

      Det      Coef        Coefp    Occupancy (Ignoring core)
      ---      ----        ----    --------- --------- -----
       71   -0.854917    0.854917  2+22000
       36   -0.438027   -0.438027  22+2000
        1   -0.191809    0.191809  222+000
      822    0.054195   -0.054195  2+02002
      248    0.046210   -0.046210  2+02200
      123   -0.040784    0.040784  +-2200+
      111    0.035441   -0.035441  +22-0+0
      262    0.033733    0.033733  2+02-0+
       18    0.033423   -0.033423  2-2+00+
      808   -0.031490    0.031490  2+02+0-
      463    0.030264   -0.030264  20+2020
       86   -0.029556   -0.029556  2+2-00+
      751    0.029159   -0.029159  2+20002
      813    0.027986   -0.027986  20+20+-
      320    0.027412    0.027412  0+22200
      318   -0.026144   -0.026144  ++-2200
       41    0.024539   -0.024539  22+-0+0
      250    0.024506    0.024506  -++2200
      743    0.024311    0.024311  202+0+-
      122    0.023754    0.023754  +2-200+
       53    0.022659    0.022659  2-+200+
      823    0.021337   -0.021337  20+2002
      323   -0.021171    0.021171  +022-+0
       89    0.021163    0.021163  -+2200+
      421   -0.020865   -0.020865  +22+0-0
      894    0.020801    0.020801  0+22002
      892    0.020596    0.020596  ++-2002
      391    0.020527   -0.020527  2+20020

 State #    3  Energy =     -55.815747161

      Det      Coef        Coefp    Occupancy (Ignoring core)
      ---      ----        ----    --------- --------- -----
       36   -0.791122   -0.791122  22+2000
       71    0.476573   -0.476573  2+22000
        1   -0.331624    0.331624  222+000
      463    0.051448   -0.051448  20+2020
      122    0.039071    0.039071  +2-200+
      823    0.037775   -0.037775  20+2002
      822   -0.029811    0.029811  2+02002
      248   -0.027777    0.027777  2+02200
       16   -0.027408    0.027408  222000+
      472   -0.027219   -0.027219  2+020-+
      157    0.026969   -0.026969  220+-0+
       88    0.026951   -0.026951  202200+
      285    0.026924   -0.026924  02+2200
      143    0.026199    0.026199  220+200
      123    0.024474   -0.024474  +-2200+
      471    0.024208    0.024208  2++-0-+
      142    0.023365    0.023365  22+0200
       38   -0.021883    0.021883  2202+00
      262   -0.021581   -0.021581  2+02-0+
      111   -0.021402    0.021402  +22-0+0
      283    0.020753    0.020753  +202200
       54   -0.020677    0.020677  -2+200+
      848    0.020025   -0.020025  +-+20+-

 ---------------------------------------
    -DIABATIC STATES IN PROTOTYPES-     
 ---------------------------------------

     STATE:    1
 Group Ref#    Coefficients
     1    1    0.970094
     2    2   -0.002120
     3    3   -0.004213

WEIGHT OF LISTED PROTOTYPES:   94.11%

     STATE:    2
 Group Ref#    Coefficients
     1    1   -0.002135
     2    2    0.963533
     3    3    0.003254

WEIGHT OF LISTED PROTOTYPES:   92.84%

     STATE:    3
 Group Ref#    Coefficients
     1    1   -0.004223
     2    2    0.003239
     3    3    0.967944

WEIGHT OF LISTED PROTOTYPES:   93.69%

     DIRECT MAX. DIABATIZATION FINISHED    
 CPU     0: STEP CPU TIME=     0.24 TOTAL CPU TIME=         13.8 (      0.2 MIN)
 TOTAL WALL CLOCK TIME=         13.8 SECONDS, CPU UTILIZATION IS    99.85%

DIABATS FOR SPIN-ORBIT CALCULATION ARE READY

TRANSITION DIPOLES BETWEEN ADIABATS (in A.U.):

STATE PAIR      X         Y         Z
    1    1 -0.145041 -0.240375  0.702042
    2    1 -0.005458 -0.007194  0.164477
    2    2 -0.126820 -0.229807  0.311563
    3    1  0.106394 -0.060093  0.003049
    3    2 -0.232750  0.138823 -0.000174
    3    3 -0.261618 -0.420449  0.289017


TRANSITION DIPOLES BETWEEN DIABATS (in A.U.):

STATE PAIR      X         Y         Z
    1    1 -0.146171 -0.243848  0.762018
    2    1  0.019791 -0.011071  0.003192
    2    2 -0.446522 -0.245541  0.279055
    3    1 -0.011234  0.004591  0.005874
    3    2 -0.075227  0.161560 -0.016568
    3    3  0.059214 -0.401241  0.261550

TRANSITION DIPOLES BETWEEN DIRECT MAX. DIABATS (in A.U.):

STATE PAIR      X         Y         Z
    1    1 -0.146171 -0.243848  0.762018
    2    1  0.019789 -0.011070  0.003188
    2    2 -0.446523 -0.245538  0.279055
    3    1 -0.011234  0.004591  0.005872
    3    2 -0.075223  0.161559 -0.016568
    3    3  0.059215 -0.401244  0.261550
 No $TRANST Group Found.
 Quit without doing spin-orbit coupling
 ..... DONE WITH MP2 ENERGY .....
 CPU     0: STEP CPU TIME=     0.01 TOTAL CPU TIME=         13.8 (      0.2 MIN)
 TOTAL WALL CLOCK TIME=         13.8 SECONDS, CPU UTILIZATION IS    99.86%
            100000000  WORDS OF DYNAMIC MEMORY USED
 EXECUTION OF GAMESS TERMINATED NORMALLY Wed Nov 16 18:44:00 2022
 DDI: 715512 bytes (0.7 MB / 0 MWords) used by master data server.

 ----------------------------------------
 CPU timing information for all processes
 ========================================
 0: 13.440 + 0.352 = 13.792
 ----------------------------------------
Note: The following floating-point exceptions are signalling: IEEE_DENORMAL
 ddikick.x: exited gracefully.
unset echo
----- accounting info -----
Files used on the master node io002 were:
-rw-r--r-- 1 bsonghao nooijen   20694 Nov 16 18:43 /scratch/bsonghao/nh3_diabatization_2d_at_mode_7_8_dist-0.5_-0.3.F05
-rw-r--r-- 1 bsonghao nooijen  363520 Nov 16 18:43 /scratch/bsonghao/nh3_diabatization_2d_at_mode_7_8_dist-0.5_-0.3.F09
-rw-r--r-- 1 bsonghao nooijen 1995920 Nov 16 18:44 /scratch/bsonghao/nh3_diabatization_2d_at_mode_7_8_dist-0.5_-0.3.F10
-rw-r--r-- 1 bsonghao nooijen  131264 Nov 16 18:43 /scratch/bsonghao/nh3_diabatization_2d_at_mode_7_8_dist-0.5_-0.3.F13
-rw-r--r-- 1 bsonghao nooijen  180312 Nov 16 18:44 /scratch/bsonghao/nh3_diabatization_2d_at_mode_7_8_dist-0.5_-0.3.F15
-rw-r--r-- 1 bsonghao nooijen       0 Nov 16 18:43 /scratch/bsonghao/nh3_diabatization_2d_at_mode_7_8_dist-0.5_-0.3.F16
-rw-r--r-- 1 bsonghao nooijen    9808 Nov 16 18:43 /scratch/bsonghao/nh3_diabatization_2d_at_mode_7_8_dist-0.5_-0.3.F70
-rw-r--r-- 1 bsonghao nooijen    9808 Nov 16 18:43 /scratch/bsonghao/nh3_diabatization_2d_at_mode_7_8_dist-0.5_-0.3.F71
-rw-r--r-- 1 bsonghao nooijen   19608 Nov 16 18:43 /scratch/bsonghao/nh3_diabatization_2d_at_mode_7_8_dist-0.5_-0.3.F72
-rw-r--r-- 1 bsonghao nooijen   19608 Nov 16 18:43 /scratch/bsonghao/nh3_diabatization_2d_at_mode_7_8_dist-0.5_-0.3.F73
-rw-r--r-- 1 bsonghao nooijen 1920824 Nov 16 18:43 /scratch/bsonghao/nh3_diabatization_2d_at_mode_7_8_dist-0.5_-0.3.F74
-rw-r--r-- 1 bsonghao nooijen       0 Nov 16 18:43 /scratch/bsonghao/nh3_diabatization_2d_at_mode_7_8_dist-0.5_-0.3.F75
-rw-r--r-- 1 bsonghao nooijen   58848 Nov 16 18:43 /scratch/bsonghao/nh3_diabatization_2d_at_mode_7_8_dist-0.5_-0.3.F76
-rw-r--r-- 1 bsonghao nooijen       0 Nov 16 18:43 /scratch/bsonghao/nh3_diabatization_2d_at_mode_7_8_dist-0.5_-0.3.F77
-rw-r--r-- 1 bsonghao nooijen    1864 Nov 16 18:43 /scratch/bsonghao/nh3_diabatization_2d_at_mode_7_8_dist-0.5_-0.3.F78
-rw-r--r-- 1 bsonghao nooijen   39208 Nov 16 18:43 /scratch/bsonghao/nh3_diabatization_2d_at_mode_7_8_dist-0.5_-0.3.F79
-rw-r--r-- 1 bsonghao nooijen     104 Nov 16 18:43 /scratch/bsonghao/nh3_diabatization_2d_at_mode_7_8_dist-0.5_-0.3.F80
-rw-r--r-- 1 bsonghao nooijen   13472 Nov 16 18:43 /scratch/bsonghao/nh3_diabatization_2d_at_mode_7_8_dist-0.5_-0.3.F81
-rw-r--r-- 1 bsonghao nooijen      16 Nov 16 18:43 /scratch/bsonghao/nh3_diabatization_2d_at_mode_7_8_dist-0.5_-0.3.F82
-rw-r--r-- 1 bsonghao nooijen   19216 Nov 16 18:43 /scratch/bsonghao/nh3_diabatization_2d_at_mode_7_8_dist-0.5_-0.3.F83
-rw-r--r-- 1 bsonghao nooijen   29712 Nov 16 18:43 /scratch/bsonghao/nh3_diabatization_2d_at_mode_7_8_dist-0.5_-0.3.F84
-rw-r--r-- 1 bsonghao nooijen  401576 Nov 16 18:43 /scratch/bsonghao/nh3_diabatization_2d_at_mode_7_8_dist-0.5_-0.3.F85
-rw-r--r-- 1 bsonghao nooijen  903672 Nov 16 18:43 /scratch/bsonghao/nh3_diabatization_2d_at_mode_7_8_dist-0.5_-0.3.F86
-rw-r--r-- 1 bsonghao nooijen     656 Nov 16 18:44 /scratch/bsonghao/nh3_diabatization_2d_at_mode_7_8_dist-0.5_-0.3.F87
-rw-r--r-- 1 bsonghao nooijen   28784 Nov 16 18:44 /scratch/bsonghao/nh3_diabatization_2d_at_mode_7_8_dist-0.5_-0.3.F88
-rw-r--r-- 1 bsonghao nooijen     240 Nov 16 18:43 /scratch/bsonghao/nh3_diabatization_2d_at_mode_7_8_dist-0.5_-0.3.F89
-rw-r--r-- 1 bsonghao nooijen       0 Nov 16 18:43 /scratch/bsonghao/nh3_diabatization_2d_at_mode_7_8_dist-0.5_-0.3.F90
-rw-r--r-- 1 bsonghao nooijen   13760 Nov 16 18:44 /scratch/bsonghao/nh3_diabatization_2d_at_mode_7_8_dist-0.5_-0.3.F91
-rw-r--r-- 1 bsonghao nooijen   22776 Nov 16 18:43 /scratch/bsonghao/nh3_diabatization_2d_at_mode_7_8_dist-0.5_-0.3.F92
-rw-r--r-- 1 bsonghao nooijen   23168 Nov 16 18:43 /scratch/bsonghao/nh3_diabatization_2d_at_mode_7_8_dist-0.5_-0.3.F93
-rw-r--r-- 1 bsonghao nooijen   22776 Nov 16 18:43 /scratch/bsonghao/nh3_diabatization_2d_at_mode_7_8_dist-0.5_-0.3.F94
-rw-r--r-- 1 bsonghao nooijen   13760 Nov 16 18:43 /scratch/bsonghao/nh3_diabatization_2d_at_mode_7_8_dist-0.5_-0.3.F95
-rw-r--r-- 1 bsonghao nooijen   29440 Nov 16 18:44 /scratch/bsonghao/nh3_diabatization_2d_at_mode_7_8_dist-0.5_-0.3.F96
-rw-r--r-- 1 bsonghao nooijen    1184 Nov 16 18:43 /scratch/bsonghao/nh3_diabatization_2d_at_mode_7_8_dist-0.5_-0.3.F97
-rw-r--r-- 1 bsonghao nooijen    9808 Nov 16 18:43 /scratch/bsonghao/nh3_diabatization_2d_at_mode_7_8_dist-0.5_-0.3.F98
-rw-r--r-- 1 bsonghao nooijen   30264 Nov 16 18:43 /scratch/bsonghao/nh3_diabatization_2d_at_mode_7_8_dist-0.5_-0.3.F99
ls: No match.
ls: No match.
ls: No match.
Wed 16 Nov 2022 06:44:03 PM EST
0.281u 0.051s 0:17.16 1.9%	0+0k 48+224io 0pf+0w
