----- GAMESS execution script 'rungms' -----
This job is running on host io002
under operating system Linux at Wed 16 Nov 2022 07:58:52 PM EST
Available scratch disk space (Kbyte units) at beginning of the job is
Filesystem       1K-blocks       Used   Available Use% Mounted on
/dev/sdc1      15378471580 3278917120 11318349060  23% /scratch
GAMESS temporary binary files will be written to /scratch/bsonghao
GAMESS supplementary output files will be written to /home/bsonghao/.gamess_ascii_files/267638
Copying input file nh3_diabatization_2d_at_mode_7_8_dist0.5_-0.5.inp to your run's scratch directory...
cp nh3_diabatization_2d_at_mode_7_8_dist0.5_-0.5.inp /scratch/bsonghao/nh3_diabatization_2d_at_mode_7_8_dist0.5_-0.5.F05
unset echo
/home/bjb2chen/gamess/ddikick.x /home/bjb2chen/gamess/gamess.00.x nh3_diabatization_2d_at_mode_7_8_dist0.5_-0.5 -ddi 1 1 io002 -scr /scratch/bsonghao

 Distributed Data Interface kickoff program.
 Initiating 1 compute processes on 1 nodes to run the following command:
 /home/bjb2chen/gamess/gamess.00.x nh3_diabatization_2d_at_mode_7_8_dist0.5_-0.5 

          ******************************************************
          *         GAMESS VERSION = 02 AUG 2018 (R2)         *
          *             FROM IOWA STATE UNIVERSITY             *
          * M.W.SCHMIDT, K.K.BALDRIDGE, J.A.BOATZ, S.T.ELBERT, *
          *   M.S.GORDON, J.H.JENSEN, S.KOSEKI, N.MATSUNAGA,   *
          *          K.A.NGUYEN, S.J.SU, T.L.WINDUS,           *
          *       TOGETHER WITH M.DUPUIS, J.A.MONTGOMERY       *
          *         J.COMPUT.CHEM.  14, 1347-1363(1993)        *
          **************** 64 BIT LINUX VERSION ****************

  SINCE 1993, STUDENTS AND POSTDOCS WORKING AT IOWA STATE UNIVERSITY
  AND ALSO IN THEIR VARIOUS JOBS AFTER LEAVING ISU HAVE MADE IMPORTANT
  CONTRIBUTIONS TO THE CODE:
     IVANA ADAMOVIC, CHRISTINE AIKENS, YURI ALEXEEV, POOJA ARORA,
     ANDREY ASADCHEV, ROB BELL, PRADIPTA BANDYOPADHYAY, JONATHAN BENTZ,
     BRETT BODE, KURT BRORSEN, CALEB CARLIN, GALINA CHABAN, WEI CHEN,
     CHEOL HO CHOI, PAUL DAY, ALBERT DEFUSCO, NUWAN DESILVA, TIM DUDLEY,
     DMITRI FEDOROV, ALEX FINDLATER, GRAHAM FLETCHER, MARK FREITAG,
     KURT GLAESEMANN, ANASTASIA GUININA,
     DAN KEMP, GRANT MERRILL, NORIYUKI MINEZAWA, JONATHAN MULLIN,
     TAKESHI NAGATA, SEAN NEDD, HEATHER NETZLOFF, BOSILJKA NJEGIC, RYAN OLSON,
     MIKE PAK, BUU PHAM,
     SPENCER PRUITT, LUKE ROSKOP, JIM SHOEMAKER, LYUDMILA SLIPCHENKO,
     TONY SMITH, SAROM SOK LEANG, JIE SONG, TETSUYA TAKETSUGU, SIMON WEBB,
     PENG XU, SOOHAENG YOO, FEDERICO ZAHARIEV

  ADDITIONAL CODE HAS BEEN PROVIDED BY COLLABORATORS IN OTHER GROUPS:
     IOWA STATE UNIVERSITY:
          JOE IVANIC, AARON WEST, LAIMUTIS BYTAUTAS, KLAUS RUEDENBERG
     UNIVERSITY OF TOKYO: KIMIHIKO HIRAO, TAKAHITO NAKAJIMA,
          TAKAO TSUNEDA, MUNEAKI KAMIYA, SUSUMU YANAGISAWA,
          KIYOSHI YAGI, MAHITO CHIBA, SEIKEN TOKURA, NAOAKI KAWAKAMI
     UNIVERSITY OF AARHUS: FRANK JENSEN
     UNIVERSITY OF IOWA: VISVALDAS KAIRYS, HUI LI
     NATIONAL INST. OF STANDARDS AND TECHNOLOGY: WALT STEVENS, DAVID GARMER
     UNIVERSITY OF PISA: BENEDETTA MENNUCCI, JACOPO TOMASI
     UNIVERSITY OF MEMPHIS: HENRY KURTZ, PRAKASHAN KORAMBATH
     UNIVERSITY OF ALBERTA: TOBY ZENG, MARIUSZ KLOBUKOWSKI
     UNIVERSITY OF NEW ENGLAND: MARK SPACKMAN
     MIE UNIVERSITY: HIROAKI UMEDA
     NAT. INST. OF ADVANCED INDUSTRIAL SCIENCE AND TECHNOLOGY: KAZUO KITAURA
     MICHIGAN STATE UNIVERSITY:
          KAROL KOWALSKI, MARTA WLOCH, JEFFREY GOUR, JESSE LUTZ,
          WEI LI, JUN SHEN, J. EMILIANO DEUSTUA, PIOTR PIECUCH
     UNIVERSITY OF MINNESOTA:
          YINAN SHU
     UNIVERSITY OF SILESIA: MONIKA MUSIAL, STANISLAW KUCHARSKI
     FACULTES UNIVERSITAIRES NOTRE-DAME DE LA PAIX:
          OLIVIER QUINET, BENOIT CHAMPAGNE
     UNIVERSITY OF CALIFORNIA - SANTA BARBARA: BERNARD KIRTMAN
     INSTITUTE FOR MOLECULAR SCIENCE:
          KAZUYA ISHIMURA, MICHIO KATOUDA, AND SHIGERU NAGASE
     UNIVERSITY OF NOTRE DAME: ANNA POMOGAEVA, DAN CHIPMAN
     KYUSHU UNIVERSITY:
          HARUYUKI NAKANO,
          FENG LONG GU, JACEK KORCHOWIEC, MARCIN MAKOWSKI, AND YURIKO AOKI,
          HIROTOSHI MORI AND EISAKU MIYOSHI
     PENNSYLVANIA STATE UNIVERSITY:
          TZVETELIN IORDANOV, CHET SWALINA, JONATHAN SKONE,
          SHARON HAMMES-SCHIFFER
     WASEDA UNIVERSITY:
          MASATO KOBAYASHI, TOMOKO AKAMA, TSUGUKI TOUMA,
          TAKESHI YOSHIKAWA, YASUHIRO IKABATA, JUNJI SEINO,
          YUYA NAKAJIMA, HIROMI NAKAI
     NANJING UNIVERSITY: SHUHUA LI
     UNIVERSITY OF NEBRASKA:
          PEIFENG SU, DEJUN SI, NANDUN THELLAMUREGE, YALI WANG, HUI LI
     UNIVERSITY OF ZURICH: ROBERTO PEVERATI, KIM BALDRIDGE
     N. COPERNICUS UNIVERSITY AND JACKSON STATE UNIVERSITY:
          MARIA BARYSZ
     UNIVERSITY OF COPENHAGEN: Jimmy Kromann, CASPER STEINMANN
     TOKYO INSTITUTE OF TECHNOLOGY: HIROYA NAKATA
     NAGOYA UNIVERSITY: YOSHIO NISHIMOTO, STEPHAN IRLE
     MOSCOW STATE UNIVERSITY: VLADIMIR MIRONOV

 EXECUTION OF GAMESS BEGUN Wed Nov 16 19:58:52 2022

            ECHO OF THE FIRST FEW INPUT CARDS -
 INPUT CARD> $system kdiag=3 mwords=100 memddi=1000 parall=.t. $end                         
 INPUT CARD> $contrl runtyp=energy ispher=1 $end                                            
 INPUT CARD> $contrl icut=9 itol=20 inttyp=rysquad qmttol=1.0d-05 nosym=1 $end              
 INPUT CARD> $scf    npunch=2 conv=1.0d-06 dirscf=.t.      $end                             
 INPUT CARD> $contrl scftyp=mcscf  mult=2 maxit=200 icharg=1 mplevl=2 $end                  
 INPUT CARD> $guess  guess=moread norb=29 purify=.t. $end                                   
 INPUT CARD> $basis  gbasis=ccd $end                                                        
 INPUT CARD> $mcscf  cistep=gmcci fullnr=.t. finci=mos                                      
 INPUT CARD>         acurcy=1.d-6 maxit=100 $end                                            
 INPUT CARD> $trans  dirtrf=.t. $end                                                        
 INPUT CARD> $mrmp   mrpt=gmcpt rdvecs=.f. $end                                             
 INPUT CARD> $gmcpt  nmofzc=0 nmodoc=1 nmoact=7 nelact=7 stsym(1)=A                         
 INPUT CARD>         reftyp=ormas nspace=1 mstart(1)=2 mine(1)=7 maxe(1)=7                  
 INPUT CARD>         kstate(1)=1,1,1                                                        
 INPUT CARD>         wstate(1)=1,1,1                                                        
 INPUT CARD>         iwgt=0 thrwgt=-1.0 krot=.f. kszdoe=.f. knospn=.f.                      
 INPUT CARD>         thrde=-1.0 edshft=0.02 $end                                            
 INPUT CARD> $data                                                                          
 INPUT CARD> NH3+ 3 states calculation at NH3 structure.                                    
 INPUT CARD> c1                                                                             
 INPUT CARD>N 7.0 0.03114459 -0.031144515 -0.1693804142                                     
 INPUT CARD>H 1.0 -0.52882981 0.6488488328 0.4367561031                                     
 INPUT CARD>H 1.0 -0.910956385 -0.5809639878 0.2081487381                                   
 INPUT CARD>H 1.0 1.00702375 0.36487871 0.12447170810000002                                 
 INPUT CARD>$end                                                                            
 INPUT CARD>--- OPTIMIZED RHF      MO-S --- GENERATED AT Mon Nov 14 16:47:08 2022           
 INPUT CARD>E=      -56.3825050291, E(NUC)=   11.8429239490                                 
 INPUT CARD> $VEC                                                                           
 INPUT CARD> 1  1-1.00134066E+00-2.25158504E-03 3.44925845E-03 0.00000000E+00 0.00000000E+00
 INPUT CARD> 1  2-2.13170927E-03 0.00000000E+00 0.00000000E+00 6.57129898E-04-6.87950443E-05
 INPUT CARD> 1  3-6.87950443E-05 1.37590089E-04 0.00000000E+00 0.00000000E+00 0.00000000E+00
 INPUT CARD> 1  4 3.25502815E-04-4.84772356E-04 3.62525460E-04-6.27912517E-04-3.45956485E-04
 INPUT CARD> 1  5 3.25502815E-04-4.84772356E-04 3.62525460E-04 6.27912517E-04-3.45956485E-04
 INPUT CARD> 1  6 3.25502815E-04-4.84772356E-04-7.25050921E-04 0.00000000E+00-3.45956485E-04
 INPUT CARD> 2  1 1.31286642E-02-4.05911371E-01-2.82090992E-01 0.00000000E+00 0.00000000E+00
 INPUT CARD> 2  2-7.71489043E-02 0.00000000E+00 0.00000000E+00 9.73717494E-03 6.62450916E-04
 INPUT CARD> 2  3 6.62450916E-04-1.32490183E-03 0.00000000E+00 0.00000000E+00 0.00000000E+00
 INPUT CARD> 2  4-1.96090317E-01-1.96656153E-02-1.74855877E-02 3.02859263E-02 8.68214399E-03
 INPUT CARD> 2  5-1.96090317E-01-1.96656153E-02-1.74855877E-02-3.02859263E-02 8.68214399E-03
 INPUT CARD> 2  6-1.96090317E-01-1.96656153E-02 3.49711754E-02 0.00000000E+00 8.68214399E-03
 INPUT CARD> 3  1 0.00000000E+00 0.00000000E+00 0.00000000E+00 4.48608762E-01 0.00000000E+00
 INPUT CARD> 3  2 0.00000000E+00 2.18692520E-01 0.00000000E+00 0.00000000E+00 1.30198027E-02
 INPUT CARD> 3  3-1.30198027E-02 0.00000000E+00 0.00000000E+00 2.71832968E-02 0.00000000E+00
 INPUT CARD> 3  4-1.85332726E-01-7.03958951E-02 8.47929477E-03 1.95242443E-02 8.32835058E-03
 INPUT CARD> 3  5-1.85332726E-01-7.03958951E-02 8.47929477E-03-1.95242443E-02 8.32835058E-03
 INPUT CARD> 3  6 3.70665453E-01 1.40791790E-01-2.53376884E-02 0.00000000E+00-1.66567012E-02
 INPUT CARD> 4  1 0.00000000E+00 0.00000000E+00 0.00000000E+00 0.00000000E+00 4.48608762E-01
 INPUT CARD> 4  2 0.00000000E+00 0.00000000E+00 2.18692520E-01 0.00000000E+00 0.00000000E+00
 INPUT CARD> 4  3 0.00000000E+00 0.00000000E+00-1.50339731E-02 0.00000000E+00 2.71832968E-02
 INPUT CARD> 4  4 3.21005698E-01 1.21929267E-01 1.95242443E-02-1.40653607E-02-1.44251263E-02
  100000000 WORDS OF MEMORY AVAILABLE

     BASIS OPTIONS
     -------------
     GBASIS=CCD          IGAUSS=       0      POLAR=NONE    
     NDFUNC=       0     NFFUNC=       0     DIFFSP=       F
     NPFUNC=       0      DIFFS=       F     BASNAM=        


     RUN TITLE
     ---------
  NH3+ 3 states calculation at NH3 structure.                                    

 THE POINT GROUP OF THE MOLECULE IS C1      
 THE ORDER OF THE PRINCIPAL AXIS IS     0

 ATOM      ATOMIC                      COORDINATES (BOHR)
           CHARGE         X                   Y                   Z
 N           7.0     0.0588547411       -0.0588545994       -0.3200825705
 H           1.0    -0.9993434350        1.2261465014        0.8253493583
 H           1.0    -1.7214579544       -1.0978627457        0.3933440797
 H           1.0     1.9029989506        0.6895207807        0.2352174215

          INTERNUCLEAR DISTANCES (ANGS.)
          ------------------------------

                1 N          2 H          3 H          4 H     

   1 N       0.0000000    1.0692819 *  1.1542894 *  1.0934000 *
   2 H       1.0692819 *  0.0000000    1.3079456 *  1.5927984 *
   3 H       1.1542894 *  1.3079456 *  0.0000000    2.1401561 *
   4 H       1.0934000 *  1.5927984 *  2.1401561 *  0.0000000  

  * ... LESS THAN  3.000


     ATOMIC BASIS SET
     ----------------
 THE CONTRACTED PRIMITIVE FUNCTIONS HAVE BEEN UNNORMALIZED
 THE CONTRACTED BASIS FUNCTIONS ARE NOW NORMALIZED TO UNITY

  SHELL TYPE  PRIMITIVE        EXPONENT          CONTRACTION COEFFICIENT(S)

 N         

      1   S       1          9046.0000000    0.000699617413
      1   S       2          1357.0000000    0.005386054630
      1   S       3           309.3000000    0.027391021189
      1   S       4            87.7300000    0.103150591982
      1   S       5            28.5600000    0.278570663317
      1   S       6            10.2100000    0.448294849454
      1   S       7             3.8380000    0.278085928395
      1   S       8             0.7466000    0.015431561233

      2   S       9          9046.0000000   -0.000304990096
      2   S      10          1357.0000000   -0.002408026379
      2   S      11           309.3000000   -0.011944448725
      2   S      12            87.7300000   -0.048925992909
      2   S      13            28.5600000   -0.134472724725
      2   S      14            10.2100000   -0.315112577700
      2   S      15             3.8380000   -0.242857832550
      2   S      16             0.7466000    1.094382206854

      3   S      17             0.2248000    1.000000000000

      4   P      18            13.5500000    0.058905676772
      4   P      19             2.9170000    0.320461106714
      4   P      20             0.7973000    0.753042061792

      5   P      21             0.2185000    1.000000000000

      6   D      22             0.8170000    1.000000000000

 H         

      7   S      23            13.0100000    0.033498726390
      7   S      24             1.9620000    0.234800801174
      7   S      25             0.4446000    0.813682957883

      8   S      26             0.1220000    1.000000000000

      9   P      27             0.7270000    1.000000000000

 H         

     10   S      28            13.0100000    0.033498726390
     10   S      29             1.9620000    0.234800801174
     10   S      30             0.4446000    0.813682957883

     11   S      31             0.1220000    1.000000000000

     12   P      32             0.7270000    1.000000000000

 H         

     13   S      33            13.0100000    0.033498726390
     13   S      34             1.9620000    0.234800801174
     13   S      35             0.4446000    0.813682957883

     14   S      36             0.1220000    1.000000000000

     15   P      37             0.7270000    1.000000000000

 TOTAL NUMBER OF BASIS SET SHELLS             =   15
 NUMBER OF CARTESIAN GAUSSIAN BASIS FUNCTIONS =   30
 NOTE: THIS RUN WILL RESTRICT THE MO VARIATION SPACE TO SPHERICAL HARMONICS.
 THE NUMBER OF ORBITALS KEPT IN THE VARIATIONAL SPACE WILL BE PRINTED LATER.
 NUMBER OF ELECTRONS                          =    9
 CHARGE OF MOLECULE                           =    1
 SPIN MULTIPLICITY                            =    2
 NUMBER OF OCCUPIED ORBITALS (ALPHA)          =    5
 NUMBER OF OCCUPIED ORBITALS (BETA )          =    4
 TOTAL NUMBER OF ATOMS                        =    4
 THE NUCLEAR REPULSION ENERGY IS       11.0452387202

     $CONTRL OPTIONS
     ---------------
 SCFTYP=MCSCF        RUNTYP=ENERGY       EXETYP=RUN     
 MPLEVL=       2     CITYP =NONE         CCTYP =NONE         VBTYP =NONE    
 DFTTYP=NONE         TDDFT =NONE    
 MULT  =       2     ICHARG=       1     NZVAR =       0     COORD =UNIQUE  
 PP    =NONE         RELWFN=NONE         LOCAL =NONE         NUMGRD=       F
 ISPHER=       1     NOSYM =       1     MAXIT =     200     UNITS =ANGS    
 PLTORB=       F     MOLPLT=       F     AIMPAC=       F     FRIEND=        
 NPRINT=       7     IREST =       0     GEOM  =INPUT   
 NORMF =       0     NORMP =       0     ITOL  =      20     ICUT  =       9
 INTTYP=RYSQUAD      GRDTYP=BEST         QMTTOL= 1.0E-05

     $SYSTEM OPTIONS
     ---------------
  REPLICATED MEMORY=   100000000 WORDS (ON EVERY NODE).
 DISTRIBUTED MEMDDI=        1000 MILLION WORDS IN AGGREGATE,
 MEMDDI DISTRIBUTED OVER   1 PROCESSORS IS  1000000000 WORDS/PROCESSOR.
 TOTAL MEMORY REQUESTED ON EACH PROCESSOR=  1100000000 WORDS.
 TIMLIM=      525600.00 MINUTES, OR     365.0 DAYS.
 PARALL= T  BALTYP=  DLB     KDIAG=    3  COREFL= F
 MXSEQ2=     300 MXSEQ3=     150  mem10=         0

          ----------------
          PROPERTIES INPUT
          ----------------

     MOMENTS            FIELD           POTENTIAL          DENSITY
 IEMOM =       1   IEFLD =       0   IEPOT =       0   IEDEN =       0
 WHERE =COMASS     WHERE =NUCLEI     WHERE =NUCLEI     WHERE =NUCLEI  
 OUTPUT=BOTH       OUTPUT=BOTH       OUTPUT=BOTH       OUTPUT=BOTH    
 IEMINT=       0   IEFINT=       0                     IEDINT=       0
                                                       MORB  =       0

     -------------------------------
     INTEGRAL TRANSFORMATION OPTIONS
     -------------------------------
     NWORD  =            0
     CUTOFF = 1.0E-09     MPTRAN =       0
     DIRTRF =       T     AOINTS =DUP     

          ----------------------
          MCSCF INPUT PARAMETERS
          ----------------------
 CONVERGER SELECTION: FOCAS = F  SOSCF = F  FULLNR = T  QUD = F  JACOBI = F
 SECULAR EQUATION METHOD CISTEP = GMCCI   
 --- GENERAL INPUT OPTIONS:
 MAXIT =     100  MICIT =       1  ACURCY= 1.000E-06
 DAMP  =   0.000  CANONC=       T  ENGTOL= 1.000E-10
 EKT   =       F  NPUNCH=       2  NWORD =         0
 REGENERATE CI AFTER CONVERGENCE = NONE    
 DIABATIZATION AFTER CONVERGENCE =        F
 --- INPUT FOR FULLNR CONVERGER:
 METHOD=DM2       FORS  =       F  DROPC =       T
 LINSER=       F  FCORE =       F  NORB  =      30

          ----------------------
          INTEGRAL INPUT OPTIONS
          ----------------------
 NOPK  =       1 NORDER=       0 SCHWRZ=       T

 ------------------------------------------
 MULTIREFERENCE PERTURBATION THEORY CONTROL
 ------------------------------------------
 MRPT=GMCPT    READ CONVERGED MCSCF VECTORS= F


     ------------------------------------------
     THE POINT GROUP IS C1 , NAXIS= 1, ORDER= 1
     ------------------------------------------

 -- VARIATIONAL SPACE WILL BE RESTRICTED TO PURE SPHERICAL HARMONICS ONLY --
 AFTER EXCLUDING CONTAMINANT COMBINATIONS FROM THE CARTESIAN GAUSSIAN BASIS
 SET, THE NUMBER OF SPHERICAL HARMONICS KEPT IN THE VARIATION SPACE IS   29

     DIMENSIONS OF THE SYMMETRY SUBSPACES ARE
 A   =   29

 ..... DONE SETTING UP THE RUN .....
 CPU     0: STEP CPU TIME=     0.04 TOTAL CPU TIME=          0.0 (      0.0 MIN)
 TOTAL WALL CLOCK TIME=          0.1 SECONDS, CPU UTILIZATION IS    80.00%

          ********************
          1 ELECTRON INTEGRALS
          ********************
 TIME TO DO   DIPOLE INTEGRALS=      0.00
 ...... END OF ONE-ELECTRON INTEGRALS ......
 CPU     0: STEP CPU TIME=     0.00 TOTAL CPU TIME=          0.0 (      0.0 MIN)
 TOTAL WALL CLOCK TIME=          0.1 SECONDS, CPU UTILIZATION IS    80.00%

          -------------
          GUESS OPTIONS
          -------------
          GUESS =MOREAD            NORB  =      29          NORDER=       0
          MIX   =       F          PRTMO =       F          PUNMO =       F
          TOLZ  = 1.0E-08          TOLE  = 1.0E-05
          SYMDEN=       F          PURIFY=       T

 INITIAL GUESS ORBITALS GENERATED BY MOREAD   ROUTINE.

 STATISTICS FOR GENERATION OF SYMMETRY ORBITAL -Q- MATRIX
 NUMBER OF CARTESIAN ATOMIC ORBITALS=         30
 NUMBER OF SPHERICAL CONTAMINANTS DROPPED=     1
 NUMBER OF LINEARLY DEPENDENT MOS DROPPED=     0
 TOTAL NUMBER OF MOS IN VARIATION SPACE=      29
 ORBITAL PURIFICATION WILL OCCUR

 SYMMETRIES FOR INITIAL GUESS ORBITALS FOLLOW.   BOTH SET(S).
     5 ORBITALS ARE OCCUPIED (    1 CORE ORBITALS).
     1=A        2=A        3=A        4=A        5=A        6=A        7=A   
     8=A        9=A       10=A       11=A       12=A       13=A       14=A   
    15=A       16=A       17=A       18=A       19=A       20=A       21=A   
    22=A       23=A       24=A       25=A       26=A       27=A       28=A   
    29=A   
 ...... END OF INITIAL ORBITAL SELECTION ......
 CPU     0: STEP CPU TIME=     0.01 TOTAL CPU TIME=          0.0 (      0.0 MIN)
 TOTAL WALL CLOCK TIME=          0.1 SECONDS, CPU UTILIZATION IS   100.00%

                    ----------------------
                    AO INTEGRAL TECHNOLOGY
                    ----------------------
     S,P,L SHELL ROTATED AXIS INTEGRALS, REPROGRAMMED BY
        KAZUYA ISHIMURA (IMS) AND JOSE SIERRA (SYNSTAR).
     S,P,D,L SHELL ROTATED AXIS INTEGRALS PROGRAMMED BY
        KAZUYA ISHIMURA (INSTITUTE FOR MOLECULAR SCIENCE).
     S,P,D,F,G SHELL TO TOTAL QUARTET ANGULAR MOMENTUM SUM 5,
        ERIC PROGRAM BY GRAHAM FLETCHER (ELORET AND NASA ADVANCED
        SUPERCOMPUTING DIVISION, AMES RESEARCH CENTER).
     S,P,D,F,G,L SHELL GENERAL RYS QUADRATURE PROGRAMMED BY
        MICHEL DUPUIS (PACIFIC NORTHWEST NATIONAL LABORATORY).

          --------------------
          2 ELECTRON INTEGRALS
          --------------------

 DIRECT SCF METHOD SKIPS INTEGRAL STORAGE ON DISK.
 DIRECT TRANSFORMATION SKIPS AO INTEGRAL STORAGE ON DISK.
  ...... END OF TWO-ELECTRON INTEGRALS .....
 STEP CPU TIME =     0.02 TOTAL CPU TIME =          0.1 (      0.0 MIN)
 TOTAL WALL CLOCK TIME=          0.1 SECONDS, CPU UTILIZATION IS    87.50%
 DDI: Creating Array [0] - 900 x 36 = 32400 words.
 DDI: Creating Array [1] - 21 x 288 = 6048 words.
 DDI: Creating Array [2] - 36 x 36 = 1296 words.
 DDI: Creating Array [3] - 465 x 36 = 16740 words.

          -----------------
          MCSCF CALCULATION
          -----------------

 ----- NUCLEAR ENERGY ----- =        11.0452387202

     -------------------------------------------------
     GMC-PT/GMC-QDPT or general MCSCF input parameters
     -------------------------------------------------
 # of frozen core orbs. =         0 ->         0
 # of doubly occ. orbs. =         1
 # of active      orbs. =         7
 # of virtual     orbs. =        21
 # of active electrons  =         7
 # of states in CI      =         3
 Highest state in CI    =         3
 kstate =  1 1 1
 avecoe =  0.333 0.333 0.333
 State symmetry           = A           
 Assigned symmetry number = 1

 <<<Act. MO sym.: 1111111

 <<<Division of 1-ext.:  0
 <<<Division of 2-ext.:  0

 *** Reference space

 Reference type: ORMAS (= Occupation restricted multiple active space)
 # of orbitals          =  7
 # of minimum electrons =  7
 # of maximum electrons =  7
 State symmetry    =    1 (input)
 2*Sz              =    1 (input)
 Spin multiplicity =    2 (input)
 Dimension of reference space =      1225  (from      3432 walks)

 Dimension of reference space =      1225  (from      1225 walks)

 <<<Ionized spaces for Ref-CI:
      0:         1225 /   -1-0:         1960 /  0-1-0:         2891

 EVALUATING EXCHANGE INTEGRALS FOR DIRECT INTEGRAL TRANSFORMATION
 SCHWARZ INEQUALITY OVERHEAD:       465 INTEGRALS, T=        0.00

     --------------------------------------------
     PARTIAL TWO ELECTRON INTEGRAL TRANSFORMATION
     --------------------------------------------

 NUMBER OF CORE MOLECULAR ORBITALS     =    1
 NUMBER OF OCCUPIED MOLECULAR ORBITALS =    8
 TOTAL NUMBER OF MOLECULAR ORBITALS    =   29
 TOTAL NUMBER OF ATOMIC ORBITALS       =   30
 THRESHOLD FOR KEEPING TRANSFORMED 2E- INTEGRALS = 1.000E-09

 -------------------------------     ------------------------------
 DISTRIBUTED DATA TRANSFORMATION     PROGRAM WRITTEN BY G. FLETCHER
 -------------------------------     ------------------------------

 THE DISTRIBUTED MEMORY REQUIRED FOR THIS STEP IS MEMDDI=         1 MWORDS
 CREATING DISTRIBUTED STORAGE FOR [VIR OCC|VIR OCC] INTEGRALS
 CREATING DISTRIBUTED STORAGE FOR [VIR OCC|OCC OCC] INTEGRALS
 CREATING DISTRIBUTED STORAGE FOR [OCC OCC|OCC OCC] INTEGRALS
 CREATING DISTRIBUTED STORAGE FOR [VIR VIR|OCC OCC] INTEGRALS
 FOR    1 PROCESSORS, THE REPLICATED MEMORY NEEDED IS       73700 WORDS.
 SCHWARZ INEQUALITY OVERHEAD:       465 INTEGRALS, T=        0.00

      DIRECT 4-INDEX TRANSFORMATION 
      SCHWARZ INEQUALITY TEST SKIPPED          0 INTEGRAL BLOCKS
 ----- FROZEN CORE ENERGY =       -47.6065823355
 ... END OF INTEGRAL TRANSFORMATION ...
 CPU     0: STEP CPU TIME=     0.22 TOTAL CPU TIME=          0.3 (      0.0 MIN)
 TOTAL WALL CLOCK TIME=          0.3 SECONDS, CPU UTILIZATION IS    96.67%

     --------------------------------     -----------------------------
     MCHF NEWTON-RAPHSON OPTIMIZATION     CODE WRITTEN BY MICHEL DUPUIS
     --------------------------------     -----------------------------
     PARALLEL VERSION WRITTEN BY G. FLETCHER (ELORET)
     NASA ADVANCED SUPERCOMPUTING DIVISION, AMES RESEARCH CENTER

 NUMBER OF INDEPENDENT ORBITAL ROTATION PARAMETERS =   175
 ..... DONE SOLVING NEWTON-RAPHSON EQUATIONS .....
 CPU     0: STEP CPU TIME=     0.93 TOTAL CPU TIME=          1.2 (      0.0 MIN)
 TOTAL WALL CLOCK TIME=          1.2 SECONDS, CPU UTILIZATION IS    98.39%
 ..... DONE WITH NTN-RPH ORBITAL ROTATIONS ..... 
 CPU     0: STEP CPU TIME=     0.00 TOTAL CPU TIME=          1.2 (      0.0 MIN)
 TOTAL WALL CLOCK TIME=          1.2 SECONDS, CPU UTILIZATION IS    98.39%
 MAXIMUM MEMORY USED BY NTN-RPH CODE WAS     57645 WORDS.

 ITER     TOTAL ENERGY      DEL(E)  LAGRANGIAN ASYMMETRY   SQCDF  MICIT   DAMP
   1      -55.604709504 -0.604709504  0.111027   10    4 1.039E-01  1   0.0000
   2      -55.662120172 -0.057410668  0.019727   12    5 4.613E-01  1   0.0000
   3      -55.698343602 -0.036223431  0.013957   11    6 2.244E-01  1   0.0190
   4      -55.714658927 -0.016315325  0.004842   11    6 4.232E-02  1   0.0057
   5      -55.716792416 -0.002133489  0.001047   14    5 1.049E-03  1   0.0000
   6      -55.716856688 -0.000064272  0.000430   14    5 8.154E-05  1   0.0000
   7      -55.716863675 -0.000006987  0.000184   14    5 1.668E-05  1   0.0000
   8      -55.716865120 -0.000001444  0.000083   14    5 4.169E-06  1   0.0000
   9      -55.716865468 -0.000000349  0.000038   14    5 1.143E-06  1   0.0000
  10      -55.716865560 -0.000000092  0.000019   22    5 3.325E-07  1   0.0000
  11      -55.716865586 -0.000000026  0.000010   22    5 1.007E-07  1   0.0000
  12      -55.716865594 -0.000000008  0.000006   22    5 3.135E-08  1   0.0000
  13      -55.716865596 -0.000000002  0.000003   22    5 1.001E-08  1   0.0000
  14      -55.716865597 -0.000000001  0.000002   22    5 3.256E-09  1   0.0000
  15      -55.716865597 -0.000000000  0.000001   22    5 1.080E-09  1   0.0000
  16      -55.716865597 -0.000000000  0.000001   12    7 3.557E-10  1   0.0000

          --------------------
          LAGRANGIAN CONVERGED
          --------------------

 FINAL MCSCF ENERGY IS      -55.7168655968 AFTER  16 ITERATIONS

 -MCCI- BASED ON OPTIMIZED ORBITALS
 ----------------------------------

 PLEASE NOTE: IF THE ACTIVE ORBITALS ARE CANONICALIZED BELOW,
 THE FOLLOWING CI EXPANSION COEFFICIENTS AND THE DENSITY DO NOT
 CORRESPOND TO THE PRINTED ORBITALS.  THE PRINTED EXPANSIONS MATCH
 THE ORBITALS USED DURING THE LAST ITERATION.  IF YOU WISH TO SEE
 CI EXPANSIONS BASED ON THE CANONICAL (OR NATURAL) ORBITALS, YOU
 MUST RUN A CI CALCULATION WITH THAT ORBITAL CHOICE READ IN $VEC.

 Averaged energy =     -55.716865597

 State #    1  Energy =     -55.855647357  S =  0.500

      Det      Coef    Occupancy (Ignoring core)
      ---      ----    --------- --------- -----
        1    0.885220  11110001110000
        2    0.055414  11101001110000
        5   -0.072275  01111001110000
        8   -0.127551  10110101110000
       17    0.144535  11010011110000
       36    0.289769  11110001101000
       71    0.140745  11110001011000
      211    0.052638  11110000110100
      386    0.102239  11110001010010
      701   -0.095385  11110001100001
      717    0.072097  11010011100001

 State #    2  Energy =     -55.718981515  S =  0.500

      Det      Coef    Occupancy (Ignoring core)
      ---      ----    --------- --------- -----
        1    0.304958  11110001110000
       36   -0.880080  11110001101000
       38   -0.060082  11011001101000
       40    0.066500  01111001101000
       43    0.097265  10110101101000
       52   -0.104179  11010011101000
       71   -0.184021  11110001011000
      106    0.050166  11110000111000
      281   -0.055027  11110000101100
      456   -0.086446  11110001001010
      463   -0.052596  10110101001010
      701   -0.081518  11110001100001

 State #    3  Energy =     -55.575967919  S =  0.500

      Det      Coef    Occupancy (Ignoring core)
      ---      ----    --------- --------- -----
        1   -0.073525  11110001110000
       36   -0.224756  11110001101000
       71    0.926250  11110001011000
       78   -0.064347  10110101011000
       87    0.094160  11010011011000
      246    0.053724  11110001001100
      316    0.078499  11110000011100
      806    0.115690  11110001001001
      822   -0.077796  11010011001001

 DENSITY MATRIX OVER ACTIVE MO-S

             1           2           3           4           5

    1    1.9730625
    2   -0.0139773   1.6326138
    3    0.0265781   0.0046781   1.6184091
    4   -0.0028208  -0.0040189   0.0101814   1.6486560
    5    0.1113726   0.0372100  -0.0692381   0.0374086   0.0371554
    6    0.0006126  -0.1501924   0.0206835  -0.0410926  -0.0059374
    7    0.0146153   0.0104952  -0.1732710   0.0753444   0.0156528

             6           7

    6    0.0368274
    7   -0.0085802   0.0532758

 FORMING THE "STANDARD FOCK OPERATOR" IN DIRECT AO INTEGRAL MODE...
 ONLY THE    1 CORE AND   21 VIRTUAL ORBITALS WILL BE CANONICALIZED

          ----------------------
          MCSCF NATURAL ORBITALS
          ----------------------

                      1          2          3          4          5
                  -15.9785     1.9813     1.6544     1.6470     1.6396
                     A          A          A          A          A   
    1  N  1  S    1.001073   0.009590  -0.008586   0.002081  -0.003617
    2  N  1  S   -0.002006   0.434674  -0.160793   0.077319  -0.083550
    3  N  1  S   -0.006366   0.327309  -0.258719   0.106061  -0.127581
    4  N  1  X    0.000030  -0.031865   0.133146   0.452810  -0.077409
    5  N  1  Y    0.000133   0.046875  -0.061183   0.059138   0.525530
    6  N  1  Z    0.001070   0.086957   0.580027  -0.091137   0.008701
    7  N  1  X    0.000021  -0.005121   0.087599   0.176620  -0.050198
    8  N  1  Y    0.000002   0.002182  -0.067796   0.015444   0.288553
    9  N  1  Z   -0.000518   0.013990   0.388202  -0.040920  -0.030986
   10  N  1 XX    0.000245   0.002431  -0.010468   0.004372  -0.008079
   11  N  1 YY   -0.000116  -0.002328  -0.012284  -0.000068   0.007337
   12  N  1 ZZ   -0.000129  -0.000103   0.022752  -0.004305   0.000742
   13  N  1 XY    0.000134   0.001588   0.001791   0.007016  -0.015414
   14  N  1 XZ   -0.000088  -0.002781   0.001599   0.019673  -0.004281
   15  N  1 YZ    0.000151   0.001725   0.003179   0.000285   0.023062
   16  H  2  S   -0.001819   0.217443   0.106981  -0.186525   0.325146
   17  H  2  S    0.000278   0.009351   0.026312  -0.032209   0.099590
   18  H  2  X   -0.000542   0.020736   0.013062   0.010142   0.019735
   19  H  2  Y    0.000672  -0.025931  -0.017128   0.023396  -0.008935
   20  H  2  Z    0.000558  -0.018486   0.018768   0.008131  -0.022071
   21  H  3  S   -0.001418   0.159492   0.057191  -0.267225  -0.238251
   22  H  3  S    0.000402  -0.001135   0.026245  -0.038017  -0.080423
   23  H  3  X   -0.000622   0.023733   0.007780  -0.021714  -0.028534
   24  H  3  Y   -0.000412   0.016690   0.002666  -0.026942   0.003254
   25  H  3  Z    0.000324  -0.005334   0.022349   0.005357   0.007687
   26  H  4  S   -0.001643   0.162025   0.149481   0.338098   0.008201
   27  H  4  S    0.000569  -0.000155   0.037477   0.049598  -0.017230
   28  H  4  X    0.000841  -0.030784  -0.015724  -0.033733  -0.013458
   29  H  4  Y    0.000291  -0.008515  -0.008505  -0.016819   0.017312
   30  H  4  Z    0.000291  -0.003211   0.018824  -0.013587   0.000626

                      6          7          8
                    0.0344     0.0233     0.0201
                     A          A          A   
    1  N  1  S   -0.127697  -0.137664   0.091522
    2  N  1  S   -0.430093  -0.495388   0.287352
    3  N  1  S    0.011106  -0.205007   0.024674
    4  N  1  X   -0.172969   0.460567   0.758707
    5  N  1  Y    0.595772  -0.294423   0.447597
    6  N  1  Z   -0.178153  -0.598524   0.199705
    7  N  1  X    0.018246   0.087918   0.057939
    8  N  1  Y   -0.059426  -0.042547   0.042187
    9  N  1  Z    0.065175   0.053958  -0.057956
   10  N  1 XX    0.043448   0.022632   0.025091
   11  N  1 YY   -0.038384  -0.023629  -0.032140
   12  N  1 ZZ   -0.005064   0.000997   0.007049
   13  N  1 XY    0.061583  -0.007393  -0.033831
   14  N  1 XZ   -0.008940  -0.044300  -0.034739
   15  N  1 YZ   -0.002572   0.029920  -0.038297
   16  H  2  S   -0.388362   0.733329  -0.129681
   17  H  2  S   -0.154924   0.144393  -0.036708
   18  H  2  X   -0.012808   0.014896  -0.048302
   19  H  2  Y   -0.002244  -0.063565  -0.009960
   20  H  2  Z    0.023811  -0.000376   0.001622
   21  H  3  S    0.601926   0.323718   0.384437
   22  H  3  S    0.161826   0.035407   0.118439
   23  H  3  X    0.061509   0.020991   0.021963
   24  H  3  Y    0.014447   0.041702   0.026898
   25  H  3  Z    0.001105   0.030296   0.010544
   26  H  4  S    0.415860   0.092745  -0.707118
   27  H  4  S    0.083333  -0.015692  -0.149126
   28  H  4  X   -0.031247  -0.021062   0.072371
   29  H  4  Y   -0.030366  -0.002723   0.018405
   30  H  4  Z   -0.002066   0.009534  -0.028120

          ------------------------
          MCSCF OPTIMIZED ORBITALS
          ------------------------

                      1          2          3          4          5
                  -15.9785     0.0000     0.0000     0.0000     0.0000
                     A          A          A          A          A   
    1  N  1  S    1.001073  -0.002102  -0.008916   0.008917  -0.015735
    2  N  1  S   -0.002006   0.398267   0.009954  -0.009229  -0.196165
    3  N  1  S   -0.006366   0.326593   0.060800  -0.099413  -0.273779
    4  N  1  X    0.000030  -0.009337   0.389745  -0.036856   0.030412
    5  N  1  Y    0.000133   0.019422   0.003254   0.446097  -0.022838
    6  N  1  Z    0.001070   0.050949  -0.004854   0.012711   0.579644
    7  N  1  X    0.000021   0.007224   0.184742  -0.039992   0.054327
    8  N  1  Y    0.000002  -0.019694  -0.020617   0.292711  -0.064395
    9  N  1  Z   -0.000518   0.022023   0.032881  -0.042305   0.391532
   10  N  1 XX    0.000245   0.005235   0.002020  -0.012756  -0.009249
   11  N  1 YY   -0.000116  -0.004842  -0.000765   0.012109  -0.013512
   12  N  1 ZZ   -0.000129  -0.000393  -0.001255   0.000647   0.022761
   13  N  1 XY    0.000134   0.005087   0.013590  -0.021159   0.004010
   14  N  1 XZ   -0.000088  -0.003752   0.023541  -0.001614  -0.001664
   15  N  1 YZ    0.000151   0.002068   0.001614   0.024250   0.003677
   16  H  2  S   -0.001819   0.211781  -0.215795   0.374349   0.118618
   17  H  2  S    0.000278   0.003662  -0.040550   0.116439   0.024418
   18  H  2  X   -0.000542   0.020635   0.013282   0.024024   0.011277
   19  H  2  Y    0.000672  -0.027437   0.023791  -0.008644  -0.020521
   20  H  2  Z    0.000558  -0.015924   0.014036  -0.025311   0.017778
   21  H  3  S   -0.001418   0.196947  -0.257950  -0.320902   0.122380
   22  H  3  S    0.000402   0.008667  -0.031840  -0.103512   0.037702
   23  H  3  X   -0.000622   0.027650  -0.018788  -0.035835   0.013614
   24  H  3  Y   -0.000412   0.017668  -0.029411   0.000363   0.007476
   25  H  3  Z    0.000324  -0.004281   0.007087   0.007405   0.020966
   26  H  4  S   -0.001643   0.199843   0.423367   0.008938   0.119153
   27  H  4  S    0.000569   0.006796   0.072196  -0.020458   0.034208
   28  H  4  X    0.000841  -0.033909  -0.040487  -0.015609  -0.012374
   29  H  4  Y    0.000291  -0.011520  -0.021425   0.018533  -0.006879
   30  H  4  Z    0.000291  -0.002828  -0.007999   0.000134   0.020898

                      6          7          8          9         10
                    0.0000     0.0000     0.0000     0.1513     0.2071
                     A          A          A          A          A   
    1  N  1  S    0.202017   0.047780  -0.017685  -0.130454   0.013524
    2  N  1  S    0.723381   0.129561  -0.058019  -0.198481   0.010685
    3  N  1  S    0.187952  -0.071218   0.093582   1.295914  -0.203700
    4  N  1  X   -0.064940   0.942755  -0.013189   0.034944   0.151386
    5  N  1  Y    0.048578   0.114278   0.843955  -0.038391   0.085032
    6  N  1  Z    0.653135  -0.033448   0.125513  -0.200517   0.021016
    7  N  1  X   -0.057001   0.104161  -0.001672  -0.169152  -0.790505
    8  N  1  Y    0.060430   0.024413   0.018352   0.143862  -0.298161
    9  N  1  Z   -0.080252  -0.028355  -0.012299   0.437605  -0.008652
   10  N  1 XX   -0.032645   0.021773   0.037547   0.066947  -0.030959
   11  N  1 YY    0.028463  -0.030007  -0.034800  -0.025924   0.011947
   12  N  1 ZZ    0.004183   0.008234  -0.002747  -0.041023   0.019012
   13  N  1 XY   -0.032856  -0.045556   0.038145   0.032354  -0.036533
   14  N  1 XZ    0.031394  -0.045535  -0.005676  -0.051628  -0.090195
   15  N  1 YZ   -0.034923  -0.019691  -0.026415   0.050105  -0.027069
   16  H  2  S   -0.449487   0.279160  -0.615676   0.255928   0.166259
   17  H  2  S   -0.056205   0.063253  -0.186981  -0.812326  -0.537201
   18  H  2  X   -0.018727  -0.031331  -0.034250  -0.095081  -0.013345
   19  H  2  Y    0.049334  -0.034368   0.017554   0.031979   0.005529
   20  H  2  Z   -0.010256  -0.002241   0.017306   0.072350   0.027516
   21  H  3  S   -0.437403   0.320023   0.504741   0.405393   0.279356
   22  H  3  S   -0.071768   0.080278   0.158909  -0.920655  -0.970366
   23  H  3  X   -0.038898   0.013054   0.048428  -0.071775  -0.053700
   24  H  3  Y   -0.033394   0.035886   0.007568  -0.002443  -0.015546
   25  H  3  Z   -0.022342   0.023379  -0.006106   0.035668   0.066859
   26  H  4  S   -0.461389  -0.630789   0.017388   0.315225  -0.531218
   27  H  4  S   -0.067428  -0.148613   0.010541  -0.690806   1.862450
   28  H  4  X    0.050957   0.057257   0.010524   0.080635  -0.097359
   29  H  4  Y    0.020557   0.019543  -0.014444   0.013580  -0.051304
   30  H  4  Z   -0.014599  -0.020047  -0.017658  -0.008308  -0.069818

                     11         12         13         14         15
                    0.2375     0.5333     0.6111     0.7027     0.7881
                     A          A          A          A          A   
    1  N  1  S    0.029397   0.087582   0.031691   0.056683  -0.266520
    2  N  1  S    0.065492   0.132229   0.197287   0.135562  -0.625445
    3  N  1  S   -0.161285  -0.442524   0.405585  -0.143396   0.924269
    4  N  1  X    0.045518   0.299108   0.131882  -0.394124  -0.049681
    5  N  1  Y    0.022519  -0.562132  -0.235796  -0.281323  -0.042432
    6  N  1  Z    0.039895   0.441804  -0.539145  -0.035777   0.243264
    7  N  1  X   -0.065851  -0.610916  -0.640712   1.650622   0.278764
    8  N  1  Y   -0.449799   0.943549   0.801300   0.941087   0.035785
    9  N  1  Z   -0.160830  -0.484357   1.063808  -0.033689  -0.288335
   10  N  1 XX    0.033402   0.014787  -0.074495  -0.027764  -0.120643
   11  N  1 YY   -0.019097   0.004552   0.041288   0.004822   0.138728
   12  N  1 ZZ   -0.014305  -0.019339   0.033207   0.022942  -0.018085
   13  N  1 XY    0.081995  -0.015992   0.009746   0.028416   0.110183
   14  N  1 XZ    0.018161  -0.009690   0.024751  -0.093073  -0.007515
   15  N  1 YZ   -0.072227   0.015594  -0.015400  -0.064750   0.055839
   16  H  2  S   -0.622670  -0.104529  -0.753246  -0.013458   0.198767
   17  H  2  S    2.136341  -0.644466  -0.630832  -0.009756  -0.081475
   18  H  2  X    0.043179  -0.086399   0.059272  -0.051573   0.335124
   19  H  2  Y   -0.074236   0.037066   0.160526  -0.161732   0.266392
   20  H  2  Z   -0.056279   0.032067   0.085653   0.040649   0.081887
   21  H  3  S    0.512180   0.249501  -0.253919   0.616729   0.280093
   22  H  3  S   -1.674870   0.415487   0.326187   0.617794  -0.207878
   23  H  3  X   -0.031086  -0.009645   0.010694   0.220831   0.104022
   24  H  3  Y   -0.043216   0.053076  -0.153134   0.113449  -0.382290
   25  H  3  Z    0.003666  -0.071150  -0.002158   0.184729  -0.066767
   26  H  4  S    0.182375   0.347289  -0.308109  -0.676154  -0.176875
   27  H  4  S   -0.453387   0.370697   0.393247  -0.508908  -0.338039
   28  H  4  X   -0.021820  -0.031266  -0.085379   0.171034  -0.103489
   29  H  4  Y    0.014403  -0.011858   0.075982   0.118339   0.283775
   30  H  4  Z   -0.006903  -0.051287   0.084641  -0.168205   0.091710

                     16         17         18         19         20
                    1.0065     1.0454     1.1718     1.3484     1.3906
                     A          A          A          A          A   
    1  N  1  S   -0.530043  -0.331789   0.033972  -0.245073  -0.316653
    2  N  1  S   -1.122491  -0.700058   0.073819  -0.526804  -0.669541
    3  N  1  S    2.178025   1.501826  -0.161672   0.826648   1.200957
    4  N  1  X    0.090928  -0.075924  -0.258031   0.042900  -0.039104
    5  N  1  Y   -0.043478  -0.081222  -0.160871  -0.021512   0.050928
    6  N  1  Z    0.132926   0.053966  -0.026146  -0.045396  -0.036983
    7  N  1  X   -0.411241   0.274130   1.062019   0.331044  -0.158683
    8  N  1  Y    0.346902   0.504910   0.389574  -0.273018   0.358373
    9  N  1  Z    0.036119   0.480423  -0.141804   0.343711   0.639309
   10  N  1 XX   -0.060366   0.069844   0.080447   0.009746   0.089247
   11  N  1 YY   -0.161268   0.078526  -0.120448   0.168707  -0.073402
   12  N  1 ZZ    0.221633  -0.148370   0.040001  -0.178453  -0.015845
   13  N  1 XY   -0.014481  -0.159874  -0.035679  -0.004679   0.043413
   14  N  1 XZ    0.039710   0.064019   0.075516  -0.013004   0.014270
   15  N  1 YZ   -0.064140  -0.185312   0.133724   0.039768  -0.086117
   16  H  2  S   -0.510652  -0.319292   0.098177  -0.180774  -0.382038
   17  H  2  S   -0.339979  -0.251224   0.067318   0.007011  -0.326588
   18  H  2  X   -0.065743  -0.287510   0.247289  -0.204183  -0.043011
   19  H  2  Y   -0.207880   0.354348  -0.038109  -0.059123   0.027699
   20  H  2  Z    0.317094  -0.449271   0.044639  -0.374991   0.411162
   21  H  3  S   -0.390878   0.031439   0.592238  -0.145916  -0.349848
   22  H  3  S   -0.221552  -0.050815   0.176803  -0.061372   0.100667
   23  H  3  X   -0.061150  -0.056984  -0.433505  -0.278397   0.018271
   24  H  3  Y    0.116987  -0.155880   0.229301   0.445667   0.074489
   25  H  3  Z    0.354716  -0.009176  -0.381598  -0.142503  -0.639266
   26  H  4  S   -0.190490  -0.410536  -0.505922  -0.267103  -0.352272
   27  H  4  S   -0.250615  -0.318773  -0.231020  -0.154817  -0.021868
   28  H  4  X    0.057840   0.266703  -0.100227  -0.252712   0.037435
   29  H  4  Y   -0.040111  -0.323077  -0.253842   0.689935  -0.150236
   30  H  4  Z    0.273085   0.030807   0.444785  -0.030784  -0.613064

                     21         22         23         24         25
                    1.6375     1.7630     1.8517     1.9695     2.0977
                     A          A          A          A          A   
    1  N  1  S    0.070564   0.136280  -0.106937   0.148126   0.023861
    2  N  1  S    0.091998   0.380415  -0.258624   0.322913   0.038708
    3  N  1  S   -0.692069   0.599084   0.015791  -0.126252  -0.160788
    4  N  1  X   -0.024956   0.003728   0.553585   0.160128  -0.035860
    5  N  1  Y    0.093028   0.181540  -0.025312   0.305325   0.007431
    6  N  1  Z   -0.019394   0.180636  -0.171227   0.122960  -0.001115
    7  N  1  X    0.719461   0.456616   0.215523   0.095425  -0.052585
    8  N  1  Y    0.379668   0.120575   0.245186  -0.138261   0.167726
    9  N  1  Z   -0.297383   0.177822   0.029857  -0.105193  -0.311684
   10  N  1 XX    0.000857  -0.167639  -0.014773  -0.145806  -0.076858
   11  N  1 YY   -0.028972   0.019660   0.076429   0.128437   0.892147
   12  N  1 ZZ    0.028115   0.147979  -0.061656   0.017368  -0.815289
   13  N  1 XY    0.120022  -0.055498  -0.045705   0.194298  -0.137114
   14  N  1 XZ   -0.052647   0.006772  -0.250015  -0.010638   0.184238
   15  N  1 YZ   -0.055981  -0.217243   0.045843  -0.191517  -0.141286
   16  H  2  S    0.298456   0.021165  -0.112780   0.033149   0.042596
   17  H  2  S   -0.222470   0.031566   0.351014  -0.321999  -0.034665
   18  H  2  X   -0.558688  -0.534965   0.444917   0.153473   0.028143
   19  H  2  Y   -0.063496  -0.101942  -0.469015   0.815756  -0.420305
   20  H  2  Z    0.027943   0.301689  -0.335468   0.247118   0.545096
   21  H  3  S    0.280349   0.086159   0.024788   0.134261   0.077194
   22  H  3  S    0.527123  -0.181917   0.195511   0.348754   0.007110
   23  H  3  X    0.688996  -0.428097   0.443440   0.150728  -0.009919
   24  H  3  Y    0.014371  -0.381731   0.090743   0.856602   0.059368
   25  H  3  Z   -0.362796  -0.353123  -0.445360   0.052036   0.138843
   26  H  4  S   -0.230532  -0.198600  -0.081987   0.001024   0.072628
   27  H  4  S    0.076745  -0.409615  -0.416201  -0.084264   0.067673
   28  H  4  X   -0.431139   0.603817   0.627768   0.389299  -0.067177
   29  H  4  Y   -0.095900   0.445181   0.024134   0.052080  -0.248584
   30  H  4  Z    0.534792   0.228576   0.303766   0.223903   0.168004

                     26         27         28         29
                    2.2485     2.5211     2.6214     3.0962
                     A          A          A          A   
    1  N  1  S    0.085088   0.022474  -0.182012  -0.096540
    2  N  1  S    0.162728  -0.001015  -0.203006  -0.100216
    3  N  1  S   -0.343438  -0.740339   2.295710   1.023217
    4  N  1  X    0.040368  -0.280112  -0.233197   0.264749
    5  N  1  Y    0.064278  -0.231968   0.213749  -0.199706
    6  N  1  Z    0.020498  -0.098985   0.305152   0.016410
    7  N  1  X    0.040430  -0.991505  -0.821714   0.407176
    8  N  1  Y   -0.175453  -0.792889   0.518659  -0.256426
    9  N  1  Z   -0.274409  -0.232647   0.727384   0.027631
   10  N  1 XX    0.771704  -0.212768   0.454494   0.958834
   11  N  1 YY   -0.481543   0.096920  -0.020530  -0.377993
   12  N  1 ZZ   -0.290160   0.115848  -0.433964  -0.580842
   13  N  1 XY   -0.672495   0.106012  -0.024561   1.228326
   14  N  1 XZ    0.045011  -0.834018  -0.912175   0.281295
   15  N  1 YZ   -0.367127  -0.821618   0.667786  -0.371588
   16  H  2  S    0.138415   0.360363  -1.380476   0.718171
   17  H  2  S    0.014256   0.190987  -0.548002   0.188198
   18  H  2  X    0.393343   0.382382  -0.531085   0.342895
   19  H  2  Y    0.180317  -0.081806   0.676759  -0.491104
   20  H  2  Z    0.301327  -0.159674   0.602375  -0.417362
   21  H  3  S    0.124865  -0.589022  -0.741758  -0.729833
   22  H  3  S    0.093948  -0.358399  -0.141447  -0.203884
   23  H  3  X    0.272497  -0.586601  -0.361080  -0.632829
   24  H  3  Y   -0.030136  -0.170299  -0.292821  -0.422558
   25  H  3  Z    0.031944   0.007161   0.213035   0.372632
   26  H  4  S    0.071275   0.993865  -0.324030  -1.005620
   27  H  4  S   -0.017637   0.418779   0.010531  -0.290892
   28  H  4  X   -0.132446  -0.771744   0.230097   0.797346
   29  H  4  Y    0.522242  -0.300831  -0.062318   0.306390
   30  H  4  Z    0.189157   0.043620   0.199129   0.393702
 .....DONE WITH MCSCF ITERATIONS.....
 CPU     0: STEP CPU TIME=    11.59 TOTAL CPU TIME=         12.8 (      0.2 MIN)
 TOTAL WALL CLOCK TIME=         12.8 SECONDS, CPU UTILIZATION IS    99.84%

     ----------------------------------------------------------------
     PROPERTY VALUES FOR THE MCSCF SELF-CONSISTENT FIELD WAVEFUNCTION
     ----------------------------------------------------------------

          -----------------
          ENERGY COMPONENTS
          -----------------

         WAVEFUNCTION NORMALIZATION =       1.0000000000

                ONE ELECTRON ENERGY =     -93.6946844177
                TWO ELECTRON ENERGY =      26.9325801007
           NUCLEAR REPULSION ENERGY =      11.0452387202
                                      ------------------
                       TOTAL ENERGY =     -55.7168655968

 ELECTRON-ELECTRON POTENTIAL ENERGY =      26.9325801007
  NUCLEUS-ELECTRON POTENTIAL ENERGY =    -149.3653613848
   NUCLEUS-NUCLEUS POTENTIAL ENERGY =      11.0452387202
                                      ------------------
             TOTAL POTENTIAL ENERGY =    -111.3875425639
               TOTAL KINETIC ENERGY =      55.6706769671
                 VIRIAL RATIO (V/T) =       2.0008296761

          ---------------------------------------
          MULLIKEN AND LOWDIN POPULATION ANALYSES
          ---------------------------------------

     ATOMIC MULLIKEN POPULATION IN EACH MOLECULAR ORBITAL

                      1          2          3          4          5

                  2.000000   1.981283   1.654387   1.647031   1.639556

    1             2.000619   1.361070   1.529518   0.899792   1.147999
    2            -0.000290   0.292024   0.043786   0.113751   0.292094
    3            -0.000133   0.162859   0.014288   0.243852   0.190877
    4            -0.000196   0.165330   0.066795   0.389636   0.008587

                      6          7          8

                  0.034350   0.023309   0.020083

    1             0.014423   0.012563   0.010997
    2             0.003511   0.008627   0.000291
    3             0.011193   0.002045   0.001934
    4             0.005222   0.000075   0.006861
 WARNING! MCSCF POPULATIONS SHOWN ABOVE ARE FOR THE NATURAL ORBITALS.
 IGNORE THE ABOVE DATA FOR MCSCF FUNCTIONS WHICH ARE NOT OF -FORS- TYPE.
 THE FOLLOWING POPULATIONS ARE CORRECT FOR ANY MCSCF WAVEFUNCTION.

               ----- POPULATIONS IN EACH AO -----
                             MULLIKEN      LOWDIN
              1  N  1  S      2.00225     1.90421
              2  N  1  S      0.81966     0.57865
              3  N  1  S      0.70541     0.41742
              4  N  1  X      0.63996     0.56136
              5  N  1  Y      0.72976     0.67122
              6  N  1  Z      0.86140     0.81062
              7  N  1  X      0.27776     0.39657
              8  N  1  Y      0.39535     0.46496
              9  N  1  Z      0.52821     0.56773
             10  N  1 XX      0.00066     0.18330
             11  N  1 YY      0.00158     0.15483
             12  N  1 ZZ      0.00471     0.14481
             13  N  1 XY      0.00531     0.01157
             14  N  1 XZ      0.00497     0.01088
             15  N  1 YZ      0.00000     0.00903
             16  H  2  S      0.63564     0.49063
             17  H  2  S      0.05736     0.14957
             18  H  2  X      0.01756     0.03191
             19  H  2  Y      0.02296     0.04658
             20  H  2  Z      0.02028     0.04379
             21  H  3  S      0.52364     0.40751
             22  H  3  S      0.05132     0.15295
             23  H  3  X      0.02518     0.04220
             24  H  3  Y      0.01577     0.03306
             25  H  3  Z      0.01101     0.02619
             26  H  4  S      0.54963     0.43109
             27  H  4  S      0.03792     0.15067
             28  H  4  X      0.03238     0.05312
             29  H  4  Y      0.01180     0.02612
             30  H  4  Z      0.01059     0.02747

          ----- MULLIKEN ATOMIC OVERLAP POPULATIONS -----
          (OFF-DIAGONAL ELEMENTS NEED TO BE MULTIPLIED BY 2)

             1           2           3           4

    1    6.1496096
    2    0.2754962   0.4935822
    3    0.2610032  -0.0097025   0.3811156
    4    0.2908711  -0.0055806  -0.0055023   0.3625225

          TOTAL MULLIKEN AND LOWDIN ATOMIC POPULATIONS
       ATOM         MULL.POP.    CHARGE          LOW.POP.     CHARGE
    1 N             6.976980    0.023020         6.887151    0.112849
    2 H             0.753795    0.246205         0.762479    0.237521
    3 H             0.626914    0.373086         0.661902    0.338098
    4 H             0.642311    0.357689         0.688468    0.311532

          MULLIKEN SPHERICAL HARMONIC POPULATIONS
       ATOM           S       P       D      F      G      H      I    TOTAL
    1 N             3.53    3.43    0.02   0.00   0.00   0.00   0.00    6.98
    2 H             0.69    0.06    0.00   0.00   0.00   0.00   0.00    0.75
    3 H             0.57    0.05    0.00   0.00   0.00   0.00   0.00    0.63
    4 H             0.59    0.05    0.00   0.00   0.00   0.00   0.00    0.64

          ---------------------
          ELECTROSTATIC MOMENTS
          ---------------------

 POINT   1           X           Y           Z (BOHR)    CHARGE
                -0.000003    0.000003   -0.177185        1.00 (A.U.)
         DX          DY          DZ         /D/  (DEBYE)
    -0.622648    0.607423    2.125499    2.296606
 ...... END OF PROPERTY EVALUATION ......
 CPU     0: STEP CPU TIME=     0.00 TOTAL CPU TIME=         12.8 (      0.2 MIN)
 TOTAL WALL CLOCK TIME=         12.8 SECONDS, CPU UTILIZATION IS    99.84%

     -------------------------------------------------
     GMC-PT/GMC-QDPT or general MCSCF input parameters
     -------------------------------------------------
 # of frozen core orbs. =         0 ->         0
 # of doubly occ. orbs. =         1
 # of active      orbs. =         7
 # of virtual     orbs. =        21
 # of active electrons  =         7
 # of states in CI      =         3
 Highest state in CI    =         3
 kstate =  1 1 1
 avecoe =  0.333 0.333 0.333
 State symmetry           = A           
 Assigned symmetry number = 1

 <<<Act. MO sym.: 1111111

 <<<Division of 1-ext.:  0
 <<<Division of 2-ext.:  0

     ------------------------
     Orbital canonicalization
     ------------------------

 MOs are canonicalized for core, virtual, and invariant-active orbital spaces.
 This is a part of the GMC-QDPT calculation.
 SCHWARZ INEQUALITY OVERHEAD:       465 INTEGRALS, T=        0.00
 DIRECT TRANSFORMATION SKIPS AO INTEGRAL STORAGE ON DISK.

 Averaged energy =     -55.716865597

 State #    1  Energy =     -55.855647357  S =  0.500
 State #    2  Energy =     -55.718981515  S =  0.500
 State #    3  Energy =     -55.575967919  S =  0.500

 Orbital energies for filled orbital space
  -15.978507
 Orbital energies for active orbital space
   -1.493179  -0.964077  -0.825333  -0.720142   0.317367
    0.379170   0.130779
 Orbital energies for external orbital space
    0.151330   0.207149   0.237510   0.533295   0.611086
    0.702694   0.788096   1.006459   1.045414   1.171801
    1.348426   1.390569   1.637550   1.762983   1.851685
    1.969548   2.097722   2.248537   2.521139   2.621430
    3.096250

 Zero values mean non-canonical orbitals.
 ... done with orbital canonicalization ...
 CPU     0: STEP CPU TIME=     0.71 TOTAL CPU TIME=         13.5 (      0.2 MIN)
 TOTAL WALL CLOCK TIME=         13.5 SECONDS, CPU UTILIZATION IS    99.93%

     --------------------------------------------
     PARTIAL TWO ELECTRON INTEGRAL TRANSFORMATION
     --------------------------------------------

 NUMBER OF CORE MOLECULAR ORBITALS     =    0
 NUMBER OF OCCUPIED MOLECULAR ORBITALS =    8
 TOTAL NUMBER OF MOLECULAR ORBITALS    =   29
 TOTAL NUMBER OF ATOMIC ORBITALS       =   30
 THRESHOLD FOR KEEPING TRANSFORMED 2E- INTEGRALS = 1.000E-09
 AO INTEGRALS WILL BE CALCULATED IN DIRECT MODE...
 DIRECT TRANSFORMATION SKIPS AO INTEGRAL STORAGE ON DISK.
 SCHWARZ INEQUALITY OVERHEAD:       465 INTEGRALS, T=        0.00

 PLAN A: REQUIREMENTS FOR FULLY IN-MEMORY TRANSFORMATION:
 # OF WORDS AVAILABLE =            100000000
 # OF WORDS NEEDED    =               221798

 PARALLEL ONLY WORKS WITH THE SEGMENTED ALGORITHM.
 ADJUSTING MEMORY TO USE SEGMENTED ALGORITHM.


 PLAN B: REQUIREMENTS FOR THE SEGMENTED TRANSFORMATION:
       MINIMUM=         124148 WORDS FOR 1 MOLECULAR ORBITAL PER PASS
       MAXIMUM=         221798 WORDS FOR ALL MOLECULAR ORBITALS IN 1 PASS
              (          13950 EXTRA WORDS INCLUDES 1 EXTRA ORBITAL/PASS)
 THIS RUN USES=         221798 WORDS,
 DISTRIBUTING   1 PASSES EACH CONTAINING     8 ORBITALS OVER   1 PROCESSORS.

 CHOOSING SEGMENTED PARTIAL TRANSFORMATION...
 DIRECT TRANSFORMATION SKIPS AO INTEGRAL STORAGE ON DISK.
 PASS #   1 TOOK        0.04 SECONDS.
 TOTAL NUMBER OF TRANSFORMED 2E- INTEGRALS KEPT =        29226
 ... END OF INTEGRAL TRANSFORMATION ...
 CPU     0: STEP CPU TIME=     0.04 TOTAL CPU TIME=         13.6 (      0.2 MIN)
 TOTAL WALL CLOCK TIME=         13.6 SECONDS, CPU UTILIZATION IS    99.93%

     --------     ------------------------------------------
     GMC-QDPT     Program written by H.Nakano (Kyushu Univ.)
     --------     ------------------------------------------

 *** Reference space

 Reference type: ORMAS (= Occupation restricted multiple active space)
 # of orbitals          =  7
 # of minimum electrons =  7
 # of maximum electrons =  7
 State symmetry    =    1 (input)
 2*Sz              =    1 (input)
 Spin multiplicity =    2 (input)
 Dimension of reference space =      1225  (from      3432 walks)

 Dimension of reference space =      1225  (from      1225 walks)

 <<<Ionized spaces for Ref-CI:
      0:         1225 /   -1-0:         1960 /  0-1-0:         2891

 ***                    ***
 *** Reference space CI ***
 ***                    ***

 Converged after   37 iterations

 Reference wavefunctions:

 State #    1  Energy =     -55.855647357  S =  0.500

      Det      Coef    Occupancy (Ignoring core)
      ---      ----    --------- --------- -----
        1    0.972010  11110001110000
       36   -0.086450  11110001101000
      143    0.052087  11011001100100
      393    0.052682  10110101010010
      717    0.055570  11010011100001

 State #    2  Energy =     -55.718981515  S =  0.500

      Det      Coef    Occupancy (Ignoring core)
      ---      ----    --------- --------- -----
        1   -0.090947  11110001110000
       36   -0.975440  11110001101000
      463   -0.054284  10110101001010

 State #    3  Energy =     -55.575967919  S =  0.500

      Det      Coef    Occupancy (Ignoring core)
      ---      ----    --------- --------- -----
       71    0.975888  11110001011000
      248   -0.053768  11011001001100
      822   -0.056924  11010011001001

 Davidson method: CPU/Wall time =           0.49 /           0.48 sec.

 Oscillator strength (invalid if E(1)/=E(GS)):
 -----------------------------------------
   State                        f
 -----------------------------------------
     2     F(REF-CI)=        0.0028601274
     3     F(REF-CI)=        0.0040585500
 -----------------------------------------

 Dipole moment matrix elements, x, y, z, in A.U.

 Dimension of ionized spaces for PT:
 (N-2) space:         1715 /  (N-1) space:         2842 /  N space:         2891
 (N+1) space:         2842 /  (N+2) space:         1715

 <<<Ionized spaces for internal:
         0:         1225 /      -1-0:         1960 /     0-1-0:         2891
  -1-0-1-0:         2842 / 0-1-0-1-0:         3381

 Diagonal elements of averaged one-particle density matrix:
       2       3       4       5       6       7       8
  0.9930  0.9862  0.9846  0.9908  0.0133  0.0119  0.0201
  0.9881  0.6605  0.6570  0.6615  0.0103  0.0085  0.0141

 Orbital energies:
 -------- Doubly-occupied orbitals (highest several orbs.) -------
             1
 -1.597851D+01
 -------- Active orbitals ----------------------------------------
             2            3            4            5            6
 -1.493179D+00-9.640771D-01-8.253335D-01-7.201416D-01 3.173670D-01
             7            8
  3.791703D-01 1.307790D-01
 -------- External orbitals (lowest several orbs.) ---------------
             9           10           11           12           13
  1.513297D-01 2.071494D-01 2.375104D-01 5.332955D-01 6.110857D-01
            14           15           16           17           18
  7.026939D-01 7.880963D-01 1.006459D+00 1.045414D+00 1.171801D+00

 *** Quasi-degeneracy checking

 === Det (|Ci| > 1.0D-01 and dE < 5.0D-03)

 # of small denominators (single excitations)
 State       dEmin  dE < 5.0D-03  dE < 5.0D-04  dE < 5.0D-05  dE < 5.0D-06
 ----- ----------- ------------- ------------- ------------- -------------
     1    5.00D-03             0             0             0             0
     2    5.00D-03             0             0             0             0
     3    5.00D-03             0             0             0             0

 # of small denominators (double excitations)
 State       dEmin  dE < 5.0D-03  dE < 5.0D-04  dE < 5.0D-05  dE < 5.0D-06
 ----- ----------- ------------- ------------- ------------- -------------
     1    5.00D-03             0             0             0             0
     2    5.00D-03             0             0             0             0
     3    5.00D-03             0             0             0             0

 *** Zeroth-Order Setup (Granovsky's zeroth-order vectors)
 Zeroth-order effective Hamiltonian
  (= Sum_i e(i)*<I|a+(i)a(i)|J> ):
                   1            2            3
     1 -7.177015D+00
     2  1.656999D-02-7.090747D+00
     3 -9.518760D-04-5.331416D-03-6.944967D+00

 Zeroth-order vectors:
 State #    1
       MC st            1           2           3
       Coeff    9.832D-01  -1.824D-01  -1.547D-04
 State #    2
       MC st            2           1           3
       Coeff   -9.825D-01  -1.822D-01  -3.787D-02
 State #    3
       MC st            3           2           1
       Coeff    9.993D-01  -3.726D-02  -6.754D-03

 *** GMC-QDPT computation

 (Integral reading:  CPU/Wall time =           0.00 /           0.00 sec.)

 One-external:
   0 -ionized terms: CPU/Wall time =           0.03 /           0.03 sec.
 (-1)-ionized terms: CPU/Wall time =           0.09 /           0.09 sec.
 (+1)-ionized terms: CPU/Wall time =           0.02 /           0.02 sec.
 (+1)-ionized terms: CPU/Wall time =           0.01 /           0.01 sec.
 (+2)-ionized terms: CPU/Wall time =           0.00 /           0.00 sec.

 Internal:
 # of macro loops for internal contribution =         1 (input)
 Loop:    1
 Dimension of internal CISD space     =         0  (after screening)
 Space construction: CPU/Wall time =           0.02 /           0.02 sec.
 Internal terms:     CPU/Wall time =           0.00 /           0.00 sec.

 Two-external:
   0 -ionized terms: CPU/Wall time =           0.06 /           0.06 sec.
 (-1)-ionized terms: CPU/Wall time =           1.00 /           1.00 sec.
 (-2)-ionized terms: CPU/Wall time =           0.17 /           0.17 sec.

 Total time:         CPU/Wall time =           1.40 /           1.40 sec.

 ***                  ***
 *** GMC-QDPT Results ***
 ***                  ***

 Diagonal elements of effective Hamiltonian:
 Heff(  1) =   -55.95046399
 Heff(  2) =   -55.83056838
 Heff(  3) =   -55.68710442

 Off-diagonal elements of effective Hamiltonian:
                   1            2
     2  2.177059D-02
     3  4.062773D-04-5.267832D-03

 ******** GMC-QDPT energies ********
 ----------------------------------------------------------------------------
   State                        1st order                           2nd order
 ----------------------------------------------------------------------------
     1     E(REF-CI)=      -55.8556473572   E(GMC-QDPT2)=      -55.9543011471
     2     E(REF-CI)=      -55.7189815145   E(GMC-QDPT2)=      -55.8269249781
     3     E(REF-CI)=      -55.5759679188   E(GMC-QDPT2)=      -55.6869106623
 ----------------------------------------------------------------------------

 Excitation energies (invalid if E(1)/=E(GS)):
 ----------------------------------------------------------------------------
   State                        1st order                           2nd order
 ----------------------------------------------------------------------------

     TZ Sorted GMC-PT ENERGIES:
         1      -55.9543011471
         2      -55.8269249781
         3      -55.6869106623
     2     E(REF-CI)=        3.7188689 eV   E(GMC-QDPT2)=        3.4660839 eV
     3     E(REF-CI)=        7.6104691 eV   E(GMC-QDPT2)=        7.2760694 eV
 ----------------------------------------------------------------------------

 Main characters of perturbed GMC-QDPT states:

 State #    1  Energy =     -55.954301147  S =  0.500

      Det      Coef    Occupancy (Ignoring core)
      ---      ----    --------- --------- -----
        1    0.972782  11110001110000
       36   -0.077744  11110001101000
      143    0.052206  11011001100100
      393    0.052692  10110101010010
      717    0.055369  11010011100001

 State #    2  Energy =     -55.826924978  S =  0.500

      Det      Coef    Occupancy (Ignoring core)
      ---      ----    --------- --------- -----
        1   -0.082236  11110001110000
       36   -0.976194  11110001101000
      463   -0.054315  10110101001010

 State #    3  Energy =     -55.686910662  S =  0.500

      Det      Coef    Occupancy (Ignoring core)
      ---      ----    --------- --------- -----
       71    0.975904  11110001011000
      248   -0.053749  11011001001100
      822   -0.056932  11010011001001

 <<<Max |V/de| = 2.479D-02  Thresh = 1.000D+00

 Oscillator strength (invalid if E(1)/=E(GS)):
 ----------------------------------------------------------------------------
   State                        1st order                           2nd order
 ----------------------------------------------------------------------------
     2     F(REF-CI)=        0.0028601274     F(GMC-PT2)=        0.0027586469
     3     F(REF-CI)=        0.0040585500     F(GMC-PT2)=        0.0039927573
 ----------------------------------------------------------------------------

 Dipole moment matrix elements, x, y, z, in A.U.
States    1    1       -0.2410035228        0.2244653152        0.6681094754
States    1    2       -0.0196736216       -0.0131172103        0.1786815845
States    1    3       -0.1321797625       -0.0485221206       -0.0507205833
States    2    1       -0.0196736216       -0.0131172103        0.1786815845
States    2    2       -0.1234247785        0.3279505642        0.3401523477
States    2    3        0.1523775788        0.1433898675        0.0020659495
States    3    1       -0.1321797625       -0.0485221206       -0.0507205833
States    3    2        0.1523775788        0.1433898675        0.0020659495
States    3    3       -0.4712800238        0.3012118078        0.2952002656

 Oscillator strength (valid only when positive): 
 ----------------------------------------------------------------------------
  States                        1st order                           2nd order
 ----------------------------------------------------------------------------
  1  1     F(REF-CI)=        0.0000000000     F(GMC-PT2)=        0.0000000000
  1  2     F(REF-CI)=       -0.0028601274     F(GMC-PT2)=       -0.0027586469
  1  3     F(REF-CI)=       -0.0040585500     F(GMC-PT2)=       -0.0039927573
  2  1     F(REF-CI)=        0.0028601274     F(GMC-PT2)=        0.0027586469
  2  2     F(REF-CI)=        0.0000000000     F(GMC-PT2)=        0.0000000000
  2  3     F(REF-CI)=       -0.0042275993     F(GMC-PT2)=       -0.0040869104
  3  1     F(REF-CI)=        0.0040585500     F(GMC-PT2)=        0.0039927573
  3  2     F(REF-CI)=        0.0042275993     F(GMC-PT2)=        0.0040869104
  3  3     F(REF-CI)=        0.0000000000     F(GMC-PT2)=        0.0000000000
 CPU     0: STEP CPU TIME=     1.94 TOTAL CPU TIME=         15.5 (      0.3 MIN)
 TOTAL WALL CLOCK TIME=         15.5 SECONDS, CPU UTILIZATION IS    99.94%

     !!! DIABATIZATION FOR REF CI STATES !!!

 *******************************************************
          $DMO GROUP FOUND IN THE INPUT.
        DIABATIZATION OF ADIABATIC STATES BEGINS.
     PROGRAMMED BY TAO ZENG (CARLETON UNIVERSITY).
               Email: toby.zeng@carleton.ca
     See T. Zeng, J. Chem. Phys. 2017, 146, 144103
 *******************************************************

 *************************************************************************
     STEP 1: TRANSFORMATION OF ADIABATIC STATES TO THE DMO REPRESENTATION
         See Atchity and Ruedenberg, J. Chem. Phys. 1999, 111, 2910
 *************************************************************************

Read in Diabatic Molecualr Orbitals:

                      1          2          3          4          5

    1  N  1  S    0.008609   0.000000   0.000000  -0.013219   0.279491
    2  N  1  S    0.442914  -0.000000   0.000000  -0.184329   0.867803
    3  N  1  S    0.276913   0.000000  -0.000000  -0.288315   0.144236
    4  N  1  X   -0.000000   0.493155  -0.024636  -0.000000  -0.000000
    5  N  1  Y    0.000000   0.024636   0.493155  -0.000000   0.000000
    6  N  1  Z    0.090197   0.000000   0.000000   0.593421   0.705309
    7  N  1  X   -0.000000   0.210628  -0.010522   0.000000   0.000000
    8  N  1  Y    0.000000   0.010522   0.210628  -0.000000  -0.000000
    9  N  1  Z   -0.004381   0.000000   0.000000   0.381592  -0.106092
   10  N  1 XX   -0.000457   0.010719  -0.000535  -0.012387   0.006153
   11  N  1 YY   -0.000457  -0.010719   0.000535  -0.012387   0.006153
   12  N  1 ZZ    0.000914  -0.000000   0.000000   0.024773  -0.012306
   13  N  1 XY    0.000000  -0.000618  -0.012377  -0.000000   0.000000
   14  N  1 XZ   -0.000000   0.026529  -0.001325  -0.000000   0.000000
   15  N  1 YZ    0.000000   0.001325   0.026529  -0.000000   0.000000
   16  H  2  S    0.194462  -0.176074   0.343485   0.112865  -0.523343
   17  H  2  S    0.003574  -0.023812   0.046452   0.024014  -0.054445
   18  H  2  X    0.018760   0.009101   0.022834   0.009336  -0.039151
   19  H  2  Y   -0.032493   0.022287  -0.020044  -0.016171   0.067811
   20  H  2  Z   -0.009251   0.008464  -0.016511   0.018769  -0.010566
   21  H  3  S    0.194462  -0.209430  -0.324227   0.112865  -0.523343
   22  H  3  S    0.003574  -0.028322  -0.043847   0.024014  -0.054445
   23  H  3  X    0.018760   0.006781  -0.023627   0.009336  -0.039151
   24  H  3  Y    0.032493  -0.024174  -0.017723   0.016171  -0.067811
   25  H  3  Z   -0.009251   0.010067   0.015585   0.018769  -0.010566
   26  H  4  S    0.194462   0.385503  -0.019258   0.112865  -0.523343
   27  H  4  S    0.003574   0.052134  -0.002604   0.024014  -0.054445
   28  H  4  X   -0.037519  -0.032295   0.001613  -0.018672   0.078302
   29  H  4  Y    0.000000   0.001067   0.021353  -0.000000   0.000000
   30  H  4  Z   -0.009251  -0.018530   0.000926   0.018769  -0.010566

                      6          7

    1  N  1  S    0.000000  -0.000000
    2  N  1  S    0.000000  -0.000000
    3  N  1  S   -0.000000   0.000000
    4  N  1  X   -0.930415  -0.002083
    5  N  1  Y   -0.002083   0.930415
    6  N  1  Z   -0.000000   0.000000
    7  N  1  X   -0.046866  -0.000105
    8  N  1  Y   -0.000105   0.046866
    9  N  1  Z   -0.000000   0.000000
   10  N  1 XX    0.001538   0.000003
   11  N  1 YY   -0.001538  -0.000003
   12  N  1 ZZ   -0.000000   0.000000
   13  N  1 XY   -0.000004   0.001776
   14  N  1 XZ    0.039985   0.000090
   15  N  1 YZ    0.000090  -0.039985
   16  H  2  S   -0.362630  -0.631354
   17  H  2  S   -0.065964  -0.114846
   18  H  2  X    0.002763  -0.037520
   19  H  2  Y    0.037435   0.040736
   20  H  2  Z    0.001882   0.003276
   21  H  3  S   -0.365454   0.629724
   22  H  3  S   -0.066477   0.114549
   23  H  3  X    0.002595   0.037532
   24  H  3  Y   -0.037617   0.040567
   25  H  3  Z    0.001896  -0.003268
   26  H  4  S    0.728084   0.001630
   27  H  4  S    0.132441   0.000297
   28  H  4  X   -0.062317  -0.000140
   29  H  4  Y    0.000055  -0.024345
   30  H  4  Z   -0.003778  -0.000008

NUMBER OF SUB ACTIVE SPACES:   1
ROTATE ACTIVE MOS TO DMOS IN EACH SUB-SPACE

SPACE  1:

OVERLAP BETWEEN ORTHONORMAL AND PRE-ORTHONORMAL REF. DMOS

             1           2           3           4           5

    1    0.9744524  -0.0195452   0.0338955  -0.0084084   0.0065137
    2   -0.0195452   1.0211831   0.0346622  -0.0286815   0.0512303
    3    0.0338955   0.0346622   0.9053256   0.0368698  -0.0465819
    4   -0.0084084  -0.0286815   0.0368698   0.9949239  -0.0118055
    5    0.0065137   0.0512303  -0.0465819  -0.0118055   1.1261803
    6    0.0008375   0.0384450   0.0365779  -0.0367757   0.0076321
    7   -0.0014924  -0.0215535   0.0570400  -0.0303003  -0.0537946

             6           7

    1    0.0008375  -0.0014924
    2    0.0384450  -0.0215535
    3    0.0365779   0.0570400
    4   -0.0367757  -0.0303003
    5    0.0076321  -0.0537946
    6    1.0502276   0.0176107
    7    0.0176107   1.0722381
REFERENCE DMOS AFTER ORTHONORMALIZATION:

                      1          2          3          4          5

    1  N  1  S    0.006384  -0.012820   0.012924  -0.010861   0.249700
    2  N  1  S    0.446197  -0.034871   0.029829  -0.173939   0.770614
    3  N  1  S    0.280400  -0.008834   0.008488  -0.286982   0.124181
    4  N  1  X    0.011612   0.518504  -0.012519  -0.017468  -0.017136
    5  N  1  Y   -0.015776   0.023340   0.495334   0.007379   0.060222
    6  N  1  Z    0.093314  -0.012661   0.001253   0.606436   0.634938
    7  N  1  X    0.005020   0.209675  -0.018811   0.004937  -0.009676
    8  N  1  Y   -0.008108   0.002514   0.232109  -0.007834   0.011036
    9  N  1  Z    0.000516   0.015774  -0.022039   0.384482  -0.091543
   10  N  1 XX   -0.000399   0.009891  -0.000246  -0.012074   0.004880
   11  N  1 YY   -0.000911  -0.011186   0.001970  -0.012854   0.005918
   12  N  1 ZZ    0.001310   0.001295  -0.001725   0.024927  -0.010798
   13  N  1 XY    0.000494  -0.000051  -0.013905   0.000602  -0.000459
   14  N  1 XZ    0.000640   0.024867  -0.004132   0.002245  -0.001527
   15  N  1 YZ   -0.001201  -0.000659   0.031925  -0.002425  -0.000532
   16  H  2  S    0.185254  -0.158044   0.405335   0.058204  -0.468999
   17  H  2  S    0.001529  -0.022408   0.058454   0.015081  -0.049680
   18  H  2  X    0.018845   0.009574   0.024263   0.007439  -0.036046
   19  H  2  Y   -0.032686   0.018177  -0.022027  -0.011942   0.060295
   20  H  2  Z   -0.008355   0.009865  -0.020026   0.019936  -0.010216
   21  H  3  S    0.216467  -0.136034  -0.413125   0.127219  -0.444928
   22  H  3  S    0.005980  -0.018180  -0.055682   0.026259  -0.043959
   23  H  3  X    0.020967   0.010836  -0.031942   0.011843  -0.034903
   24  H  3  Y    0.034490  -0.016720  -0.024850   0.016158  -0.058516
   25  H  3  Z   -0.009644   0.009957   0.016146   0.018313  -0.009107
   26  H  4  S    0.214853   0.387573  -0.102429   0.149443  -0.491736
   27  H  4  S    0.005656   0.050292  -0.013897   0.030144  -0.051865
   28  H  4  X   -0.040213  -0.034712   0.011473  -0.021811   0.072110
   29  H  4  Y   -0.000936  -0.000364   0.025237  -0.001706  -0.000100
   30  H  4  Z   -0.009664  -0.017361   0.000997   0.018054  -0.008305

                      6          7

    1  N  1  S   -0.002371   0.011323
    2  N  1  S   -0.012350   0.032283
    3  N  1  S   -0.011115  -0.001936
    4  N  1  X   -0.905339   0.022678
    5  N  1  Y   -0.034436   0.845624
    6  N  1  Z    0.016153   0.048536
    7  N  1  X   -0.051500   0.005624
    8  N  1  Y   -0.009159   0.031883
    9  N  1  Z    0.014192   0.007529
   10  N  1 XX    0.000651   0.000108
   11  N  1 YY   -0.001610  -0.000374
   12  N  1 ZZ    0.000959   0.000267
   13  N  1 XY    0.000466   0.002382
   14  N  1 XZ    0.037393   0.000177
   15  N  1 YZ   -0.000427  -0.039093
   16  H  2  S   -0.337762  -0.629639
   17  H  2  S   -0.061263  -0.111726
   18  H  2  X    0.002575  -0.037704
   19  H  2  Y    0.034218   0.041608
   20  H  2  Z    0.002835   0.004312
   21  H  3  S   -0.331045   0.593552
   22  H  3  S   -0.061287   0.108980
   23  H  3  X    0.003244   0.035480
   24  H  3  Y   -0.033996   0.036947
   25  H  3  Z    0.001656  -0.003686
   26  H  4  S    0.691559  -0.016746
   27  H  4  S    0.126208  -0.001788
   28  H  4  X   -0.059763   0.002489
   29  H  4  Y   -0.000468  -0.024101
   30  H  4  Z   -0.002292  -0.000292

 -------------------------------------------
       MAXIMIZING MORMO OVERLAP TERM        
 -------------------------------------------
   SWEEP    VALUE       PROGRESS
     0     5.01186
     1     6.92266     1.91080015
     2     6.95318     0.03051008
     3     6.95318     0.00000330
     4     6.95318     0.00000000
     5     6.95318     0.00000000
 THE ROTATION IS DONE
FLIPPING SIGN FOR ORBITAL   7
ACTIVE ORBITALS AFTER MORMO:

                      1          2          3          4          5

    1  N  1  S    0.004657  -0.017672   0.024226  -0.012383   0.201967
    2  N  1  S    0.421798  -0.039807   0.062752  -0.189760   0.714240
    3  N  1  S    0.332678   0.024654  -0.069984  -0.269949   0.188412
    4  N  1  X    0.004012   0.504273   0.000134  -0.029924   0.000928
    5  N  1  Y    0.003736   0.037809   0.443839   0.033381   0.033871
    6  N  1  Z    0.081383  -0.029877   0.026001   0.603331   0.633063
    7  N  1  X    0.011880   0.200674  -0.041399   0.040067  -0.039742
    8  N  1  Y   -0.028876  -0.021212   0.298211  -0.048855   0.044107
    9  N  1  Z    0.026927   0.047512  -0.064395   0.385214  -0.086078
   10  N  1 XX    0.004440   0.007330  -0.013552  -0.010040  -0.030256
   11  N  1 YY   -0.004540  -0.007549   0.013217  -0.012294   0.026402
   12  N  1 ZZ    0.000100   0.000219   0.000335   0.022334   0.003854
   13  N  1 XY    0.004602   0.011114  -0.025726   0.005646  -0.032294
   14  N  1 XZ   -0.002371   0.015524  -0.001941   0.000374   0.031036
   15  N  1 YZ    0.000043   0.001115   0.021321   0.003326  -0.037358
   16  H  2  S    0.183407  -0.163502   0.368829   0.082795  -0.489018
   17  H  2  S   -0.001894  -0.032193   0.117004   0.017036  -0.065564
   18  H  2  X    0.019470   0.009858   0.021845   0.010918  -0.021952
   19  H  2  Y   -0.025416   0.016268  -0.007572  -0.017310   0.051353
   20  H  2  Z   -0.014899   0.015562  -0.027484   0.017022  -0.007455
   21  H  3  S    0.189072  -0.174813  -0.334572   0.109776  -0.423380
   22  H  3  S    0.009585  -0.012144  -0.106719   0.035669  -0.063241
   23  H  3  X    0.027208  -0.013344  -0.037591   0.012799  -0.037994
   24  H  3  Y    0.016136  -0.022376   0.000333   0.005843  -0.034366
   25  H  3  Z   -0.004702   0.012053   0.006113   0.019019  -0.021622
   26  H  4  S    0.189675   0.374874  -0.049606   0.121267  -0.468883
   27  H  4  S    0.006193   0.059312  -0.033160   0.036516  -0.068301
   28  H  4  X   -0.032233  -0.036193  -0.010260  -0.012104   0.053131
   29  H  4  Y   -0.011803  -0.020527   0.020815  -0.006274   0.019205
   30  H  4  Z   -0.003274  -0.009013  -0.002426   0.020775  -0.016397

                      6          7

    1  N  1  S   -0.041276  -0.015777
    2  N  1  S   -0.094386  -0.047141
    3  N  1  S    0.100779   0.098210
    4  N  1  X   -0.889543   0.030970
    5  N  1  Y   -0.036928   0.851780
    6  N  1  Z    0.035278   0.089512
    7  N  1  X   -0.086666  -0.003599
    8  N  1  Y   -0.007587   0.024914
    9  N  1  Z    0.007559  -0.032612
   10  N  1 XX   -0.020093   0.039398
   11  N  1 YY    0.029497  -0.036113
   12  N  1 ZZ   -0.009404  -0.003285
   13  N  1 XY    0.046838   0.034773
   14  N  1 XZ    0.048579  -0.009549
   15  N  1 YZ    0.017659  -0.027189
   16  H  2  S   -0.345072  -0.585814
   17  H  2  S   -0.077290  -0.180669
   18  H  2  X    0.030354  -0.036551
   19  H  2  Y    0.040175   0.014796
   20  H  2  Z    0.002626   0.015658
   21  H  3  S   -0.350029   0.528879
   22  H  3  S   -0.081960   0.162650
   23  H  3  X   -0.015585   0.049337
   24  H  3  Y   -0.039994   0.010841
   25  H  3  Z   -0.024102  -0.005572
   26  H  4  S    0.655557  -0.035364
   27  H  4  S    0.151433  -0.002072
   28  H  4  X   -0.059321   0.015128
   29  H  4  Y   -0.021040  -0.012284
   30  H  4  Z    0.016169  -0.019386

Actually Used Diabatic Molecualr Orbitals:

                      1          2          3          4          5

    1  N  1  S    0.004657  -0.017672   0.024226  -0.012383   0.201967
    2  N  1  S    0.421798  -0.039807   0.062752  -0.189760   0.714240
    3  N  1  S    0.332678   0.024654  -0.069984  -0.269949   0.188412
    4  N  1  X    0.004012   0.504273   0.000134  -0.029924   0.000928
    5  N  1  Y    0.003736   0.037809   0.443839   0.033381   0.033871
    6  N  1  Z    0.081383  -0.029877   0.026001   0.603331   0.633063
    7  N  1  X    0.011880   0.200674  -0.041399   0.040067  -0.039742
    8  N  1  Y   -0.028876  -0.021212   0.298211  -0.048855   0.044107
    9  N  1  Z    0.026927   0.047512  -0.064395   0.385214  -0.086078
   10  N  1 XX    0.004440   0.007330  -0.013552  -0.010040  -0.030256
   11  N  1 YY   -0.004540  -0.007549   0.013217  -0.012294   0.026402
   12  N  1 ZZ    0.000100   0.000219   0.000335   0.022334   0.003854
[...]

     STATE:    3
 Group Ref#    Coefficients
     1    1    0.007163
     2    2   -0.003139
     3    3    0.950203

WEIGHT OF LISTED PROTOTYPES:   90.29%

 --------------------------------------------------
 IN DIRECT MAX. DIABATIZATION FOR GMC-QDPT

 DIRECT MAXIMIZATION (DM) WITHOUT TRUNCATING ADIABATS
 EXPANSIONS INTO THE REFERENCE CONFIGURATION SPACE
 --------------------------------------------------

 -------------------------------------------
 - DM DIABT PT HAMILTONIAN MATRIX ELEMENTS -
 -------------------------------------------
                                            
 --- DIABATIC ENERGIES (DIAGONAL ELEMENT) ---       HARTREE            EV
 STATE #  1'S GMC-PT-LEVEL DIABATIC ENERGY=     -55.932674587       0.000000000
 STATE #  2'S GMC-PT-LEVEL DIABATIC ENERGY=     -55.704396447       6.211764567
 STATE #  3'S GMC-PT-LEVEL DIABATIC ENERGY=     -55.831065753       2.764917190

 --- DIABATIC COUPLINGS (OFF DIAGONAL ELEMENTS)---  HATREE            EV
 STATE #  1 &  2'S GMC-PT-LEVEL COUPLING  =       0.037196870       1.012178378
 STATE #  1 &  3'S GMC-PT-LEVEL COUPLING  =      -0.036116929      -0.982791709
 STATE #  2 &  3'S GMC-PT-LEVEL COUPLING  =       0.046039391       1.252795643

 ---------------------------------------
     - ROTATION TO DIABATIC STATES -    
 ---------------------------------------
 ROWS=ADIABATIC, COLUMNS=DIABATIC STATES

             1           2           3

    1   -0.9176000   0.1998794  -0.3435963
    2   -0.3837945  -0.2204275   0.8967237
    3    0.1034986   0.9547041   0.2789769

 ---------------------------------------
          - DIABATIC STATES -           
 ---------------------------------------

 State #    1  Energy =     -55.932674587

      Det      Coef        Coefp    Occupancy (Ignoring core)
      ---      ----        ----    --------- --------- -----
        1    0.932607   -0.932607  222+000
       17    0.149579    0.149579  22-+00+
      701   -0.116452   -0.116452  22++00-
        3   -0.097797   -0.097797  22-++00
      141    0.093411    0.093411  22++-00
        4    0.082010   -0.082010  2-2++00
      176   -0.079419    0.079419  2+2+-00
       16   -0.072334    0.072334  222000+
      717   -0.071112   -0.071112  220+002
      393   -0.067038   -0.067038  202+020
        6   -0.061882    0.061882  22200+0
        7    0.060394    0.060394  22-+0+0
      351   -0.058514   -0.058514  22++0-0
      402    0.043749   -0.043749  2+-+0-+
      708    0.039902   -0.039902  2-++0+-
      215   -0.037235   -0.037235  022+200
      390    0.035029   -0.035029  -+2++-0
        5    0.034773    0.034773  -22++00
      218    0.034192   -0.034192  +-2+-+0
       51   -0.033127    0.033127  22+-00+
      736    0.032556   -0.032556  2+2+00-
      227   -0.032201   -0.032201  +2-+-0+
      705   -0.032169   -0.032169  -2+++0-
       18   -0.031546    0.031546  2-2+00+
      212    0.030128    0.030128  +220200
      122    0.028628    0.028628  +2-200+
      192    0.027840   -0.027840  2+-+-0+
       76    0.026961    0.026961  2+2-0+0
      704    0.026500   -0.026500  2-+++0-
     1051   -0.025984   -0.025984  2+++0--
      773    0.025344   -0.025344  +2-++0-
      702    0.025263    0.025263  22+0+0-
      179   -0.025032   -0.025032  202+200
        2    0.024775   -0.024775  2220+00
      387   -0.023485    0.023485  2+20+-0
      424   -0.023241   -0.023241  +-2++-0
      159    0.023149   -0.023149  -2++-0+
      113   -0.022791    0.022791  +-220+0
       29   -0.022422   -0.022422  2--+0++
      706    0.022249    0.022249  22+00+-
       20   -0.022158   -0.022158  22-0+0+
      184   -0.022035   -0.022035  -+2+-+0

 State #    2  Energy =     -55.704396447

      Det      Coef        Coefp    Occupancy (Ignoring core)
      ---      ----        ----    --------- --------- -----
       71   -0.931212    0.931212  2+22000
      806   -0.114102   -0.114102  2++200-
       87    0.102614   -0.102614  2+-200+
       73   -0.101676    0.101676  2+-2+00
      246    0.100494    0.100494  2++2-00
      736    0.084583   -0.084583  2+2+00-
       86   -0.079957   -0.079957  2+2-00+
      822    0.076850   -0.076850  2+02002
       77    0.071590   -0.071590  2+-20+0
      456   -0.067038   -0.067038  2++20-0
      386    0.062227   -0.062227  2+2+0-0
       76   -0.055032   -0.055032  2+2-0+0
      106   -0.053387   -0.053387  +222000
       74   -0.052551    0.052551  2022+00
       78   -0.049923    0.049923  20220+0
      813    0.048243   -0.048243  20+20+-
       36    0.043834    0.043834  22+2000
      122    0.042842    0.042842  +2-200+
       38   -0.038095    0.038095  2202+00
      320    0.038072    0.038072  0+22200
      316    0.037055    0.037055  ++22-00
      111    0.035887   -0.035887  +22-0+0
      332   -0.035844    0.035844  ++-2-0+
      810   -0.035422   -0.035422  -++2+0-
       99   -0.034071    0.034071  20-20++
      317    0.032957   -0.032957  ++2-200
      323   -0.032848    0.032848  +022-+0
      180   -0.032181    0.032181  -+2+200
      177    0.031794   -0.031794  2+20200
      807   -0.030855    0.030855  2++-+0-
       90    0.030369    0.030369  2+--+0+
      192   -0.029674    0.029674  2+-+-0+
        6    0.029111   -0.029111  22200+0
       51    0.028567   -0.028567  22+-00+
      264    0.026419   -0.026419  -++2-0+
      911    0.025599    0.025599  2+++-0-
      878    0.025227    0.025227  ++-2+0-
      183   -0.024142    0.024142  202+-+0
      841   -0.023408    0.023408  +2+200-
      108   -0.022429   -0.022429  +2-2+00
      809    0.022322   -0.022322  20+2+0-
      248    0.022184   -0.022184  2+02200
       88    0.021746   -0.021746  202200+
      752    0.021452    0.021452  2+-+002
      811   -0.021351    0.021351  2++-0+-
      821   -0.020737    0.020737  2++-002
      109   -0.020636    0.020636  +-22+00
      391    0.020484   -0.020484  2+20020
      402   -0.020366    0.020366  2+-+0-+

 State #    3  Energy =     -55.831065753

      Det      Coef        Coefp    Occupancy (Ignoring core)
      ---      ----        ----    --------- --------- -----
       36   -0.932763   -0.932763  22+2000
       39   -0.115787   -0.115787  2-+2+00
       38    0.104418   -0.104418  2202+00
       52   -0.102947    0.102947  220200+
      246    0.095924    0.095924  2++2-00
       41   -0.090595    0.090595  22+-0+0
       51   -0.085313    0.085313  22+-00+
      351    0.082619    0.082619  22++0-0
      701    0.082325    0.082325  22++00-
      106    0.072462    0.072462  +222000
      463    0.064966   -0.064966  20+2020
       42   -0.051696    0.051696  22020+0
      472   -0.048305   -0.048305  2+020-+
       53    0.048210    0.048210  2-+200+
       71   -0.046111    0.046111  2+22000
      806   -0.044428   -0.044428  2++200-
      285    0.036724   -0.036724  02+2200
      460   -0.035808   -0.035808  -++2+-0
      288   -0.035189   -0.035189  +-+2-+0
      297    0.034717   -0.034717  +202-0+
       64    0.034535   -0.034535  2-020++
      123    0.033878   -0.033878  +-2200+
       55   -0.033413   -0.033413  220-+0+
       40   -0.032543    0.032543  -2+2+00
      145   -0.032441   -0.032441  -2++200
      157    0.031946   -0.031946  220+-0+
      142    0.031753    0.031753  22+0200
      282    0.031658    0.031658  +2+-200
      262   -0.027100   -0.027100  2+02-0+
      367    0.026978   -0.026978  220+0-+
      121   -0.024650    0.024650  +22-00+
      457   -0.024618    0.024618  2++-+-0
      456    0.024273    0.024273  2++20-0
      494    0.023710   -0.023710  +-+2+-0
      148   -0.023699   -0.023699  2-++-+0
      249    0.023672   -0.023672  20+2200
       16   -0.023162    0.023162  222000+
      843   -0.022532   -0.022532  +202+0-
       43   -0.022143   -0.022143  2-+20+0
      254    0.021573   -0.021573  -++2-+0
      109   -0.021217    0.021217  +-22+00
      717   -0.021145   -0.021145  220+002
      859    0.020788   -0.020788  02+2002
       88    0.020461   -0.020461  202200+

 ---------------------------------------
      - DIABATIC STATES IN CMO -        
 ---------------------------------------

 State #    1  Energy =     -55.932674587

      Det      Coef        Coefp    Occupancy (Ignoring core)
      ---      ----        ----    --------- --------- -----
        1    0.861415   -0.861415  222+000
       36    0.443481    0.443481  22+2000
       71   -0.108588    0.108588  2+22000
      717   -0.059502   -0.059502  220+002
      393   -0.048413   -0.048413  202+020
      143   -0.042937   -0.042937  220+200
      716   -0.041822   -0.041822  22+0002
      753   -0.038856   -0.038856  202+002
        8   -0.033984    0.033984  2-2+0+0
      703    0.033148    0.033148  220++0-
      106   -0.032820   -0.032820  +222000
      708   -0.032159    0.032159  2-++0+-
        3    0.032129    0.032129  22-++00
       16    0.031533   -0.031533  222000+
      719    0.030071    0.030071  -2++002
      704   -0.027040    0.027040  2-+++0-
      463   -0.026466    0.026466  20+2020
      215   -0.026161   -0.026161  022+200
        4   -0.024605    0.024605  2-2++00
      157   -0.024110    0.024110  220+-0+
      401    0.023572    0.023572  2+200-+
      122   -0.023251   -0.023251  +2-200+
      786    0.023110    0.023110  +220002
      778   -0.022165   -0.022165  +-2+0+-
      823   -0.021864    0.021864  20+2002
      108    0.021458    0.021458  +2-2+00
      741   -0.021400    0.021400  2+200+-
      404   -0.021396   -0.021396  -+2+0-+
       52   -0.021118    0.021118  220200+
      707   -0.020775   -0.020775  220+0+-
       76    0.020649    0.020649  2+2-0+0
       37   -0.020395    0.020395  22+-+00
        7   -0.020246   -0.020246  22-+0+0
      213    0.020242   -0.020242  +2-+200
      179   -0.020233   -0.020233  202+200
      789   -0.020043   -0.020043  022+002

 State #    2  Energy =     -55.704396447

      Det      Coef        Coefp    Occupancy (Ignoring core)
      ---      ----        ----    --------- --------- -----
       71   -0.937138    0.937138  2+22000
        1   -0.209322    0.209322  222+000
       36    0.176447    0.176447  22+2000
      822    0.056479   -0.056479  2+02002
      248    0.046666   -0.046666  2+02200
      751    0.040502   -0.040502  2+20002
      123   -0.036874    0.036874  +-2200+
       18    0.036196   -0.036196  2-2+00+
      122   -0.033273   -0.033273  +2-200+
      808   -0.029812    0.029812  2+02+0-
       86   -0.029768   -0.029768  2+2-00+
      320    0.028887    0.028887  0+22200
      752   -0.028875   -0.028875  2+-+002
      262    0.028611    0.028611  2+02-0+
      108    0.028059    0.028059  +2-2+00
      821    0.027391   -0.027391  2++-002
      111    0.027276   -0.027276  +22-0+0
      754   -0.026167    0.026167  -+2+002
       51   -0.025200    0.025200  22+-00+
      463   -0.024952    0.024952  20+2020
      891    0.024785   -0.024785  ++2-002
      894    0.024392    0.024392  0+22002
      107    0.024020   -0.024020  +22-+00
       16   -0.023237    0.023237  222000+
      892   -0.023137   -0.023137  ++-2002
      824    0.023094    0.023094  -++2002
      743    0.023020    0.023020  202+0+-
       88    0.022234   -0.022234  202200+
      462    0.021952   -0.021952  2+02020
       78   -0.021932    0.021932  20220+0
       83    0.021833   -0.021833  20-2++0
      472   -0.021721   -0.021721  2+020-+
      318    0.021548    0.021548  ++-2200
      809   -0.021504    0.021504  20+2+0-
       17    0.021227    0.021227  22-+00+
       89    0.020589    0.020589  -+2200+

 State #    3  Energy =     -55.831065753

      Det      Coef        Coefp    Occupancy (Ignoring core)
      ---      ----        ----    --------- --------- -----
       36   -0.855442   -0.855442  22+2000
        1    0.408935   -0.408935  222+000
       71   -0.250831    0.250831  2+22000
      463    0.043110   -0.043110  20+2020
      823    0.041314   -0.041314  20+2002
      248    0.034620   -0.034620  2+02200
      122    0.032134    0.032134  +2-200+
      123   -0.031598    0.031598  +-2200+
      262    0.030864    0.030864  2+02-0+
      143   -0.029685   -0.029685  220+200
       16    0.028399   -0.028399  222000+
      249    0.027159   -0.027159  20+2200
      285    0.026836   -0.026836  02+2200
      157   -0.024275    0.024275  220+-0+
      471    0.023450    0.023450  2++-0-+
      393   -0.023429   -0.023429  202+020
      716    0.023110    0.023110  22+0002
      111    0.022414   -0.022414  +22-0+0
      142    0.022282    0.022282  22+0200
      856    0.021733    0.021733  +2+-002
       48   -0.021552    0.021552  2-02++0
      859    0.021550   -0.021550  02+2002
      253   -0.021385   -0.021385  20+2-+0
       86   -0.020971   -0.020971  2+2-00+
       88   -0.020868    0.020868  202200+
      848    0.020853   -0.020853  +-+20+-
      811   -0.020519    0.020519  2++-0+-
      250   -0.020121   -0.020121  -++2200

 ---------------------------------------
    -DIABATIC STATES IN PROTOTYPES-     
 ---------------------------------------

     STATE:    1
 Group Ref#    Coefficients
     1    1    0.953044
     2    2   -0.000380
     3    3    0.007152

WEIGHT OF LISTED PROTOTYPES:   90.83%

     STATE:    2
 Group Ref#    Coefficients
     1    1   -0.000384
     2    2    0.943919
     3    3   -0.003149

WEIGHT OF LISTED PROTOTYPES:   89.10%

     STATE:    3
 Group Ref#    Coefficients
     1    1    0.007173
     2    2   -0.003128
     3    3    0.950203

WEIGHT OF LISTED PROTOTYPES:   90.29%

     DIRECT MAX. DIABATIZATION FINISHED    
 CPU     0: STEP CPU TIME=     0.25 TOTAL CPU TIME=         15.8 (      0.3 MIN)
 TOTAL WALL CLOCK TIME=         15.8 SECONDS, CPU UTILIZATION IS    99.94%

DIABATS FOR SPIN-ORBIT CALCULATION ARE READY

TRANSITION DIPOLES BETWEEN ADIABATS (in A.U.):

STATE PAIR      X         Y         Z
    1    1 -0.241004  0.224465  0.668109
    2    1 -0.019674 -0.013117  0.178682
    2    2 -0.123425  0.327951  0.340152
    3    1 -0.132180 -0.048522 -0.050721
    3    2  0.152378  0.143390  0.002066
    3    3 -0.471280  0.301212  0.295200


TRANSITION DIPOLES BETWEEN DIABATS (in A.U.):

STATE PAIR      X         Y         Z
    1    1 -0.227007  0.229116  0.751130
    2    1  0.038475  0.000385  0.000422
    2    2 -0.558023  0.221734  0.276311
    3    1  0.002845 -0.012232 -0.006608
    3    2  0.067486  0.123793  0.026515
    3    3 -0.050678  0.402777  0.276021

TRANSITION DIPOLES BETWEEN DIRECT MAX. DIABATS (in A.U.):

STATE PAIR      X         Y         Z
    1    1 -0.227007  0.229116  0.751130
    2    1  0.038474  0.000384  0.000421
    2    2 -0.558025  0.221731  0.276311
    3    1  0.002843 -0.012234 -0.006603
    3    2  0.067481  0.123791  0.026515
    3    3 -0.050676  0.402780  0.276022
 No $TRANST Group Found.
 Quit without doing spin-orbit coupling
 ..... DONE WITH MP2 ENERGY .....
 CPU     0: STEP CPU TIME=     0.00 TOTAL CPU TIME=         15.8 (      0.3 MIN)
 TOTAL WALL CLOCK TIME=         15.8 SECONDS, CPU UTILIZATION IS    99.87%
            100000000  WORDS OF DYNAMIC MEMORY USED
 EXECUTION OF GAMESS TERMINATED NORMALLY Wed Nov 16 19:59:08 2022
 DDI: 715512 bytes (0.7 MB / 0 MWords) used by master data server.

 ----------------------------------------
 CPU timing information for all processes
 ========================================
 0: 15.459 + 0.300 = 15.760
 ----------------------------------------
Note: The following floating-point exceptions are signalling: IEEE_DENORMAL
 ddikick.x: exited gracefully.
unset echo
----- accounting info -----
Files used on the master node io002 were:
-rw-r--r-- 1 bsonghao nooijen   20682 Nov 16 19:58 /scratch/bsonghao/nh3_diabatization_2d_at_mode_7_8_dist0.5_-0.5.F05
-rw-r--r-- 1 bsonghao nooijen  363520 Nov 16 19:59 /scratch/bsonghao/nh3_diabatization_2d_at_mode_7_8_dist0.5_-0.5.F09
-rw-r--r-- 1 bsonghao nooijen 1995920 Nov 16 19:59 /scratch/bsonghao/nh3_diabatization_2d_at_mode_7_8_dist0.5_-0.5.F10
-rw-r--r-- 1 bsonghao nooijen  131264 Nov 16 19:59 /scratch/bsonghao/nh3_diabatization_2d_at_mode_7_8_dist0.5_-0.5.F13
-rw-r--r-- 1 bsonghao nooijen  180312 Nov 16 19:59 /scratch/bsonghao/nh3_diabatization_2d_at_mode_7_8_dist0.5_-0.5.F15
-rw-r--r-- 1 bsonghao nooijen       0 Nov 16 19:58 /scratch/bsonghao/nh3_diabatization_2d_at_mode_7_8_dist0.5_-0.5.F16
-rw-r--r-- 1 bsonghao nooijen    9808 Nov 16 19:59 /scratch/bsonghao/nh3_diabatization_2d_at_mode_7_8_dist0.5_-0.5.F70
-rw-r--r-- 1 bsonghao nooijen    9808 Nov 16 19:59 /scratch/bsonghao/nh3_diabatization_2d_at_mode_7_8_dist0.5_-0.5.F71
-rw-r--r-- 1 bsonghao nooijen   19608 Nov 16 19:59 /scratch/bsonghao/nh3_diabatization_2d_at_mode_7_8_dist0.5_-0.5.F72
-rw-r--r-- 1 bsonghao nooijen   19608 Nov 16 19:59 /scratch/bsonghao/nh3_diabatization_2d_at_mode_7_8_dist0.5_-0.5.F73
-rw-r--r-- 1 bsonghao nooijen 1920824 Nov 16 19:59 /scratch/bsonghao/nh3_diabatization_2d_at_mode_7_8_dist0.5_-0.5.F74
-rw-r--r-- 1 bsonghao nooijen       0 Nov 16 19:58 /scratch/bsonghao/nh3_diabatization_2d_at_mode_7_8_dist0.5_-0.5.F75
-rw-r--r-- 1 bsonghao nooijen   58848 Nov 16 19:59 /scratch/bsonghao/nh3_diabatization_2d_at_mode_7_8_dist0.5_-0.5.F76
-rw-r--r-- 1 bsonghao nooijen       0 Nov 16 19:58 /scratch/bsonghao/nh3_diabatization_2d_at_mode_7_8_dist0.5_-0.5.F77
-rw-r--r-- 1 bsonghao nooijen    1864 Nov 16 19:59 /scratch/bsonghao/nh3_diabatization_2d_at_mode_7_8_dist0.5_-0.5.F78
-rw-r--r-- 1 bsonghao nooijen   39208 Nov 16 19:59 /scratch/bsonghao/nh3_diabatization_2d_at_mode_7_8_dist0.5_-0.5.F79
-rw-r--r-- 1 bsonghao nooijen     104 Nov 16 19:59 /scratch/bsonghao/nh3_diabatization_2d_at_mode_7_8_dist0.5_-0.5.F80
-rw-r--r-- 1 bsonghao nooijen   13472 Nov 16 19:59 /scratch/bsonghao/nh3_diabatization_2d_at_mode_7_8_dist0.5_-0.5.F81
-rw-r--r-- 1 bsonghao nooijen      16 Nov 16 19:59 /scratch/bsonghao/nh3_diabatization_2d_at_mode_7_8_dist0.5_-0.5.F82
-rw-r--r-- 1 bsonghao nooijen   19216 Nov 16 19:59 /scratch/bsonghao/nh3_diabatization_2d_at_mode_7_8_dist0.5_-0.5.F83
-rw-r--r-- 1 bsonghao nooijen   29712 Nov 16 19:59 /scratch/bsonghao/nh3_diabatization_2d_at_mode_7_8_dist0.5_-0.5.F84
-rw-r--r-- 1 bsonghao nooijen  401576 Nov 16 19:59 /scratch/bsonghao/nh3_diabatization_2d_at_mode_7_8_dist0.5_-0.5.F85
-rw-r--r-- 1 bsonghao nooijen  903672 Nov 16 19:59 /scratch/bsonghao/nh3_diabatization_2d_at_mode_7_8_dist0.5_-0.5.F86
-rw-r--r-- 1 bsonghao nooijen     656 Nov 16 19:59 /scratch/bsonghao/nh3_diabatization_2d_at_mode_7_8_dist0.5_-0.5.F87
-rw-r--r-- 1 bsonghao nooijen   41072 Nov 16 19:59 /scratch/bsonghao/nh3_diabatization_2d_at_mode_7_8_dist0.5_-0.5.F88
-rw-r--r-- 1 bsonghao nooijen     240 Nov 16 19:59 /scratch/bsonghao/nh3_diabatization_2d_at_mode_7_8_dist0.5_-0.5.F89
-rw-r--r-- 1 bsonghao nooijen       0 Nov 16 19:58 /scratch/bsonghao/nh3_diabatization_2d_at_mode_7_8_dist0.5_-0.5.F90
-rw-r--r-- 1 bsonghao nooijen   13760 Nov 16 19:59 /scratch/bsonghao/nh3_diabatization_2d_at_mode_7_8_dist0.5_-0.5.F91
-rw-r--r-- 1 bsonghao nooijen   22776 Nov 16 19:59 /scratch/bsonghao/nh3_diabatization_2d_at_mode_7_8_dist0.5_-0.5.F92
-rw-r--r-- 1 bsonghao nooijen   23168 Nov 16 19:59 /scratch/bsonghao/nh3_diabatization_2d_at_mode_7_8_dist0.5_-0.5.F93
-rw-r--r-- 1 bsonghao nooijen   22776 Nov 16 19:59 /scratch/bsonghao/nh3_diabatization_2d_at_mode_7_8_dist0.5_-0.5.F94
-rw-r--r-- 1 bsonghao nooijen   13760 Nov 16 19:59 /scratch/bsonghao/nh3_diabatization_2d_at_mode_7_8_dist0.5_-0.5.F95
-rw-r--r-- 1 bsonghao nooijen   29440 Nov 16 19:59 /scratch/bsonghao/nh3_diabatization_2d_at_mode_7_8_dist0.5_-0.5.F96
-rw-r--r-- 1 bsonghao nooijen    1184 Nov 16 19:59 /scratch/bsonghao/nh3_diabatization_2d_at_mode_7_8_dist0.5_-0.5.F97
-rw-r--r-- 1 bsonghao nooijen    9808 Nov 16 19:59 /scratch/bsonghao/nh3_diabatization_2d_at_mode_7_8_dist0.5_-0.5.F98
-rw-r--r-- 1 bsonghao nooijen   30264 Nov 16 19:59 /scratch/bsonghao/nh3_diabatization_2d_at_mode_7_8_dist0.5_-0.5.F99
ls: No match.
ls: No match.
ls: No match.
Wed 16 Nov 2022 07:59:11 PM EST
0.282u 0.048s 0:19.12 1.6%	0+0k 48+224io 0pf+0w
