----- GAMESS execution script 'rungms' -----
This job is running on host io002
under operating system Linux at Wed 16 Nov 2022 06:19:00 PM EST
Available scratch disk space (Kbyte units) at beginning of the job is
Filesystem       1K-blocks       Used   Available Use% Mounted on
/dev/sdc1      15378471580 3278917120 11318349060  23% /scratch
GAMESS temporary binary files will be written to /scratch/bsonghao
GAMESS supplementary output files will be written to /home/bsonghao/.gamess_ascii_files/267638
Copying input file nh3_diabatization_2d_at_mode_7_8_dist-0.8_-0.3.inp to your run's scratch directory...
cp nh3_diabatization_2d_at_mode_7_8_dist-0.8_-0.3.inp /scratch/bsonghao/nh3_diabatization_2d_at_mode_7_8_dist-0.8_-0.3.F05
unset echo
/home/bjb2chen/gamess/ddikick.x /home/bjb2chen/gamess/gamess.00.x nh3_diabatization_2d_at_mode_7_8_dist-0.8_-0.3 -ddi 1 1 io002 -scr /scratch/bsonghao

 Distributed Data Interface kickoff program.
 Initiating 1 compute processes on 1 nodes to run the following command:
 /home/bjb2chen/gamess/gamess.00.x nh3_diabatization_2d_at_mode_7_8_dist-0.8_-0.3 

          ******************************************************
          *         GAMESS VERSION = 02 AUG 2018 (R2)         *
          *             FROM IOWA STATE UNIVERSITY             *
          * M.W.SCHMIDT, K.K.BALDRIDGE, J.A.BOATZ, S.T.ELBERT, *
          *   M.S.GORDON, J.H.JENSEN, S.KOSEKI, N.MATSUNAGA,   *
          *          K.A.NGUYEN, S.J.SU, T.L.WINDUS,           *
          *       TOGETHER WITH M.DUPUIS, J.A.MONTGOMERY       *
          *         J.COMPUT.CHEM.  14, 1347-1363(1993)        *
          **************** 64 BIT LINUX VERSION ****************

  SINCE 1993, STUDENTS AND POSTDOCS WORKING AT IOWA STATE UNIVERSITY
  AND ALSO IN THEIR VARIOUS JOBS AFTER LEAVING ISU HAVE MADE IMPORTANT
  CONTRIBUTIONS TO THE CODE:
     IVANA ADAMOVIC, CHRISTINE AIKENS, YURI ALEXEEV, POOJA ARORA,
     ANDREY ASADCHEV, ROB BELL, PRADIPTA BANDYOPADHYAY, JONATHAN BENTZ,
     BRETT BODE, KURT BRORSEN, CALEB CARLIN, GALINA CHABAN, WEI CHEN,
     CHEOL HO CHOI, PAUL DAY, ALBERT DEFUSCO, NUWAN DESILVA, TIM DUDLEY,
     DMITRI FEDOROV, ALEX FINDLATER, GRAHAM FLETCHER, MARK FREITAG,
     KURT GLAESEMANN, ANASTASIA GUININA,
     DAN KEMP, GRANT MERRILL, NORIYUKI MINEZAWA, JONATHAN MULLIN,
     TAKESHI NAGATA, SEAN NEDD, HEATHER NETZLOFF, BOSILJKA NJEGIC, RYAN OLSON,
     MIKE PAK, BUU PHAM,
     SPENCER PRUITT, LUKE ROSKOP, JIM SHOEMAKER, LYUDMILA SLIPCHENKO,
     TONY SMITH, SAROM SOK LEANG, JIE SONG, TETSUYA TAKETSUGU, SIMON WEBB,
     PENG XU, SOOHAENG YOO, FEDERICO ZAHARIEV

  ADDITIONAL CODE HAS BEEN PROVIDED BY COLLABORATORS IN OTHER GROUPS:
     IOWA STATE UNIVERSITY:
          JOE IVANIC, AARON WEST, LAIMUTIS BYTAUTAS, KLAUS RUEDENBERG
     UNIVERSITY OF TOKYO: KIMIHIKO HIRAO, TAKAHITO NAKAJIMA,
          TAKAO TSUNEDA, MUNEAKI KAMIYA, SUSUMU YANAGISAWA,
          KIYOSHI YAGI, MAHITO CHIBA, SEIKEN TOKURA, NAOAKI KAWAKAMI
     UNIVERSITY OF AARHUS: FRANK JENSEN
     UNIVERSITY OF IOWA: VISVALDAS KAIRYS, HUI LI
     NATIONAL INST. OF STANDARDS AND TECHNOLOGY: WALT STEVENS, DAVID GARMER
     UNIVERSITY OF PISA: BENEDETTA MENNUCCI, JACOPO TOMASI
     UNIVERSITY OF MEMPHIS: HENRY KURTZ, PRAKASHAN KORAMBATH
     UNIVERSITY OF ALBERTA: TOBY ZENG, MARIUSZ KLOBUKOWSKI
     UNIVERSITY OF NEW ENGLAND: MARK SPACKMAN
     MIE UNIVERSITY: HIROAKI UMEDA
     NAT. INST. OF ADVANCED INDUSTRIAL SCIENCE AND TECHNOLOGY: KAZUO KITAURA
     MICHIGAN STATE UNIVERSITY:
          KAROL KOWALSKI, MARTA WLOCH, JEFFREY GOUR, JESSE LUTZ,
          WEI LI, JUN SHEN, J. EMILIANO DEUSTUA, PIOTR PIECUCH
     UNIVERSITY OF MINNESOTA:
          YINAN SHU
     UNIVERSITY OF SILESIA: MONIKA MUSIAL, STANISLAW KUCHARSKI
     FACULTES UNIVERSITAIRES NOTRE-DAME DE LA PAIX:
          OLIVIER QUINET, BENOIT CHAMPAGNE
     UNIVERSITY OF CALIFORNIA - SANTA BARBARA: BERNARD KIRTMAN
     INSTITUTE FOR MOLECULAR SCIENCE:
          KAZUYA ISHIMURA, MICHIO KATOUDA, AND SHIGERU NAGASE
     UNIVERSITY OF NOTRE DAME: ANNA POMOGAEVA, DAN CHIPMAN
     KYUSHU UNIVERSITY:
          HARUYUKI NAKANO,
          FENG LONG GU, JACEK KORCHOWIEC, MARCIN MAKOWSKI, AND YURIKO AOKI,
          HIROTOSHI MORI AND EISAKU MIYOSHI
     PENNSYLVANIA STATE UNIVERSITY:
          TZVETELIN IORDANOV, CHET SWALINA, JONATHAN SKONE,
          SHARON HAMMES-SCHIFFER
     WASEDA UNIVERSITY:
          MASATO KOBAYASHI, TOMOKO AKAMA, TSUGUKI TOUMA,
          TAKESHI YOSHIKAWA, YASUHIRO IKABATA, JUNJI SEINO,
          YUYA NAKAJIMA, HIROMI NAKAI
     NANJING UNIVERSITY: SHUHUA LI
     UNIVERSITY OF NEBRASKA:
          PEIFENG SU, DEJUN SI, NANDUN THELLAMUREGE, YALI WANG, HUI LI
     UNIVERSITY OF ZURICH: ROBERTO PEVERATI, KIM BALDRIDGE
     N. COPERNICUS UNIVERSITY AND JACKSON STATE UNIVERSITY:
          MARIA BARYSZ
     UNIVERSITY OF COPENHAGEN: Jimmy Kromann, CASPER STEINMANN
     TOKYO INSTITUTE OF TECHNOLOGY: HIROYA NAKATA
     NAGOYA UNIVERSITY: YOSHIO NISHIMOTO, STEPHAN IRLE
     MOSCOW STATE UNIVERSITY: VLADIMIR MIRONOV

 EXECUTION OF GAMESS BEGUN Wed Nov 16 18:19:00 2022

            ECHO OF THE FIRST FEW INPUT CARDS -
 INPUT CARD> $system kdiag=3 mwords=100 memddi=1000 parall=.t. $end                         
 INPUT CARD> $contrl runtyp=energy ispher=1 $end                                            
 INPUT CARD> $contrl icut=9 itol=20 inttyp=rysquad qmttol=1.0d-05 nosym=1 $end              
 INPUT CARD> $scf    npunch=2 conv=1.0d-06 dirscf=.t.      $end                             
 INPUT CARD> $contrl scftyp=mcscf  mult=2 maxit=200 icharg=1 mplevl=2 $end                  
 INPUT CARD> $guess  guess=moread norb=29 purify=.t. $end                                   
 INPUT CARD> $basis  gbasis=ccd $end                                                        
 INPUT CARD> $mcscf  cistep=gmcci fullnr=.t. finci=mos                                      
 INPUT CARD>         acurcy=1.d-6 maxit=100 $end                                            
 INPUT CARD> $trans  dirtrf=.t. $end                                                        
 INPUT CARD> $mrmp   mrpt=gmcpt rdvecs=.f. $end                                             
 INPUT CARD> $gmcpt  nmofzc=0 nmodoc=1 nmoact=7 nelact=7 stsym(1)=A                         
 INPUT CARD>         reftyp=ormas nspace=1 mstart(1)=2 mine(1)=7 maxe(1)=7                  
 INPUT CARD>         kstate(1)=1,1,1                                                        
 INPUT CARD>         wstate(1)=1,1,1                                                        
 INPUT CARD>         iwgt=0 thrwgt=-1.0 krot=.f. kszdoe=.f. knospn=.f.                      
 INPUT CARD>         thrde=-1.0 edshft=0.02 $end                                            
 INPUT CARD> $data                                                                          
 INPUT CARD> NH3+ 3 states calculation at NH3 structure.                                    
 INPUT CARD> c1                                                                             
 INPUT CARD>N 7.0 0.018686754000000003 0.04983122400000001 -0.1693805222                    
 INPUT CARD>H 1.0 -0.923767821 0.6370238188 0.1131696351                                    
 INPUT CARD>H 1.0 -0.312365279 -0.7456395818 0.47894144110000003                            
 INPUT CARD>H 1.0 0.976475666 -0.583805958 0.1772671271                                     
 INPUT CARD>$end                                                                            
 INPUT CARD>--- OPTIMIZED RHF      MO-S --- GENERATED AT Mon Nov 14 16:47:08 2022           
 INPUT CARD>E=      -56.3825050291, E(NUC)=   11.8429239490                                 
 INPUT CARD> $VEC                                                                           
 INPUT CARD> 1  1-1.00134066E+00-2.25158504E-03 3.44925845E-03 0.00000000E+00 0.00000000E+00
 INPUT CARD> 1  2-2.13170927E-03 0.00000000E+00 0.00000000E+00 6.57129898E-04-6.87950443E-05
 INPUT CARD> 1  3-6.87950443E-05 1.37590089E-04 0.00000000E+00 0.00000000E+00 0.00000000E+00
 INPUT CARD> 1  4 3.25502815E-04-4.84772356E-04 3.62525460E-04-6.27912517E-04-3.45956485E-04
 INPUT CARD> 1  5 3.25502815E-04-4.84772356E-04 3.62525460E-04 6.27912517E-04-3.45956485E-04
 INPUT CARD> 1  6 3.25502815E-04-4.84772356E-04-7.25050921E-04 0.00000000E+00-3.45956485E-04
 INPUT CARD> 2  1 1.31286642E-02-4.05911371E-01-2.82090992E-01 0.00000000E+00 0.00000000E+00
 INPUT CARD> 2  2-7.71489043E-02 0.00000000E+00 0.00000000E+00 9.73717494E-03 6.62450916E-04
 INPUT CARD> 2  3 6.62450916E-04-1.32490183E-03 0.00000000E+00 0.00000000E+00 0.00000000E+00
 INPUT CARD> 2  4-1.96090317E-01-1.96656153E-02-1.74855877E-02 3.02859263E-02 8.68214399E-03
 INPUT CARD> 2  5-1.96090317E-01-1.96656153E-02-1.74855877E-02-3.02859263E-02 8.68214399E-03
 INPUT CARD> 2  6-1.96090317E-01-1.96656153E-02 3.49711754E-02 0.00000000E+00 8.68214399E-03
 INPUT CARD> 3  1 0.00000000E+00 0.00000000E+00 0.00000000E+00 4.48608762E-01 0.00000000E+00
 INPUT CARD> 3  2 0.00000000E+00 2.18692520E-01 0.00000000E+00 0.00000000E+00 1.30198027E-02
 INPUT CARD> 3  3-1.30198027E-02 0.00000000E+00 0.00000000E+00 2.71832968E-02 0.00000000E+00
 INPUT CARD> 3  4-1.85332726E-01-7.03958951E-02 8.47929477E-03 1.95242443E-02 8.32835058E-03
 INPUT CARD> 3  5-1.85332726E-01-7.03958951E-02 8.47929477E-03-1.95242443E-02 8.32835058E-03
 INPUT CARD> 3  6 3.70665453E-01 1.40791790E-01-2.53376884E-02 0.00000000E+00-1.66567012E-02
 INPUT CARD> 4  1 0.00000000E+00 0.00000000E+00 0.00000000E+00 0.00000000E+00 4.48608762E-01
 INPUT CARD> 4  2 0.00000000E+00 0.00000000E+00 2.18692520E-01 0.00000000E+00 0.00000000E+00
 INPUT CARD> 4  3 0.00000000E+00 0.00000000E+00-1.50339731E-02 0.00000000E+00 2.71832968E-02
 INPUT CARD> 4  4 3.21005698E-01 1.21929267E-01 1.95242443E-02-1.40653607E-02-1.44251263E-02
  100000000 WORDS OF MEMORY AVAILABLE

     BASIS OPTIONS
     -------------
     GBASIS=CCD          IGAUSS=       0      POLAR=NONE    
     NDFUNC=       0     NFFUNC=       0     DIFFSP=       F
     NPFUNC=       0      DIFFS=       F     BASNAM=        


     RUN TITLE
     ---------
  NH3+ 3 states calculation at NH3 structure.                                    

 THE POINT GROUP OF THE MOLECULE IS C1      
 THE ORDER OF THE PRINCIPAL AXIS IS     0

 ATOM      ATOMIC                      COORDINATES (BOHR)
           CHARGE         X                   Y                   Z
 N           7.0     0.0353128447        0.0941673590       -0.3200827746
 H           1.0    -1.7456680580        1.2038004652        0.2138596005
 H           1.0    -0.5902847854       -1.4090544952        0.9050680878
 H           1.0     1.8452714424       -1.1032332906        0.3349862968

          INTERNUCLEAR DISTANCES (ANGS.)
          ------------------------------

                1 N          2 H          3 H          4 H     

   1 N       0.0000000    1.1457968 *  1.0782813 *  1.1995917 *
   2 H       1.1457968 *  0.0000000    1.5554293 *  2.2595263 *
   3 H       1.0782813 *  1.5554293 *  0.0000000    1.3335323 *
   4 H       1.1995917 *  2.2595263 *  1.3335323 *  0.0000000  

  * ... LESS THAN  3.000


     ATOMIC BASIS SET
     ----------------
 THE CONTRACTED PRIMITIVE FUNCTIONS HAVE BEEN UNNORMALIZED
 THE CONTRACTED BASIS FUNCTIONS ARE NOW NORMALIZED TO UNITY

  SHELL TYPE  PRIMITIVE        EXPONENT          CONTRACTION COEFFICIENT(S)

 N         

      1   S       1          9046.0000000    0.000699617413
      1   S       2          1357.0000000    0.005386054630
      1   S       3           309.3000000    0.027391021189
      1   S       4            87.7300000    0.103150591982
      1   S       5            28.5600000    0.278570663317
      1   S       6            10.2100000    0.448294849454
      1   S       7             3.8380000    0.278085928395
      1   S       8             0.7466000    0.015431561233

      2   S       9          9046.0000000   -0.000304990096
      2   S      10          1357.0000000   -0.002408026379
      2   S      11           309.3000000   -0.011944448725
      2   S      12            87.7300000   -0.048925992909
      2   S      13            28.5600000   -0.134472724725
      2   S      14            10.2100000   -0.315112577700
      2   S      15             3.8380000   -0.242857832550
      2   S      16             0.7466000    1.094382206854

      3   S      17             0.2248000    1.000000000000

      4   P      18            13.5500000    0.058905676772
      4   P      19             2.9170000    0.320461106714
      4   P      20             0.7973000    0.753042061792

      5   P      21             0.2185000    1.000000000000

      6   D      22             0.8170000    1.000000000000

 H         

      7   S      23            13.0100000    0.033498726390
      7   S      24             1.9620000    0.234800801174
      7   S      25             0.4446000    0.813682957883

      8   S      26             0.1220000    1.000000000000

      9   P      27             0.7270000    1.000000000000

 H         

     10   S      28            13.0100000    0.033498726390
     10   S      29             1.9620000    0.234800801174
     10   S      30             0.4446000    0.813682957883

     11   S      31             0.1220000    1.000000000000

     12   P      32             0.7270000    1.000000000000

 H         

     13   S      33            13.0100000    0.033498726390
     13   S      34             1.9620000    0.234800801174
     13   S      35             0.4446000    0.813682957883

     14   S      36             0.1220000    1.000000000000

     15   P      37             0.7270000    1.000000000000

 TOTAL NUMBER OF BASIS SET SHELLS             =   15
 NUMBER OF CARTESIAN GAUSSIAN BASIS FUNCTIONS =   30
 NOTE: THIS RUN WILL RESTRICT THE MO VARIATION SPACE TO SPHERICAL HARMONICS.
 THE NUMBER OF ORBITALS KEPT IN THE VARIATIONAL SPACE WILL BE PRINTED LATER.
 NUMBER OF ELECTRONS                          =    9
 CHARGE OF MOLECULE                           =    1
 SPIN MULTIPLICITY                            =    2
 NUMBER OF OCCUPIED ORBITALS (ALPHA)          =    5
 NUMBER OF OCCUPIED ORBITALS (BETA )          =    4
 TOTAL NUMBER OF ATOMS                        =    4
 THE NUCLEAR REPULSION ENERGY IS       10.7273672638

     $CONTRL OPTIONS
     ---------------
 SCFTYP=MCSCF        RUNTYP=ENERGY       EXETYP=RUN     
 MPLEVL=       2     CITYP =NONE         CCTYP =NONE         VBTYP =NONE    
 DFTTYP=NONE         TDDFT =NONE    
 MULT  =       2     ICHARG=       1     NZVAR =       0     COORD =UNIQUE  
 PP    =NONE         RELWFN=NONE         LOCAL =NONE         NUMGRD=       F
 ISPHER=       1     NOSYM =       1     MAXIT =     200     UNITS =ANGS    
 PLTORB=       F     MOLPLT=       F     AIMPAC=       F     FRIEND=        
 NPRINT=       7     IREST =       0     GEOM  =INPUT   
 NORMF =       0     NORMP =       0     ITOL  =      20     ICUT  =       9
 INTTYP=RYSQUAD      GRDTYP=BEST         QMTTOL= 1.0E-05

     $SYSTEM OPTIONS
     ---------------
  REPLICATED MEMORY=   100000000 WORDS (ON EVERY NODE).
 DISTRIBUTED MEMDDI=        1000 MILLION WORDS IN AGGREGATE,
 MEMDDI DISTRIBUTED OVER   1 PROCESSORS IS  1000000000 WORDS/PROCESSOR.
 TOTAL MEMORY REQUESTED ON EACH PROCESSOR=  1100000000 WORDS.
 TIMLIM=      525600.00 MINUTES, OR     365.0 DAYS.
 PARALL= T  BALTYP=  DLB     KDIAG=    3  COREFL= F
 MXSEQ2=     300 MXSEQ3=     150  mem10=         0

          ----------------
          PROPERTIES INPUT
          ----------------

     MOMENTS            FIELD           POTENTIAL          DENSITY
 IEMOM =       1   IEFLD =       0   IEPOT =       0   IEDEN =       0
 WHERE =COMASS     WHERE =NUCLEI     WHERE =NUCLEI     WHERE =NUCLEI  
 OUTPUT=BOTH       OUTPUT=BOTH       OUTPUT=BOTH       OUTPUT=BOTH    
 IEMINT=       0   IEFINT=       0                     IEDINT=       0
                                                       MORB  =       0

     -------------------------------
     INTEGRAL TRANSFORMATION OPTIONS
     -------------------------------
     NWORD  =            0
     CUTOFF = 1.0E-09     MPTRAN =       0
     DIRTRF =       T     AOINTS =DUP     

          ----------------------
          MCSCF INPUT PARAMETERS
          ----------------------
 CONVERGER SELECTION: FOCAS = F  SOSCF = F  FULLNR = T  QUD = F  JACOBI = F
 SECULAR EQUATION METHOD CISTEP = GMCCI   
 --- GENERAL INPUT OPTIONS:
 MAXIT =     100  MICIT =       1  ACURCY= 1.000E-06
 DAMP  =   0.000  CANONC=       T  ENGTOL= 1.000E-10
 EKT   =       F  NPUNCH=       2  NWORD =         0
 REGENERATE CI AFTER CONVERGENCE = NONE    
 DIABATIZATION AFTER CONVERGENCE =        F
 --- INPUT FOR FULLNR CONVERGER:
 METHOD=DM2       FORS  =       F  DROPC =       T
 LINSER=       F  FCORE =       F  NORB  =      30

          ----------------------
          INTEGRAL INPUT OPTIONS
          ----------------------
 NOPK  =       1 NORDER=       0 SCHWRZ=       T

 ------------------------------------------
 MULTIREFERENCE PERTURBATION THEORY CONTROL
 ------------------------------------------
 MRPT=GMCPT    READ CONVERGED MCSCF VECTORS= F


     ------------------------------------------
     THE POINT GROUP IS C1 , NAXIS= 1, ORDER= 1
     ------------------------------------------

 -- VARIATIONAL SPACE WILL BE RESTRICTED TO PURE SPHERICAL HARMONICS ONLY --
 AFTER EXCLUDING CONTAMINANT COMBINATIONS FROM THE CARTESIAN GAUSSIAN BASIS
 SET, THE NUMBER OF SPHERICAL HARMONICS KEPT IN THE VARIATION SPACE IS   29

     DIMENSIONS OF THE SYMMETRY SUBSPACES ARE
 A   =   29

 ..... DONE SETTING UP THE RUN .....
 CPU     0: STEP CPU TIME=     0.04 TOTAL CPU TIME=          0.0 (      0.0 MIN)
 TOTAL WALL CLOCK TIME=          0.0 SECONDS, CPU UTILIZATION IS   100.00%

          ********************
          1 ELECTRON INTEGRALS
          ********************
 TIME TO DO   DIPOLE INTEGRALS=      0.00
 ...... END OF ONE-ELECTRON INTEGRALS ......
 CPU     0: STEP CPU TIME=     0.00 TOTAL CPU TIME=          0.0 (      0.0 MIN)
 TOTAL WALL CLOCK TIME=          0.0 SECONDS, CPU UTILIZATION IS   100.00%

          -------------
          GUESS OPTIONS
          -------------
          GUESS =MOREAD            NORB  =      29          NORDER=       0
          MIX   =       F          PRTMO =       F          PUNMO =       F
          TOLZ  = 1.0E-08          TOLE  = 1.0E-05
          SYMDEN=       F          PURIFY=       T

 INITIAL GUESS ORBITALS GENERATED BY MOREAD   ROUTINE.

 STATISTICS FOR GENERATION OF SYMMETRY ORBITAL -Q- MATRIX
 NUMBER OF CARTESIAN ATOMIC ORBITALS=         30
 NUMBER OF SPHERICAL CONTAMINANTS DROPPED=     1
 NUMBER OF LINEARLY DEPENDENT MOS DROPPED=     0
 TOTAL NUMBER OF MOS IN VARIATION SPACE=      29
 ORBITAL PURIFICATION WILL OCCUR

 SYMMETRIES FOR INITIAL GUESS ORBITALS FOLLOW.   BOTH SET(S).
     5 ORBITALS ARE OCCUPIED (    1 CORE ORBITALS).
     1=A        2=A        3=A        4=A        5=A        6=A        7=A   
     8=A        9=A       10=A       11=A       12=A       13=A       14=A   
    15=A       16=A       17=A       18=A       19=A       20=A       21=A   
    22=A       23=A       24=A       25=A       26=A       27=A       28=A   
    29=A   
 ...... END OF INITIAL ORBITAL SELECTION ......
 CPU     0: STEP CPU TIME=     0.01 TOTAL CPU TIME=          0.1 (      0.0 MIN)
 TOTAL WALL CLOCK TIME=          0.1 SECONDS, CPU UTILIZATION IS   100.00%

                    ----------------------
                    AO INTEGRAL TECHNOLOGY
                    ----------------------
     S,P,L SHELL ROTATED AXIS INTEGRALS, REPROGRAMMED BY
        KAZUYA ISHIMURA (IMS) AND JOSE SIERRA (SYNSTAR).
     S,P,D,L SHELL ROTATED AXIS INTEGRALS PROGRAMMED BY
        KAZUYA ISHIMURA (INSTITUTE FOR MOLECULAR SCIENCE).
     S,P,D,F,G SHELL TO TOTAL QUARTET ANGULAR MOMENTUM SUM 5,
        ERIC PROGRAM BY GRAHAM FLETCHER (ELORET AND NASA ADVANCED
        SUPERCOMPUTING DIVISION, AMES RESEARCH CENTER).
     S,P,D,F,G,L SHELL GENERAL RYS QUADRATURE PROGRAMMED BY
        MICHEL DUPUIS (PACIFIC NORTHWEST NATIONAL LABORATORY).

          --------------------
          2 ELECTRON INTEGRALS
          --------------------

 DIRECT SCF METHOD SKIPS INTEGRAL STORAGE ON DISK.
 DIRECT TRANSFORMATION SKIPS AO INTEGRAL STORAGE ON DISK.
  ...... END OF TWO-ELECTRON INTEGRALS .....
 STEP CPU TIME =     0.02 TOTAL CPU TIME =          0.1 (      0.0 MIN)
 TOTAL WALL CLOCK TIME=          0.1 SECONDS, CPU UTILIZATION IS   100.00%
 DDI: Creating Array [0] - 900 x 36 = 32400 words.
 DDI: Creating Array [1] - 21 x 288 = 6048 words.
 DDI: Creating Array [2] - 36 x 36 = 1296 words.
 DDI: Creating Array [3] - 465 x 36 = 16740 words.

          -----------------
          MCSCF CALCULATION
          -----------------

 ----- NUCLEAR ENERGY ----- =        10.7273672638

     -------------------------------------------------
     GMC-PT/GMC-QDPT or general MCSCF input parameters
     -------------------------------------------------
 # of frozen core orbs. =         0 ->         0
 # of doubly occ. orbs. =         1
 # of active      orbs. =         7
 # of virtual     orbs. =        21
 # of active electrons  =         7
 # of states in CI      =         3
 Highest state in CI    =         3
 kstate =  1 1 1
 avecoe =  0.333 0.333 0.333
 State symmetry           = A           
 Assigned symmetry number = 1

 <<<Act. MO sym.: 1111111

 <<<Division of 1-ext.:  0
 <<<Division of 2-ext.:  0

 *** Reference space

 Reference type: ORMAS (= Occupation restricted multiple active space)
 # of orbitals          =  7
 # of minimum electrons =  7
 # of maximum electrons =  7
 State symmetry    =    1 (input)
 2*Sz              =    1 (input)
 Spin multiplicity =    2 (input)
 Dimension of reference space =      1225  (from      3432 walks)

 Dimension of reference space =      1225  (from      1225 walks)

 <<<Ionized spaces for Ref-CI:
      0:         1225 /   -1-0:         1960 /  0-1-0:         2891

 EVALUATING EXCHANGE INTEGRALS FOR DIRECT INTEGRAL TRANSFORMATION
 SCHWARZ INEQUALITY OVERHEAD:       465 INTEGRALS, T=        0.00

     --------------------------------------------
     PARTIAL TWO ELECTRON INTEGRAL TRANSFORMATION
     --------------------------------------------

 NUMBER OF CORE MOLECULAR ORBITALS     =    1
 NUMBER OF OCCUPIED MOLECULAR ORBITALS =    8
 TOTAL NUMBER OF MOLECULAR ORBITALS    =   29
 TOTAL NUMBER OF ATOMIC ORBITALS       =   30
 THRESHOLD FOR KEEPING TRANSFORMED 2E- INTEGRALS = 1.000E-09

 -------------------------------     ------------------------------
 DISTRIBUTED DATA TRANSFORMATION     PROGRAM WRITTEN BY G. FLETCHER
 -------------------------------     ------------------------------

 THE DISTRIBUTED MEMORY REQUIRED FOR THIS STEP IS MEMDDI=         1 MWORDS
 CREATING DISTRIBUTED STORAGE FOR [VIR OCC|VIR OCC] INTEGRALS
 CREATING DISTRIBUTED STORAGE FOR [VIR OCC|OCC OCC] INTEGRALS
 CREATING DISTRIBUTED STORAGE FOR [OCC OCC|OCC OCC] INTEGRALS
 CREATING DISTRIBUTED STORAGE FOR [VIR VIR|OCC OCC] INTEGRALS
 FOR    1 PROCESSORS, THE REPLICATED MEMORY NEEDED IS       73700 WORDS.
 SCHWARZ INEQUALITY OVERHEAD:       465 INTEGRALS, T=        0.00

      DIRECT 4-INDEX TRANSFORMATION 
      SCHWARZ INEQUALITY TEST SKIPPED          0 INTEGRAL BLOCKS
 ----- FROZEN CORE ENERGY =       -47.5193685111
 ... END OF INTEGRAL TRANSFORMATION ...
 CPU     0: STEP CPU TIME=     0.22 TOTAL CPU TIME=          0.3 (      0.0 MIN)
 TOTAL WALL CLOCK TIME=          0.3 SECONDS, CPU UTILIZATION IS   100.00%

     --------------------------------     -----------------------------
     MCHF NEWTON-RAPHSON OPTIMIZATION     CODE WRITTEN BY MICHEL DUPUIS
     --------------------------------     -----------------------------
     PARALLEL VERSION WRITTEN BY G. FLETCHER (ELORET)
     NASA ADVANCED SUPERCOMPUTING DIVISION, AMES RESEARCH CENTER

 NUMBER OF INDEPENDENT ORBITAL ROTATION PARAMETERS =   175
 ..... DONE SOLVING NEWTON-RAPHSON EQUATIONS .....
 CPU     0: STEP CPU TIME=     1.00 TOTAL CPU TIME=          1.3 (      0.0 MIN)
 TOTAL WALL CLOCK TIME=          1.3 SECONDS, CPU UTILIZATION IS    99.23%
 ..... DONE WITH NTN-RPH ORBITAL ROTATIONS ..... 
 CPU     0: STEP CPU TIME=     0.00 TOTAL CPU TIME=          1.3 (      0.0 MIN)
 TOTAL WALL CLOCK TIME=          1.3 SECONDS, CPU UTILIZATION IS    99.23%
 MAXIMUM MEMORY USED BY NTN-RPH CODE WAS     57645 WORDS.

 ITER     TOTAL ENERGY      DEL(E)  LAGRANGIAN ASYMMETRY   SQCDF  MICIT   DAMP
   1      -55.569358582 -0.569358582  0.101125   12    5 9.047E-02  1   0.0000
   2      -55.641273806 -0.071915224  0.020191   12    5 4.597E-01  1   0.0000
   3      -55.678817459 -0.037543653  0.014801   11    6 2.232E-01  1   0.0153
   4      -55.696162552 -0.017345093  0.005151   11    6 4.193E-02  1   0.0064
   5      -55.698504830 -0.002342278  0.001333   14    5 1.246E-03  1   0.0000
   6      -55.698602827 -0.000097997  0.000589   14    5 1.321E-04  1   0.0000
   7      -55.698616492 -0.000013665  0.000267   14    5 2.920E-05  1   0.0000
   8      -55.698619434 -0.000002942  0.000127   14    5 7.196E-06  1   0.0000
   9      -55.698620128 -0.000000694  0.000062   14    5 1.868E-06  1   0.0000
  10      -55.698620300 -0.000000172  0.000031   23    5 5.051E-07  1   0.0000
  11      -55.698620345 -0.000000045  0.000016   23    5 1.416E-07  1   0.0000
  12      -55.698620357 -0.000000012  0.000008   23    5 4.100E-08  1   0.0000
  13      -55.698620360 -0.000000003  0.000004   23    5 1.204E-08  1   0.0000
  14      -55.698620361 -0.000000001  0.000002   23    5 3.862E-09  1   0.0000
  15      -55.698620361 -0.000000000  0.000001   23    5 1.180E-09  1   0.0000
  16      -55.698620361 -0.000000000  0.000001   23    5 3.699E-10  1   0.0000

          --------------------
          LAGRANGIAN CONVERGED
          --------------------

 FINAL MCSCF ENERGY IS      -55.6986203614 AFTER  16 ITERATIONS

 -MCCI- BASED ON OPTIMIZED ORBITALS
 ----------------------------------

 PLEASE NOTE: IF THE ACTIVE ORBITALS ARE CANONICALIZED BELOW,
 THE FOLLOWING CI EXPANSION COEFFICIENTS AND THE DENSITY DO NOT
 CORRESPOND TO THE PRINTED ORBITALS.  THE PRINTED EXPANSIONS MATCH
 THE ORBITALS USED DURING THE LAST ITERATION.  IF YOU WISH TO SEE
 CI EXPANSIONS BASED ON THE CANONICAL (OR NATURAL) ORBITALS, YOU
 MUST RUN A CI CALCULATION WITH THAT ORBITAL CHOICE READ IN $VEC.

 Averaged energy =     -55.698620361

 State #    1  Energy =     -55.837550075  S =  0.500

      Det      Coef    Occupancy (Ignoring core)
      ---      ----    --------- --------- -----
        1    0.840655  11110001110000
        2    0.065182  11101001110000
        3   -0.059237  11011001110000
        5   -0.078547  01111001110000
        8   -0.126751  10110101110000
       16    0.064622  11100011110000
       17   -0.156061  11010011110000
       36   -0.352025  11110001101000
       51   -0.061820  11100011101000
       52    0.055946  11010011101000
       71    0.181706  11110001011000
      211    0.054768  11110000110100
      386    0.095830  11110001010010
      393    0.051718  10110101010010
      701    0.094241  11110001100001
      717    0.066267  11010011100001

 State #    2  Energy =     -55.696605488  S =  0.500

      Det      Coef    Occupancy (Ignoring core)
      ---      ----    --------- --------- -----
        1   -0.380210  11110001110000
        8    0.062621  10110101110000
       17    0.057775  11010011110000
       36   -0.669742  11110001101000
       38    0.083061  11011001101000
       40    0.058398  01111001101000
       43    0.083023  10110101101000
       51   -0.055197  11100011101000
       52    0.099190  11010011101000
       71    0.520724  11110001011000
       73   -0.063734  11011001011000
       78   -0.058943  10110101011000
       86    0.050479  11100011011000
       87   -0.077958  11010011011000
      106   -0.059506  11110000111000
      122    0.054544  11010010111000
      141   -0.053506  11110001100100
      386   -0.057175  11110001010010
      456   -0.055571  11110001001010
      701   -0.112972  11110001100001
      736    0.054717  11110001010001
      806   -0.051091  11110001001001

 State #    3  Energy =     -55.561705521  S =  0.500

      Det      Coef    Occupancy (Ignoring core)
      ---      ----    --------- --------- -----
        1    0.066112  11110001110000
       36    0.546782  11110001101000
       39    0.050164  10111001101000
       52   -0.061281  11010011101000
       71    0.762978  11110001011000
       87   -0.086991  11010011011000
      246   -0.084582  11110001001100
      316    0.073631  11110000011100
      456    0.071677  11110001001010
      736    0.055855  11110001010001
      806   -0.128422  11110001001001
      822   -0.059230  11010011001001

 DENSITY MATRIX OVER ACTIVE MO-S

             1           2           3           4           5

    1    1.9694035
    2   -0.0185388   1.6230736
    3   -0.0384029  -0.0157316   1.6082051
    4   -0.0083169  -0.0111996  -0.0194805   1.6396986
    5    0.1206591   0.0535333   0.1139487   0.0526143   0.0492369
    6   -0.0157181  -0.1496177  -0.0281858  -0.0544618  -0.0145606
    7    0.0195772   0.0473834   0.2011962   0.1216833   0.0274488

             6           7

    6    0.0420073
    7   -0.0181524   0.0683750

 FORMING THE "STANDARD FOCK OPERATOR" IN DIRECT AO INTEGRAL MODE...
 ONLY THE    1 CORE AND   21 VIRTUAL ORBITALS WILL BE CANONICALIZED

          ----------------------
          MCSCF NATURAL ORBITALS
          ----------------------

                      1          2          3          4          5
                  -15.9718     1.9802     1.6530     1.6441     1.6371
                     A          A          A          A          A   
    1  N  1  S    1.001003   0.009754  -0.007415   0.002120   0.004108
    2  N  1  S   -0.002060   0.432424  -0.156207   0.073473   0.104630
    3  N  1  S   -0.006480   0.341469  -0.253506   0.102665   0.160830
    4  N  1  X   -0.000136  -0.033074   0.012579  -0.272184   0.412743
    5  N  1  Y   -0.000113  -0.062223   0.140671   0.368202   0.334780
    6  N  1  Z    0.001007   0.082231   0.580786  -0.060514  -0.004233
    7  N  1  X    0.000036  -0.003128   0.031585  -0.109945   0.229268
    8  N  1  Y    0.000084  -0.011441   0.119391   0.166473   0.197833
    9  N  1  Z   -0.000548   0.015050   0.392026  -0.018945   0.042182
   10  N  1 XX    0.000013   0.000885  -0.010258   0.007380   0.007631
   11  N  1 YY    0.000036  -0.000105  -0.012128  -0.004506  -0.007068
   12  N  1 ZZ   -0.000048  -0.000780   0.022386  -0.002875  -0.000563
   13  N  1 XY   -0.000094  -0.003442  -0.001450  -0.005150  -0.017157
   14  N  1 XZ   -0.000090  -0.000835  -0.003770  -0.009508   0.016828
   15  N  1 YZ   -0.000151  -0.003848  -0.002517   0.016160   0.014538
   16  H  2  S   -0.001329   0.151832   0.120704   0.333703  -0.025595
   17  H  2  S    0.000516   0.001023   0.036606   0.061151   0.020957
   18  H  2  X   -0.000593   0.022855   0.013487   0.035000   0.004188
   19  H  2  Y    0.000406  -0.018719  -0.005386  -0.017210   0.022800
   20  H  2  Z    0.000221  -0.002604   0.020226  -0.010012  -0.000342
   21  H  3  S   -0.001759   0.223004   0.134444  -0.176429  -0.316990
   22  H  3  S    0.000304   0.010082   0.034547  -0.038658  -0.108987
   23  H  3  X   -0.000334   0.013023   0.010373  -0.025635   0.003688
   24  H  3  Y   -0.000770   0.029259   0.021785   0.000740  -0.018378
   25  H  3  Z    0.000600  -0.020798   0.016563   0.009833   0.023615
   26  H  4  S   -0.001178   0.149154   0.058373  -0.263064   0.220284
   27  H  4  S    0.000380   0.000143   0.026399  -0.039086   0.085553
   28  H  4  X    0.000520  -0.024020  -0.004857   0.034671  -0.007956
   29  H  4  Y   -0.000317   0.012518   0.005858  -0.008742   0.027083
   30  H  4  Z    0.000242  -0.003993   0.022175   0.004003  -0.005459

                      6          7          8
                    0.0388     0.0248     0.0219
                     A          A          A   
    1  N  1  S   -0.136192  -0.116002  -0.068950
    2  N  1  S   -0.467560  -0.436311  -0.226473
    3  N  1  S    0.026005  -0.215479  -0.039040
    4  N  1  X   -0.352615   0.040058   0.785097
    5  N  1  Y   -0.412871   0.558003  -0.380986
    6  N  1  Z   -0.177004  -0.596258  -0.191690
    7  N  1  X    0.056607   0.001286   0.066610
    8  N  1  Y    0.068162   0.102613  -0.018784
    9  N  1  Z    0.084920   0.045405   0.051021
   10  N  1 XX    0.034946  -0.015182   0.049166
   11  N  1 YY   -0.027246   0.017407  -0.042263
   12  N  1 ZZ   -0.007699  -0.002225  -0.006904
   13  N  1 XY   -0.080286  -0.012194   0.018081
   14  N  1 XZ    0.001139  -0.009178  -0.052228
   15  N  1 YZ   -0.011545  -0.054597   0.007609
   16  H  2  S    0.453478   0.060428   0.632453
   17  H  2  S    0.108992  -0.022627   0.154187
   18  H  2  X    0.049384   0.009343   0.047349
   19  H  2  Y   -0.006181  -0.012406  -0.044891
   20  H  2  Z   -0.000608   0.011975   0.031927
   21  H  3  S   -0.344507   0.732529   0.154032
   22  H  3  S   -0.163386   0.165737   0.046939
   23  H  3  X    0.010516   0.043640  -0.038480
   24  H  3  Y   -0.002603   0.033229   0.038241
   25  H  3  Z    0.025377  -0.003099  -0.000927
   26  H  4  S    0.570431   0.288320  -0.394146
   27  H  4  S    0.170723   0.032940  -0.131128
   28  H  4  X   -0.036038  -0.040733   0.035353
   29  H  4  Y    0.050464  -0.001063  -0.008865
   30  H  4  Z    0.003413   0.032234  -0.013743

          ------------------------
          MCSCF OPTIMIZED ORBITALS
          ------------------------

                      1          2          3          4          5
                  -15.9718     0.0000     0.0000     0.0000     0.0000
                     A          A          A          A          A   
    1  N  1  S    1.001003  -0.002400  -0.005684  -0.016776  -0.017407
    2  N  1  S   -0.002060   0.394640  -0.002699   0.005776  -0.201979
    3  N  1  S   -0.006480   0.344290   0.059934   0.134163  -0.263329
    4  N  1  X   -0.000136  -0.016378   0.406889   0.056917   0.006847
    5  N  1  Y   -0.000113  -0.024263  -0.006948   0.418106   0.035092
    6  N  1  Z    0.001007   0.050302  -0.010325  -0.019423   0.577676
    7  N  1  X    0.000036   0.014732   0.241123   0.080814   0.043416
    8  N  1  Y    0.000084   0.018200   0.037823   0.268996   0.096074
    9  N  1  Z   -0.000548   0.028798   0.021290   0.062088   0.395039
   10  N  1 XX    0.000013   0.003321   0.001190   0.016889  -0.007571
   11  N  1 YY    0.000036  -0.002103  -0.000992  -0.015231  -0.014259
   12  N  1 ZZ   -0.000048  -0.001218  -0.000198  -0.001658   0.021829
   13  N  1 XY   -0.000094  -0.009178  -0.017035  -0.024683  -0.006930
   14  N  1 XZ   -0.000090  -0.000892   0.022403   0.001393  -0.003027
   15  N  1 YZ   -0.000151  -0.004920  -0.001172   0.021431  -0.004520
   16  H  2  S   -0.001329   0.194714  -0.253789   0.320811   0.120264
   17  H  2  S    0.000516   0.011539  -0.027826   0.085113   0.039122
   18  H  2  X   -0.000593   0.027824  -0.020449   0.036854   0.013163
   19  H  2  Y    0.000406  -0.018901   0.031583   0.000290  -0.004230
   20  H  2  Z    0.000221  -0.001857   0.003046  -0.004323   0.021079
   21  H  3  S   -0.001759   0.208108  -0.172310  -0.397773   0.115047
   22  H  3  S    0.000304   0.000106  -0.074158  -0.120614   0.023957
   23  H  3  X   -0.000334   0.014311   0.021902  -0.018075   0.012824
   24  H  3  Y   -0.000770   0.029686  -0.019184  -0.010956   0.020924
   25  H  3  Z    0.000600  -0.017227   0.012950   0.029318   0.016990
   26  H  4  S   -0.001178   0.192008   0.400685  -0.005920   0.122897
   27  H  4  S    0.000380   0.013817   0.110179   0.045309   0.041820
   28  H  4  X    0.000520  -0.026382  -0.032864   0.019681  -0.010557
   29  H  4  Y   -0.000317   0.016630   0.029770   0.017102   0.010358
   30  H  4  Z    0.000242  -0.002669  -0.006698   0.000927   0.021102

                      6          7          8          9         10
                    0.0000     0.0000     0.0000     0.1617     0.2131
                     A          A          A          A          A   
    1  N  1  S    0.185208  -0.005673   0.044423  -0.129749   0.016811
    2  N  1  S    0.689174  -0.009733   0.127961  -0.201315   0.017999
    3  N  1  S    0.187976  -0.051302  -0.135899   1.246085  -0.202000
    4  N  1  X   -0.009895   0.904857   0.005862   0.018215  -0.165865
    5  N  1  Y   -0.065410  -0.128805   0.837102   0.053231   0.095264
    6  N  1  Z    0.638218  -0.092127  -0.137188  -0.205392   0.030967
    7  N  1  X   -0.034006   0.060321  -0.041638  -0.061797   0.703538
    8  N  1  Y   -0.088792  -0.031808   0.067213  -0.233357  -0.484398
    9  N  1  Z   -0.077063   0.026301  -0.010077   0.435212  -0.031584
   10  N  1 XX   -0.019917   0.028084  -0.050471   0.023604  -0.036146
   11  N  1 YY    0.011380  -0.025991   0.042463   0.013319   0.020452
   12  N  1 ZZ    0.008537  -0.002093   0.008008  -0.036923   0.015695
   13  N  1 XY    0.048318   0.049646   0.037752  -0.055335   0.020472
   14  N  1 XZ    0.020667  -0.045666   0.013247  -0.024872   0.066049
   15  N  1 YZ    0.048388   0.010386  -0.026665  -0.075452  -0.049154
   16  H  2  S   -0.442271   0.353528  -0.467585   0.329600  -0.538850
   17  H  2  S   -0.078048   0.089029  -0.134107  -0.663740   1.762372
   18  H  2  X   -0.043949   0.020050  -0.040713  -0.047567   0.093492
   19  H  2  Y    0.024604  -0.035253   0.013489   0.049362  -0.039878
   20  H  2  Z   -0.016797   0.030243  -0.002609  -0.003399  -0.062334
   21  H  3  S   -0.428250   0.299346   0.600800   0.269882   0.109018
   22  H  3  S   -0.056881   0.112690   0.185686  -0.837863  -0.320532
   23  H  3  X   -0.029430  -0.035582   0.033702   0.010511   0.016661
   24  H  3  Y   -0.033087   0.035569   0.008675  -0.095252  -0.013392
   25  H  3  Z   -0.009987  -0.010151  -0.014151   0.079535   0.012661
   26  H  4  S   -0.424973  -0.558113  -0.051046   0.436641   0.346437
   27  H  4  S   -0.081690  -0.180806  -0.038390  -0.900413  -1.094947
   28  H  4  X    0.041866   0.043351  -0.012914   0.027571   0.039292
   29  H  4  Y   -0.022511  -0.027097  -0.028699  -0.050753  -0.049097
   30  H  4  Z   -0.023173  -0.012734   0.024408   0.034663   0.058526

                     11         12         13         14         15
                    0.2493     0.5334     0.6244     0.7176     0.8123
                     A          A          A          A          A   
    1  N  1  S    0.027673  -0.090438   0.044681  -0.137985   0.154291
    2  N  1  S    0.066436  -0.158743   0.227086  -0.351907   0.359180
    3  N  1  S   -0.141160   0.324336   0.334507   0.328693  -0.536593
    4  N  1  X   -0.037968  -0.359767   0.031527  -0.371881  -0.275718
    5  N  1  Y    0.013540  -0.578336   0.213853   0.163693   0.122673
    6  N  1  Z    0.030080  -0.413374  -0.564363   0.204892  -0.138011
    7  N  1  X    0.348693   0.527650  -0.113826   1.370089   0.897322
    8  N  1  Y    0.202422   0.962147  -0.966297  -0.581696  -0.572093
    9  N  1  Z   -0.175361   0.372270   1.101594  -0.293278   0.210422
   10  N  1 XX    0.053307  -0.003288   0.015330   0.055043  -0.153646
   11  N  1 YY   -0.032740  -0.018364  -0.045346  -0.030973   0.165058
   12  N  1 ZZ   -0.020567   0.021651   0.030016  -0.024070  -0.011412
   13  N  1 XY   -0.072210   0.000696   0.052639   0.027875  -0.079980
   14  N  1 XZ    0.045395   0.006222  -0.005696  -0.124218  -0.045328
   15  N  1 YZ    0.060144   0.009552   0.039483   0.023990   0.066699
   16  H  2  S    0.254708  -0.273681  -0.251399   0.545879   0.481759
   17  H  2  S   -0.722410  -0.299311   0.467882   0.228451   0.413407
   18  H  2  X    0.003773   0.002662   0.000626   0.099314   0.248205
   19  H  2  Y   -0.014470   0.015751  -0.122331  -0.203966   0.247167
   20  H  2  Z   -0.004365   0.043571   0.102109   0.182017   0.044092
   21  H  3  S   -0.653337   0.158508  -0.725861   0.237274  -0.114813
   22  H  3  S    2.208476   0.561167  -0.578052   0.055655   0.050801
   23  H  3  X    0.043826   0.010024  -0.189170  -0.319779   0.266782
   24  H  3  Y    0.072653   0.085862  -0.009388   0.094758  -0.193139
   25  H  3  Z   -0.061936  -0.029936   0.082087   0.002719  -0.094461
   26  H  4  S    0.483181  -0.227224  -0.328191  -0.328934  -0.534292
   27  H  4  S   -1.554296  -0.338192   0.239949  -0.603682  -0.101355
   28  H  4  X    0.039967   0.021587   0.160779   0.278498  -0.176228
   29  H  4  Y    0.000630   0.041450   0.049886  -0.005065  -0.325481
   30  H  4  Z   -0.006421   0.061319  -0.013006  -0.213703  -0.079335

                     16         17         18         19         20
                    1.0224     1.0473     1.1146     1.2992     1.3449
                     A          A          A          A          A   
    1  N  1  S   -0.612204  -0.305486  -0.110202   0.079693  -0.289184
    2  N  1  S   -1.300682  -0.647196  -0.235270   0.175301  -0.625213
    3  N  1  S    2.450897   1.318507   0.480447  -0.196084   1.023062
    4  N  1  X    0.001918   0.178622  -0.261931   0.010800  -0.005928
    5  N  1  Y    0.114774  -0.089726   0.149437  -0.044442  -0.035547
    6  N  1  Z    0.128514   0.023859   0.021812   0.036438  -0.076459
    7  N  1  X   -0.199328  -0.730079   0.756001  -0.231384  -0.155570
    8  N  1  Y   -0.625940   0.209058  -0.653614  -0.433166  -0.059228
    9  N  1  Z    0.164942   0.485927   0.288501  -0.028492   0.611129
   10  N  1 XX   -0.139911  -0.029989   0.120851  -0.080426   0.043227
   11  N  1 YY   -0.058811   0.205572  -0.016326  -0.051157   0.013152
   12  N  1 ZZ    0.198722  -0.175583  -0.104525   0.131583  -0.056379
   13  N  1 XY   -0.015880   0.071261   0.113300  -0.128483  -0.068291
   14  N  1 XZ    0.052189   0.048373   0.182361   0.044101   0.030690
   15  N  1 YZ    0.090918   0.131496   0.004345   0.045408   0.023566
   16  H  2  S   -0.243354  -0.508512   0.396324  -0.005027  -0.348007
   17  H  2  S   -0.264732  -0.336306   0.148599   0.103141  -0.021952
   18  H  2  X   -0.017837   0.095592  -0.214909   0.434121  -0.099498
   19  H  2  Y    0.117718   0.315492   0.012914   0.569754  -0.207281
   20  H  2  Z    0.242914   0.070011  -0.468742  -0.181781  -0.566230
   21  H  3  S   -0.575991  -0.254861  -0.154162   0.039260  -0.307042
   22  H  3  S   -0.413533  -0.206275  -0.102654  -0.123725  -0.252338
   23  H  3  X    0.168454  -0.265702   0.027397  -0.086725   0.046756
   24  H  3  Y   -0.005485  -0.390972  -0.338478   0.034804  -0.023179
   25  H  3  Z    0.284950  -0.425270  -0.168115   0.444080   0.275756
   26  H  4  S   -0.405292   0.191842  -0.579659  -0.029012  -0.280969
   27  H  4  S   -0.223874  -0.010516  -0.184697   0.106246   0.091297
   28  H  4  X   -0.019444   0.167010   0.061115   0.234635  -0.200229
   29  H  4  Y   -0.086630  -0.078337   0.391169   0.480266  -0.229335
   30  H  4  Z    0.308042  -0.214005   0.299572  -0.163427  -0.650678

                     21         22         23         24         25
                    1.5925     1.7232     1.8293     1.9614     2.1070
                     A          A          A          A          A   
    1  N  1  S    0.011820  -0.098113  -0.148215  -0.148560  -0.013424
    2  N  1  S    0.123986  -0.257154  -0.351046  -0.329746  -0.020158
    3  N  1  S    0.692382  -0.186151   0.043501   0.121266   0.081372
    4  N  1  X   -0.037859   0.219017  -0.148876   0.326801   0.004906
    5  N  1  Y   -0.060825   0.012544   0.452298   0.045121   0.009377
    6  N  1  Z    0.071008  -0.093220  -0.207538  -0.144345  -0.008697
    7  N  1  X    0.440402   0.702922  -0.185313  -0.029536   0.151217
    8  N  1  Y   -0.219256  -0.531531  -0.038097  -0.159332   0.119936
    9  N  1  Z    0.251973  -0.014857   0.068122   0.109439   0.274050
   10  N  1 XX   -0.108302   0.042696  -0.040632  -0.152817  -0.526682
   11  N  1 YY    0.026898   0.067029   0.100877   0.176217  -0.296952
   12  N  1 ZZ    0.081404  -0.109725  -0.060245  -0.023400   0.823634
   13  N  1 XY    0.106915  -0.048863   0.011808  -0.011220  -0.557570
   14  N  1 XZ    0.007427  -0.197597   0.037931  -0.205018  -0.088067
   15  N  1 YZ    0.075820  -0.016518  -0.258262  -0.074748  -0.163372
   16  H  2  S    0.199496   0.255915  -0.034764   0.000971  -0.022345
   17  H  2  S   -0.252006   0.434728  -0.364655   0.091504  -0.023558
   18  H  2  X   -0.495841   0.635788  -0.296547   0.276599  -0.195621
   19  H  2  Y    0.408044  -0.106863   0.479574  -0.287816  -0.142005
   20  H  2  Z   -0.368720  -0.521614   0.096937  -0.219139  -0.202129
   21  H  3  S   -0.161220  -0.103431  -0.167466  -0.047842  -0.022769
   22  H  3  S    0.230019  -0.021302   0.389026   0.337250   0.017886
   23  H  3  X   -0.132590  -0.442908  -0.004148   0.817501  -0.340799
   24  H  3  Y    0.185497   0.403624   0.750625   0.207952  -0.278594
   25  H  3  Z    0.158324  -0.163795  -0.419976  -0.306721  -0.530143
   26  H  4  S   -0.096327  -0.242319  -0.037232  -0.140680  -0.067637
   27  H  4  S   -0.559002  -0.145385   0.138289  -0.360034  -0.010732
   28  H  4  X    0.575817  -0.183635  -0.307009   0.799210   0.037374
   29  H  4  Y   -0.591548  -0.243681   0.295404   0.193739   0.028447
   30  H  4  Z    0.134444   0.565398  -0.293790  -0.082118  -0.063177

                     26         27         28         29
                    2.1786     2.4472     2.6332     3.0877
                     A          A          A          A   
    1  N  1  S    0.062795   0.021942  -0.233601   0.154651
    2  N  1  S    0.128067   0.021535  -0.299645   0.220926
    3  N  1  S   -0.158127  -0.388666   2.402154  -0.977488
    4  N  1  X   -0.067430   0.238937  -0.122202  -0.029264
    5  N  1  Y   -0.024219  -0.117679  -0.280590  -0.257233
    6  N  1  Z    0.045239  -0.036571   0.300262   0.034994
    7  N  1  X    0.036081   1.130401  -0.267920   0.013487
    8  N  1  Y    0.059904  -0.533680  -0.893674  -0.361435
    9  N  1  Z   -0.187629  -0.150358   0.809851  -0.002273
   10  N  1 XX   -0.649881  -0.129988   0.088847  -0.891756
   11  N  1 YY    0.958885   0.115603   0.275152   0.289517
   12  N  1 ZZ   -0.309004   0.014384  -0.363999   0.602239
   13  N  1 XY   -0.317346  -0.069971  -0.200969   1.223084
   14  N  1 XZ    0.021547   1.078762  -0.371048  -0.156713
   15  N  1 YZ    0.243117  -0.416195  -1.090235  -0.390709
   16  H  2  S    0.033230   0.806322  -0.474374   0.866216
   17  H  2  S   -0.033820   0.380207  -0.041325   0.271611
   18  H  2  X   -0.352245   0.586845  -0.196578   0.721021
   19  H  2  Y   -0.328005  -0.419443   0.262378  -0.420056
   20  H  2  Z    0.046647   0.115608   0.130341  -0.342465
   21  H  3  S    0.062673   0.169736  -1.431246  -0.658691
   22  H  3  S   -0.050990   0.092058  -0.575668  -0.162024
   23  H  3  X   -0.286786  -0.221304  -0.313404  -0.262523
   24  H  3  Y    0.179638   0.250398  -0.811889  -0.494295
   25  H  3  Z    0.311512  -0.039510   0.646050   0.434493
   26  H  4  S    0.085202  -0.578125  -0.611938   0.641930
   27  H  4  S    0.104525  -0.342477  -0.087766   0.195455
   28  H  4  X   -0.059844   0.445122   0.359677  -0.628668
   29  H  4  Y    0.315698  -0.403509  -0.177624   0.399536
   30  H  4  Z    0.151261   0.006123   0.167786  -0.313897
 .....DONE WITH MCSCF ITERATIONS.....
 CPU     0: STEP CPU TIME=    12.13 TOTAL CPU TIME=         13.4 (      0.2 MIN)
 TOTAL WALL CLOCK TIME=         13.4 SECONDS, CPU UTILIZATION IS    99.93%

     ----------------------------------------------------------------
     PROPERTY VALUES FOR THE MCSCF SELF-CONSISTENT FIELD WAVEFUNCTION
     ----------------------------------------------------------------

          -----------------
          ENERGY COMPONENTS
          -----------------

         WAVEFUNCTION NORMALIZATION =       1.0000000000

                ONE ELECTRON ENERGY =     -93.1740402995
                TWO ELECTRON ENERGY =      26.7480526743
           NUCLEAR REPULSION ENERGY =      10.7273672638
                                      ------------------
                       TOTAL ENERGY =     -55.6986203614

 ELECTRON-ELECTRON POTENTIAL ENERGY =      26.7480526743
  NUCLEUS-ELECTRON POTENTIAL ENERGY =    -148.7419753564
   NUCLEUS-NUCLEUS POTENTIAL ENERGY =      10.7273672638
                                      ------------------
             TOTAL POTENTIAL ENERGY =    -111.2665554183
               TOTAL KINETIC ENERGY =      55.5679350569
                 VIRIAL RATIO (V/T) =       2.0023518114

          ---------------------------------------
          MULLIKEN AND LOWDIN POPULATION ANALYSES
          ---------------------------------------

     ATOMIC MULLIKEN POPULATION IN EACH MOLECULAR ORBITAL

                      1          2          3          4          5

                  2.000000   1.980248   1.652991   1.644142   1.637069

    1             2.000462   1.381930   1.527730   0.909056   1.177455
    2            -0.000112   0.148522   0.046274   0.390055   0.010077
    3            -0.000272   0.304769   0.064226   0.102201   0.275722
    4            -0.000079   0.145027   0.014761   0.242830   0.173814

                      6          7          8

                  0.038787   0.024835   0.021929

    1             0.014994   0.013394   0.012218
    2             0.007831  -0.000009   0.006711
    3             0.003159   0.009580   0.000485
    4             0.012803   0.001870   0.002515
 WARNING! MCSCF POPULATIONS SHOWN ABOVE ARE FOR THE NATURAL ORBITALS.
 IGNORE THE ABOVE DATA FOR MCSCF FUNCTIONS WHICH ARE NOT OF -FORS- TYPE.
 THE FOLLOWING POPULATIONS ARE CORRECT FOR ANY MCSCF WAVEFUNCTION.

               ----- POPULATIONS IN EACH AO -----
                             MULLIKEN      LOWDIN
              1  N  1  S      2.00212     1.90688
              2  N  1  S      0.81678     0.58109
              3  N  1  S      0.73869     0.43194
              4  N  1  X      0.65784     0.58837
              5  N  1  Y      0.70474     0.64387
              6  N  1  Z      0.85058     0.80279
              7  N  1  X      0.35064     0.44146
              8  N  1  Y      0.36796     0.45422
              9  N  1  Z      0.53080     0.57330
             10  N  1 XX      0.00081     0.17896
             11  N  1 YY      0.00189     0.16259
             12  N  1 ZZ      0.00485     0.14717
             13  N  1 XY      0.00384     0.00957
             14  N  1 XZ      0.00569     0.00638
             15  N  1 YZ      0.00000     0.01214
             16  H  2  S      0.51069     0.40392
             17  H  2  S      0.04693     0.15599
             18  H  2  X      0.02577     0.04439
             19  H  2  Y      0.01647     0.02892
             20  H  2  Z      0.00947     0.02326
             21  H  3  S      0.63614     0.49294
             22  H  3  S      0.06208     0.15506
             23  H  3  X      0.01616     0.03432
             24  H  3  Y      0.02405     0.04368
             25  H  3  Z      0.02144     0.04484
             26  H  4  S      0.48650     0.38194
             27  H  4  S      0.05811     0.15741
             28  H  4  X      0.02498     0.04267
             29  H  4  Y      0.01437     0.02767
             30  H  4  Z      0.00958     0.02228

          ----- MULLIKEN ATOMIC OVERLAP POPULATIONS -----
          (OFF-DIAGONAL ELEMENTS NEED TO BE MULTIPLIED BY 2)

             1           2           3           4

    1    6.2561664
    2    0.2722757   0.3480354
    3    0.2617357  -0.0056522   0.5123133
    4    0.2470624  -0.0053109  -0.0085258   0.3603150

          TOTAL MULLIKEN AND LOWDIN ATOMIC POPULATIONS
       ATOM         MULL.POP.    CHARGE          LOW.POP.     CHARGE
    1 N             7.037240   -0.037240         6.940723    0.059277
    2 H             0.609348    0.390652         0.656481    0.343519
    3 H             0.759871    0.240129         0.770828    0.229172
    4 H             0.593541    0.406459         0.631968    0.368032

          MULLIKEN SPHERICAL HARMONIC POPULATIONS
       ATOM           S       P       D      F      G      H      I    TOTAL
    1 N             3.56    3.46    0.02   0.00   0.00   0.00   0.00    7.04
    2 H             0.56    0.05    0.00   0.00   0.00   0.00   0.00    0.61
    3 H             0.70    0.06    0.00   0.00   0.00   0.00   0.00    0.76
    4 H             0.54    0.05    0.00   0.00   0.00   0.00   0.00    0.59

          ---------------------
          ELECTROSTATIC MOMENTS
          ---------------------

 POINT   1           X           Y           Z (BOHR)    CHARGE
                -0.000002   -0.000006   -0.177185        1.00 (A.U.)
         DX          DY          DZ         /D/  (DEBYE)
    -0.385068   -1.060474    2.095367    2.379799
 ...... END OF PROPERTY EVALUATION ......
 CPU     0: STEP CPU TIME=     0.00 TOTAL CPU TIME=         13.4 (      0.2 MIN)
 TOTAL WALL CLOCK TIME=         13.4 SECONDS, CPU UTILIZATION IS    99.93%

     -------------------------------------------------
     GMC-PT/GMC-QDPT or general MCSCF input parameters
     -------------------------------------------------
 # of frozen core orbs. =         0 ->         0
 # of doubly occ. orbs. =         1
 # of active      orbs. =         7
 # of virtual     orbs. =        21
 # of active electrons  =         7
 # of states in CI      =         3
 Highest state in CI    =         3
 kstate =  1 1 1
 avecoe =  0.333 0.333 0.333
 State symmetry           = A           
 Assigned symmetry number = 1

 <<<Act. MO sym.: 1111111

 <<<Division of 1-ext.:  0
 <<<Division of 2-ext.:  0

     ------------------------
     Orbital canonicalization
     ------------------------

 MOs are canonicalized for core, virtual, and invariant-active orbital spaces.
 This is a part of the GMC-QDPT calculation.
 SCHWARZ INEQUALITY OVERHEAD:       465 INTEGRALS, T=        0.01
 DIRECT TRANSFORMATION SKIPS AO INTEGRAL STORAGE ON DISK.

 Averaged energy =     -55.698620361

 State #    1  Energy =     -55.837550075  S =  0.500
 State #    2  Energy =     -55.696605488  S =  0.500
 State #    3  Energy =     -55.561705521  S =  0.500

 Orbital energies for filled orbital space
  -15.971754
 Orbital energies for active orbital space
   -1.471836  -0.935046  -0.813263  -0.700919   0.075251
    0.337338   0.294694
 Orbital energies for external orbital space
    0.161729   0.213130   0.249270   0.533402   0.624389
    0.717560   0.812326   1.022406   1.047333   1.114595
    1.299216   1.344911   1.592501   1.723217   1.829250
    1.961394   2.106959   2.178552   2.447243   2.633230
    3.087731

 Zero values mean non-canonical orbitals.
 ... done with orbital canonicalization ...
 CPU     0: STEP CPU TIME=     0.71 TOTAL CPU TIME=         14.1 (      0.2 MIN)
 TOTAL WALL CLOCK TIME=         14.1 SECONDS, CPU UTILIZATION IS    99.93%

     --------------------------------------------
     PARTIAL TWO ELECTRON INTEGRAL TRANSFORMATION
     --------------------------------------------

 NUMBER OF CORE MOLECULAR ORBITALS     =    0
 NUMBER OF OCCUPIED MOLECULAR ORBITALS =    8
 TOTAL NUMBER OF MOLECULAR ORBITALS    =   29
 TOTAL NUMBER OF ATOMIC ORBITALS       =   30
 THRESHOLD FOR KEEPING TRANSFORMED 2E- INTEGRALS = 1.000E-09
 AO INTEGRALS WILL BE CALCULATED IN DIRECT MODE...
 DIRECT TRANSFORMATION SKIPS AO INTEGRAL STORAGE ON DISK.
 SCHWARZ INEQUALITY OVERHEAD:       465 INTEGRALS, T=        0.00

 PLAN A: REQUIREMENTS FOR FULLY IN-MEMORY TRANSFORMATION:
 # OF WORDS AVAILABLE =            100000000
 # OF WORDS NEEDED    =               221798

 PARALLEL ONLY WORKS WITH THE SEGMENTED ALGORITHM.
 ADJUSTING MEMORY TO USE SEGMENTED ALGORITHM.


 PLAN B: REQUIREMENTS FOR THE SEGMENTED TRANSFORMATION:
       MINIMUM=         124148 WORDS FOR 1 MOLECULAR ORBITAL PER PASS
       MAXIMUM=         221798 WORDS FOR ALL MOLECULAR ORBITALS IN 1 PASS
              (          13950 EXTRA WORDS INCLUDES 1 EXTRA ORBITAL/PASS)
 THIS RUN USES=         221798 WORDS,
 DISTRIBUTING   1 PASSES EACH CONTAINING     8 ORBITALS OVER   1 PROCESSORS.

 CHOOSING SEGMENTED PARTIAL TRANSFORMATION...
 DIRECT TRANSFORMATION SKIPS AO INTEGRAL STORAGE ON DISK.
 PASS #   1 TOOK        0.04 SECONDS.
 TOTAL NUMBER OF TRANSFORMED 2E- INTEGRALS KEPT =        29226
 ... END OF INTEGRAL TRANSFORMATION ...
 CPU     0: STEP CPU TIME=     0.04 TOTAL CPU TIME=         14.2 (      0.2 MIN)
 TOTAL WALL CLOCK TIME=         14.2 SECONDS, CPU UTILIZATION IS    99.93%

     --------     ------------------------------------------
     GMC-QDPT     Program written by H.Nakano (Kyushu Univ.)
     --------     ------------------------------------------

 *** Reference space

 Reference type: ORMAS (= Occupation restricted multiple active space)
 # of orbitals          =  7
 # of minimum electrons =  7
 # of maximum electrons =  7
 State symmetry    =    1 (input)
 2*Sz              =    1 (input)
 Spin multiplicity =    2 (input)
 Dimension of reference space =      1225  (from      3432 walks)

 Dimension of reference space =      1225  (from      1225 walks)

 <<<Ionized spaces for Ref-CI:
      0:         1225 /   -1-0:         1960 /  0-1-0:         2891

 ***                    ***
 *** Reference space CI ***
 ***                    ***

 Converged after   36 iterations

 Reference wavefunctions:

 State #    1  Energy =     -55.837550075  S =  0.500

      Det      Coef    Occupancy (Ignoring core)
      ---      ----    --------- --------- -----
        1    0.970356  11110001110000
       36    0.083186  11110001101000
      179    0.055639  10111001010100
      717    0.051501  11010011100001

 State #    2  Energy =     -55.696605488  S =  0.500

      Det      Coef    Occupancy (Ignoring core)
      ---      ----    --------- --------- -----
        1   -0.087657  11110001110000
       36    0.972590  11110001101000
      249    0.059516  10111001001100

 State #    3  Energy =     -55.561705521  S =  0.500

      Det      Coef    Occupancy (Ignoring core)
      ---      ----    --------- --------- -----
       71    0.973451  11110001011000
      109    0.050161  10111000111000
      177   -0.051860  11101001010100
      822   -0.053443  11010011001001

 Davidson method: CPU/Wall time =           0.47 /           0.48 sec.

 Oscillator strength (invalid if E(1)/=E(GS)):
 -----------------------------------------
   State                        f
 -----------------------------------------
     2     F(REF-CI)=        0.0040283889
     3     F(REF-CI)=        0.0047772757
 -----------------------------------------

 Dipole moment matrix elements, x, y, z, in A.U.

 Dimension of ionized spaces for PT:
 (N-2) space:         1715 /  (N-1) space:         2842 /  N space:         2891
 (N+1) space:         2842 /  (N+2) space:         1715

 <<<Ionized spaces for internal:
         0:         1225 /      -1-0:         1960 /     0-1-0:         2891
  -1-0-1-0:         2842 / 0-1-0-1-0:         3381

 Diagonal elements of averaged one-particle density matrix:
       2       3       4       5       6       7       8
  0.9926  0.9843  0.9836  0.9894  0.0229  0.0130  0.0142
  0.9874  0.6594  0.6570  0.6604  0.0157  0.0093  0.0108

 Orbital energies:
 -------- Doubly-occupied orbitals (highest several orbs.) -------
             1
 -1.597175D+01
 -------- Active orbitals ----------------------------------------
             2            3            4            5            6
 -1.471836D+00-9.350463D-01-8.132627D-01-7.009194D-01 7.525085D-02
             7            8
  3.373378D-01 2.946937D-01
 -------- External orbitals (lowest several orbs.) ---------------
             9           10           11           12           13
  1.617292D-01 2.131304D-01 2.492700D-01 5.334023D-01 6.243886D-01
            14           15           16           17           18
  7.175601D-01 8.123258D-01 1.022406D+00 1.047333D+00 1.114595D+00

 *** Quasi-degeneracy checking

 === Det (|Ci| > 1.0D-01 and dE < 5.0D-03)

 # of small denominators (single excitations)
 State       dEmin  dE < 5.0D-03  dE < 5.0D-04  dE < 5.0D-05  dE < 5.0D-06
 ----- ----------- ------------- ------------- ------------- -------------
     1    5.00D-03             0             0             0             0
     2    5.00D-03             0             0             0             0
     3    5.00D-03             0             0             0             0

 # of small denominators (double excitations)
 State       dEmin  dE < 5.0D-03  dE < 5.0D-04  dE < 5.0D-05  dE < 5.0D-06
 ----- ----------- ------------- ------------- ------------- -------------
     1    5.00D-03             0             0             0             0
     2    5.00D-03             0             0             0             0
     3    5.00D-03             0             0             0             0

 *** Zeroth-Order Setup (Granovsky's zeroth-order vectors)
 Zeroth-order effective Hamiltonian
  (= Sum_i e(i)*<I|a+(i)a(i)|J> ):
                   1            2            3
     1 -7.029908D+00
     2  1.736353D-02-6.933739D+00
     3  2.769049D-04 6.214252D-03-6.808155D+00

 Zeroth-order vectors:
 State #    1
       MC st            1           2           3
       Coeff    9.850D-01  -1.726D-01   3.558D-03
 State #    2
       MC st            2           1           3
       Coeff   -9.837D-01  -1.726D-01   5.015D-02
 State #    3
       MC st            3           2           1
       Coeff    9.987D-01   5.001D-02   5.156D-03

 *** GMC-QDPT computation

 (Integral reading:  CPU/Wall time =           0.00 /           0.00 sec.)

 One-external:
   0 -ionized terms: CPU/Wall time =           0.03 /           0.03 sec.
 (-1)-ionized terms: CPU/Wall time =           0.08 /           0.09 sec.
 (+1)-ionized terms: CPU/Wall time =           0.03 /           0.02 sec.
 (+1)-ionized terms: CPU/Wall time =           0.00 /           0.01 sec.
 (+2)-ionized terms: CPU/Wall time =           0.00 /           0.00 sec.

 Internal:
 # of macro loops for internal contribution =         1 (input)
 Loop:    1
 Dimension of internal CISD space     =         0  (after screening)
 Space construction: CPU/Wall time =           0.02 /           0.02 sec.
 Internal terms:     CPU/Wall time =           0.00 /           0.00 sec.

 Two-external:
   0 -ionized terms: CPU/Wall time =           0.06 /           0.06 sec.
 (-1)-ionized terms: CPU/Wall time =           1.00 /           1.00 sec.
 (-2)-ionized terms: CPU/Wall time =           0.17 /           0.16 sec.

 Total time:         CPU/Wall time =           1.39 /           1.39 sec.

 ***                  ***
 *** GMC-QDPT Results ***
 ***                  ***

 Diagonal elements of effective Hamiltonian:
 Heff(  1) =   -55.93314009
 Heff(  2) =   -55.80786652
 Heff(  3) =   -55.67281163

 Off-diagonal elements of effective Hamiltonian:
                   1            2
     2  2.126179D-02
     3  2.289221D-04 6.583276D-03

 ******** GMC-QDPT energies ********
 ----------------------------------------------------------------------------
   State                        1st order                           2nd order
 ----------------------------------------------------------------------------
     1     E(REF-CI)=      -55.8375500754   E(GMC-QDPT2)=      -55.9366530578
     2     E(REF-CI)=      -55.6966054880   E(GMC-QDPT2)=      -55.8046798779
     3     E(REF-CI)=      -55.5617055208   E(GMC-QDPT2)=      -55.6724853073
 ----------------------------------------------------------------------------

 Excitation energies (invalid if E(1)/=E(GS)):
 ----------------------------------------------------------------------------
   State                        1st order                           2nd order
 ----------------------------------------------------------------------------

     TZ Sorted GMC-PT ENERGIES:
         1      -55.9366530578
         2      -55.8046798779
         3      -55.6724853073
     2     E(REF-CI)=        3.8352995 eV   E(GMC-QDPT2)=        3.5911750 eV
     3     E(REF-CI)=        7.5061165 eV   E(GMC-QDPT2)=        7.1883743 eV
 ----------------------------------------------------------------------------

 Main characters of perturbed GMC-QDPT states:

 State #    1  Energy =     -55.936653058  S =  0.500

      Det      Coef    Occupancy (Ignoring core)
      ---      ----    --------- --------- -----
        1    0.971158  11110001110000
       36    0.073750  11110001101000
      179    0.055725  10111001010100
      717    0.051605  11010011100001

 State #    2  Energy =     -55.804679878  S =  0.500

      Det      Coef    Occupancy (Ignoring core)
      ---      ----    --------- --------- -----
        1   -0.078197  11110001110000
       36    0.973373  11110001101000
      249    0.059537  10111001001100

 State #    3  Energy =     -55.672485307  S =  0.500

      Det      Coef    Occupancy (Ignoring core)
      ---      ----    --------- --------- -----
       71    0.973468  11110001011000
      109    0.050158  10111000111000
      177   -0.051856  11101001010100
      822   -0.053428  11010011001001

 <<<Max |V/de| = 2.673D-02  Thresh = 1.000D+00

 Oscillator strength (invalid if E(1)/=E(GS)):
 ----------------------------------------------------------------------------
   State                        1st order                           2nd order
 ----------------------------------------------------------------------------
     2     F(REF-CI)=        0.0040283889     F(GMC-PT2)=        0.0038632280
     3     F(REF-CI)=        0.0047772757     F(GMC-PT2)=        0.0047042111
 ----------------------------------------------------------------------------

 Dipole moment matrix elements, x, y, z, in A.U.
States    1    1       -0.1313846370       -0.3618756590        0.6246691054
States    1    2        0.0439134220        0.0217035449        0.2037395580
States    1    3       -0.1227232034        0.0991218331        0.0427244259
States    2    1        0.0439134220        0.0217035449        0.2037395580
States    2    2       -0.2608086099       -0.3454035743        0.3858990641
States    2    3        0.1960772556       -0.0792397228       -0.0019629184
States    3    1       -0.1227232034        0.0991218331        0.0427244259
States    3    2        0.1960772556       -0.0792397228       -0.0019629184
States    3    3       -0.0956115337       -0.5539482728        0.3284923267

 Oscillator strength (valid only when positive): 
 ----------------------------------------------------------------------------
  States                        1st order                           2nd order
 ----------------------------------------------------------------------------
  1  1     F(REF-CI)=        0.0000000000     F(GMC-PT2)=        0.0000000000
  1  2     F(REF-CI)=       -0.0040283889     F(GMC-PT2)=       -0.0038632280
  1  3     F(REF-CI)=       -0.0047772757     F(GMC-PT2)=       -0.0047042111
  2  1     F(REF-CI)=        0.0040283889     F(GMC-PT2)=        0.0038632280
  2  2     F(REF-CI)=        0.0000000000     F(GMC-PT2)=        0.0000000000
  2  3     F(REF-CI)=       -0.0040820076     F(GMC-PT2)=       -0.0039419607
  3  1     F(REF-CI)=        0.0047772757     F(GMC-PT2)=        0.0047042111
  3  2     F(REF-CI)=        0.0040820076     F(GMC-PT2)=        0.0039419607
  3  3     F(REF-CI)=        0.0000000000     F(GMC-PT2)=        0.0000000000
 CPU     0: STEP CPU TIME=     1.94 TOTAL CPU TIME=         16.1 (      0.3 MIN)
 TOTAL WALL CLOCK TIME=         16.1 SECONDS, CPU UTILIZATION IS    99.94%

     !!! DIABATIZATION FOR REF CI STATES !!!

 *******************************************************
          $DMO GROUP FOUND IN THE INPUT.
        DIABATIZATION OF ADIABATIC STATES BEGINS.
     PROGRAMMED BY TAO ZENG (CARLETON UNIVERSITY).
               Email: toby.zeng@carleton.ca
     See T. Zeng, J. Chem. Phys. 2017, 146, 144103
 *******************************************************

 *************************************************************************
     STEP 1: TRANSFORMATION OF ADIABATIC STATES TO THE DMO REPRESENTATION
         See Atchity and Ruedenberg, J. Chem. Phys. 1999, 111, 2910
 *************************************************************************

Read in Diabatic Molecualr Orbitals:

                      1          2          3          4          5

    1  N  1  S    0.008609   0.000000   0.000000  -0.013219   0.279491
    2  N  1  S    0.442914  -0.000000   0.000000  -0.184329   0.867803
    3  N  1  S    0.276913   0.000000  -0.000000  -0.288315   0.144236
    4  N  1  X   -0.000000   0.493155  -0.024636  -0.000000  -0.000000
    5  N  1  Y    0.000000   0.024636   0.493155  -0.000000   0.000000
    6  N  1  Z    0.090197   0.000000   0.000000   0.593421   0.705309
    7  N  1  X   -0.000000   0.210628  -0.010522   0.000000   0.000000
    8  N  1  Y    0.000000   0.010522   0.210628  -0.000000  -0.000000
    9  N  1  Z   -0.004381   0.000000   0.000000   0.381592  -0.106092
   10  N  1 XX   -0.000457   0.010719  -0.000535  -0.012387   0.006153
   11  N  1 YY   -0.000457  -0.010719   0.000535  -0.012387   0.006153
   12  N  1 ZZ    0.000914  -0.000000   0.000000   0.024773  -0.012306
   13  N  1 XY    0.000000  -0.000618  -0.012377  -0.000000   0.000000
   14  N  1 XZ   -0.000000   0.026529  -0.001325  -0.000000   0.000000
   15  N  1 YZ    0.000000   0.001325   0.026529  -0.000000   0.000000
   16  H  2  S    0.194462  -0.176074   0.343485   0.112865  -0.523343
   17  H  2  S    0.003574  -0.023812   0.046452   0.024014  -0.054445
   18  H  2  X    0.018760   0.009101   0.022834   0.009336  -0.039151
   19  H  2  Y   -0.032493   0.022287  -0.020044  -0.016171   0.067811
   20  H  2  Z   -0.009251   0.008464  -0.016511   0.018769  -0.010566
   21  H  3  S    0.194462  -0.209430  -0.324227   0.112865  -0.523343
   22  H  3  S    0.003574  -0.028322  -0.043847   0.024014  -0.054445
   23  H  3  X    0.018760   0.006781  -0.023627   0.009336  -0.039151
   24  H  3  Y    0.032493  -0.024174  -0.017723   0.016171  -0.067811
   25  H  3  Z   -0.009251   0.010067   0.015585   0.018769  -0.010566
   26  H  4  S    0.194462   0.385503  -0.019258   0.112865  -0.523343
   27  H  4  S    0.003574   0.052134  -0.002604   0.024014  -0.054445
   28  H  4  X   -0.037519  -0.032295   0.001613  -0.018672   0.078302
   29  H  4  Y    0.000000   0.001067   0.021353  -0.000000   0.000000
   30  H  4  Z   -0.009251  -0.018530   0.000926   0.018769  -0.010566

                      6          7

    1  N  1  S    0.000000  -0.000000
    2  N  1  S    0.000000  -0.000000
    3  N  1  S   -0.000000   0.000000
    4  N  1  X   -0.930415  -0.002083
    5  N  1  Y   -0.002083   0.930415
    6  N  1  Z   -0.000000   0.000000
    7  N  1  X   -0.046866  -0.000105
    8  N  1  Y   -0.000105   0.046866
    9  N  1  Z   -0.000000   0.000000
   10  N  1 XX    0.001538   0.000003
   11  N  1 YY   -0.001538  -0.000003
   12  N  1 ZZ   -0.000000   0.000000
   13  N  1 XY   -0.000004   0.001776
   14  N  1 XZ    0.039985   0.000090
   15  N  1 YZ    0.000090  -0.039985
   16  H  2  S   -0.362630  -0.631354
   17  H  2  S   -0.065964  -0.114846
   18  H  2  X    0.002763  -0.037520
   19  H  2  Y    0.037435   0.040736
   20  H  2  Z    0.001882   0.003276
   21  H  3  S   -0.365454   0.629724
   22  H  3  S   -0.066477   0.114549
   23  H  3  X    0.002595   0.037532
   24  H  3  Y   -0.037617   0.040567
   25  H  3  Z    0.001896  -0.003268
   26  H  4  S    0.728084   0.001630
   27  H  4  S    0.132441   0.000297
   28  H  4  X   -0.062317  -0.000140
   29  H  4  Y    0.000055  -0.024345
   30  H  4  Z   -0.003778  -0.000008

NUMBER OF SUB ACTIVE SPACES:   1
ROTATE ACTIVE MOS TO DMOS IN EACH SUB-SPACE

SPACE  1:

OVERLAP BETWEEN ORTHONORMAL AND PRE-ORTHONORMAL REF. DMOS

             1           2           3           4           5

    1    0.9626229  -0.0261709  -0.0415750  -0.0118599   0.0125629
    2   -0.0261709   0.9601990  -0.0701586  -0.0246431   0.0221229
    3   -0.0415750  -0.0701586   0.9420128  -0.0491659   0.0672525
    4   -0.0118599  -0.0246431  -0.0491659   0.9935258  -0.0170198
    5    0.0125629   0.0221229   0.0672525  -0.0170198   1.1631864
    6   -0.0031443  -0.0024516  -0.0491514  -0.0150280  -0.0544696
    7    0.0035322   0.0649465   0.0192572   0.0511203   0.0390042

             6           7

    1   -0.0031443   0.0035322
    2   -0.0024516   0.0649465
    3   -0.0491514   0.0192572
    4   -0.0150280   0.0511203
    5   -0.0544696   0.0390042
    6    1.0781951  -0.0145588
    7   -0.0145588   1.0981061
REFERENCE DMOS AFTER ORTHONORMALIZATION:

                      1          2          3          4          5

    1  N  1  S    0.004808  -0.006430  -0.017307  -0.009571   0.241982
    2  N  1  S    0.446453  -0.010946  -0.040814  -0.168298   0.743561
    3  N  1  S    0.282002  -0.003752  -0.011183  -0.285876   0.117310
    4  N  1  X    0.010672   0.513498  -0.028404  -0.000313  -0.047402
    5  N  1  Y    0.019875   0.007683   0.512453  -0.018015  -0.057063
    6  N  1  Z    0.093495   0.007219  -0.004427   0.612145   0.617954
    7  N  1  X    0.006253   0.220958   0.004321   0.005728  -0.005991
    8  N  1  Y    0.010731   0.025951   0.227322   0.010011  -0.014376
    9  N  1  Z    0.003016   0.015120   0.028008   0.385253  -0.086869
   10  N  1 XX   -0.000423   0.010692  -0.000700  -0.012122   0.005032
   11  N  1 YY   -0.001098  -0.011835  -0.001508  -0.012836   0.005322
   12  N  1 ZZ    0.001521   0.001143   0.002208   0.024958  -0.010354
   13  N  1 XY   -0.000660  -0.001818  -0.013468  -0.000817   0.000716
   14  N  1 XZ    0.001009   0.028045   0.002698   0.001489   0.001111
   15  N  1 YZ    0.001645   0.006237   0.029738   0.003579  -0.000502
   16  H  2  S    0.225729  -0.095366   0.402373   0.149999  -0.468676
   17  H  2  S    0.006855  -0.011901   0.052682   0.030209  -0.048641
   18  H  2  X    0.021971   0.015793   0.030337   0.012795  -0.034494
   19  H  2  Y   -0.035439   0.016193  -0.025673  -0.017828   0.060114
   20  H  2  Z   -0.009761   0.007881  -0.015865   0.017944  -0.007984
   21  H  3  S    0.182692  -0.268806  -0.352252   0.047060  -0.463303
   22  H  3  S    0.000659  -0.039162  -0.050790   0.013315  -0.049592
   23  H  3  X    0.019057   0.004546  -0.021865   0.006274  -0.033758
   24  H  3  Y    0.032941  -0.026648  -0.017249   0.011502  -0.060095
   25  H  3  Z   -0.008039   0.012721   0.019105   0.020161  -0.009784
   26  H  4  S    0.227278   0.430251   0.094226   0.134670  -0.432794
   27  H  4  S    0.007123   0.057517   0.012692   0.027502  -0.042555
   28  H  4  X   -0.041808  -0.037841  -0.011653  -0.020529   0.066253
   29  H  4  Y    0.001274   0.004513   0.023747   0.002485  -0.000628
   30  H  4  Z   -0.009782  -0.018914   0.000494   0.018099  -0.008575

                      6          7

    1  N  1  S    0.011203  -0.007333
    2  N  1  S    0.034389  -0.018193
    3  N  1  S    0.002363   0.008684
    4  N  1  X   -0.865994  -0.041587
    5  N  1  Y    0.029727   0.841045
    6  N  1  Z    0.039155  -0.050578
    7  N  1  X   -0.043160  -0.013886
    8  N  1  Y    0.010273   0.037304
    9  N  1  Z    0.002082  -0.016217
   10  N  1 XX    0.001500  -0.000210
   11  N  1 YY   -0.001420   0.001116
   12  N  1 ZZ   -0.000080  -0.000906
   13  N  1 XY   -0.000572   0.001968
   14  N  1 XZ    0.037335  -0.001242
   15  N  1 YZ    0.000977  -0.037445
   16  H  2  S   -0.346857  -0.572025
   17  H  2  S   -0.062244  -0.105331
   18  H  2  X    0.002008  -0.035048
   19  H  2  Y    0.036756   0.035885
   20  H  2  Z    0.000889   0.002287
   21  H  3  S   -0.369676   0.604316
   22  H  3  S   -0.064923   0.107801
   23  H  3  X    0.000333   0.035143
   24  H  3  Y   -0.037977   0.039811
   25  H  3  Z    0.002360  -0.004597
   26  H  4  S    0.661115  -0.008477
   27  H  4  S    0.121779  -0.001531
   28  H  4  X   -0.055471   0.000317
   29  H  4  Y    0.000840  -0.022939
   30  H  4  Z   -0.003727   0.000546

 -------------------------------------------
       MAXIMIZING MORMO OVERLAP TERM        
 -------------------------------------------
   SWEEP    VALUE       PROGRESS
     0     4.15876
     1     6.90344     2.74468168
     2     6.93045     0.02701483
     3     6.93046     0.00000166
     4     6.93046     0.00000000
     5     6.93046     0.00000000
 THE ROTATION IS DONE
ACTIVE ORBITALS AFTER MORMO:

                      1          2          3          4          5

    1  N  1  S    0.001743  -0.017303  -0.031116  -0.013496   0.183437
    2  N  1  S    0.410055  -0.047518  -0.078070  -0.195135   0.679315
    3  N  1  S    0.350745   0.061865   0.076067  -0.260209   0.197304
    4  N  1  X   -0.006654   0.474970  -0.058701  -0.022137  -0.027555
    5  N  1  Y   -0.003150  -0.021416   0.460667  -0.050897  -0.019489
    6  N  1  Z    0.077231  -0.012352  -0.040512   0.606619   0.618520
    7  N  1  X    0.022819   0.257435   0.047574   0.033229  -0.025652
    8  N  1  Y    0.030709   0.069956   0.276936   0.070987  -0.064942
    9  N  1  Z    0.037158   0.044364   0.085349   0.386020  -0.082763
   10  N  1 XX    0.003177   0.009563   0.013729  -0.006025  -0.019349
   11  N  1 YY   -0.002562  -0.008786  -0.013172  -0.015523   0.011438
   12  N  1 ZZ   -0.000615  -0.000777  -0.000556   0.021548   0.007911
   13  N  1 XY   -0.009301  -0.020583  -0.028525  -0.006939   0.044403
   14  N  1 XZ    0.000237   0.017228   0.000258  -0.003176   0.022851
   15  N  1 YZ   -0.002821   0.003071   0.015078  -0.002387   0.049825
   16  H  2  S    0.191521  -0.135068   0.343548   0.117780  -0.439250
   17  H  2  S    0.012746   0.003559   0.084610   0.040156  -0.075492
   18  H  2  X    0.027872  -0.009794   0.039428   0.012192  -0.042862
   19  H  2  Y   -0.017528   0.027172  -0.002425  -0.004309   0.027091
   20  H  2  Z   -0.002102   0.005965  -0.004054   0.020336  -0.018576
   21  H  3  S    0.178658  -0.235408  -0.330832   0.076741  -0.482423
   22  H  3  S   -0.007331  -0.092419  -0.103522   0.015595  -0.072610
   23  H  3  X    0.013497   0.014852  -0.013956   0.010293  -0.029882
   24  H  3  Y    0.028225  -0.017589  -0.007517   0.019187  -0.036939
   25  H  3  Z   -0.015619   0.018128   0.029928   0.015990  -0.006636
   26  H  4  S    0.190225   0.367357   0.018055   0.109671  -0.405517
   27  H  4  S    0.016576   0.107229   0.051028   0.039281  -0.070436
   28  H  4  X   -0.025229  -0.026431   0.016682  -0.008942   0.042324
   29  H  4  Y    0.017448   0.032265   0.015781   0.010141  -0.020243
   30  H  4  Z   -0.002896  -0.007943   0.007025   0.018836  -0.023009

                      6          7

    1  N  1  S   -0.002951   0.042654
    2  N  1  S   -0.017610   0.107941
    3  N  1  S    0.060468  -0.151575
    4  N  1  X   -0.869773  -0.034230
    5  N  1  Y    0.029428   0.825695
    6  N  1  Z    0.070431  -0.089888
    7  N  1  X   -0.042849  -0.025433
    8  N  1  Y    0.012714   0.069394
    9  N  1  Z   -0.034400   0.015731
   10  N  1 XX   -0.023510  -0.053238
   11  N  1 YY    0.022845   0.043565
   12  N  1 ZZ    0.000665   0.009674
   13  N  1 XY   -0.053629   0.032198
   14  N  1 XZ    0.045112   0.018370
   15  N  1 YZ   -0.010697  -0.028606
   16  H  2  S   -0.336412  -0.515745
   17  H  2  S   -0.082136  -0.142453
   18  H  2  X   -0.018949  -0.044076
   19  H  2  Y    0.035403   0.018585
   20  H  2  Z   -0.029242  -0.003030
   21  H  3  S   -0.327751   0.579309
   22  H  3  S   -0.125137   0.174781
   23  H  3  X    0.035631   0.039720
   24  H  3  Y   -0.036219   0.005945
   25  H  3  Z    0.010376  -0.011835
   26  H  4  S    0.598211   0.038238
   27  H  4  S    0.189560  -0.012479
   28  H  4  X   -0.046533  -0.020584
   29  H  4  Y    0.031046  -0.023585
   30  H  4  Z    0.010105   0.026190

Actually Used Diabatic Molecualr Orbitals:

                      1          2          3          4          5

    1  N  1  S    0.001743  -0.017303  -0.031116  -0.013496   0.183437
    2  N  1  S    0.410055  -0.047518  -0.078070  -0.195135   0.679315
    3  N  1  S    0.350745   0.061865   0.076067  -0.260209   0.197304
[...]
 STATE #  1'S GMC-PT-LEVEL DIABATIC ENERGY=     -55.903726856       0.000000000
 STATE #  2'S GMC-PT-LEVEL DIABATIC ENERGY=     -55.736488916       4.550776133
 STATE #  3'S GMC-PT-LEVEL DIABATIC ENERGY=     -55.773602472       3.540864838

 --- DIABATIC COUPLINGS (OFF DIAGONAL ELEMENTS)---  HATREE            EV
 STATE #  1 &  2'S GMC-PT-LEVEL COUPLING  =       0.019566228       0.532424176
 STATE #  1 &  3'S GMC-PT-LEVEL COUPLING  =       0.056350191       1.533366785
 STATE #  2 &  3'S GMC-PT-LEVEL COUPLING  =      -0.078580678      -2.138289164

 ---------------------------------------
     - ROTATION TO DIABATIC STATES -    
 ---------------------------------------
 ROWS=ADIABATIC, COLUMNS=DIABATIC STATES

             1           2           3

    1   -0.8712208   0.2508220   0.4219747
    2   -0.4821527  -0.5987021  -0.6395972
    3   -0.0922121   0.7606866  -0.6425362

 ---------------------------------------
          - DIABATIC STATES -           
 ---------------------------------------

 State #    1  Energy =     -55.903726856

      Det      Coef        Coefp    Occupancy (Ignoring core)
      ---      ----        ----    --------- --------- -----
        1    0.908231   -0.908231  222+000
        3    0.139211    0.139211  22-++00
      141   -0.133879   -0.133879  22++-00
       17    0.113573    0.113573  22-+00+
       16    0.111281   -0.111281  222000+
       18    0.109744   -0.109744  2-2+00+
      736   -0.106078    0.106078  2+2+00-
      701   -0.083883   -0.083883  22++00-
        7   -0.078906   -0.078906  22-+0+0
      351    0.078325    0.078325  22++0-0
        8   -0.075797    0.075797  2-2+0+0
      717   -0.073034   -0.073034  220+002
      393   -0.072811   -0.072811  202+020
        4    0.065238   -0.065238  2-2++00
      176   -0.062028    0.062028  2+2+-00
        5    0.050981    0.050981  -22++00
        6   -0.049704    0.049704  22200+0
      386    0.043613   -0.043613  2+2+0-0
      215   -0.037097   -0.037097  022+200
      402    0.037000   -0.037000  2+-+0-+
      708    0.035645   -0.035645  2-++0+-
      390    0.034668   -0.034668  -+2++-0
      211   -0.033976   -0.033976  +22+-00
      218    0.033843   -0.033843  +-2+-+0
       76    0.032185    0.032185  2+2-0+0
      705   -0.031038   -0.031038  -2+++0-
      212    0.030440    0.030440  +220200
      227   -0.030025   -0.030025  +2-+-0+
       51   -0.029691    0.029691  22+-00+
      738   -0.029285   -0.029285  2+-++0-
      179   -0.029090   -0.029090  202+200
     1051   -0.029085   -0.029085  2+++0--
      158   -0.028627   -0.028627  2-++-0+
       20   -0.028035   -0.028035  22-0+0+
        2    0.027634   -0.027634  2220+00
      122    0.026639    0.026639  +2-200+
      751   -0.025343    0.025343  2+20002
      702    0.024755    0.024755  22+0+0-
      387   -0.024699    0.024699  2+20+-0
      773    0.024546   -0.024546  +2-++0-
       29   -0.024505   -0.024505  2--+0++
      113   -0.024027    0.024027  +-220+0
       19    0.023744    0.023744  -22+00+
      424   -0.023502   -0.023502  +-2++-0
      184   -0.022468   -0.022468  -+2+-+0
        9   -0.021370   -0.021370  -22+0+0
      159    0.020680   -0.020680  -2++-0+
      716   -0.020278   -0.020278  22+0002

 State #    2  Energy =     -55.736488916

      Det      Coef        Coefp    Occupancy (Ignoring core)
      ---      ----        ----    --------- --------- -----
       71   -0.905252    0.905252  2+22000
      246   -0.154116   -0.154116  2++2-00
       73    0.150373   -0.150373  2+-2+00
      736   -0.129720    0.129720  2+2+00-
       86    0.125208    0.125208  2+2-00+
       77   -0.101205    0.101205  2+-20+0
       88   -0.094397    0.094397  202200+
      456    0.089893    0.089893  2++20-0
      806   -0.084087   -0.084087  2++200-
      822    0.077546   -0.077546  2+02002
       87    0.070694   -0.070694  2+-200+
      106   -0.048621   -0.048621  +222000
      386    0.047670   -0.047670  2+2+0-0
      316    0.046743    0.046743  ++22-00
      813    0.044977   -0.044977  20+20+-
       36    0.043507    0.043507  22+2000
       76   -0.039621   -0.039621  2+2-0+0
       74   -0.038816    0.038816  2022+00
       99   -0.038721    0.038721  20-20++
      320    0.038156    0.038156  0+22200
       90    0.037298    0.037298  2+--+0+
       75   -0.035143   -0.035143  -+22+00
      911    0.034393    0.034393  2+++-0-
      810   -0.034205   -0.034205  -++2+0-
      177    0.033890   -0.033890  2+20200
      332   -0.033550    0.033550  ++-2-0+
      317    0.033384   -0.033384  ++2-200
      323   -0.033141    0.033141  +022-+0
      180   -0.033050    0.033050  -+2+200
      108    0.032970    0.032970  +2-2+00
      122    0.031897    0.031897  +2-200+
      111    0.030379   -0.030379  +22-0+0
      807   -0.030228    0.030228  2++-+0-
        6    0.029791   -0.029791  22200+0
      263   -0.029338   -0.029338  20+2-0+
      192   -0.028656    0.028656  2+-+-0+
      183   -0.027816    0.027816  202+-+0
      753    0.026861    0.026861  202+002
      821    0.026173   -0.026173  2++-002
      752   -0.025444   -0.025444  2+-+002
      878    0.025363    0.025363  ++-2+0-
      526   -0.025357   -0.025357  ++220-0
      264    0.024366   -0.024366  -++2-0+
      112   -0.023488   -0.023488  +2-20+0
      281   -0.022563    0.022563  +2+2-00
      391    0.022186   -0.022186  2+20020
      742    0.021567    0.021567  2+-+0+-
       38   -0.021210    0.021210  2202+00

 State #    3  Energy =     -55.773602472

      Det      Coef        Coefp    Occupancy (Ignoring core)
      ---      ----        ----    --------- --------- -----
       36   -0.900130   -0.900130  22+2000
       38   -0.142406    0.142406  2202+00
       53   -0.134718   -0.134718  2-+200+
       51    0.134421   -0.134421  22+-00+
      701   -0.126822   -0.126822  22++00-
      806    0.113098    0.113098  2++200-
       39   -0.104007   -0.104007  2-+2+00
      106   -0.097132   -0.097132  +222000
      463    0.073959   -0.073959  20+2020
       41   -0.073566    0.073566  22+-0+0
       42    0.069837   -0.069837  22020+0
       52   -0.067807    0.067807  220200+
      351    0.065113    0.065113  22++0-0
      246    0.061243    0.061243  2++2-00
      123    0.047581   -0.047581  +-2200+
       40   -0.045248    0.045248  -2+2+00
      472   -0.043588   -0.043588  2+020-+
       71   -0.043055    0.043055  2+22000
       73    0.042765   -0.042765  2+-2+00
       55   -0.038300   -0.038300  220-+0+
       43    0.038257    0.038257  2-+20+0
      288   -0.037866   -0.037866  +-+2-+0
       64    0.037737   -0.037737  2-020++
      460   -0.037107   -0.037107  -++2+-0
      285    0.036922   -0.036922  02+2200
      109    0.035092   -0.035092  +-22+00
      145   -0.034017   -0.034017  -2++200
      282    0.033579    0.033579  +2+-200
      142    0.033529    0.033529  22+0200
      297    0.033524   -0.033524  +202-0+
      718    0.031532   -0.031532  2-++002
      249    0.031372   -0.031372  20+2200
       86    0.030702    0.030702  2+2-00+
      157    0.029653   -0.029653  220+-0+
      876   -0.028696   -0.028696  ++2200-
      281    0.027968   -0.027968  +2+2-00
      457   -0.027376    0.027376  2++-+-0
      808    0.026887   -0.026887  2+02+0-
      821   -0.026594    0.026594  2++-002
       54   -0.026544    0.026544  -2+200+
      456   -0.026277   -0.026277  2++20-0
      148   -0.026103   -0.026103  2-++-+0
      494    0.025339   -0.025339  +-+2+-0
       16   -0.025054    0.025054  222000+
      717    0.024369    0.024369  220+002
      254    0.023305   -0.023305  -++2-+0
      112   -0.022376   -0.022376  +2-20+0
       44    0.021918   -0.021918  -2+20+0
       87    0.021620   -0.021620  2+-200+
      122    0.021549    0.021549  +2-200+
       46    0.021299   -0.021299  2-+-++0
      113   -0.020967    0.020967  +-220+0
       56   -0.020827    0.020827  2-+-+0+
      859    0.020655   -0.020655  02+2002
      367    0.020045   -0.020045  220+0-+

 ---------------------------------------
      - DIABATIC STATES IN CMO -        
 ---------------------------------------

 State #    1  Energy =     -55.903726856

      Det      Coef        Coefp    Occupancy (Ignoring core)
      ---      ----        ----    --------- --------- -----
        1    0.808850   -0.808850  222+000
       36   -0.530577   -0.530577  22+2000
       71    0.102885   -0.102885  2+22000
      143   -0.053119   -0.053119  220+200
      142    0.048981    0.048981  22+0200
      179   -0.044348   -0.044348  202+200
      717   -0.039957   -0.039957  220+002
      393   -0.039483   -0.039483  202+020
      106   -0.034689   -0.034689  +222000
      157    0.032361   -0.032361  220+-0+
      158   -0.031656   -0.031656  2-++-0+
      249    0.031398   -0.031398  20+2200
      145   -0.030908   -0.030908  -2++200
      148   -0.030562   -0.030562  2-++-+0
        8   -0.030229    0.030229  2-2+0+0
       17    0.028914    0.028914  22-+00+
       18   -0.028790    0.028790  2-2+00+
        2    0.028001   -0.028001  2220+00
      147   -0.027724    0.027724  220+-+0
      463    0.027533   -0.027533  20+2020
        7   -0.025488   -0.025488  22-+0+0
      212    0.025461    0.025461  +220200
      753   -0.025401   -0.025401  202+002
      108    0.023216    0.023216  +2-2+00
      789   -0.023069   -0.023069  022+002
      122    0.022862    0.022862  +2-200+
      387   -0.022728    0.022728  2+20+-0
      403    0.022503   -0.022503  202+0-+
      218    0.022160   -0.022160  +-2+-+0
      703   -0.022113   -0.022113  220++0-
      743   -0.021967   -0.021967  202+0+-
      357   -0.021006   -0.021006  220+020
      390    0.020862   -0.020862  -+2++-0
      353    0.020772    0.020772  220++-0
       43    0.020617    0.020617  2-+20+0
      123   -0.020149    0.020149  +-2200+

 State #    2  Energy =     -55.736488916

      Det      Coef        Coefp    Occupancy (Ignoring core)
      ---      ----        ----    --------- --------- -----
       71   -0.721345    0.721345  2+22000
       36   -0.588926   -0.588926  22+2000
        1   -0.294201    0.294201  222+000
      822    0.054107   -0.054107  2+02002
      109   -0.048652    0.048652  +-22+00
        4    0.041944   -0.041944  2-2++00
       72   -0.041712   -0.041712  2+2-+00
      808    0.039588   -0.039588  2+02+0-
      177    0.038692   -0.038692  2+20200
      823    0.036995   -0.036995  20+2002
      248    0.031754   -0.031754  2+02200
      249    0.029679   -0.029679  20+2200
      111    0.029197   -0.029197  +22-0+0
       75    0.028648    0.028648  -+22+00
      812   -0.027340    0.027340  2+020+-
      262   -0.025130   -0.025130  2+02-0+
      813    0.023875   -0.023875  20+20+-
      317    0.023525   -0.023525  ++2-200
       42    0.023463   -0.023463  22020+0
      807   -0.023383    0.023383  2++-+0-
      180   -0.023058    0.023058  -+2+200
       39    0.022620    0.022620  2-+2+00
      183   -0.022023    0.022023  202+-+0
      824    0.022004    0.022004  -++2002
       78   -0.021665    0.021665  20220+0
      142    0.020854    0.020854  22+0200
      894    0.020092    0.020092  0+22002
      316    0.020004    0.020004  ++22-00

 State #    3  Energy =     -55.773602472

      Det      Coef        Coefp    Occupancy (Ignoring core)
      ---      ----        ----    --------- --------- -----
       71    0.646287   -0.646287  2+22000
       36   -0.570614   -0.570614  22+2000
        1   -0.456612    0.456612  222+000
        2   -0.047004    0.047004  2220+00
      108    0.043977    0.043977  +2-2+00
      249    0.041635   -0.041635  20+2200
      463    0.039299   -0.039299  20+2020
      248   -0.038614    0.038614  2+02200
      122    0.034782    0.034782  +2-200+
      177   -0.034609    0.034609  2+20200
      462   -0.031423    0.031423  2+02020
      179    0.030907    0.030907  202+200
       74    0.029978   -0.029978  2022+00
       37    0.028743   -0.028743  22+-+00
      717    0.028233    0.028233  220+002
      473   -0.026792   -0.026792  20+20-+
      458    0.025483   -0.025483  2+02+-0
      121   -0.025060    0.025060  +22-00+
      457   -0.025027    0.025027  2++-+-0
      178   -0.024624   -0.024624  2+-+200
        4   -0.023945    0.023945  2-2++00
        3   -0.023614   -0.023614  22-++00
      472   -0.023043   -0.023043  2+020-+
       40   -0.022894    0.022894  -2+2+00
       77   -0.022400    0.022400  2+-20+0
      180    0.022261   -0.022261  -+2+200
      247    0.022260   -0.022260  2++-200
       72    0.021412    0.021412  2+2-+00
      281   -0.021083    0.021083  +2+2-00
      317   -0.020702    0.020702  ++2-200
       38   -0.020641    0.020641  2202+00
      109    0.020358   -0.020358  +-22+00
       54   -0.020347    0.020347  -2+200+
      822   -0.020189    0.020189  2+02002

 ---------------------------------------
    -DIABATIC STATES IN PROTOTYPES-     
 ---------------------------------------

     STATE:    1
 Group Ref#    Coefficients
     1    1    0.929775
     2    2   -0.008321
     3    3   -0.007195

WEIGHT OF LISTED PROTOTYPES:   86.46%

     STATE:    2
 Group Ref#    Coefficients
     1    1   -0.008436
     2    2    0.917137
     3    3    0.005685

WEIGHT OF LISTED PROTOTYPES:   84.12%

     STATE:    3
 Group Ref#    Coefficients
     1    1   -0.007279
     2    2    0.005674
     3    3    0.919010

WEIGHT OF LISTED PROTOTYPES:   84.47%

     DIRECT MAX. DIABATIZATION FINISHED    
 CPU     0: STEP CPU TIME=     0.25 TOTAL CPU TIME=         16.4 (      0.3 MIN)
 TOTAL WALL CLOCK TIME=         16.4 SECONDS, CPU UTILIZATION IS    99.94%

DIABATS FOR SPIN-ORBIT CALCULATION ARE READY

TRANSITION DIPOLES BETWEEN ADIABATS (in A.U.):

STATE PAIR      X         Y         Z
    1    1 -0.131385 -0.361876  0.624669
    2    1  0.043913  0.021704  0.203740
    2    2 -0.260809 -0.345404  0.385899
    3    1 -0.122723  0.099122  0.042724
    3    2  0.196077 -0.079240 -0.001963
    3    3 -0.095612 -0.553948  0.328492


TRANSITION DIPOLES BETWEEN DIABATS (in A.U.):

STATE PAIR      X         Y         Z
    1    1 -0.126557 -0.332566  0.744499
    2    1  0.000828 -0.016375  0.004818
    2    2 -0.395690 -0.363635  0.324604
    3    1 -0.013872  0.023790  0.002450
    3    2 -0.124772  0.115136 -0.023798
    3    3  0.034443 -0.565027  0.269957

TRANSITION DIPOLES BETWEEN DIRECT MAX. DIABATS (in A.U.):

STATE PAIR      X         Y         Z
    1    1 -0.126558 -0.332566  0.744500
    2    1  0.000806 -0.016372  0.004791
    2    2 -0.395692 -0.363632  0.324604
    3    1 -0.013872  0.023786  0.002427
    3    2 -0.124768  0.115134 -0.023798
    3    3  0.034446 -0.565030  0.269957
 No $TRANST Group Found.
 Quit without doing spin-orbit coupling
 ..... DONE WITH MP2 ENERGY .....
 CPU     0: STEP CPU TIME=     0.00 TOTAL CPU TIME=         16.4 (      0.3 MIN)
 TOTAL WALL CLOCK TIME=         16.4 SECONDS, CPU UTILIZATION IS    99.94%
            100000000  WORDS OF DYNAMIC MEMORY USED
 EXECUTION OF GAMESS TERMINATED NORMALLY Wed Nov 16 18:19:16 2022
 DDI: 715512 bytes (0.7 MB / 0 MWords) used by master data server.

 ----------------------------------------
 CPU timing information for all processes
 ========================================
 0: 16.46 + 0.328 = 16.374
 ----------------------------------------
Note: The following floating-point exceptions are signalling: IEEE_DENORMAL
 ddikick.x: exited gracefully.
unset echo
----- accounting info -----
Files used on the master node io002 were:
-rw-r--r-- 1 bsonghao nooijen   20703 Nov 16 18:19 /scratch/bsonghao/nh3_diabatization_2d_at_mode_7_8_dist-0.8_-0.3.F05
-rw-r--r-- 1 bsonghao nooijen  363520 Nov 16 18:19 /scratch/bsonghao/nh3_diabatization_2d_at_mode_7_8_dist-0.8_-0.3.F09
-rw-r--r-- 1 bsonghao nooijen 1995920 Nov 16 18:19 /scratch/bsonghao/nh3_diabatization_2d_at_mode_7_8_dist-0.8_-0.3.F10
-rw-r--r-- 1 bsonghao nooijen  131264 Nov 16 18:19 /scratch/bsonghao/nh3_diabatization_2d_at_mode_7_8_dist-0.8_-0.3.F13
-rw-r--r-- 1 bsonghao nooijen  180312 Nov 16 18:19 /scratch/bsonghao/nh3_diabatization_2d_at_mode_7_8_dist-0.8_-0.3.F15
-rw-r--r-- 1 bsonghao nooijen       0 Nov 16 18:19 /scratch/bsonghao/nh3_diabatization_2d_at_mode_7_8_dist-0.8_-0.3.F16
-rw-r--r-- 1 bsonghao nooijen    9808 Nov 16 18:19 /scratch/bsonghao/nh3_diabatization_2d_at_mode_7_8_dist-0.8_-0.3.F70
-rw-r--r-- 1 bsonghao nooijen    9808 Nov 16 18:19 /scratch/bsonghao/nh3_diabatization_2d_at_mode_7_8_dist-0.8_-0.3.F71
-rw-r--r-- 1 bsonghao nooijen   19608 Nov 16 18:19 /scratch/bsonghao/nh3_diabatization_2d_at_mode_7_8_dist-0.8_-0.3.F72
-rw-r--r-- 1 bsonghao nooijen   19608 Nov 16 18:19 /scratch/bsonghao/nh3_diabatization_2d_at_mode_7_8_dist-0.8_-0.3.F73
-rw-r--r-- 1 bsonghao nooijen 1920824 Nov 16 18:19 /scratch/bsonghao/nh3_diabatization_2d_at_mode_7_8_dist-0.8_-0.3.F74
-rw-r--r-- 1 bsonghao nooijen       0 Nov 16 18:19 /scratch/bsonghao/nh3_diabatization_2d_at_mode_7_8_dist-0.8_-0.3.F75
-rw-r--r-- 1 bsonghao nooijen   58848 Nov 16 18:19 /scratch/bsonghao/nh3_diabatization_2d_at_mode_7_8_dist-0.8_-0.3.F76
-rw-r--r-- 1 bsonghao nooijen       0 Nov 16 18:19 /scratch/bsonghao/nh3_diabatization_2d_at_mode_7_8_dist-0.8_-0.3.F77
-rw-r--r-- 1 bsonghao nooijen    1864 Nov 16 18:19 /scratch/bsonghao/nh3_diabatization_2d_at_mode_7_8_dist-0.8_-0.3.F78
-rw-r--r-- 1 bsonghao nooijen   39208 Nov 16 18:19 /scratch/bsonghao/nh3_diabatization_2d_at_mode_7_8_dist-0.8_-0.3.F79
-rw-r--r-- 1 bsonghao nooijen     104 Nov 16 18:19 /scratch/bsonghao/nh3_diabatization_2d_at_mode_7_8_dist-0.8_-0.3.F80
-rw-r--r-- 1 bsonghao nooijen   13472 Nov 16 18:19 /scratch/bsonghao/nh3_diabatization_2d_at_mode_7_8_dist-0.8_-0.3.F81
-rw-r--r-- 1 bsonghao nooijen      16 Nov 16 18:19 /scratch/bsonghao/nh3_diabatization_2d_at_mode_7_8_dist-0.8_-0.3.F82
-rw-r--r-- 1 bsonghao nooijen   19216 Nov 16 18:19 /scratch/bsonghao/nh3_diabatization_2d_at_mode_7_8_dist-0.8_-0.3.F83
-rw-r--r-- 1 bsonghao nooijen   29712 Nov 16 18:19 /scratch/bsonghao/nh3_diabatization_2d_at_mode_7_8_dist-0.8_-0.3.F84
-rw-r--r-- 1 bsonghao nooijen  401576 Nov 16 18:19 /scratch/bsonghao/nh3_diabatization_2d_at_mode_7_8_dist-0.8_-0.3.F85
-rw-r--r-- 1 bsonghao nooijen  903672 Nov 16 18:19 /scratch/bsonghao/nh3_diabatization_2d_at_mode_7_8_dist-0.8_-0.3.F86
-rw-r--r-- 1 bsonghao nooijen     656 Nov 16 18:19 /scratch/bsonghao/nh3_diabatization_2d_at_mode_7_8_dist-0.8_-0.3.F87
-rw-r--r-- 1 bsonghao nooijen   43888 Nov 16 18:19 /scratch/bsonghao/nh3_diabatization_2d_at_mode_7_8_dist-0.8_-0.3.F88
-rw-r--r-- 1 bsonghao nooijen     240 Nov 16 18:19 /scratch/bsonghao/nh3_diabatization_2d_at_mode_7_8_dist-0.8_-0.3.F89
-rw-r--r-- 1 bsonghao nooijen       0 Nov 16 18:19 /scratch/bsonghao/nh3_diabatization_2d_at_mode_7_8_dist-0.8_-0.3.F90
-rw-r--r-- 1 bsonghao nooijen   13760 Nov 16 18:19 /scratch/bsonghao/nh3_diabatization_2d_at_mode_7_8_dist-0.8_-0.3.F91
-rw-r--r-- 1 bsonghao nooijen   22776 Nov 16 18:19 /scratch/bsonghao/nh3_diabatization_2d_at_mode_7_8_dist-0.8_-0.3.F92
-rw-r--r-- 1 bsonghao nooijen   23168 Nov 16 18:19 /scratch/bsonghao/nh3_diabatization_2d_at_mode_7_8_dist-0.8_-0.3.F93
-rw-r--r-- 1 bsonghao nooijen   22776 Nov 16 18:19 /scratch/bsonghao/nh3_diabatization_2d_at_mode_7_8_dist-0.8_-0.3.F94
-rw-r--r-- 1 bsonghao nooijen   13760 Nov 16 18:19 /scratch/bsonghao/nh3_diabatization_2d_at_mode_7_8_dist-0.8_-0.3.F95
-rw-r--r-- 1 bsonghao nooijen   29440 Nov 16 18:19 /scratch/bsonghao/nh3_diabatization_2d_at_mode_7_8_dist-0.8_-0.3.F96
-rw-r--r-- 1 bsonghao nooijen    1184 Nov 16 18:19 /scratch/bsonghao/nh3_diabatization_2d_at_mode_7_8_dist-0.8_-0.3.F97
-rw-r--r-- 1 bsonghao nooijen    9808 Nov 16 18:19 /scratch/bsonghao/nh3_diabatization_2d_at_mode_7_8_dist-0.8_-0.3.F98
-rw-r--r-- 1 bsonghao nooijen   30264 Nov 16 18:19 /scratch/bsonghao/nh3_diabatization_2d_at_mode_7_8_dist-0.8_-0.3.F99
ls: No match.
ls: No match.
ls: No match.
Wed 16 Nov 2022 06:19:19 PM EST
0.288u 0.044s 0:19.75 1.6%	0+0k 48+224io 0pf+0w
