----- GAMESS execution script 'rungms' -----
This job is running on host io002
under operating system Linux at Wed 16 Nov 2022 08:04:25 PM EST
Available scratch disk space (Kbyte units) at beginning of the job is
Filesystem       1K-blocks       Used   Available Use% Mounted on
/dev/sdc1      15378471580 3278917120 11318349060  23% /scratch
GAMESS temporary binary files will be written to /scratch/bsonghao
GAMESS supplementary output files will be written to /home/bsonghao/.gamess_ascii_files/267638
Copying input file nh3_diabatization_2d_at_mode_7_8_dist0.5_0.7.inp to your run's scratch directory...
cp nh3_diabatization_2d_at_mode_7_8_dist0.5_0.7.inp /scratch/bsonghao/nh3_diabatization_2d_at_mode_7_8_dist0.5_0.7.F05
unset echo
/home/bjb2chen/gamess/ddikick.x /home/bjb2chen/gamess/gamess.00.x nh3_diabatization_2d_at_mode_7_8_dist0.5_0.7 -ddi 1 1 io002 -scr /scratch/bsonghao

 Distributed Data Interface kickoff program.
 Initiating 1 compute processes on 1 nodes to run the following command:
 /home/bjb2chen/gamess/gamess.00.x nh3_diabatization_2d_at_mode_7_8_dist0.5_0.7 

          ******************************************************
          *         GAMESS VERSION = 02 AUG 2018 (R2)         *
          *             FROM IOWA STATE UNIVERSITY             *
          * M.W.SCHMIDT, K.K.BALDRIDGE, J.A.BOATZ, S.T.ELBERT, *
          *   M.S.GORDON, J.H.JENSEN, S.KOSEKI, N.MATSUNAGA,   *
          *          K.A.NGUYEN, S.J.SU, T.L.WINDUS,           *
          *       TOGETHER WITH M.DUPUIS, J.A.MONTGOMERY       *
          *         J.COMPUT.CHEM.  14, 1347-1363(1993)        *
          **************** 64 BIT LINUX VERSION ****************

  SINCE 1993, STUDENTS AND POSTDOCS WORKING AT IOWA STATE UNIVERSITY
  AND ALSO IN THEIR VARIOUS JOBS AFTER LEAVING ISU HAVE MADE IMPORTANT
  CONTRIBUTIONS TO THE CODE:
     IVANA ADAMOVIC, CHRISTINE AIKENS, YURI ALEXEEV, POOJA ARORA,
     ANDREY ASADCHEV, ROB BELL, PRADIPTA BANDYOPADHYAY, JONATHAN BENTZ,
     BRETT BODE, KURT BRORSEN, CALEB CARLIN, GALINA CHABAN, WEI CHEN,
     CHEOL HO CHOI, PAUL DAY, ALBERT DEFUSCO, NUWAN DESILVA, TIM DUDLEY,
     DMITRI FEDOROV, ALEX FINDLATER, GRAHAM FLETCHER, MARK FREITAG,
     KURT GLAESEMANN, ANASTASIA GUININA,
     DAN KEMP, GRANT MERRILL, NORIYUKI MINEZAWA, JONATHAN MULLIN,
     TAKESHI NAGATA, SEAN NEDD, HEATHER NETZLOFF, BOSILJKA NJEGIC, RYAN OLSON,
     MIKE PAK, BUU PHAM,
     SPENCER PRUITT, LUKE ROSKOP, JIM SHOEMAKER, LYUDMILA SLIPCHENKO,
     TONY SMITH, SAROM SOK LEANG, JIE SONG, TETSUYA TAKETSUGU, SIMON WEBB,
     PENG XU, SOOHAENG YOO, FEDERICO ZAHARIEV

  ADDITIONAL CODE HAS BEEN PROVIDED BY COLLABORATORS IN OTHER GROUPS:
     IOWA STATE UNIVERSITY:
          JOE IVANIC, AARON WEST, LAIMUTIS BYTAUTAS, KLAUS RUEDENBERG
     UNIVERSITY OF TOKYO: KIMIHIKO HIRAO, TAKAHITO NAKAJIMA,
          TAKAO TSUNEDA, MUNEAKI KAMIYA, SUSUMU YANAGISAWA,
          KIYOSHI YAGI, MAHITO CHIBA, SEIKEN TOKURA, NAOAKI KAWAKAMI
     UNIVERSITY OF AARHUS: FRANK JENSEN
     UNIVERSITY OF IOWA: VISVALDAS KAIRYS, HUI LI
     NATIONAL INST. OF STANDARDS AND TECHNOLOGY: WALT STEVENS, DAVID GARMER
     UNIVERSITY OF PISA: BENEDETTA MENNUCCI, JACOPO TOMASI
     UNIVERSITY OF MEMPHIS: HENRY KURTZ, PRAKASHAN KORAMBATH
     UNIVERSITY OF ALBERTA: TOBY ZENG, MARIUSZ KLOBUKOWSKI
     UNIVERSITY OF NEW ENGLAND: MARK SPACKMAN
     MIE UNIVERSITY: HIROAKI UMEDA
     NAT. INST. OF ADVANCED INDUSTRIAL SCIENCE AND TECHNOLOGY: KAZUO KITAURA
     MICHIGAN STATE UNIVERSITY:
          KAROL KOWALSKI, MARTA WLOCH, JEFFREY GOUR, JESSE LUTZ,
          WEI LI, JUN SHEN, J. EMILIANO DEUSTUA, PIOTR PIECUCH
     UNIVERSITY OF MINNESOTA:
          YINAN SHU
     UNIVERSITY OF SILESIA: MONIKA MUSIAL, STANISLAW KUCHARSKI
     FACULTES UNIVERSITAIRES NOTRE-DAME DE LA PAIX:
          OLIVIER QUINET, BENOIT CHAMPAGNE
     UNIVERSITY OF CALIFORNIA - SANTA BARBARA: BERNARD KIRTMAN
     INSTITUTE FOR MOLECULAR SCIENCE:
          KAZUYA ISHIMURA, MICHIO KATOUDA, AND SHIGERU NAGASE
     UNIVERSITY OF NOTRE DAME: ANNA POMOGAEVA, DAN CHIPMAN
     KYUSHU UNIVERSITY:
          HARUYUKI NAKANO,
          FENG LONG GU, JACEK KORCHOWIEC, MARCIN MAKOWSKI, AND YURIKO AOKI,
          HIROTOSHI MORI AND EISAKU MIYOSHI
     PENNSYLVANIA STATE UNIVERSITY:
          TZVETELIN IORDANOV, CHET SWALINA, JONATHAN SKONE,
          SHARON HAMMES-SCHIFFER
     WASEDA UNIVERSITY:
          MASATO KOBAYASHI, TOMOKO AKAMA, TSUGUKI TOUMA,
          TAKESHI YOSHIKAWA, YASUHIRO IKABATA, JUNJI SEINO,
          YUYA NAKAJIMA, HIROMI NAKAI
     NANJING UNIVERSITY: SHUHUA LI
     UNIVERSITY OF NEBRASKA:
          PEIFENG SU, DEJUN SI, NANDUN THELLAMUREGE, YALI WANG, HUI LI
     UNIVERSITY OF ZURICH: ROBERTO PEVERATI, KIM BALDRIDGE
     N. COPERNICUS UNIVERSITY AND JACKSON STATE UNIVERSITY:
          MARIA BARYSZ
     UNIVERSITY OF COPENHAGEN: Jimmy Kromann, CASPER STEINMANN
     TOKYO INSTITUTE OF TECHNOLOGY: HIROYA NAKATA
     NAGOYA UNIVERSITY: YOSHIO NISHIMOTO, STEPHAN IRLE
     MOSCOW STATE UNIVERSITY: VLADIMIR MIRONOV

 EXECUTION OF GAMESS BEGUN Wed Nov 16 20:04:25 2022

            ECHO OF THE FIRST FEW INPUT CARDS -
 INPUT CARD> $system kdiag=3 mwords=100 memddi=1000 parall=.t. $end                         
 INPUT CARD> $contrl runtyp=energy ispher=1 $end                                            
 INPUT CARD> $contrl icut=9 itol=20 inttyp=rysquad qmttol=1.0d-05 nosym=1 $end              
 INPUT CARD> $scf    npunch=2 conv=1.0d-06 dirscf=.t.      $end                             
 INPUT CARD> $contrl scftyp=mcscf  mult=2 maxit=200 icharg=1 mplevl=2 $end                  
 INPUT CARD> $guess  guess=moread norb=29 purify=.t. $end                                   
 INPUT CARD> $basis  gbasis=ccd $end                                                        
 INPUT CARD> $mcscf  cistep=gmcci fullnr=.t. finci=mos                                      
 INPUT CARD>         acurcy=1.d-6 maxit=100 $end                                            
 INPUT CARD> $trans  dirtrf=.t. $end                                                        
 INPUT CARD> $mrmp   mrpt=gmcpt rdvecs=.f. $end                                             
 INPUT CARD> $gmcpt  nmofzc=0 nmodoc=1 nmoact=7 nelact=7 stsym(1)=A                         
 INPUT CARD>         reftyp=ormas nspace=1 mstart(1)=2 mine(1)=7 maxe(1)=7                  
 INPUT CARD>         kstate(1)=1,1,1                                                        
 INPUT CARD>         wstate(1)=1,1,1                                                        
 INPUT CARD>         iwgt=0 thrwgt=-1.0 krot=.f. kszdoe=.f. knospn=.f.                      
 INPUT CARD>         thrde=-1.0 edshft=0.02 $end                                            
 INPUT CARD> $data                                                                          
 INPUT CARD> NH3+ 3 states calculation at NH3 structure.                                    
 INPUT CARD> c1                                                                             
 INPUT CARD>N 7.0 -0.043602426 -0.031144515 -0.1693810622                                   
 INPUT CARD>H 1.0 0.08212936999999998 1.1074005007999999 0.27837485910000004                
 INPUT CARD>H 1.0 -0.29999722900000003 -1.0395156438 0.049767470100000016                   
 INPUT CARD>H 1.0 0.823735246 0.364878734 0.4412441441                                      
 INPUT CARD>$end                                                                            
 INPUT CARD>--- OPTIMIZED RHF      MO-S --- GENERATED AT Mon Nov 14 16:47:08 2022           
 INPUT CARD>E=      -56.3825050291, E(NUC)=   11.8429239490                                 
 INPUT CARD> $VEC                                                                           
 INPUT CARD> 1  1-1.00134066E+00-2.25158504E-03 3.44925845E-03 0.00000000E+00 0.00000000E+00
 INPUT CARD> 1  2-2.13170927E-03 0.00000000E+00 0.00000000E+00 6.57129898E-04-6.87950443E-05
 INPUT CARD> 1  3-6.87950443E-05 1.37590089E-04 0.00000000E+00 0.00000000E+00 0.00000000E+00
 INPUT CARD> 1  4 3.25502815E-04-4.84772356E-04 3.62525460E-04-6.27912517E-04-3.45956485E-04
 INPUT CARD> 1  5 3.25502815E-04-4.84772356E-04 3.62525460E-04 6.27912517E-04-3.45956485E-04
 INPUT CARD> 1  6 3.25502815E-04-4.84772356E-04-7.25050921E-04 0.00000000E+00-3.45956485E-04
 INPUT CARD> 2  1 1.31286642E-02-4.05911371E-01-2.82090992E-01 0.00000000E+00 0.00000000E+00
 INPUT CARD> 2  2-7.71489043E-02 0.00000000E+00 0.00000000E+00 9.73717494E-03 6.62450916E-04
 INPUT CARD> 2  3 6.62450916E-04-1.32490183E-03 0.00000000E+00 0.00000000E+00 0.00000000E+00
 INPUT CARD> 2  4-1.96090317E-01-1.96656153E-02-1.74855877E-02 3.02859263E-02 8.68214399E-03
 INPUT CARD> 2  5-1.96090317E-01-1.96656153E-02-1.74855877E-02-3.02859263E-02 8.68214399E-03
 INPUT CARD> 2  6-1.96090317E-01-1.96656153E-02 3.49711754E-02 0.00000000E+00 8.68214399E-03
 INPUT CARD> 3  1 0.00000000E+00 0.00000000E+00 0.00000000E+00 4.48608762E-01 0.00000000E+00
 INPUT CARD> 3  2 0.00000000E+00 2.18692520E-01 0.00000000E+00 0.00000000E+00 1.30198027E-02
 INPUT CARD> 3  3-1.30198027E-02 0.00000000E+00 0.00000000E+00 2.71832968E-02 0.00000000E+00
 INPUT CARD> 3  4-1.85332726E-01-7.03958951E-02 8.47929477E-03 1.95242443E-02 8.32835058E-03
 INPUT CARD> 3  5-1.85332726E-01-7.03958951E-02 8.47929477E-03-1.95242443E-02 8.32835058E-03
 INPUT CARD> 3  6 3.70665453E-01 1.40791790E-01-2.53376884E-02 0.00000000E+00-1.66567012E-02
 INPUT CARD> 4  1 0.00000000E+00 0.00000000E+00 0.00000000E+00 0.00000000E+00 4.48608762E-01
 INPUT CARD> 4  2 0.00000000E+00 0.00000000E+00 2.18692520E-01 0.00000000E+00 0.00000000E+00
 INPUT CARD> 4  3 0.00000000E+00 0.00000000E+00-1.50339731E-02 0.00000000E+00 2.71832968E-02
 INPUT CARD> 4  4 3.21005698E-01 1.21929267E-01 1.95242443E-02-1.40653607E-02-1.44251263E-02
  100000000 WORDS OF MEMORY AVAILABLE

     BASIS OPTIONS
     -------------
     GBASIS=CCD          IGAUSS=       0      POLAR=NONE    
     NDFUNC=       0     NFFUNC=       0     DIFFSP=       F
     NPFUNC=       0      DIFFS=       F     BASNAM=        


     RUN TITLE
     ---------
  NH3+ 3 states calculation at NH3 structure.                                    

 THE POINT GROUP OF THE MOLECULE IS C1      
 THE ORDER OF THE PRINCIPAL AXIS IS     0

 ATOM      ATOMIC                      COORDINATES (BOHR)
           CHARGE         X                   Y                   Z
 N           7.0    -0.0823966375       -0.0588545994       -0.3200837951
 H           1.0     0.1552020048        2.0926835052        0.5260522056
 H           1.0    -0.5669125599       -1.9643997267        0.0940468816
 H           1.0     1.5566339014        0.6895208260        0.8338305260

          INTERNUCLEAR DISTANCES (ANGS.)
          ------------------------------

                1 N          2 H          3 H          4 H     

   1 N       0.0000000    1.2298693 *  1.0632858 *  1.1322421 *
   2 H       1.2298693 *  0.0000000    2.1926083 *  1.0620001 *
   3 H       1.0632858 *  2.1926083 *  0.0000000    1.8407477 *
   4 H       1.1322421 *  1.0620001 *  1.8407477 *  0.0000000  

  * ... LESS THAN  3.000


     ATOMIC BASIS SET
     ----------------
 THE CONTRACTED PRIMITIVE FUNCTIONS HAVE BEEN UNNORMALIZED
 THE CONTRACTED BASIS FUNCTIONS ARE NOW NORMALIZED TO UNITY

  SHELL TYPE  PRIMITIVE        EXPONENT          CONTRACTION COEFFICIENT(S)

 N         

      1   S       1          9046.0000000    0.000699617413
      1   S       2          1357.0000000    0.005386054630
      1   S       3           309.3000000    0.027391021189
      1   S       4            87.7300000    0.103150591982
      1   S       5            28.5600000    0.278570663317
      1   S       6            10.2100000    0.448294849454
      1   S       7             3.8380000    0.278085928395
      1   S       8             0.7466000    0.015431561233

      2   S       9          9046.0000000   -0.000304990096
      2   S      10          1357.0000000   -0.002408026379
      2   S      11           309.3000000   -0.011944448725
      2   S      12            87.7300000   -0.048925992909
      2   S      13            28.5600000   -0.134472724725
      2   S      14            10.2100000   -0.315112577700
      2   S      15             3.8380000   -0.242857832550
      2   S      16             0.7466000    1.094382206854

      3   S      17             0.2248000    1.000000000000

      4   P      18            13.5500000    0.058905676772
      4   P      19             2.9170000    0.320461106714
      4   P      20             0.7973000    0.753042061792

      5   P      21             0.2185000    1.000000000000

      6   D      22             0.8170000    1.000000000000

 H         

      7   S      23            13.0100000    0.033498726390
      7   S      24             1.9620000    0.234800801174
      7   S      25             0.4446000    0.813682957883

      8   S      26             0.1220000    1.000000000000

      9   P      27             0.7270000    1.000000000000

 H         

     10   S      28            13.0100000    0.033498726390
     10   S      29             1.9620000    0.234800801174
     10   S      30             0.4446000    0.813682957883

     11   S      31             0.1220000    1.000000000000

     12   P      32             0.7270000    1.000000000000

 H         

     13   S      33            13.0100000    0.033498726390
     13   S      34             1.9620000    0.234800801174
     13   S      35             0.4446000    0.813682957883

     14   S      36             0.1220000    1.000000000000

     15   P      37             0.7270000    1.000000000000

 TOTAL NUMBER OF BASIS SET SHELLS             =   15
 NUMBER OF CARTESIAN GAUSSIAN BASIS FUNCTIONS =   30
 NOTE: THIS RUN WILL RESTRICT THE MO VARIATION SPACE TO SPHERICAL HARMONICS.
 THE NUMBER OF ORBITALS KEPT IN THE VARIATIONAL SPACE WILL BE PRINTED LATER.
 NUMBER OF ELECTRONS                          =    9
 CHARGE OF MOLECULE                           =    1
 SPIN MULTIPLICITY                            =    2
 NUMBER OF OCCUPIED ORBITALS (ALPHA)          =    5
 NUMBER OF OCCUPIED ORBITALS (BETA )          =    4
 TOTAL NUMBER OF ATOMS                        =    4
 THE NUCLEAR REPULSION ENERGY IS       10.7943723489

     $CONTRL OPTIONS
     ---------------
 SCFTYP=MCSCF        RUNTYP=ENERGY       EXETYP=RUN     
 MPLEVL=       2     CITYP =NONE         CCTYP =NONE         VBTYP =NONE    
 DFTTYP=NONE         TDDFT =NONE    
 MULT  =       2     ICHARG=       1     NZVAR =       0     COORD =UNIQUE  
 PP    =NONE         RELWFN=NONE         LOCAL =NONE         NUMGRD=       F
 ISPHER=       1     NOSYM =       1     MAXIT =     200     UNITS =ANGS    
 PLTORB=       F     MOLPLT=       F     AIMPAC=       F     FRIEND=        
 NPRINT=       7     IREST =       0     GEOM  =INPUT   
 NORMF =       0     NORMP =       0     ITOL  =      20     ICUT  =       9
 INTTYP=RYSQUAD      GRDTYP=BEST         QMTTOL= 1.0E-05

     $SYSTEM OPTIONS
     ---------------
  REPLICATED MEMORY=   100000000 WORDS (ON EVERY NODE).
 DISTRIBUTED MEMDDI=        1000 MILLION WORDS IN AGGREGATE,
 MEMDDI DISTRIBUTED OVER   1 PROCESSORS IS  1000000000 WORDS/PROCESSOR.
 TOTAL MEMORY REQUESTED ON EACH PROCESSOR=  1100000000 WORDS.
 TIMLIM=      525600.00 MINUTES, OR     365.0 DAYS.
 PARALL= T  BALTYP=  DLB     KDIAG=    3  COREFL= F
 MXSEQ2=     300 MXSEQ3=     150  mem10=         0

          ----------------
          PROPERTIES INPUT
          ----------------

     MOMENTS            FIELD           POTENTIAL          DENSITY
 IEMOM =       1   IEFLD =       0   IEPOT =       0   IEDEN =       0
 WHERE =COMASS     WHERE =NUCLEI     WHERE =NUCLEI     WHERE =NUCLEI  
 OUTPUT=BOTH       OUTPUT=BOTH       OUTPUT=BOTH       OUTPUT=BOTH    
 IEMINT=       0   IEFINT=       0                     IEDINT=       0
                                                       MORB  =       0

     -------------------------------
     INTEGRAL TRANSFORMATION OPTIONS
     -------------------------------
     NWORD  =            0
     CUTOFF = 1.0E-09     MPTRAN =       0
     DIRTRF =       T     AOINTS =DUP     

          ----------------------
          MCSCF INPUT PARAMETERS
          ----------------------
 CONVERGER SELECTION: FOCAS = F  SOSCF = F  FULLNR = T  QUD = F  JACOBI = F
 SECULAR EQUATION METHOD CISTEP = GMCCI   
 --- GENERAL INPUT OPTIONS:
 MAXIT =     100  MICIT =       1  ACURCY= 1.000E-06
 DAMP  =   0.000  CANONC=       T  ENGTOL= 1.000E-10
 EKT   =       F  NPUNCH=       2  NWORD =         0
 REGENERATE CI AFTER CONVERGENCE = NONE    
 DIABATIZATION AFTER CONVERGENCE =        F
 --- INPUT FOR FULLNR CONVERGER:
 METHOD=DM2       FORS  =       F  DROPC =       T
 LINSER=       F  FCORE =       F  NORB  =      30

          ----------------------
          INTEGRAL INPUT OPTIONS
          ----------------------
 NOPK  =       1 NORDER=       0 SCHWRZ=       T

 ------------------------------------------
 MULTIREFERENCE PERTURBATION THEORY CONTROL
 ------------------------------------------
 MRPT=GMCPT    READ CONVERGED MCSCF VECTORS= F


     ------------------------------------------
     THE POINT GROUP IS C1 , NAXIS= 1, ORDER= 1
     ------------------------------------------

 -- VARIATIONAL SPACE WILL BE RESTRICTED TO PURE SPHERICAL HARMONICS ONLY --
 AFTER EXCLUDING CONTAMINANT COMBINATIONS FROM THE CARTESIAN GAUSSIAN BASIS
 SET, THE NUMBER OF SPHERICAL HARMONICS KEPT IN THE VARIATION SPACE IS   29

     DIMENSIONS OF THE SYMMETRY SUBSPACES ARE
 A   =   29

 ..... DONE SETTING UP THE RUN .....
 CPU     0: STEP CPU TIME=     0.04 TOTAL CPU TIME=          0.0 (      0.0 MIN)
 TOTAL WALL CLOCK TIME=          0.0 SECONDS, CPU UTILIZATION IS   100.00%

          ********************
          1 ELECTRON INTEGRALS
          ********************
 TIME TO DO   DIPOLE INTEGRALS=      0.00
 ...... END OF ONE-ELECTRON INTEGRALS ......
 CPU     0: STEP CPU TIME=     0.00 TOTAL CPU TIME=          0.0 (      0.0 MIN)
 TOTAL WALL CLOCK TIME=          0.0 SECONDS, CPU UTILIZATION IS   100.00%

          -------------
          GUESS OPTIONS
          -------------
          GUESS =MOREAD            NORB  =      29          NORDER=       0
          MIX   =       F          PRTMO =       F          PUNMO =       F
          TOLZ  = 1.0E-08          TOLE  = 1.0E-05
          SYMDEN=       F          PURIFY=       T

 INITIAL GUESS ORBITALS GENERATED BY MOREAD   ROUTINE.

 STATISTICS FOR GENERATION OF SYMMETRY ORBITAL -Q- MATRIX
 NUMBER OF CARTESIAN ATOMIC ORBITALS=         30
 NUMBER OF SPHERICAL CONTAMINANTS DROPPED=     1
 NUMBER OF LINEARLY DEPENDENT MOS DROPPED=     0
 TOTAL NUMBER OF MOS IN VARIATION SPACE=      29
 ORBITAL PURIFICATION WILL OCCUR

 SYMMETRIES FOR INITIAL GUESS ORBITALS FOLLOW.   BOTH SET(S).
     5 ORBITALS ARE OCCUPIED (    1 CORE ORBITALS).
     1=A        2=A        3=A        4=A        5=A        6=A        7=A   
     8=A        9=A       10=A       11=A       12=A       13=A       14=A   
    15=A       16=A       17=A       18=A       19=A       20=A       21=A   
    22=A       23=A       24=A       25=A       26=A       27=A       28=A   
    29=A   
 ...... END OF INITIAL ORBITAL SELECTION ......
 CPU     0: STEP CPU TIME=     0.01 TOTAL CPU TIME=          0.1 (      0.0 MIN)
 TOTAL WALL CLOCK TIME=          0.0 SECONDS, CPU UTILIZATION IS   100.00%

                    ----------------------
                    AO INTEGRAL TECHNOLOGY
                    ----------------------
     S,P,L SHELL ROTATED AXIS INTEGRALS, REPROGRAMMED BY
        KAZUYA ISHIMURA (IMS) AND JOSE SIERRA (SYNSTAR).
     S,P,D,L SHELL ROTATED AXIS INTEGRALS PROGRAMMED BY
        KAZUYA ISHIMURA (INSTITUTE FOR MOLECULAR SCIENCE).
     S,P,D,F,G SHELL TO TOTAL QUARTET ANGULAR MOMENTUM SUM 5,
        ERIC PROGRAM BY GRAHAM FLETCHER (ELORET AND NASA ADVANCED
        SUPERCOMPUTING DIVISION, AMES RESEARCH CENTER).
     S,P,D,F,G,L SHELL GENERAL RYS QUADRATURE PROGRAMMED BY
        MICHEL DUPUIS (PACIFIC NORTHWEST NATIONAL LABORATORY).

          --------------------
          2 ELECTRON INTEGRALS
          --------------------

 DIRECT SCF METHOD SKIPS INTEGRAL STORAGE ON DISK.
 DIRECT TRANSFORMATION SKIPS AO INTEGRAL STORAGE ON DISK.
  ...... END OF TWO-ELECTRON INTEGRALS .....
 STEP CPU TIME =     0.02 TOTAL CPU TIME =          0.1 (      0.0 MIN)
 TOTAL WALL CLOCK TIME=          0.1 SECONDS, CPU UTILIZATION IS    87.50%
 DDI: Creating Array [0] - 900 x 36 = 32400 words.
 DDI: Creating Array [1] - 21 x 288 = 6048 words.
 DDI: Creating Array [2] - 36 x 36 = 1296 words.
 DDI: Creating Array [3] - 465 x 36 = 16740 words.

          -----------------
          MCSCF CALCULATION
          -----------------

 ----- NUCLEAR ENERGY ----- =        10.7943723489

     -------------------------------------------------
     GMC-PT/GMC-QDPT or general MCSCF input parameters
     -------------------------------------------------
 # of frozen core orbs. =         0 ->         0
 # of doubly occ. orbs. =         1
 # of active      orbs. =         7
 # of virtual     orbs. =        21
 # of active electrons  =         7
 # of states in CI      =         3
 Highest state in CI    =         3
 kstate =  1 1 1
 avecoe =  0.333 0.333 0.333
 State symmetry           = A           
 Assigned symmetry number = 1

 <<<Act. MO sym.: 1111111

 <<<Division of 1-ext.:  0
 <<<Division of 2-ext.:  0

 *** Reference space

 Reference type: ORMAS (= Occupation restricted multiple active space)
 # of orbitals          =  7
 # of minimum electrons =  7
 # of maximum electrons =  7
 State symmetry    =    1 (input)
 2*Sz              =    1 (input)
 Spin multiplicity =    2 (input)
 Dimension of reference space =      1225  (from      3432 walks)

 Dimension of reference space =      1225  (from      1225 walks)

 <<<Ionized spaces for Ref-CI:
      0:         1225 /   -1-0:         1960 /  0-1-0:         2891

 EVALUATING EXCHANGE INTEGRALS FOR DIRECT INTEGRAL TRANSFORMATION
 SCHWARZ INEQUALITY OVERHEAD:       465 INTEGRALS, T=        0.00

     --------------------------------------------
     PARTIAL TWO ELECTRON INTEGRAL TRANSFORMATION
     --------------------------------------------

 NUMBER OF CORE MOLECULAR ORBITALS     =    1
 NUMBER OF OCCUPIED MOLECULAR ORBITALS =    8
 TOTAL NUMBER OF MOLECULAR ORBITALS    =   29
 TOTAL NUMBER OF ATOMIC ORBITALS       =   30
 THRESHOLD FOR KEEPING TRANSFORMED 2E- INTEGRALS = 1.000E-09

 -------------------------------     ------------------------------
 DISTRIBUTED DATA TRANSFORMATION     PROGRAM WRITTEN BY G. FLETCHER
 -------------------------------     ------------------------------

 THE DISTRIBUTED MEMORY REQUIRED FOR THIS STEP IS MEMDDI=         1 MWORDS
 CREATING DISTRIBUTED STORAGE FOR [VIR OCC|VIR OCC] INTEGRALS
 CREATING DISTRIBUTED STORAGE FOR [VIR OCC|OCC OCC] INTEGRALS
 CREATING DISTRIBUTED STORAGE FOR [OCC OCC|OCC OCC] INTEGRALS
 CREATING DISTRIBUTED STORAGE FOR [VIR VIR|OCC OCC] INTEGRALS
 FOR    1 PROCESSORS, THE REPLICATED MEMORY NEEDED IS       73700 WORDS.
 SCHWARZ INEQUALITY OVERHEAD:       465 INTEGRALS, T=        0.00

      DIRECT 4-INDEX TRANSFORMATION 
      SCHWARZ INEQUALITY TEST SKIPPED          0 INTEGRAL BLOCKS
 ----- FROZEN CORE ENERGY =       -47.5225321111
 ... END OF INTEGRAL TRANSFORMATION ...
 CPU     0: STEP CPU TIME=     0.21 TOTAL CPU TIME=          0.3 (      0.0 MIN)
 TOTAL WALL CLOCK TIME=          0.3 SECONDS, CPU UTILIZATION IS    96.55%

     --------------------------------     -----------------------------
     MCHF NEWTON-RAPHSON OPTIMIZATION     CODE WRITTEN BY MICHEL DUPUIS
     --------------------------------     -----------------------------
     PARALLEL VERSION WRITTEN BY G. FLETCHER (ELORET)
     NASA ADVANCED SUPERCOMPUTING DIVISION, AMES RESEARCH CENTER

 NUMBER OF INDEPENDENT ORBITAL ROTATION PARAMETERS =   175
 ..... DONE SOLVING NEWTON-RAPHSON EQUATIONS .....
 CPU     0: STEP CPU TIME=     0.92 TOTAL CPU TIME=          1.2 (      0.0 MIN)
 TOTAL WALL CLOCK TIME=          1.2 SECONDS, CPU UTILIZATION IS    98.36%
 ..... DONE WITH NTN-RPH ORBITAL ROTATIONS ..... 
 CPU     0: STEP CPU TIME=     0.00 TOTAL CPU TIME=          1.2 (      0.0 MIN)
 TOTAL WALL CLOCK TIME=          1.2 SECONDS, CPU UTILIZATION IS    98.36%
 MAXIMUM MEMORY USED BY NTN-RPH CODE WAS     57645 WORDS.

 ITER     TOTAL ENERGY      DEL(E)  LAGRANGIAN ASYMMETRY   SQCDF  MICIT   DAMP
   1      -55.540026240 -0.540026240  0.130823    9    3 8.739E-02  1   0.0000
   2      -55.614485665 -0.074459425  0.021124   12    5 4.479E-01  1   0.0000
   3      -55.652608390 -0.038122726  0.016289   12    5 2.313E-01  1   0.0152
   4      -55.669853859 -0.017245469  0.006414   11    6 5.662E-02  1   0.0062
   5      -55.673348335 -0.003494475  0.001679   24    6 4.497E-03  1   0.0000
   6      -55.673705899 -0.000357564  0.000563   12    7 4.774E-04  1   0.0000
   7      -55.673747635 -0.000041736  0.000268   12    7 8.224E-05  1   0.0000
   8      -55.673754685 -0.000007050  0.000133   12    7 1.839E-05  1   0.0000
   9      -55.673756177 -0.000001492  0.000068   12    7 4.830E-06  1   0.0000
  10      -55.673756545 -0.000000367  0.000035   22    5 1.406E-06  1   0.0000
  11      -55.673756645 -0.000000101  0.000018   22    5 4.431E-07  1   0.0000
  12      -55.673756675 -0.000000030  0.000010   22    5 1.462E-07  1   0.0000
  13      -55.673756685 -0.000000010  0.000005   22    5 5.032E-08  1   0.0000
  14      -55.673756688 -0.000000003  0.000003   22    5 1.787E-08  1   0.0000
  15      -55.673756689 -0.000000001  0.000002   12    8 6.508E-09  1   0.0000
  16      -55.673756690 -0.000000000  0.000001   12    8 2.403E-09  1   0.0000

          --------------------
          LAGRANGIAN CONVERGED
          --------------------

 FINAL MCSCF ENERGY IS      -55.6737566896 AFTER  16 ITERATIONS

 -MCCI- BASED ON OPTIMIZED ORBITALS
 ----------------------------------

 PLEASE NOTE: IF THE ACTIVE ORBITALS ARE CANONICALIZED BELOW,
 THE FOLLOWING CI EXPANSION COEFFICIENTS AND THE DENSITY DO NOT
 CORRESPOND TO THE PRINTED ORBITALS.  THE PRINTED EXPANSIONS MATCH
 THE ORBITALS USED DURING THE LAST ITERATION.  IF YOU WISH TO SEE
 CI EXPANSIONS BASED ON THE CANONICAL (OR NATURAL) ORBITALS, YOU
 MUST RUN A CI CALCULATION WITH THAT ORBITAL CHOICE READ IN $VEC.

 Averaged energy =     -55.673756690

 State #    1  Energy =     -55.807609179  S =  0.500

      Det      Coef    Occupancy (Ignoring core)
      ---      ----    --------- --------- -----
        1   -0.867356  11110001110000
        5    0.072762  01111001110000
        8    0.150095  10110101110000
       17   -0.124288  11010011110000
       36    0.058710  11110001101000
       71    0.350824  11110001011000
       76    0.052729  11100101011000
       78   -0.058395  10110101011000
      176   -0.050148  11110001010100
      211   -0.052655  11110000110100
      386   -0.097366  11110001010010
      393   -0.066584  10110101010010
      701    0.104205  11110001100001

 State #    2  Energy =     -55.722944821  S =  0.500

      Det      Coef    Occupancy (Ignoring core)
      ---      ----    --------- --------- -----
        1    0.322258  11110001110000
       17    0.054072  11010011110000
       36    0.485239  11110001101000
       43   -0.071819  10110101101000
       52    0.054149  11010011101000
       71    0.741026  11110001011000
       74   -0.083716  10111001011000
       75   -0.061207  01111001011000
       78   -0.109071  10110101011000
       87    0.091221  11010011011000
      386    0.090326  11110001010010
      456    0.054626  11110001001010
      806    0.067725  11110001001001

 State #    3  Energy =     -55.490716069  S =  0.500

      Det      Coef    Occupancy (Ignoring core)
      ---      ----    --------- --------- -----
        1   -0.136803  11110001110000
       36    0.813062  11110001101000
       43   -0.084245  10110101101000
       71   -0.463317  11110001011000
       74    0.068230  10111001011000
       78    0.050661  10110101011000
      246    0.052386  11110001001100
      281    0.076193  11110000101100
      456    0.113945  11110001001010
      463    0.062534  10110101001010

 DENSITY MATRIX OVER ACTIVE MO-S

             1           2           3           4           5

    1    1.9697657
    2    0.0281182   1.6094948
    3   -0.0020110   0.0126124   1.6284634
    4   -0.0015249   0.0073683  -0.0043781   1.6453647
    5    0.1125334  -0.1034560  -0.0113212  -0.0314729   0.0495298
    6    0.0101908  -0.1966132   0.0253915   0.0823713   0.0143160
    7   -0.0153464   0.0130060  -0.1506051   0.0095645  -0.0066188

             6           7

    6    0.0596213
    7   -0.0089330   0.0377603

 FORMING THE "STANDARD FOCK OPERATOR" IN DIRECT AO INTEGRAL MODE...
 ONLY THE    1 CORE AND   21 VIRTUAL ORBITALS WILL BE CANONICALIZED

          ----------------------
          MCSCF NATURAL ORBITALS
          ----------------------

                      1          2          3          4          5
                  -15.9809     1.9778     1.6536     1.6473     1.6325
                     A          A          A          A          A   
    1  N  1  S    1.001012   0.009164  -0.006286  -0.006530  -0.002141
    2  N  1  S   -0.001986   0.432078  -0.071901  -0.188549  -0.032015
    3  N  1  S   -0.006382   0.345805  -0.145880  -0.269457  -0.052816
    4  N  1  X    0.000074   0.048519  -0.209249   0.176584   0.478814
    5  N  1  Y   -0.000246   0.006102  -0.315844   0.194013  -0.290130
    6  N  1  Z    0.001144   0.077694   0.421382   0.386343  -0.067286
    7  N  1  X   -0.000122   0.010901  -0.119228   0.056705   0.300537
    8  N  1  Y   -0.000087   0.006985  -0.129550   0.036277  -0.162057
    9  N  1  Z   -0.000641   0.018676   0.298523   0.237656  -0.065966
   10  N  1 XX   -0.000101  -0.003131  -0.012745  -0.002758   0.012963
   11  N  1 YY    0.000268   0.004148  -0.002680  -0.013032  -0.009896
   12  N  1 ZZ   -0.000167  -0.001016   0.015424   0.015790  -0.003067
   13  N  1 XY    0.000251   0.003382  -0.000425   0.001849  -0.000381
   14  N  1 XZ    0.000075   0.002760  -0.004386   0.012248   0.019278
   15  N  1 YZ   -0.000033   0.002585  -0.012141   0.008984  -0.012185
   16  H  2  S   -0.001127   0.158917  -0.085172   0.213876  -0.268004
   17  H  2  S    0.000252  -0.000651   0.004134   0.027088  -0.127614
   18  H  2  X    0.000024  -0.000386  -0.005341   0.010493   0.017745
   19  H  2  Y    0.000563  -0.026692   0.010974  -0.025886   0.026212
   20  H  2  Z    0.000294  -0.006112   0.022042   0.008948   0.005868
   21  H  3  S   -0.001722   0.162785   0.322083  -0.173199   0.066582
   22  H  3  S    0.000671  -0.000816   0.052066  -0.011964  -0.004568
   23  H  3  X   -0.000235   0.010439   0.004337  -0.000462   0.022184
   24  H  3  Y   -0.000913   0.029619   0.035801  -0.021608   0.005377
   25  H  3  Z    0.000255  -0.001818   0.008706   0.019341  -0.003989
   26  H  4  S   -0.001530   0.207969  -0.051878   0.314522   0.214412
   27  H  4  S    0.000298   0.009805   0.010202   0.070545   0.116883
   28  H  4  X    0.000727  -0.031363  -0.003276  -0.031910  -0.004864
   29  H  4  Y    0.000250  -0.010022  -0.007463   0.005098  -0.019807
   30  H  4  Z    0.000492  -0.017105   0.023026  -0.002345  -0.018999

                      6          7          8
                    0.0394     0.0298     0.0196
                     A          A          A   
    1  N  1  S   -0.128905  -0.041610  -0.135360
    2  N  1  S   -0.486260  -0.201457  -0.405960
    3  N  1  S   -0.131131  -0.214733   0.013817
    4  N  1  X    0.277079  -0.686778   0.142606
    5  N  1  Y   -0.335234  -0.047228   0.838942
    6  N  1  Z   -0.413520  -0.407876  -0.178391
    7  N  1  X   -0.120351  -0.004063   0.036662
    8  N  1  Y   -0.013827  -0.122445   0.088781
    9  N  1  Z    0.027199  -0.032913   0.099493
   10  N  1 XX   -0.057979   0.030380  -0.010009
   11  N  1 YY    0.063655  -0.033314   0.036545
   12  N  1 ZZ   -0.005675   0.002934  -0.026536
   13  N  1 XY    0.026767   0.023460  -0.016329
   14  N  1 XZ    0.015859   0.030370   0.011223
   15  N  1 YZ    0.022928   0.015034  -0.038422
   16  H  2  S    0.690204  -0.098476  -0.291251
   17  H  2  S    0.224779  -0.140531  -0.108482
   18  H  2  X   -0.009563   0.046276  -0.012351
   19  H  2  Y   -0.060916   0.007601   0.021664
   20  H  2  Z    0.016137   0.028292  -0.008044
   21  H  3  S    0.342444   0.012444   0.787131
   22  H  3  S    0.049545  -0.027592   0.157807
   23  H  3  X   -0.001195   0.010973   0.022293
   24  H  3  Y    0.036379   0.009445   0.073561
   25  H  3  Z   -0.001421   0.001991   0.031283
   26  H  4  S   -0.032578   0.809506   0.009042
   27  H  4  S   -0.120066   0.263934   0.036137
   28  H  4  X   -0.020861  -0.042168  -0.005456
   29  H  4  Y    0.037925   0.000949  -0.038941
   30  H  4  Z    0.026116  -0.012141  -0.005034

          ------------------------
          MCSCF OPTIMIZED ORBITALS
          ------------------------

                      1          2          3          4          5
                  -15.9809     0.0000     0.0000     0.0000     0.0000
                     A          A          A          A          A   
    1  N  1  S    1.001012  -0.000180   0.016764   0.008698  -0.009771
    2  N  1  S   -0.001986   0.398773  -0.005546  -0.010250  -0.182164
    3  N  1  S   -0.006382   0.336563  -0.101863  -0.010727  -0.277778
    4  N  1  X    0.000074   0.016904   0.446991  -0.080245  -0.037140
    5  N  1  Y   -0.000246  -0.004529   0.000720   0.386957  -0.038206
    6  N  1  Z    0.001144   0.049979   0.016983  -0.004095   0.589469
    7  N  1  X   -0.000122  -0.013256   0.310803  -0.105935  -0.076795
    8  N  1  Y   -0.000087   0.006851  -0.060747   0.194480  -0.040190
    9  N  1  Z   -0.000641   0.026587  -0.052593  -0.021799   0.387088
   10  N  1 XX   -0.000101  -0.006472   0.022025  -0.004943  -0.014293
   11  N  1 YY    0.000268   0.007769  -0.024084   0.002543  -0.007287
   12  N  1 ZZ   -0.000167  -0.001297   0.002059   0.002401   0.021580
   13  N  1 XY    0.000251   0.005168   0.000588   0.002963  -0.000388
   14  N  1 XZ    0.000075   0.003215   0.022271  -0.005324   0.002066
   15  N  1 YZ   -0.000033   0.003757   0.001224   0.022743  -0.002331
   16  H  2  S   -0.001127   0.194596  -0.110285   0.380724   0.120393
   17  H  2  S    0.000252   0.011986  -0.110439   0.115977   0.042052
   18  H  2  X    0.000024  -0.001068   0.025577  -0.004338  -0.001008
   19  H  2  Y    0.000563  -0.029728   0.005973  -0.040268  -0.013287
   20  H  2  Z    0.000294  -0.004446   0.000486  -0.011961   0.019646
   21  H  3  S   -0.001722   0.199353  -0.238557  -0.362766   0.112104
   22  H  3  S    0.000671   0.004807  -0.046207  -0.042552   0.033330
   23  H  3  X   -0.000235   0.009997   0.014751  -0.019333   0.000052
   24  H  3  Y   -0.000913   0.033743  -0.027055  -0.039415   0.010249
   25  H  3  Z    0.000255  -0.001503   0.002185   0.004262   0.020587
   26  H  4  S   -0.001530   0.207500   0.414269   0.012683   0.116655
   27  H  4  S    0.000298   0.003736   0.149120  -0.064505   0.030222
   28  H  4  X    0.000727  -0.032641  -0.021136  -0.009250  -0.021851
   29  H  4  Y    0.000250  -0.007796  -0.011647   0.024254  -0.000032
   30  H  4  Z    0.000492  -0.014445  -0.028879  -0.000280   0.017435

                      6          7          8          9         10
                    0.0000     0.0000     0.0000     0.1152     0.2001
                     A          A          A          A          A   
    1  N  1  S    0.161241  -0.069501  -0.074564  -0.082745   0.038722
    2  N  1  S    0.635554  -0.189943  -0.194750  -0.116156   0.043136
    3  N  1  S    0.249245   0.125114   0.032442   0.970340  -0.514811
    4  N  1  X    0.078722   0.803847  -0.122821  -0.041154  -0.012795
    5  N  1  Y    0.071000   0.196102   0.919420  -0.021713  -0.164013
    6  N  1  Z    0.590033   0.062695  -0.065015  -0.107393   0.054696
    7  N  1  X    0.070110   0.008741   0.069509   0.182694   0.199130
    8  N  1  Y    0.057189   0.119358   0.082371   0.167837   0.753937
    9  N  1  Z   -0.032928   0.049564   0.068500   0.276546  -0.055046
   10  N  1 XX    0.031616  -0.050784   0.019959  -0.019654   0.036427
   11  N  1 YY   -0.041029   0.066373   0.000865   0.052031  -0.078088
   12  N  1 ZZ    0.009412  -0.015590  -0.020824  -0.032377   0.041661
   13  N  1 XY   -0.029570  -0.013723  -0.021213   0.059787  -0.023879
   14  N  1 XZ   -0.033347  -0.011369   0.008249   0.050196   0.022623
   15  N  1 YZ   -0.016304  -0.016699  -0.039093   0.040014   0.074424
   16  H  2  S   -0.412581   0.250015  -0.527994   0.454413   0.184804
   17  H  2  S   -0.070718   0.157523  -0.204219  -0.855706  -0.601026
   18  H  2  X   -0.015516  -0.043851   0.000597   0.057272   0.017925
   19  H  2  Y    0.037671  -0.022775   0.042101   0.028722   0.026986
   20  H  2  Z   -0.026634  -0.020078  -0.010086   0.037350   0.056906
   21  H  3  S   -0.464154   0.399238   0.534806   0.271810  -0.558791
   22  H  3  S   -0.064106   0.096001   0.112200  -0.412800   1.934440
   23  H  3  X   -0.011109   0.000675   0.020586  -0.033478   0.026749
   24  H  3  Y   -0.050093   0.031758   0.049311  -0.046968   0.132588
   25  H  3  Z   -0.008883   0.008388   0.029247  -0.027135  -0.060811
   26  H  4  S   -0.427408  -0.639219   0.166009   0.397911   0.149487
   27  H  4  S   -0.064008  -0.240503   0.122302  -0.936593  -0.478083
   28  H  4  X    0.040824   0.022719  -0.004645   0.035573   0.001131
   29  H  4  Y   -0.020598  -0.000270  -0.048176   0.096543   0.005575
   30  H  4  Z   -0.012488   0.015309  -0.017522   0.047635   0.036281

                     11         12         13         14         15
                    0.2745     0.5270     0.5826     0.6932     0.8755
                     A          A          A          A          A   
    1  N  1  S    0.010426   0.101701  -0.033279  -0.050001  -0.575816
    2  N  1  S    0.027672   0.149061   0.029626  -0.099055  -1.294004
    3  N  1  S   -0.072889  -0.628686   0.542555   0.106750   2.124325
    4  N  1  X    0.029525  -0.528707  -0.454285   0.057056  -0.074496
    5  N  1  Y   -0.058596   0.024625   0.097272  -0.487993  -0.115074
    6  N  1  Z    0.001920   0.562424  -0.483027  -0.144870   0.272956
    7  N  1  X   -0.349266   0.856628   1.167183   0.222446   0.147030
    8  N  1  Y    0.345383   0.177743  -0.007260   1.770314   0.154065
    9  N  1  Z   -0.079591  -0.681358   0.924588   0.380355  -0.168456
   10  N  1 XX   -0.061276   0.008761  -0.009291   0.054058  -0.031655
   11  N  1 YY    0.071076   0.015953  -0.008642  -0.020070   0.005275
   12  N  1 ZZ   -0.009801  -0.024714   0.017933  -0.033987   0.026380
   13  N  1 XY   -0.029349   0.014126  -0.049977   0.046143  -0.110035
   14  N  1 XZ   -0.053451  -0.008441  -0.003722  -0.004687   0.043005
   15  N  1 YZ    0.014785  -0.009107   0.004857  -0.101687  -0.021071
   16  H  2  S    0.594106   0.229091  -0.031955  -0.573192  -0.024826
   17  H  2  S   -2.119661   0.300938   0.433145  -0.500315  -0.349063
   18  H  2  X   -0.077187   0.065181  -0.091200   0.094948  -0.254419
   19  H  2  Y    0.077186   0.006626   0.074027   0.219773   0.105574
   20  H  2  Z   -0.010790  -0.126206   0.039462  -0.162989   0.086589
   21  H  3  S    0.108205   0.439505  -0.243217   0.570881  -0.116973
   22  H  3  S   -0.206839   0.319073   0.259971   0.554633  -0.467973
   23  H  3  X    0.034891   0.014918   0.099438  -0.025058   0.143241
   24  H  3  Y    0.010574   0.062409  -0.007200   0.190119  -0.127464
   25  H  3  Z    0.004602  -0.015291   0.052441   0.162590   0.111706
   26  H  4  S   -0.641498  -0.087973  -0.617213  -0.125615   0.007147
   27  H  4  S    2.257834  -0.328914  -0.862388  -0.078193  -0.307984
   28  H  4  X   -0.099153   0.042384   0.107210   0.224923   0.106279
   29  H  4  Y    0.047813   0.076308   0.017925   0.016134  -0.194613
   30  H  4  Z   -0.034521  -0.065457   0.127667  -0.089257   0.222937

                     16         17         18         19         20
                    1.0541     1.0945     1.2235     1.2889     1.4122
                     A          A          A          A          A   
    1  N  1  S    0.254550  -0.250872  -0.061573  -0.233628  -0.314550
    2  N  1  S    0.542873  -0.508299  -0.135669  -0.499718  -0.689186
    3  N  1  S   -1.117512   1.083468   0.210749   0.871269   0.952495
    4  N  1  X    0.008019  -0.022889  -0.086894   0.049058  -0.056330
    5  N  1  Y   -0.241825   0.037424  -0.170468  -0.067211  -0.059333
    6  N  1  Z    0.024810   0.063117   0.015972  -0.001268  -0.104920
    7  N  1  X    0.131732   0.297675   0.617009  -0.185169   0.365831
    8  N  1  Y    1.192299  -0.039655   0.697719   0.037583  -0.004368
    9  N  1  Z   -0.306721  -0.076710   0.158170   0.370836   0.525774
   10  N  1 XX   -0.190816  -0.100116   0.082512   0.081029  -0.137060
   11  N  1 YY    0.038324  -0.125948  -0.071332   0.039610   0.077664
   12  N  1 ZZ    0.152492   0.226064  -0.011180  -0.120638   0.059396
   13  N  1 XY   -0.071675   0.157567   0.090235  -0.088564   0.133750
   14  N  1 XZ    0.100436  -0.111659  -0.240223  -0.130665  -0.053452
   15  N  1 YZ    0.001851  -0.052787   0.180840   0.119369   0.049508
   16  H  2  S   -0.460644  -0.213092  -0.332048  -0.384447  -0.355119
   17  H  2  S   -0.073633   0.000934  -0.031369   0.051625   0.200078
   18  H  2  X   -0.099349   0.376013  -0.392092   0.152910   0.221373
   19  H  2  Y   -0.221428   0.003862  -0.204422  -0.251000  -0.140904
   20  H  2  Z    0.222624   0.326471   0.464329   0.067245  -0.631060
   21  H  3  S    0.700229  -0.142680   0.361843  -0.184311  -0.253323
   22  H  3  S    0.496231  -0.167648   0.155454  -0.115929  -0.070180
   23  H  3  X    0.339671  -0.204407  -0.510133   0.536813  -0.233768
   24  H  3  Y   -0.010646   0.084716   0.006620  -0.169646   0.091579
   25  H  3  Z   -0.121322   0.421685  -0.330569  -0.188476  -0.525024
   26  H  4  S    0.065536  -0.382925  -0.251793  -0.183520  -0.391970
   27  H  4  S    0.138956  -0.155473  -0.143231  -0.099334  -0.207080
   28  H  4  X   -0.252091  -0.209235   0.138190   0.227412  -0.210112
   29  H  4  Y    0.009593   0.313618   0.051459   0.516539   0.006860
   30  H  4  Z    0.484086   0.171417  -0.106074  -0.347824   0.314222

                     21         22         23         24         25
                    1.5844     1.6776     1.8476     1.9603     2.1424
                     A          A          A          A          A   
    1  N  1  S   -0.113612   0.092019  -0.129646  -0.015598   0.007213
    2  N  1  S   -0.185239   0.298065  -0.289600  -0.020358   0.031265
    3  N  1  S    0.777942   0.545507  -0.142828   0.067895   0.241664
    4  N  1  X   -0.091156   0.310499   0.125017   0.008435   0.052529
    5  N  1  Y   -0.082462   0.230104   0.489056   0.118854  -0.101788
    6  N  1  Z    0.018262   0.225487   0.008417  -0.002826   0.042706
    7  N  1  X    0.061749   0.072930   0.170842  -0.193294   0.104524
    8  N  1  Y    0.850557  -0.028155   0.402851   0.054908  -0.056064
    9  N  1  Z    0.393098   0.177137  -0.003500   0.205098   0.177921
   10  N  1 XX    0.169019  -0.027048   0.031901  -0.620475  -0.494900
   11  N  1 YY   -0.111791  -0.026556   0.155981  -0.166383   0.222150
   12  N  1 ZZ   -0.057228   0.053603  -0.187883   0.786858   0.272751
   13  N  1 XY   -0.007571  -0.104863   0.082379   0.458292  -0.436374
   14  N  1 XZ    0.076167  -0.304597   0.096820   0.042577   0.319315
   15  N  1 YZ   -0.086359   0.026456  -0.279763   0.044142  -0.112529
   16  H  2  S   -0.225422   0.026157  -0.038641  -0.076885   0.314290
   17  H  2  S   -0.557319  -0.154961  -0.095651  -0.196432   0.302633
   18  H  2  X    0.504603   0.086238   0.052460  -0.244107   0.663108
   19  H  2  Y    0.581817   0.471465   0.109048   0.326331  -0.557957
   20  H  2  Z    0.368467  -0.066819   0.451621  -0.020137   0.210498
   21  H  3  S    0.258182  -0.082399   0.117091  -0.011089  -0.123615
   22  H  3  S   -0.046960  -0.006571   0.510968   0.001963  -0.026105
   23  H  3  X    0.059462  -0.116252   0.224984   0.292226  -0.439948
   24  H  3  Y   -0.436838  -0.142285   0.961005  -0.036857  -0.080002
   25  H  3  Z   -0.529717  -0.194580  -0.410449  -0.231396  -0.074122
   26  H  4  S   -0.442202   0.113586  -0.073791   0.141793  -0.465329
   27  H  4  S    0.209551  -0.406916  -0.206255   0.110779  -0.359079
   28  H  4  X   -0.197853   0.566619   0.146912   0.182685   0.761589
   29  H  4  Y   -0.240553   0.411064  -0.046038   0.059529  -0.409331
   30  H  4  Z   -0.084754   0.608613   0.085671  -0.420846  -0.151724

                     26         27         28         29
                    2.2427     2.4604     2.6557     3.0084
                     A          A          A          A   
    1  N  1  S   -0.119954  -0.061606  -0.156114  -0.098385
    2  N  1  S   -0.203070  -0.159904  -0.179187  -0.080031
    3  N  1  S    0.740753  -0.497474   1.666976   1.456815
    4  N  1  X   -0.015513  -0.003570   0.240198  -0.213449
    5  N  1  Y    0.022706   0.316569   0.079786  -0.297400
    6  N  1  Z    0.019727  -0.095873   0.228426   0.084438
    7  N  1  X    0.445468   0.064747   0.700870  -0.284780
    8  N  1  Y   -0.159489   1.047309   0.589758  -0.449684
    9  N  1  Z    0.362603  -0.082804   0.511857   0.145168
   10  N  1 XX   -0.045799  -0.204519   0.247013  -0.819616
   11  N  1 YY   -0.014513   0.046189   0.073669   1.454610
   12  N  1 ZZ    0.060312   0.158329  -0.320681  -0.634995
   13  N  1 XY   -0.373121  -0.572125   0.672480   0.277491
   14  N  1 XZ    0.619217  -0.048067   0.844854  -0.237550
   15  N  1 YZ   -0.266473   0.931815   0.666057  -0.047181
   16  H  2  S   -0.463523  -0.594821  -0.339478  -0.673271
   17  H  2  S   -0.125374  -0.388941  -0.056610  -0.166166
   18  H  2  X   -0.596739   0.139415   0.162161  -0.062352
   19  H  2  Y    0.413925   0.690821   0.168963   0.763336
   20  H  2  Z   -0.116987   0.074623   0.176193   0.345105
   21  H  3  S   -0.163723   0.866868  -0.103893  -1.265536
   22  H  3  S   -0.113230   0.395516   0.042987  -0.369450
   23  H  3  X   -0.468911   0.021952   0.017304  -0.321250
   24  H  3  Y   -0.024018   0.826903  -0.129470  -0.947964
   25  H  3  Z   -0.192469   0.117025   0.231664   0.350958
   26  H  4  S   -0.033628   0.249524  -1.228722   0.459519
   27  H  4  S   -0.016204   0.203194  -0.511895   0.080118
   28  H  4  X   -0.285943  -0.334722   0.892188  -0.405325
   29  H  4  Y    1.017145  -0.070593   0.255447  -0.002162
   30  H  4  Z   -0.132259  -0.232784   0.634628  -0.232632
 .....DONE WITH MCSCF ITERATIONS.....
 CPU     0: STEP CPU TIME=    11.05 TOTAL CPU TIME=         12.2 (      0.2 MIN)
 TOTAL WALL CLOCK TIME=         12.3 SECONDS, CPU UTILIZATION IS    99.92%

     ----------------------------------------------------------------
     PROPERTY VALUES FOR THE MCSCF SELF-CONSISTENT FIELD WAVEFUNCTION
     ----------------------------------------------------------------

          -----------------
          ENERGY COMPONENTS
          -----------------

         WAVEFUNCTION NORMALIZATION =       1.0000000000

                ONE ELECTRON ENERGY =     -93.1690896745
                TWO ELECTRON ENERGY =      26.7009606359
           NUCLEAR REPULSION ENERGY =      10.7943723489
                                      ------------------
                       TOTAL ENERGY =     -55.6737566896

 ELECTRON-ELECTRON POTENTIAL ENERGY =      26.7009606359
  NUCLEUS-ELECTRON POTENTIAL ENERGY =    -148.7725600123
   NUCLEUS-NUCLEUS POTENTIAL ENERGY =      10.7943723489
                                      ------------------
             TOTAL POTENTIAL ENERGY =    -111.2772270274
               TOTAL KINETIC ENERGY =      55.6034703378
                 VIRIAL RATIO (V/T) =       2.0012640641

          ---------------------------------------
          MULLIKEN AND LOWDIN POPULATION ANALYSES
          ---------------------------------------

     ATOMIC MULLIKEN POPULATION IN EACH MOLECULAR ORBITAL

                      1          2          3          4          5

                  2.000000   1.977820   1.653590   1.647286   1.632457

    1             2.000485   1.377835   1.275034   1.058140   1.246614
    2            -0.000075   0.164067   0.036966   0.158696   0.238782
    3            -0.000227   0.164114   0.322247   0.123014   0.022618
    4            -0.000183   0.271804   0.019343   0.307437   0.124443

                      6          7          8

                  0.039420   0.029827   0.019600

    1             0.017111   0.014774   0.010508
    2             0.018324   0.000312   0.001045
    3             0.004065  -0.000080   0.007965
    4            -0.000079   0.014821   0.000082
 WARNING! MCSCF POPULATIONS SHOWN ABOVE ARE FOR THE NATURAL ORBITALS.
 IGNORE THE ABOVE DATA FOR MCSCF FUNCTIONS WHICH ARE NOT OF -FORS- TYPE.
 THE FOLLOWING POPULATIONS ARE CORRECT FOR ANY MCSCF WAVEFUNCTION.

               ----- POPULATIONS IN EACH AO -----
                             MULLIKEN      LOWDIN
              1  N  1  S      2.00212     1.90612
              2  N  1  S      0.81730     0.58329
              3  N  1  S      0.73362     0.42539
              4  N  1  X      0.76120     0.70643
              5  N  1  Y      0.61896     0.54159
              6  N  1  Z      0.82428     0.77915
              7  N  1  X      0.42943     0.49309
              8  N  1  Y      0.27925     0.40112
              9  N  1  Z      0.51973     0.55995
             10  N  1 XX      0.00045     0.15496
             11  N  1 YY      0.00452     0.19239
             12  N  1 ZZ      0.00071     0.14581
             13  N  1 XY      0.00463     0.00348
             14  N  1 XZ      0.00430     0.00859
             15  N  1 YZ      0.00000     0.00832
             16  H  2  S      0.50293     0.38139
             17  H  2  S      0.06619     0.15630
             18  H  2  X      0.01025     0.03535
             19  H  2  Y      0.02820     0.04732
             20  H  2  Z      0.01056     0.02365
             21  H  3  S      0.55856     0.43688
             22  H  3  S      0.03033     0.15025
             23  H  3  X      0.01075     0.02583
             24  H  3  Y      0.03452     0.06135
             25  H  3  Z      0.00955     0.02666
             26  H  4  S      0.61416     0.46375
             27  H  4  S      0.06557     0.15672
             28  H  4  X      0.02737     0.05152
             29  H  4  Y      0.01247     0.03695
             30  H  4  Z      0.01810     0.03635

          ----- MULLIKEN ATOMIC OVERLAP POPULATIONS -----
          (OFF-DIAGONAL ELEMENTS NEED TO BE MULTIPLIED BY 2)

             1           2           3           4

    1    6.2560638
    2    0.2137242   0.4100810
    3    0.2965693  -0.0049763   0.3552823
    4    0.2341436  -0.0007124  -0.0031600   0.5073962

          TOTAL MULLIKEN AND LOWDIN ATOMIC POPULATIONS
       ATOM         MULL.POP.    CHARGE          LOW.POP.     CHARGE
    1 N             7.000501   -0.000501         6.909692    0.090308
    2 H             0.618117    0.381883         0.644017    0.355983
    3 H             0.643715    0.356285         0.700985    0.299015
    4 H             0.737667    0.262333         0.745306    0.254694

          MULLIKEN SPHERICAL HARMONIC POPULATIONS
       ATOM           S       P       D      F      G      H      I    TOTAL
    1 N             3.55    3.43    0.01   0.00   0.00   0.00   0.00    7.00
    2 H             0.57    0.05    0.00   0.00   0.00   0.00   0.00    0.62
    3 H             0.59    0.05    0.00   0.00   0.00   0.00   0.00    0.64
    4 H             0.68    0.06    0.00   0.00   0.00   0.00   0.00    0.74

          ---------------------
          ELECTROSTATIC MOMENTS
          ---------------------

 POINT   1           X           Y           Z (BOHR)    CHARGE
                 0.000004    0.000003   -0.177185        1.00 (A.U.)
         DX          DY          DZ         /D/  (DEBYE)
     0.902752    0.632058    2.160940    2.425721
 ...... END OF PROPERTY EVALUATION ......
 CPU     0: STEP CPU TIME=     0.00 TOTAL CPU TIME=         12.2 (      0.2 MIN)
 TOTAL WALL CLOCK TIME=         12.3 SECONDS, CPU UTILIZATION IS    99.92%

     -------------------------------------------------
     GMC-PT/GMC-QDPT or general MCSCF input parameters
     -------------------------------------------------
 # of frozen core orbs. =         0 ->         0
 # of doubly occ. orbs. =         1
 # of active      orbs. =         7
 # of virtual     orbs. =        21
 # of active electrons  =         7
 # of states in CI      =         3
 Highest state in CI    =         3
 kstate =  1 1 1
 avecoe =  0.333 0.333 0.333
 State symmetry           = A           
 Assigned symmetry number = 1

 <<<Act. MO sym.: 1111111

 <<<Division of 1-ext.:  0
 <<<Division of 2-ext.:  0

     ------------------------
     Orbital canonicalization
     ------------------------

 MOs are canonicalized for core, virtual, and invariant-active orbital spaces.
 This is a part of the GMC-QDPT calculation.
 SCHWARZ INEQUALITY OVERHEAD:       465 INTEGRALS, T=        0.00
 DIRECT TRANSFORMATION SKIPS AO INTEGRAL STORAGE ON DISK.

 Averaged energy =     -55.673756690

 State #    1  Energy =     -55.807609179  S =  0.500
 State #    2  Energy =     -55.722944821  S =  0.500
 State #    3  Energy =     -55.490716069  S =  0.500

 Orbital energies for filled orbital space
  -15.980915
 Orbital energies for active orbital space
   -1.477523  -0.769663  -0.999746  -0.711805   0.061960
    0.214211   0.385166
 Orbital energies for external orbital space
    0.115207   0.200109   0.274539   0.526998   0.582561
    0.693155   0.875475   1.054093   1.094486   1.223458
    1.288865   1.412163   1.584407   1.677621   1.847577
    1.960284   2.142416   2.242737   2.460410   2.655747
    3.008420

 Zero values mean non-canonical orbitals.
 ... done with orbital canonicalization ...
 CPU     0: STEP CPU TIME=     0.63 TOTAL CPU TIME=         12.9 (      0.2 MIN)
 TOTAL WALL CLOCK TIME=         12.9 SECONDS, CPU UTILIZATION IS    99.84%

     --------------------------------------------
     PARTIAL TWO ELECTRON INTEGRAL TRANSFORMATION
     --------------------------------------------

 NUMBER OF CORE MOLECULAR ORBITALS     =    0
 NUMBER OF OCCUPIED MOLECULAR ORBITALS =    8
 TOTAL NUMBER OF MOLECULAR ORBITALS    =   29
 TOTAL NUMBER OF ATOMIC ORBITALS       =   30
 THRESHOLD FOR KEEPING TRANSFORMED 2E- INTEGRALS = 1.000E-09
 AO INTEGRALS WILL BE CALCULATED IN DIRECT MODE...
 DIRECT TRANSFORMATION SKIPS AO INTEGRAL STORAGE ON DISK.
 SCHWARZ INEQUALITY OVERHEAD:       465 INTEGRALS, T=        0.01

 PLAN A: REQUIREMENTS FOR FULLY IN-MEMORY TRANSFORMATION:
 # OF WORDS AVAILABLE =            100000000
 # OF WORDS NEEDED    =               221798

 PARALLEL ONLY WORKS WITH THE SEGMENTED ALGORITHM.
 ADJUSTING MEMORY TO USE SEGMENTED ALGORITHM.


 PLAN B: REQUIREMENTS FOR THE SEGMENTED TRANSFORMATION:
       MINIMUM=         124148 WORDS FOR 1 MOLECULAR ORBITAL PER PASS
       MAXIMUM=         221798 WORDS FOR ALL MOLECULAR ORBITALS IN 1 PASS
              (          13950 EXTRA WORDS INCLUDES 1 EXTRA ORBITAL/PASS)
 THIS RUN USES=         221798 WORDS,
 DISTRIBUTING   1 PASSES EACH CONTAINING     8 ORBITALS OVER   1 PROCESSORS.

 CHOOSING SEGMENTED PARTIAL TRANSFORMATION...
 DIRECT TRANSFORMATION SKIPS AO INTEGRAL STORAGE ON DISK.
 PASS #   1 TOOK        0.04 SECONDS.
 TOTAL NUMBER OF TRANSFORMED 2E- INTEGRALS KEPT =        29226
 ... END OF INTEGRAL TRANSFORMATION ...
 CPU     0: STEP CPU TIME=     0.05 TOTAL CPU TIME=         12.9 (      0.2 MIN)
 TOTAL WALL CLOCK TIME=         12.9 SECONDS, CPU UTILIZATION IS    99.92%

     --------     ------------------------------------------
     GMC-QDPT     Program written by H.Nakano (Kyushu Univ.)
     --------     ------------------------------------------

 *** Reference space

 Reference type: ORMAS (= Occupation restricted multiple active space)
 # of orbitals          =  7
 # of minimum electrons =  7
 # of maximum electrons =  7
 State symmetry    =    1 (input)
 2*Sz              =    1 (input)
 Spin multiplicity =    2 (input)
 Dimension of reference space =      1225  (from      3432 walks)

 Dimension of reference space =      1225  (from      1225 walks)

 <<<Ionized spaces for Ref-CI:
      0:         1225 /   -1-0:         1960 /  0-1-0:         2891

 ***                    ***
 *** Reference space CI ***
 ***                    ***

 Converged after   34 iterations

 Reference wavefunctions:

 State #    1  Energy =     -55.807609179  S =  0.500

      Det      Coef    Occupancy (Ignoring core)
      ---      ----    --------- --------- -----
        1   -0.959882  11110001110000
       71   -0.165335  11110001011000
      393   -0.077758  10110101010010
      717   -0.051013  11010011100001

 State #    2  Energy =     -55.722944821  S =  0.500

      Det      Coef    Occupancy (Ignoring core)
      ---      ----    --------- --------- -----
        1    0.170448  11110001110000
       71   -0.963288  11110001011000
      177    0.056041  11101001010100
      822    0.052078  11010011001001

 State #    3  Energy =     -55.490716069  S =  0.500

      Det      Coef    Occupancy (Ignoring core)
      ---      ----    --------- --------- -----
        4    0.051443  10111001110000
       36   -0.967762  11110001101000
       72    0.050365  11101001011000
      113   -0.055879  10110100111000
      142    0.057524  11101001100100
      463   -0.079083  10110101001010

 Davidson method: CPU/Wall time =           0.47 /           0.46 sec.

 Oscillator strength (invalid if E(1)/=E(GS)):
 -----------------------------------------
   State                        f
 -----------------------------------------
     2     F(REF-CI)=        0.0014989628
     3     F(REF-CI)=        0.0069694719
 -----------------------------------------

 Dipole moment matrix elements, x, y, z, in A.U.

 Dimension of ionized spaces for PT:
 (N-2) space:         1715 /  (N-1) space:         2842 /  N space:         2891
 (N+1) space:         2842 /  (N+2) space:         1715

 <<<Ionized spaces for internal:
         0:         1225 /      -1-0:         1960 /     0-1-0:         2891
  -1-0-1-0:         2842 / 0-1-0-1-0:         3381

 Diagonal elements of averaged one-particle density matrix:
       2       3       4       5       6       7       8
  0.9919  0.9830  0.9851  0.9873  0.0235  0.0177  0.0116
  0.9857  0.6556  0.6639  0.6584  0.0157  0.0125  0.0082

 Orbital energies:
 -------- Doubly-occupied orbitals (highest several orbs.) -------
             1
 -1.598091D+01
 -------- Active orbitals ----------------------------------------
             2            3            4            5            6
 -1.477523D+00-7.696628D-01-9.997458D-01-7.118050D-01 6.195986D-02
             7            8
  2.142109D-01 3.851659D-01
 -------- External orbitals (lowest several orbs.) ---------------
             9           10           11           12           13
  1.152065D-01 2.001085D-01 2.745391D-01 5.269978D-01 5.825610D-01
            14           15           16           17           18
  6.931552D-01 8.754750D-01 1.054093D+00 1.094486D+00 1.223458D+00

 *** Quasi-degeneracy checking

 === Det (|Ci| > 1.0D-01 and dE < 5.0D-03)

 # of small denominators (single excitations)
 State       dEmin  dE < 5.0D-03  dE < 5.0D-04  dE < 5.0D-05  dE < 5.0D-06
 ----- ----------- ------------- ------------- ------------- -------------
     1    5.00D-03             0             0             0             0
     2    5.00D-03             0             0             0             0
     3    5.00D-03             0             0             0             0

 # of small denominators (double excitations)
 State       dEmin  dE < 5.0D-03  dE < 5.0D-04  dE < 5.0D-05  dE < 5.0D-06
 ----- ----------- ------------- ------------- ------------- -------------
     1    5.00D-03             0             0             0             0
     2    5.00D-03             0             0             0             0
     3    5.00D-03             0             0             0             0

 *** Zeroth-Order Setup (Granovsky's zeroth-order vectors)
 Zeroth-order effective Hamiltonian
  (= Sum_i e(i)*<I|a+(i)a(i)|J> ):
                   1            2            3
     1 -7.094852D+00
     2  1.655968D-02-7.056541D+00
     3  2.518448D-03-7.459492D-03-6.808174D+00

 Zeroth-order vectors:
 State #    1
       MC st            1           2           3
       Coeff    9.363D-01  -3.508D-01  -1.698D-02
 State #    2
       MC st            2           1           3
       Coeff   -9.360D-01  -3.511D-01  -2.516D-02
 State #    3
       MC st            3           2           1
       Coeff    9.995D-01  -2.952D-02   7.070D-03

 *** GMC-QDPT computation

 (Integral reading:  CPU/Wall time =           0.01 /           0.00 sec.)

 One-external:
   0 -ionized terms: CPU/Wall time =           0.03 /           0.04 sec.
 (-1)-ionized terms: CPU/Wall time =           0.08 /           0.08 sec.
 (+1)-ionized terms: CPU/Wall time =           0.03 /           0.02 sec.
 (+1)-ionized terms: CPU/Wall time =           0.00 /           0.01 sec.
 (+2)-ionized terms: CPU/Wall time =           0.00 /           0.01 sec.

 Internal:
 # of macro loops for internal contribution =         1 (input)
 Loop:    1
 Dimension of internal CISD space     =         0  (after screening)
 Space construction: CPU/Wall time =           0.02 /           0.01 sec.
 Internal terms:     CPU/Wall time =           0.00 /           0.00 sec.

 Two-external:
   0 -ionized terms: CPU/Wall time =           0.06 /           0.06 sec.
 (-1)-ionized terms: CPU/Wall time =           1.01 /           1.01 sec.
 (-2)-ionized terms: CPU/Wall time =           0.16 /           0.16 sec.

 Total time:         CPU/Wall time =           1.39 /           1.40 sec.

 ***                  ***
 *** GMC-QDPT Results ***
 ***                  ***

 Diagonal elements of effective Hamiltonian:
 Heff(  1) =   -55.89841148
 Heff(  2) =   -55.83845146
 Heff(  3) =   -55.60251286

 Off-diagonal elements of effective Hamiltonian:
                   1            2
     2  2.480667D-02
     3 -5.151799D-03-5.097856D-03

 ******** GMC-QDPT energies ********
 ----------------------------------------------------------------------------
   State                        1st order                           2nd order
 ----------------------------------------------------------------------------
     1     E(REF-CI)=      -55.8076091790   E(GMC-QDPT2)=      -55.9073758188
     2     E(REF-CI)=      -55.7229448208   E(GMC-QDPT2)=      -55.8297073583
     3     E(REF-CI)=      -55.4907160691   E(GMC-QDPT2)=      -55.6022926155
 ----------------------------------------------------------------------------

 Excitation energies (invalid if E(1)/=E(GS)):
 ----------------------------------------------------------------------------
   State                        1st order                           2nd order
 ----------------------------------------------------------------------------

     TZ Sorted GMC-PT ENERGIES:
         1      -55.9073758188
         2      -55.8297073583
         3      -55.6022926155
     2     E(REF-CI)=        2.3038357 eV   E(GMC-QDPT2)=        2.1134675 eV
     3     E(REF-CI)=        8.6231052 eV   E(GMC-QDPT2)=        8.3017411 eV
 ----------------------------------------------------------------------------

 Main characters of perturbed GMC-QDPT states:

 State #    1  Energy =     -55.907375819  S =  0.500

      Det      Coef    Occupancy (Ignoring core)
      ---      ----    --------- --------- -----
        1   -0.962144  11110001110000
       71   -0.151768  11110001011000
      393   -0.077822  10110101010010
      717   -0.051087  11010011100001

 State #    2  Energy =     -55.829707358  S =  0.500

      Det      Coef    Occupancy (Ignoring core)
      ---      ----    --------- --------- -----
        1    0.156899  11110001110000
       71   -0.965535  11110001011000
      177    0.056441  11101001010100
      822    0.052183  11010011001001

 State #    3  Energy =     -55.602292616  S =  0.500

      Det      Coef    Occupancy (Ignoring core)
      ---      ----    --------- --------- -----
        4    0.051478  10111001110000
       36   -0.967734  11110001101000
       72    0.050364  11101001011000
      113   -0.055919  10110100111000
      142    0.057471  11101001100100
      463   -0.079049  10110101001010

 <<<Max |V/de| = 2.925D-02  Thresh = 1.000D+00

 Oscillator strength (invalid if E(1)/=E(GS)):
 ----------------------------------------------------------------------------
   State                        1st order                           2nd order
 ----------------------------------------------------------------------------
     2     F(REF-CI)=        0.0014989628     F(GMC-PT2)=        0.0014450694
     3     F(REF-CI)=        0.0069694719     F(GMC-PT2)=        0.0068064862
 ----------------------------------------------------------------------------

 Dipole moment matrix elements, x, y, z, in A.U.
States    1    1        0.2961615228        0.2654351761        0.6343918426
States    1    2        0.0183528282        0.0315331417        0.1630253240
States    1    3        0.0614995120        0.1495869808       -0.0854806297
States    2    1        0.0183528282        0.0315331417        0.1630253240
States    2    2        0.3911328476        0.0683283574        0.3649763244
States    2    3        0.0619888849       -0.0383244985       -0.0040627320
States    3    1        0.0614995120        0.1495869808       -0.0854806297
States    3    2        0.0619888849       -0.0383244985       -0.0040627320
States    3    3        0.4459437297        0.4908975791        0.2621545517

 Oscillator strength (valid only when positive): 
 ----------------------------------------------------------------------------
  States                        1st order                           2nd order
 ----------------------------------------------------------------------------
  1  1     F(REF-CI)=        0.0000000000     F(GMC-PT2)=        0.0000000000
  1  2     F(REF-CI)=       -0.0014989628     F(GMC-PT2)=       -0.0014450694
  1  3     F(REF-CI)=       -0.0069694719     F(GMC-PT2)=       -0.0068064862
  2  1     F(REF-CI)=        0.0014989628     F(GMC-PT2)=        0.0014450694
  2  2     F(REF-CI)=        0.0000000000     F(GMC-PT2)=        0.0000000000
  2  3     F(REF-CI)=       -0.0008348387     F(GMC-PT2)=       -0.0008077612
  3  1     F(REF-CI)=        0.0069694719     F(GMC-PT2)=        0.0068064862
  3  2     F(REF-CI)=        0.0008348387     F(GMC-PT2)=        0.0008077612
  3  3     F(REF-CI)=        0.0000000000     F(GMC-PT2)=        0.0000000000
 CPU     0: STEP CPU TIME=     1.93 TOTAL CPU TIME=         14.9 (      0.2 MIN)
 TOTAL WALL CLOCK TIME=         14.9 SECONDS, CPU UTILIZATION IS    99.93%

     !!! DIABATIZATION FOR REF CI STATES !!!

 *******************************************************
          $DMO GROUP FOUND IN THE INPUT.
        DIABATIZATION OF ADIABATIC STATES BEGINS.
     PROGRAMMED BY TAO ZENG (CARLETON UNIVERSITY).
               Email: toby.zeng@carleton.ca
     See T. Zeng, J. Chem. Phys. 2017, 146, 144103
 *******************************************************

 *************************************************************************
     STEP 1: TRANSFORMATION OF ADIABATIC STATES TO THE DMO REPRESENTATION
         See Atchity and Ruedenberg, J. Chem. Phys. 1999, 111, 2910
 *************************************************************************

Read in Diabatic Molecualr Orbitals:

                      1          2          3          4          5

    1  N  1  S    0.008609   0.000000   0.000000  -0.013219   0.279491
    2  N  1  S    0.442914  -0.000000   0.000000  -0.184329   0.867803
    3  N  1  S    0.276913   0.000000  -0.000000  -0.288315   0.144236
    4  N  1  X   -0.000000   0.493155  -0.024636  -0.000000  -0.000000
    5  N  1  Y    0.000000   0.024636   0.493155  -0.000000   0.000000
    6  N  1  Z    0.090197   0.000000   0.000000   0.593421   0.705309
    7  N  1  X   -0.000000   0.210628  -0.010522   0.000000   0.000000
    8  N  1  Y    0.000000   0.010522   0.210628  -0.000000  -0.000000
    9  N  1  Z   -0.004381   0.000000   0.000000   0.381592  -0.106092
   10  N  1 XX   -0.000457   0.010719  -0.000535  -0.012387   0.006153
   11  N  1 YY   -0.000457  -0.010719   0.000535  -0.012387   0.006153
   12  N  1 ZZ    0.000914  -0.000000   0.000000   0.024773  -0.012306
   13  N  1 XY    0.000000  -0.000618  -0.012377  -0.000000   0.000000
   14  N  1 XZ   -0.000000   0.026529  -0.001325  -0.000000   0.000000
   15  N  1 YZ    0.000000   0.001325   0.026529  -0.000000   0.000000
   16  H  2  S    0.194462  -0.176074   0.343485   0.112865  -0.523343
   17  H  2  S    0.003574  -0.023812   0.046452   0.024014  -0.054445
   18  H  2  X    0.018760   0.009101   0.022834   0.009336  -0.039151
   19  H  2  Y   -0.032493   0.022287  -0.020044  -0.016171   0.067811
   20  H  2  Z   -0.009251   0.008464  -0.016511   0.018769  -0.010566
   21  H  3  S    0.194462  -0.209430  -0.324227   0.112865  -0.523343
   22  H  3  S    0.003574  -0.028322  -0.043847   0.024014  -0.054445
   23  H  3  X    0.018760   0.006781  -0.023627   0.009336  -0.039151
   24  H  3  Y    0.032493  -0.024174  -0.017723   0.016171  -0.067811
   25  H  3  Z   -0.009251   0.010067   0.015585   0.018769  -0.010566
   26  H  4  S    0.194462   0.385503  -0.019258   0.112865  -0.523343
   27  H  4  S    0.003574   0.052134  -0.002604   0.024014  -0.054445
   28  H  4  X   -0.037519  -0.032295   0.001613  -0.018672   0.078302
   29  H  4  Y    0.000000   0.001067   0.021353  -0.000000   0.000000
   30  H  4  Z   -0.009251  -0.018530   0.000926   0.018769  -0.010566

                      6          7

    1  N  1  S    0.000000  -0.000000
    2  N  1  S    0.000000  -0.000000
    3  N  1  S   -0.000000   0.000000
    4  N  1  X   -0.930415  -0.002083
    5  N  1  Y   -0.002083   0.930415
    6  N  1  Z   -0.000000   0.000000
    7  N  1  X   -0.046866  -0.000105
    8  N  1  Y   -0.000105   0.046866
    9  N  1  Z   -0.000000   0.000000
   10  N  1 XX    0.001538   0.000003
   11  N  1 YY   -0.001538  -0.000003
   12  N  1 ZZ   -0.000000   0.000000
   13  N  1 XY   -0.000004   0.001776
   14  N  1 XZ    0.039985   0.000090
   15  N  1 YZ    0.000090  -0.039985
   16  H  2  S   -0.362630  -0.631354
   17  H  2  S   -0.065964  -0.114846
   18  H  2  X    0.002763  -0.037520
   19  H  2  Y    0.037435   0.040736
   20  H  2  Z    0.001882   0.003276
   21  H  3  S   -0.365454   0.629724
   22  H  3  S   -0.066477   0.114549
   23  H  3  X    0.002595   0.037532
   24  H  3  Y   -0.037617   0.040567
   25  H  3  Z    0.001896  -0.003268
   26  H  4  S    0.728084   0.001630
   27  H  4  S    0.132441   0.000297
   28  H  4  X   -0.062317  -0.000140
   29  H  4  Y    0.000055  -0.024345
   30  H  4  Z   -0.003778  -0.000008

NUMBER OF SUB ACTIVE SPACES:   1
ROTATE ACTIVE MOS TO DMOS IN EACH SUB-SPACE

SPACE  1:

OVERLAP BETWEEN ORTHONORMAL AND PRE-ORTHONORMAL REF. DMOS

             1           2           3           4           5

    1    0.9678721   0.0331137   0.0026798  -0.0114114  -0.0006496
    2    0.0331137   0.8824207   0.0792107   0.0449897  -0.0669675
    3    0.0026798   0.0792107   1.0036884   0.0209364  -0.0567336
    4   -0.0114114   0.0449897   0.0209364   0.9917898  -0.0138259
    5   -0.0006496  -0.0669675  -0.0567336  -0.0138259   1.1933397
    6    0.0033145  -0.0786621   0.0860304   0.0484810   0.0062032
    7    0.0014373  -0.0531487  -0.0332844  -0.0455042   0.0911744

             6           7

    1    0.0033145   0.0014373
    2   -0.0786621  -0.0531487
    3    0.0860304  -0.0332844
    4    0.0484810  -0.0455042
    5    0.0062032   0.0911744
    6    1.0760688  -0.0069521
    7   -0.0069521   1.0565441
REFERENCE DMOS AFTER ORTHONORMALIZATION:

                      1          2          3          4          5

    1  N  1  S    0.008368   0.015958   0.011772  -0.011771   0.237050
    2  N  1  S    0.454642   0.040273   0.038398  -0.176241   0.734711
    3  N  1  S    0.282344   0.012069   0.009397  -0.288096   0.120445
    4  N  1  X   -0.013610   0.486720   0.010162   0.019307   0.031145
    5  N  1  Y   -0.003274   0.027802   0.519231   0.030380  -0.042212
    6  N  1  Z    0.100695   0.004416   0.022688   0.607649   0.601552
    7  N  1  X   -0.008208   0.241184  -0.026333  -0.008730   0.011559
    8  N  1  Y   -0.000436  -0.005248   0.213777  -0.001051   0.006115
    9  N  1  Z    0.000913  -0.025890  -0.008709   0.386807  -0.087917
   10  N  1 XX   -0.001097   0.013663  -0.001288  -0.013184   0.005722
   11  N  1 YY   -0.000208  -0.011631   0.002078  -0.011915   0.004585
   12  N  1 ZZ    0.001306  -0.002032  -0.000790   0.025099  -0.010307
   13  N  1 XY    0.000013   0.000530  -0.012459   0.000243  -0.000671
   14  N  1 XZ   -0.001347   0.034738  -0.007332  -0.003322   0.001228
   15  N  1 YZ    0.000071  -0.002903   0.025880  -0.001969   0.003931
   16  H  2  S    0.214997  -0.345182   0.359576   0.112263  -0.393969
   17  H  2  S    0.005859  -0.048363   0.050011   0.023485  -0.037235
   18  H  2  X    0.019321   0.003413   0.019501   0.007157  -0.029161
   19  H  2  Y   -0.035215   0.039274  -0.021801  -0.017641   0.054912
   20  H  2  Z   -0.009672   0.010512  -0.018292   0.018649  -0.009299
   21  H  3  S    0.212509  -0.259685  -0.285992   0.172007  -0.510452
   22  H  3  S    0.005361  -0.033926  -0.035952   0.033920  -0.057042
   23  H  3  X    0.019183   0.008742  -0.025709   0.010806  -0.036392
   24  H  3  Y    0.035047  -0.033951  -0.014486   0.021419  -0.062187
   25  H  3  Z   -0.009700   0.009044   0.013972   0.017941  -0.007424
   26  H  4  S    0.182875   0.475708  -0.142332   0.059044  -0.426550
   27  H  4  S    0.001086   0.068931  -0.021654   0.014997  -0.043922
   28  H  4  X   -0.037450  -0.036708   0.013564  -0.014348   0.064954
   29  H  4  Y    0.000036  -0.001953   0.021009  -0.001271   0.002624
   30  H  4  Z   -0.008522  -0.023176   0.002352   0.020021  -0.009828

                      6          7

    1  N  1  S   -0.000765  -0.019806
    2  N  1  S    0.001737  -0.068364
    3  N  1  S    0.011403  -0.022208
    4  N  1  X   -0.830782   0.015528
    5  N  1  Y   -0.036697   0.903091
    6  N  1  Z   -0.032808  -0.025156
    7  N  1  X   -0.023402   0.009687
    8  N  1  Y   -0.017235   0.050142
    9  N  1  Z   -0.017974   0.022550
   10  N  1 XX    0.003093  -0.000390
   11  N  1 YY   -0.001944  -0.001444
   12  N  1 ZZ   -0.001149   0.001834
   13  N  1 XY    0.001033   0.001390
   14  N  1 XZ    0.040442   0.001620
   15  N  1 YZ   -0.002375  -0.037616
   16  H  2  S   -0.398093  -0.567681
   17  H  2  S   -0.070379  -0.105803
   18  H  2  X    0.000838  -0.031922
   19  H  2  Y    0.040213   0.034658
   20  H  2  Z    0.003253   0.004694
   21  H  3  S   -0.337175   0.622899
   22  H  3  S   -0.061879   0.111548
   23  H  3  X    0.005020   0.038766
   24  H  3  Y   -0.036723   0.042232
   25  H  3  Z    0.000566  -0.000767
   26  H  4  S    0.722423   0.064846
   27  H  4  S    0.129477   0.008353
   28  H  4  X   -0.061345  -0.008127
   29  H  4  Y   -0.001877  -0.022772
   30  H  4  Z   -0.006209   0.000581

 -------------------------------------------
       MAXIMIZING MORMO OVERLAP TERM        
 -------------------------------------------
   SWEEP    VALUE       PROGRESS
     0     5.13191
     1     6.91942     1.78751210
     2     6.92754     0.00811411
     3     6.92754     0.00000035
     4     6.92754     0.00000000
     5     6.92754    -0.00000000
     6     6.92754     0.00000000
 THE ROTATION IS DONE
FLIPPING SIGN FOR ORBITAL   7
ACTIVE ORBITALS AFTER MORMO:

                      1          2          3          4          5

    1  N  1  S    0.006331   0.028242   0.007031  -0.012315   0.168246
    2  N  1  S    0.422669   0.068177   0.006694  -0.191306   0.643533
    3  N  1  S    0.343481  -0.052387   0.033925  -0.268536   0.236320
    4  N  1  X    0.000428   0.421589   0.031916   0.041213   0.011537
    5  N  1  Y   -0.012778   0.056046   0.493892   0.025228  -0.053833
    6  N  1  Z    0.082956   0.035237   0.028353   0.605938   0.571534
    7  N  1  X   -0.022855   0.327696  -0.078679  -0.055555   0.042291
    8  N  1  Y    0.008271  -0.058675   0.217212  -0.026455   0.035869
    9  N  1  Z    0.033184  -0.070403  -0.024934   0.387222  -0.043644
   10  N  1 XX   -0.006097   0.028643  -0.005699  -0.014928   0.030780
   11  N  1 YY    0.006467  -0.029123   0.006945  -0.004873  -0.042290
   12  N  1 ZZ   -0.000369   0.000480  -0.001246   0.019801   0.011510
   13  N  1 XY    0.004216  -0.003356  -0.002979  -0.003291  -0.026808
   14  N  1 XZ    0.001187   0.020119  -0.007864   0.001582  -0.034960
   15  N  1 YZ    0.003345  -0.003622   0.015654  -0.005547  -0.012986
   16  H  2  S    0.185338  -0.214035   0.319075   0.097509  -0.392411
   17  H  2  S    0.014052  -0.143689   0.104806   0.037639  -0.056516
   18  H  2  X   -0.002317   0.025456  -0.009985  -0.003430  -0.015008
   19  H  2  Y   -0.028688   0.015014  -0.035213  -0.011541   0.037688
   20  H  2  Z   -0.004899  -0.002828  -0.017860   0.016717  -0.023676
   21  H  3  S    0.186156  -0.233496  -0.307423   0.131110  -0.498410
   22  H  3  S    0.003218  -0.045714  -0.027631   0.040399  -0.073388
   23  H  3  X    0.008947   0.016324  -0.017451   0.001049  -0.013588
   24  H  3  Y    0.032447  -0.026288  -0.035525   0.010822  -0.052718
   25  H  3  Z   -0.001866   0.001961   0.006591   0.022329  -0.012839
   26  H  4  S    0.180330   0.401802  -0.074352   0.080962  -0.453028
   27  H  4  S   -0.002775   0.159761  -0.083231   0.022566  -0.072527
   28  H  4  X   -0.030694  -0.017566  -0.003663  -0.019662   0.043778
   29  H  4  Y   -0.007895  -0.018525   0.017465  -0.003041  -0.015683
   30  H  4  Z   -0.013538  -0.032947  -0.002496   0.016042  -0.008477

                      6          7

    1  N  1  S    0.049748  -0.070856
    2  N  1  S    0.117279  -0.149816
    3  N  1  S   -0.141807   0.099061
    4  N  1  X   -0.833401  -0.014552
    5  N  1  Y    0.007154   0.888385
    6  N  1  Z   -0.052634  -0.032610
    7  N  1  X   -0.025396   0.064033
    8  N  1  Y   -0.082739   0.089175
    9  N  1  Z   -0.010803   0.058109
   10  N  1 XX    0.049861   0.013646
   11  N  1 YY   -0.062797   0.009780
   12  N  1 ZZ    0.012936  -0.023426
   13  N  1 XY    0.010858  -0.025756
   14  N  1 XZ    0.012340   0.001813
   15  N  1 YZ    0.012333  -0.044614
   16  H  2  S   -0.269723  -0.550244
   17  H  2  S   -0.167666  -0.185819
   18  H  2  X    0.041970  -0.009361
   19  H  2  Y    0.022935   0.045386
   20  H  2  Z    0.018594  -0.015053
   21  H  3  S   -0.309091   0.597362
   22  H  3  S   -0.073323   0.125446
   23  H  3  X    0.000566   0.020047
   24  H  3  Y   -0.023939   0.054803
   25  H  3  Z   -0.001059   0.027172
   26  H  4  S    0.659996  -0.020151
   27  H  4  S    0.247674   0.068198
   28  H  4  X   -0.025845   0.006652
   29  H  4  Y   -0.004347  -0.050452
   30  H  4  Z   -0.015483  -0.014148

Actually Used Diabatic Molecualr Orbitals:

                      1          2          3          4          5

    1  N  1  S    0.006331   0.028242   0.007031  -0.012315   0.168246
    2  N  1  S    0.422669   0.068177   0.006694  -0.191306   0.643533
    3  N  1  S    0.343481  -0.052387   0.033925  -0.268536   0.236320
    4  N  1  X    0.000428   0.421589   0.031916   0.041213   0.011537
    5  N  1  Y   -0.012778   0.056046   0.493892   0.025228  -0.053833
    6  N  1  Z    0.082956   0.035237   0.028353   0.605938   0.571534
[...]
     - ROTATION TO DIABATIC STATES -    
 ---------------------------------------
 ROWS=ADIABATIC, COLUMNS=DIABATIC STATES

             1           2           3

    1    0.8983977   0.4391826  -0.0004981
    2    0.3927932  -0.8029945   0.4482336
    3   -0.1964564   0.4028877   0.8939163

 ---------------------------------------
          - DIABATIC STATES -           
 ---------------------------------------

 State #    1  Energy =     -55.883617902

      Det      Coef        Coefp    Occupancy (Ignoring core)
      ---      ----        ----    --------- --------- -----
        1    0.892180   -0.892180  222+000
        8   -0.180175    0.180175  2-2+0+0
      386    0.151272   -0.151272  2+2+0-0
        4   -0.136185    0.136185  2-2++00
      176    0.131533   -0.131533  2+2+-00
        7    0.119784    0.119784  22-+0+0
      351   -0.113270   -0.113270  22++0-0
        6    0.089939   -0.089939  22200+0
        3   -0.074455   -0.074455  22-++00
      141    0.070206    0.070206  22++-00
       18   -0.066385    0.066385  2-2+00+
      717   -0.065150   -0.065150  220+002
      736    0.062475   -0.062475  2+2+00-
      393   -0.057647   -0.057647  202+020
       16   -0.054927    0.054927  222000+
       13    0.045843    0.045843  2--+++0
      708    0.044449   -0.044449  2-++0+-
      561    0.041088    0.041088  2+++--0
      402    0.039979   -0.039979  2+-+0-+
      215   -0.039792   -0.039792  022+200
      705   -0.036820   -0.036820  -2+++0-
      227   -0.036390   -0.036390  +2-+-0+
     1051   -0.034133   -0.034133  2+++0--
       11    0.034019   -0.034019  2-20++0
      143   -0.033656   -0.033656  220+200
      183   -0.032534    0.032534  202+-+0
      212    0.032433    0.032433  +220200
      391    0.032386   -0.032386  2+20020
      389    0.032298    0.032298  202++-0
      218    0.031620   -0.031620  +-2+-+0
      390    0.031395   -0.031395  -+2++-0
      387   -0.031179    0.031179  2+20+-0
       29   -0.030337   -0.030337  2--+0++
        5    0.030291    0.030291  -22++00
      147    0.029036   -0.029036  220+-+0
       76    0.028903    0.028903  2+2-0+0
      113   -0.028647    0.028647  +-220+0
      353   -0.027866   -0.027866  220++-0
      424   -0.025471   -0.025471  +-2++-0
      773    0.025243   -0.025243  +2-++0-
      702    0.025080    0.025080  22+0+0-
       51   -0.024566    0.024566  22+-00+
      159    0.024561   -0.024561  -2++-0+
       27   -0.023839    0.023839  2-200++
      148   -0.023157   -0.023157  2-++-+0
      184   -0.022619   -0.022619  -+2+-+0
      388   -0.022456   -0.022456  2+-++-0
      122    0.022196    0.022196  +2-200+
      354   -0.021036    0.021036  2-+++-0
      366   -0.020972    0.020972  22+00-+
      182   -0.020283    0.020283  2+-+-+0

 State #    2  Energy =     -55.807774542

      Det      Coef        Coefp    Occupancy (Ignoring core)
      ---      ----        ----    --------- --------- -----
       71   -0.887614    0.887614  2+22000
       74    0.181216   -0.181216  2022+00
       78    0.151850   -0.151850  20220+0
       77    0.132338   -0.132338  2+-20+0
       76    0.127016    0.127016  2+2-0+0
      456   -0.113627   -0.113627  2++20-0
      386   -0.109825    0.109825  2+2+0-0
      246    0.089536    0.089536  2++2-00
      106    0.075037    0.075037  +222000
       88    0.071387   -0.071387  202200+
      736    0.069594   -0.069594  2+2+00-
       86   -0.064942   -0.064942  2+2-00+
       73   -0.063703    0.063703  2+-2+00
      822    0.063039   -0.063039  2+02002
       81    0.053804    0.053804  202-++0
       83    0.051903   -0.051903  20-2++0
      813    0.050742   -0.050742  20+20+-
      113    0.046932   -0.046932  +-220+0
       36    0.045287    0.045287  22+2000
       99   -0.044498    0.044498  20-20++
      183   -0.041808    0.041808  202+-+0
       72   -0.039878   -0.039878  2+2-+00
      393   -0.039463   -0.039463  202+020
      320    0.039441    0.039441  0+22200
      323   -0.038943    0.038943  +022-+0
      176    0.038420   -0.038420  2+2+-00
      810   -0.037575   -0.037575  -++2+0-
      180   -0.037528    0.037528  -+2+200
      177    0.036558   -0.036558  2+20200
      317    0.035850   -0.035850  ++2-200
       75   -0.034263   -0.034263  -+22+00
      332   -0.034147    0.034147  ++-2-0+
      252   -0.033933   -0.033933  2+02-+0
      806    0.033459    0.033459  2++200-
      248    0.033198   -0.033198  2+02200
      109    0.029921   -0.029921  +-22+00
       38   -0.029432    0.029432  2202+00
      253   -0.028611   -0.028611  20+2-+0
       79   -0.028538   -0.028538  -+220+0
       97   -0.027379   -0.027379  202-0++
      529    0.026353    0.026353  +022+-0
      807   -0.025887    0.025887  2++-+0-
       39   -0.025833   -0.025833  2-+2+00
      192   -0.025618    0.025618  2+-+-0+
      878    0.023956    0.023956  ++-2+0-
      742    0.023784    0.023784  2+-+0+-
      458    0.023553   -0.023553  2+02+-0
      264    0.023548   -0.023548  -++2-0+
      459   -0.023292    0.023292  20+2+-0
       89   -0.022149   -0.022149  -+2200+
       96   -0.020968   -0.020968  2+--0++
      534    0.020939    0.020939  0+22020
      111    0.020457   -0.020457  +22-0+0

 State #    3  Energy =     -55.647983349

      Det      Coef        Coefp    Occupancy (Ignoring core)
      ---      ----        ----    --------- --------- -----
       36   -0.894181   -0.894181  22+2000
      456   -0.155700   -0.155700  2++20-0
      246   -0.145063   -0.145063  2++2-00
       43    0.135521    0.135521  2-+20+0
       42   -0.115534    0.115534  22020+0
       39    0.108438    0.108438  2-+2+00
      351   -0.095720   -0.095720  22++0-0
       41    0.080111   -0.080111  22+-0+0
       51   -0.078353    0.078353  22+-00+
       38    0.071694   -0.071694  2202+00
       53    0.066832    0.066832  2-+200+
      701    0.066136    0.066136  22++00-
       37   -0.065630    0.065630  22+-+00
      806   -0.065560   -0.065560  2++200-
      463    0.065449   -0.065449  20+2020
      472   -0.051095   -0.051095  2+020-+
       52    0.046227   -0.046227  220200+
       64    0.044227   -0.044227  2-020++
       46    0.043099   -0.043099  2-+-++0
      112   -0.042882   -0.042882  +2-20+0
      457   -0.042435    0.042435  2++-+-0
      121   -0.042137    0.042137  +22-00+
      285    0.041947   -0.041947  02+2200
      561    0.039862    0.039862  2+++--0
       71   -0.039452    0.039452  2+22000
      281    0.039198   -0.039198  +2+2-00
      282    0.038757    0.038757  +2+-200
      461    0.038361   -0.038361  2++-020
      358   -0.038281    0.038281  2-++020
      148   -0.038147   -0.038147  2-++-+0
      142    0.036797    0.036797  22+0200
       48   -0.036687    0.036687  2-02++0
       73    0.036625   -0.036625  2+-2+00
      297    0.036217   -0.036217  +202-0+
      145   -0.036002   -0.036002  -2++200
      460   -0.035697   -0.035697  -++2+-0
        3    0.035317    0.035317  22-++00
      491    0.031509   -0.031509  +2+20-0
      288   -0.030980   -0.030980  +-+2-+0
      141    0.030313    0.030313  22++-00
      108   -0.030106   -0.030106  +2-2+00
      253    0.028944    0.028944  20+2-+0
      254    0.027028   -0.027028  -++2-+0
       74    0.026285   -0.026285  2022+00
      459   -0.026039    0.026039  20+2+-0
       16   -0.025908    0.025908  222000+
      106    0.025308    0.025308  +222000
      157    0.025244   -0.025244  220+-0+
       62   -0.024997    0.024997  2-+-0++
      494    0.023333   -0.023333  +-+2+-0
     1051   -0.022907   -0.022907  2+++0--
      771    0.021969    0.021969  +22+00-
      843   -0.021810   -0.021810  +202+0-
      113    0.020238   -0.020238  +-220+0
       77    0.020179   -0.020179  2+-20+0
       19    0.020168    0.020168  -22+00+

 ---------------------------------------
      - DIABATIC STATES IN CMO -        
 ---------------------------------------

 State #    1  Energy =     -55.883617902

      Det      Coef        Coefp    Occupancy (Ignoring core)
      ---      ----        ----    --------- --------- -----
        1    0.806397   -0.806397  222+000
       71    0.512720   -0.512720  2+22000
       36    0.182177    0.182177  22+2000
      393   -0.068538   -0.068538  202+020
      177   -0.046303    0.046303  2+20200
      717   -0.045575   -0.045575  220+002
      106   -0.042358   -0.042358  +222000
      143   -0.033089   -0.033089  220+200
      179   -0.032861   -0.032861  202+200
      822   -0.031529    0.031529  2+02002
      392    0.031119    0.031119  2+-+020
      358   -0.030608    0.030608  2-++020
      215   -0.030521   -0.030521  022+200
      212    0.029722    0.029722  +220200
       17   -0.029186   -0.029186  22-+00+
      180    0.028404   -0.028404  -+2+200
      113   -0.028204    0.028204  +-220+0
      248   -0.026755    0.026755  2+02200
      387   -0.025941    0.025941  2+20+-0
        8   -0.025869    0.025869  2-2+0+0
        2    0.025834   -0.025834  2220+00
      183    0.025505   -0.025505  202+-+0
      178   -0.024843   -0.024843  2+-+200
      357   -0.024812   -0.024812  220+020
        4    0.023886   -0.023886  2-2++00
       76    0.022723    0.022723  2+2-0+0
      402   -0.022263    0.022263  2+-+0-+
      390    0.021791   -0.021791  -+2++-0
      388   -0.021765   -0.021765  2+-++-0
      561    0.021639    0.021639  2+++--0
      705    0.021545    0.021545  -2+++0-
      227    0.020863    0.020863  +2-+-0+
      702   -0.020440   -0.020440  22+0+0-
      112   -0.020187   -0.020187  +2-20+0

 State #    2  Energy =     -55.807774542

      Det      Coef        Coefp    Occupancy (Ignoring core)
      ---      ----        ----    --------- --------- -----
       71   -0.702751    0.702751  2+22000
        1    0.541085   -0.541085  222+000
       36   -0.408296   -0.408296  22+2000
      822    0.046305   -0.046305  2+02002
      248    0.043070   -0.043070  2+02200
        2    0.038693   -0.038693  2220+00
      113    0.038285   -0.038285  +-220+0
      393   -0.036991   -0.036991  202+020
      143   -0.036421   -0.036421  220+200
      142    0.034455    0.034455  22+0200
      177    0.031543   -0.031543  2+20200
      107   -0.029661    0.029661  +22-+00
       74    0.029013   -0.029013  2022+00
      112    0.027584    0.027584  +2-20+0
        6    0.027567   -0.027567  22200+0
       72    0.027517    0.027517  2+2-+00
      109    0.027472   -0.027472  +-22+00
        4   -0.027227    0.027227  2-2++00
      148   -0.026495   -0.026495  2-++-+0
      317    0.024940   -0.024940  ++2-200
      247   -0.024888    0.024888  2++-200
      253   -0.024865   -0.024865  20+2-+0
      823    0.024097   -0.024097  20+2002
      145   -0.024084   -0.024084  -2++200
      320    0.024038    0.024038  0+22200
       53    0.023557    0.023557  2-+200+
      717   -0.023077   -0.023077  220+002
      249    0.022339   -0.022339  20+2200
      807    0.022223   -0.022223  2++-+0-
       87   -0.022196    0.022196  2+-200+
      810    0.022093    0.022093  -++2+0-
      813   -0.021939    0.021939  20+20+-
       83    0.021737   -0.021737  20-2++0
       79   -0.021155   -0.021155  -+220+0

 State #    3  Energy =     -55.647983349

      Det      Coef        Coefp    Occupancy (Ignoring core)
      ---      ----        ----    --------- --------- -----
       36   -0.858521   -0.858521  22+2000
       71    0.445834   -0.445834  2+22000
        1   -0.087360    0.087360  222+000
      463    0.085566   -0.085566  20+2020
      142    0.049899    0.049899  22+0200
      108   -0.046432   -0.046432  +2-2+00
      462   -0.044299    0.044299  2+02020
        3    0.043200    0.043200  22-++00
       72    0.041562    0.041562  2+2-+00
        4   -0.040067    0.040067  2-2++00
      113    0.039101   -0.039101  +-220+0
       37   -0.036140    0.036140  22+-+00
      285    0.034248   -0.034248  02+2200
      121    0.033178   -0.033178  +22-00+
      457   -0.032841    0.032841  2++-+-0
        2    0.031903   -0.031903  2220+00
      145   -0.031802   -0.031802  -2++200
      282    0.031559    0.031559  +2+-200
      107   -0.030907    0.030907  +22-+00
      177   -0.028833    0.028833  2+20200
       40    0.026379   -0.026379  -2+2+00
       52   -0.026287    0.026287  220200+
      472    0.025238    0.025238  2+020-+
       88    0.024903   -0.024903  202200+
      460   -0.024327   -0.024327  -++2+-0
       78   -0.023654    0.023654  20220+0
      148   -0.022796   -0.022796  2-++-+0
       79   -0.021676   -0.021676  -+220+0
      561    0.021625    0.021625  2+++--0
      716    0.021592    0.021592  22+0002
      458    0.021240   -0.021240  2+02+-0
      249    0.021091   -0.021091  20+2200
      157   -0.021032    0.021032  220+-0+
       46    0.020472   -0.020472  2-+-++0
      499    0.020233   -0.020233  02+2020
      771   -0.020149   -0.020149  +22+00-
      281    0.020053   -0.020053  +2+2-00

 ---------------------------------------
    -DIABATIC STATES IN PROTOTYPES-     
 ---------------------------------------

     STATE:    1
 Group Ref#    Coefficients
     1    1    0.912800
     2    2    0.005023
     3    3   -0.009874

WEIGHT OF LISTED PROTOTYPES:   83.33%

     STATE:    2
 Group Ref#    Coefficients
     1    1    0.005042
     2    2    0.909315
     3    3   -0.004183

WEIGHT OF LISTED PROTOTYPES:   82.69%

     STATE:    3
 Group Ref#    Coefficients
     1    1   -0.009956
     2    2   -0.004201
     3    3    0.905292

WEIGHT OF LISTED PROTOTYPES:   81.97%

     DIRECT MAX. DIABATIZATION FINISHED    
 CPU     0: STEP CPU TIME=     0.25 TOTAL CPU TIME=         15.1 (      0.3 MIN)
 TOTAL WALL CLOCK TIME=         15.1 SECONDS, CPU UTILIZATION IS    99.93%

DIABATS FOR SPIN-ORBIT CALCULATION ARE READY

TRANSITION DIPOLES BETWEEN ADIABATS (in A.U.):

STATE PAIR      X         Y         Z
    1    1  0.296162  0.265435  0.634392
    2    1  0.018353  0.031533  0.163025
    2    2  0.391133  0.068328  0.364976
    3    1  0.061500  0.149587 -0.085481
    3    2  0.061989 -0.038324 -0.004063
    3    3  0.445944  0.490898  0.262155


TRANSITION DIPOLES BETWEEN DIABATS (in A.U.):

STATE PAIR      X         Y         Z
    1    1  0.298266  0.219090  0.724316
    2    1 -0.015342  0.056131  0.000102
    2    2  0.350422  0.230424  0.257646
    3    1  0.063498  0.048455  0.013847
    3    2  0.014208  0.237650 -0.036292
    3    3  0.484550  0.375148  0.279561

TRANSITION DIPOLES BETWEEN DIRECT MAX. DIABATS (in A.U.):

STATE PAIR      X         Y         Z
    1    1  0.298272  0.219093  0.724317
    2    1 -0.015342  0.056142  0.000106
    2    2  0.350422  0.230430  0.257645
    3    1  0.063507  0.048459  0.013828
    3    2  0.014211  0.237650 -0.036292
    3    3  0.484544  0.375138  0.279560
 No $TRANST Group Found.
 Quit without doing spin-orbit coupling
 ..... DONE WITH MP2 ENERGY .....
 CPU     0: STEP CPU TIME=     0.00 TOTAL CPU TIME=         15.1 (      0.3 MIN)
 TOTAL WALL CLOCK TIME=         15.1 SECONDS, CPU UTILIZATION IS    99.93%
            100000000  WORDS OF DYNAMIC MEMORY USED
 EXECUTION OF GAMESS TERMINATED NORMALLY Wed Nov 16 20:04:40 2022
 DDI: 715512 bytes (0.7 MB / 0 MWords) used by master data server.

 ----------------------------------------
 CPU timing information for all processes
 ========================================
 0: 14.739 + 0.384 = 15.123
 ----------------------------------------
Note: The following floating-point exceptions are signalling: IEEE_DENORMAL
 ddikick.x: exited gracefully.
unset echo
----- accounting info -----
Files used on the master node io002 were:
-rw-r--r-- 1 bsonghao nooijen   20716 Nov 16 20:04 /scratch/bsonghao/nh3_diabatization_2d_at_mode_7_8_dist0.5_0.7.F05
-rw-r--r-- 1 bsonghao nooijen  363520 Nov 16 20:04 /scratch/bsonghao/nh3_diabatization_2d_at_mode_7_8_dist0.5_0.7.F09
-rw-r--r-- 1 bsonghao nooijen 1995920 Nov 16 20:04 /scratch/bsonghao/nh3_diabatization_2d_at_mode_7_8_dist0.5_0.7.F10
-rw-r--r-- 1 bsonghao nooijen  131264 Nov 16 20:04 /scratch/bsonghao/nh3_diabatization_2d_at_mode_7_8_dist0.5_0.7.F13
-rw-r--r-- 1 bsonghao nooijen  180312 Nov 16 20:04 /scratch/bsonghao/nh3_diabatization_2d_at_mode_7_8_dist0.5_0.7.F15
-rw-r--r-- 1 bsonghao nooijen       0 Nov 16 20:04 /scratch/bsonghao/nh3_diabatization_2d_at_mode_7_8_dist0.5_0.7.F16
-rw-r--r-- 1 bsonghao nooijen    9808 Nov 16 20:04 /scratch/bsonghao/nh3_diabatization_2d_at_mode_7_8_dist0.5_0.7.F70
-rw-r--r-- 1 bsonghao nooijen    9808 Nov 16 20:04 /scratch/bsonghao/nh3_diabatization_2d_at_mode_7_8_dist0.5_0.7.F71
-rw-r--r-- 1 bsonghao nooijen   19608 Nov 16 20:04 /scratch/bsonghao/nh3_diabatization_2d_at_mode_7_8_dist0.5_0.7.F72
-rw-r--r-- 1 bsonghao nooijen   19608 Nov 16 20:04 /scratch/bsonghao/nh3_diabatization_2d_at_mode_7_8_dist0.5_0.7.F73
-rw-r--r-- 1 bsonghao nooijen 1920824 Nov 16 20:04 /scratch/bsonghao/nh3_diabatization_2d_at_mode_7_8_dist0.5_0.7.F74
-rw-r--r-- 1 bsonghao nooijen       0 Nov 16 20:04 /scratch/bsonghao/nh3_diabatization_2d_at_mode_7_8_dist0.5_0.7.F75
-rw-r--r-- 1 bsonghao nooijen   58848 Nov 16 20:04 /scratch/bsonghao/nh3_diabatization_2d_at_mode_7_8_dist0.5_0.7.F76
-rw-r--r-- 1 bsonghao nooijen       0 Nov 16 20:04 /scratch/bsonghao/nh3_diabatization_2d_at_mode_7_8_dist0.5_0.7.F77
-rw-r--r-- 1 bsonghao nooijen    1864 Nov 16 20:04 /scratch/bsonghao/nh3_diabatization_2d_at_mode_7_8_dist0.5_0.7.F78
-rw-r--r-- 1 bsonghao nooijen   39208 Nov 16 20:04 /scratch/bsonghao/nh3_diabatization_2d_at_mode_7_8_dist0.5_0.7.F79
-rw-r--r-- 1 bsonghao nooijen     104 Nov 16 20:04 /scratch/bsonghao/nh3_diabatization_2d_at_mode_7_8_dist0.5_0.7.F80
-rw-r--r-- 1 bsonghao nooijen   13472 Nov 16 20:04 /scratch/bsonghao/nh3_diabatization_2d_at_mode_7_8_dist0.5_0.7.F81
-rw-r--r-- 1 bsonghao nooijen      16 Nov 16 20:04 /scratch/bsonghao/nh3_diabatization_2d_at_mode_7_8_dist0.5_0.7.F82
-rw-r--r-- 1 bsonghao nooijen   19216 Nov 16 20:04 /scratch/bsonghao/nh3_diabatization_2d_at_mode_7_8_dist0.5_0.7.F83
-rw-r--r-- 1 bsonghao nooijen   29712 Nov 16 20:04 /scratch/bsonghao/nh3_diabatization_2d_at_mode_7_8_dist0.5_0.7.F84
-rw-r--r-- 1 bsonghao nooijen  401576 Nov 16 20:04 /scratch/bsonghao/nh3_diabatization_2d_at_mode_7_8_dist0.5_0.7.F85
-rw-r--r-- 1 bsonghao nooijen  903672 Nov 16 20:04 /scratch/bsonghao/nh3_diabatization_2d_at_mode_7_8_dist0.5_0.7.F86
-rw-r--r-- 1 bsonghao nooijen     656 Nov 16 20:04 /scratch/bsonghao/nh3_diabatization_2d_at_mode_7_8_dist0.5_0.7.F87
-rw-r--r-- 1 bsonghao nooijen   43440 Nov 16 20:04 /scratch/bsonghao/nh3_diabatization_2d_at_mode_7_8_dist0.5_0.7.F88
-rw-r--r-- 1 bsonghao nooijen     240 Nov 16 20:04 /scratch/bsonghao/nh3_diabatization_2d_at_mode_7_8_dist0.5_0.7.F89
-rw-r--r-- 1 bsonghao nooijen       0 Nov 16 20:04 /scratch/bsonghao/nh3_diabatization_2d_at_mode_7_8_dist0.5_0.7.F90
-rw-r--r-- 1 bsonghao nooijen   13760 Nov 16 20:04 /scratch/bsonghao/nh3_diabatization_2d_at_mode_7_8_dist0.5_0.7.F91
-rw-r--r-- 1 bsonghao nooijen   22776 Nov 16 20:04 /scratch/bsonghao/nh3_diabatization_2d_at_mode_7_8_dist0.5_0.7.F92
-rw-r--r-- 1 bsonghao nooijen   23168 Nov 16 20:04 /scratch/bsonghao/nh3_diabatization_2d_at_mode_7_8_dist0.5_0.7.F93
-rw-r--r-- 1 bsonghao nooijen   22776 Nov 16 20:04 /scratch/bsonghao/nh3_diabatization_2d_at_mode_7_8_dist0.5_0.7.F94
-rw-r--r-- 1 bsonghao nooijen   13760 Nov 16 20:04 /scratch/bsonghao/nh3_diabatization_2d_at_mode_7_8_dist0.5_0.7.F95
-rw-r--r-- 1 bsonghao nooijen   29440 Nov 16 20:04 /scratch/bsonghao/nh3_diabatization_2d_at_mode_7_8_dist0.5_0.7.F96
-rw-r--r-- 1 bsonghao nooijen    1184 Nov 16 20:04 /scratch/bsonghao/nh3_diabatization_2d_at_mode_7_8_dist0.5_0.7.F97
-rw-r--r-- 1 bsonghao nooijen    9808 Nov 16 20:04 /scratch/bsonghao/nh3_diabatization_2d_at_mode_7_8_dist0.5_0.7.F98
-rw-r--r-- 1 bsonghao nooijen   30264 Nov 16 20:04 /scratch/bsonghao/nh3_diabatization_2d_at_mode_7_8_dist0.5_0.7.F99
ls: No match.
ls: No match.
ls: No match.
Wed 16 Nov 2022 08:04:43 PM EST
0.298u 0.037s 0:18.49 1.7%	0+0k 48+224io 0pf+0w
