----- GAMESS execution script 'rungms' -----
This job is running on host io002
under operating system Linux at Wed 16 Nov 2022 07:17:58 PM EST
Available scratch disk space (Kbyte units) at beginning of the job is
Filesystem       1K-blocks       Used   Available Use% Mounted on
/dev/sdc1      15378471580 3278917120 11318349060  23% /scratch
GAMESS temporary binary files will be written to /scratch/bsonghao
GAMESS supplementary output files will be written to /home/bsonghao/.gamess_ascii_files/267638
Copying input file nh3_diabatization_2d_at_mode_7_8_dist-0.1_0.5.inp to your run's scratch directory...
cp nh3_diabatization_2d_at_mode_7_8_dist-0.1_0.5.inp /scratch/bsonghao/nh3_diabatization_2d_at_mode_7_8_dist-0.1_0.5.F05
unset echo
/home/bjb2chen/gamess/ddikick.x /home/bjb2chen/gamess/gamess.00.x nh3_diabatization_2d_at_mode_7_8_dist-0.1_0.5 -ddi 1 1 io002 -scr /scratch/bsonghao

 Distributed Data Interface kickoff program.
 Initiating 1 compute processes on 1 nodes to run the following command:
 /home/bjb2chen/gamess/gamess.00.x nh3_diabatization_2d_at_mode_7_8_dist-0.1_0.5 

          ******************************************************
          *         GAMESS VERSION = 02 AUG 2018 (R2)         *
          *             FROM IOWA STATE UNIVERSITY             *
          * M.W.SCHMIDT, K.K.BALDRIDGE, J.A.BOATZ, S.T.ELBERT, *
          *   M.S.GORDON, J.H.JENSEN, S.KOSEKI, N.MATSUNAGA,   *
          *          K.A.NGUYEN, S.J.SU, T.L.WINDUS,           *
          *       TOGETHER WITH M.DUPUIS, J.A.MONTGOMERY       *
          *         J.COMPUT.CHEM.  14, 1347-1363(1993)        *
          **************** 64 BIT LINUX VERSION ****************

  SINCE 1993, STUDENTS AND POSTDOCS WORKING AT IOWA STATE UNIVERSITY
  AND ALSO IN THEIR VARIOUS JOBS AFTER LEAVING ISU HAVE MADE IMPORTANT
  CONTRIBUTIONS TO THE CODE:
     IVANA ADAMOVIC, CHRISTINE AIKENS, YURI ALEXEEV, POOJA ARORA,
     ANDREY ASADCHEV, ROB BELL, PRADIPTA BANDYOPADHYAY, JONATHAN BENTZ,
     BRETT BODE, KURT BRORSEN, CALEB CARLIN, GALINA CHABAN, WEI CHEN,
     CHEOL HO CHOI, PAUL DAY, ALBERT DEFUSCO, NUWAN DESILVA, TIM DUDLEY,
     DMITRI FEDOROV, ALEX FINDLATER, GRAHAM FLETCHER, MARK FREITAG,
     KURT GLAESEMANN, ANASTASIA GUININA,
     DAN KEMP, GRANT MERRILL, NORIYUKI MINEZAWA, JONATHAN MULLIN,
     TAKESHI NAGATA, SEAN NEDD, HEATHER NETZLOFF, BOSILJKA NJEGIC, RYAN OLSON,
     MIKE PAK, BUU PHAM,
     SPENCER PRUITT, LUKE ROSKOP, JIM SHOEMAKER, LYUDMILA SLIPCHENKO,
     TONY SMITH, SAROM SOK LEANG, JIE SONG, TETSUYA TAKETSUGU, SIMON WEBB,
     PENG XU, SOOHAENG YOO, FEDERICO ZAHARIEV

  ADDITIONAL CODE HAS BEEN PROVIDED BY COLLABORATORS IN OTHER GROUPS:
     IOWA STATE UNIVERSITY:
          JOE IVANIC, AARON WEST, LAIMUTIS BYTAUTAS, KLAUS RUEDENBERG
     UNIVERSITY OF TOKYO: KIMIHIKO HIRAO, TAKAHITO NAKAJIMA,
          TAKAO TSUNEDA, MUNEAKI KAMIYA, SUSUMU YANAGISAWA,
          KIYOSHI YAGI, MAHITO CHIBA, SEIKEN TOKURA, NAOAKI KAWAKAMI
     UNIVERSITY OF AARHUS: FRANK JENSEN
     UNIVERSITY OF IOWA: VISVALDAS KAIRYS, HUI LI
     NATIONAL INST. OF STANDARDS AND TECHNOLOGY: WALT STEVENS, DAVID GARMER
     UNIVERSITY OF PISA: BENEDETTA MENNUCCI, JACOPO TOMASI
     UNIVERSITY OF MEMPHIS: HENRY KURTZ, PRAKASHAN KORAMBATH
     UNIVERSITY OF ALBERTA: TOBY ZENG, MARIUSZ KLOBUKOWSKI
     UNIVERSITY OF NEW ENGLAND: MARK SPACKMAN
     MIE UNIVERSITY: HIROAKI UMEDA
     NAT. INST. OF ADVANCED INDUSTRIAL SCIENCE AND TECHNOLOGY: KAZUO KITAURA
     MICHIGAN STATE UNIVERSITY:
          KAROL KOWALSKI, MARTA WLOCH, JEFFREY GOUR, JESSE LUTZ,
          WEI LI, JUN SHEN, J. EMILIANO DEUSTUA, PIOTR PIECUCH
     UNIVERSITY OF MINNESOTA:
          YINAN SHU
     UNIVERSITY OF SILESIA: MONIKA MUSIAL, STANISLAW KUCHARSKI
     FACULTES UNIVERSITAIRES NOTRE-DAME DE LA PAIX:
          OLIVIER QUINET, BENOIT CHAMPAGNE
     UNIVERSITY OF CALIFORNIA - SANTA BARBARA: BERNARD KIRTMAN
     INSTITUTE FOR MOLECULAR SCIENCE:
          KAZUYA ISHIMURA, MICHIO KATOUDA, AND SHIGERU NAGASE
     UNIVERSITY OF NOTRE DAME: ANNA POMOGAEVA, DAN CHIPMAN
     KYUSHU UNIVERSITY:
          HARUYUKI NAKANO,
          FENG LONG GU, JACEK KORCHOWIEC, MARCIN MAKOWSKI, AND YURIKO AOKI,
          HIROTOSHI MORI AND EISAKU MIYOSHI
     PENNSYLVANIA STATE UNIVERSITY:
          TZVETELIN IORDANOV, CHET SWALINA, JONATHAN SKONE,
          SHARON HAMMES-SCHIFFER
     WASEDA UNIVERSITY:
          MASATO KOBAYASHI, TOMOKO AKAMA, TSUGUKI TOUMA,
          TAKESHI YOSHIKAWA, YASUHIRO IKABATA, JUNJI SEINO,
          YUYA NAKAJIMA, HIROMI NAKAI
     NANJING UNIVERSITY: SHUHUA LI
     UNIVERSITY OF NEBRASKA:
          PEIFENG SU, DEJUN SI, NANDUN THELLAMUREGE, YALI WANG, HUI LI
     UNIVERSITY OF ZURICH: ROBERTO PEVERATI, KIM BALDRIDGE
     N. COPERNICUS UNIVERSITY AND JACKSON STATE UNIVERSITY:
          MARIA BARYSZ
     UNIVERSITY OF COPENHAGEN: Jimmy Kromann, CASPER STEINMANN
     TOKYO INSTITUTE OF TECHNOLOGY: HIROYA NAKATA
     NAGOYA UNIVERSITY: YOSHIO NISHIMOTO, STEPHAN IRLE
     MOSCOW STATE UNIVERSITY: VLADIMIR MIRONOV

 EXECUTION OF GAMESS BEGUN Wed Nov 16 19:17:58 2022

            ECHO OF THE FIRST FEW INPUT CARDS -
 INPUT CARD> $system kdiag=3 mwords=100 memddi=1000 parall=.t. $end                         
 INPUT CARD> $contrl runtyp=energy ispher=1 $end                                            
 INPUT CARD> $contrl icut=9 itol=20 inttyp=rysquad qmttol=1.0d-05 nosym=1 $end              
 INPUT CARD> $scf    npunch=2 conv=1.0d-06 dirscf=.t.      $end                             
 INPUT CARD> $contrl scftyp=mcscf  mult=2 maxit=200 icharg=1 mplevl=2 $end                  
 INPUT CARD> $guess  guess=moread norb=29 purify=.t. $end                                   
 INPUT CARD> $basis  gbasis=ccd $end                                                        
 INPUT CARD> $mcscf  cistep=gmcci fullnr=.t. finci=mos                                      
 INPUT CARD>         acurcy=1.d-6 maxit=100 $end                                            
 INPUT CARD> $trans  dirtrf=.t. $end                                                        
 INPUT CARD> $mrmp   mrpt=gmcpt rdvecs=.f. $end                                             
 INPUT CARD> $gmcpt  nmofzc=0 nmodoc=1 nmoact=7 nelact=7 stsym(1)=A                         
 INPUT CARD>         reftyp=ormas nspace=1 mstart(1)=2 mine(1)=7 maxe(1)=7                  
 INPUT CARD>         kstate(1)=1,1,1                                                        
 INPUT CARD>         wstate(1)=1,1,1                                                        
 INPUT CARD>         iwgt=0 thrwgt=-1.0 krot=.f. kszdoe=.f. knospn=.f.                      
 INPUT CARD>         thrde=-1.0 edshft=0.02 $end                                            
 INPUT CARD> $data                                                                          
 INPUT CARD> NH3+ 3 states calculation at NH3 structure.                                    
 INPUT CARD> c1                                                                             
 INPUT CARD>N 7.0 -0.03114459 0.006228902999999999 -0.1693809542                            
 INPUT CARD>H 1.0 -0.248973102 0.9902443188000001 0.16760730510000005                       
 INPUT CARD>H 1.0 -0.172547795 -1.0038212838 0.2133287701                                   
 INPUT CARD>H 1.0 0.85428333 -0.07297573399999999 0.3884487441                              
 INPUT CARD>$end                                                                            
 INPUT CARD>--- OPTIMIZED RHF      MO-S --- GENERATED AT Mon Nov 14 16:47:08 2022           
 INPUT CARD>E=      -56.3825050291, E(NUC)=   11.8429239490                                 
 INPUT CARD> $VEC                                                                           
 INPUT CARD> 1  1-1.00134066E+00-2.25158504E-03 3.44925845E-03 0.00000000E+00 0.00000000E+00
 INPUT CARD> 1  2-2.13170927E-03 0.00000000E+00 0.00000000E+00 6.57129898E-04-6.87950443E-05
 INPUT CARD> 1  3-6.87950443E-05 1.37590089E-04 0.00000000E+00 0.00000000E+00 0.00000000E+00
 INPUT CARD> 1  4 3.25502815E-04-4.84772356E-04 3.62525460E-04-6.27912517E-04-3.45956485E-04
 INPUT CARD> 1  5 3.25502815E-04-4.84772356E-04 3.62525460E-04 6.27912517E-04-3.45956485E-04
 INPUT CARD> 1  6 3.25502815E-04-4.84772356E-04-7.25050921E-04 0.00000000E+00-3.45956485E-04
 INPUT CARD> 2  1 1.31286642E-02-4.05911371E-01-2.82090992E-01 0.00000000E+00 0.00000000E+00
 INPUT CARD> 2  2-7.71489043E-02 0.00000000E+00 0.00000000E+00 9.73717494E-03 6.62450916E-04
 INPUT CARD> 2  3 6.62450916E-04-1.32490183E-03 0.00000000E+00 0.00000000E+00 0.00000000E+00
 INPUT CARD> 2  4-1.96090317E-01-1.96656153E-02-1.74855877E-02 3.02859263E-02 8.68214399E-03
 INPUT CARD> 2  5-1.96090317E-01-1.96656153E-02-1.74855877E-02-3.02859263E-02 8.68214399E-03
 INPUT CARD> 2  6-1.96090317E-01-1.96656153E-02 3.49711754E-02 0.00000000E+00 8.68214399E-03
 INPUT CARD> 3  1 0.00000000E+00 0.00000000E+00 0.00000000E+00 4.48608762E-01 0.00000000E+00
 INPUT CARD> 3  2 0.00000000E+00 2.18692520E-01 0.00000000E+00 0.00000000E+00 1.30198027E-02
 INPUT CARD> 3  3-1.30198027E-02 0.00000000E+00 0.00000000E+00 2.71832968E-02 0.00000000E+00
 INPUT CARD> 3  4-1.85332726E-01-7.03958951E-02 8.47929477E-03 1.95242443E-02 8.32835058E-03
 INPUT CARD> 3  5-1.85332726E-01-7.03958951E-02 8.47929477E-03-1.95242443E-02 8.32835058E-03
 INPUT CARD> 3  6 3.70665453E-01 1.40791790E-01-2.53376884E-02 0.00000000E+00-1.66567012E-02
 INPUT CARD> 4  1 0.00000000E+00 0.00000000E+00 0.00000000E+00 0.00000000E+00 4.48608762E-01
 INPUT CARD> 4  2 0.00000000E+00 0.00000000E+00 2.18692520E-01 0.00000000E+00 0.00000000E+00
 INPUT CARD> 4  3 0.00000000E+00 0.00000000E+00-1.50339731E-02 0.00000000E+00 2.71832968E-02
 INPUT CARD> 4  4 3.21005698E-01 1.21929267E-01 1.95242443E-02-1.40653607E-02-1.44251263E-02
  100000000 WORDS OF MEMORY AVAILABLE

     BASIS OPTIONS
     -------------
     GBASIS=CCD          IGAUSS=       0      POLAR=NONE    
     NDFUNC=       0     NFFUNC=       0     DIFFSP=       F
     NPFUNC=       0      DIFFS=       F     BASNAM=        


     RUN TITLE
     ---------
  NH3+ 3 states calculation at NH3 structure.                                    

 THE POINT GROUP OF THE MOLECULE IS C1      
 THE ORDER OF THE PRINCIPAL AXIS IS     0

 ATOM      ATOMIC                      COORDINATES (BOHR)
           CHARGE         X                   Y                   Z
 N           7.0    -0.0588547411        0.0117709199       -0.3200835910
 H           1.0    -0.4704909411        1.8712904234        0.3167318802
 H           1.0    -0.3260680523       -1.8969471670        0.4031329208
 H           1.0     1.6143614096       -0.1379041410        0.7340616866

          INTERNUCLEAR DISTANCES (ANGS.)
          ------------------------------

                1 N          2 H          3 H          4 H     

   1 N       0.0000000    1.0626837 *  1.0893406 *  1.0494903 *
   2 H       1.0626837 *  0.0000000    1.9960533 *  1.5480254 *
   3 H       1.0893406 *  1.9960533 *  0.0000000    1.3969691 *
   4 H       1.0494903 *  1.5480254 *  1.3969691 *  0.0000000  

  * ... LESS THAN  3.000


     ATOMIC BASIS SET
     ----------------
 THE CONTRACTED PRIMITIVE FUNCTIONS HAVE BEEN UNNORMALIZED
 THE CONTRACTED BASIS FUNCTIONS ARE NOW NORMALIZED TO UNITY

  SHELL TYPE  PRIMITIVE        EXPONENT          CONTRACTION COEFFICIENT(S)

 N         

      1   S       1          9046.0000000    0.000699617413
      1   S       2          1357.0000000    0.005386054630
      1   S       3           309.3000000    0.027391021189
      1   S       4            87.7300000    0.103150591982
      1   S       5            28.5600000    0.278570663317
      1   S       6            10.2100000    0.448294849454
      1   S       7             3.8380000    0.278085928395
      1   S       8             0.7466000    0.015431561233

      2   S       9          9046.0000000   -0.000304990096
      2   S      10          1357.0000000   -0.002408026379
      2   S      11           309.3000000   -0.011944448725
      2   S      12            87.7300000   -0.048925992909
      2   S      13            28.5600000   -0.134472724725
      2   S      14            10.2100000   -0.315112577700
      2   S      15             3.8380000   -0.242857832550
      2   S      16             0.7466000    1.094382206854

      3   S      17             0.2248000    1.000000000000

      4   P      18            13.5500000    0.058905676772
      4   P      19             2.9170000    0.320461106714
      4   P      20             0.7973000    0.753042061792

      5   P      21             0.2185000    1.000000000000

      6   D      22             0.8170000    1.000000000000

 H         

      7   S      23            13.0100000    0.033498726390
      7   S      24             1.9620000    0.234800801174
      7   S      25             0.4446000    0.813682957883

      8   S      26             0.1220000    1.000000000000

      9   P      27             0.7270000    1.000000000000

 H         

     10   S      28            13.0100000    0.033498726390
     10   S      29             1.9620000    0.234800801174
     10   S      30             0.4446000    0.813682957883

     11   S      31             0.1220000    1.000000000000

     12   P      32             0.7270000    1.000000000000

 H         

     13   S      33            13.0100000    0.033498726390
     13   S      34             1.9620000    0.234800801174
     13   S      35             0.4446000    0.813682957883

     14   S      36             0.1220000    1.000000000000

     15   P      37             0.7270000    1.000000000000

 TOTAL NUMBER OF BASIS SET SHELLS             =   15
 NUMBER OF CARTESIAN GAUSSIAN BASIS FUNCTIONS =   30
 NOTE: THIS RUN WILL RESTRICT THE MO VARIATION SPACE TO SPHERICAL HARMONICS.
 THE NUMBER OF ORBITALS KEPT IN THE VARIATIONAL SPACE WILL BE PRINTED LATER.
 NUMBER OF ELECTRONS                          =    9
 CHARGE OF MOLECULE                           =    1
 SPIN MULTIPLICITY                            =    2
 NUMBER OF OCCUPIED ORBITALS (ALPHA)          =    5
 NUMBER OF OCCUPIED ORBITALS (BETA )          =    4
 TOTAL NUMBER OF ATOMS                        =    4
 THE NUCLEAR REPULSION ENERGY IS       11.4015019345

     $CONTRL OPTIONS
     ---------------
 SCFTYP=MCSCF        RUNTYP=ENERGY       EXETYP=RUN     
 MPLEVL=       2     CITYP =NONE         CCTYP =NONE         VBTYP =NONE    
 DFTTYP=NONE         TDDFT =NONE    
 MULT  =       2     ICHARG=       1     NZVAR =       0     COORD =UNIQUE  
 PP    =NONE         RELWFN=NONE         LOCAL =NONE         NUMGRD=       F
 ISPHER=       1     NOSYM =       1     MAXIT =     200     UNITS =ANGS    
 PLTORB=       F     MOLPLT=       F     AIMPAC=       F     FRIEND=        
 NPRINT=       7     IREST =       0     GEOM  =INPUT   
 NORMF =       0     NORMP =       0     ITOL  =      20     ICUT  =       9
 INTTYP=RYSQUAD      GRDTYP=BEST         QMTTOL= 1.0E-05

     $SYSTEM OPTIONS
     ---------------
  REPLICATED MEMORY=   100000000 WORDS (ON EVERY NODE).
 DISTRIBUTED MEMDDI=        1000 MILLION WORDS IN AGGREGATE,
 MEMDDI DISTRIBUTED OVER   1 PROCESSORS IS  1000000000 WORDS/PROCESSOR.
 TOTAL MEMORY REQUESTED ON EACH PROCESSOR=  1100000000 WORDS.
 TIMLIM=      525600.00 MINUTES, OR     365.0 DAYS.
 PARALL= T  BALTYP=  DLB     KDIAG=    3  COREFL= F
 MXSEQ2=     300 MXSEQ3=     150  mem10=         0

          ----------------
          PROPERTIES INPUT
          ----------------

     MOMENTS            FIELD           POTENTIAL          DENSITY
 IEMOM =       1   IEFLD =       0   IEPOT =       0   IEDEN =       0
 WHERE =COMASS     WHERE =NUCLEI     WHERE =NUCLEI     WHERE =NUCLEI  
 OUTPUT=BOTH       OUTPUT=BOTH       OUTPUT=BOTH       OUTPUT=BOTH    
 IEMINT=       0   IEFINT=       0                     IEDINT=       0
                                                       MORB  =       0

     -------------------------------
     INTEGRAL TRANSFORMATION OPTIONS
     -------------------------------
     NWORD  =            0
     CUTOFF = 1.0E-09     MPTRAN =       0
     DIRTRF =       T     AOINTS =DUP     

          ----------------------
          MCSCF INPUT PARAMETERS
          ----------------------
 CONVERGER SELECTION: FOCAS = F  SOSCF = F  FULLNR = T  QUD = F  JACOBI = F
 SECULAR EQUATION METHOD CISTEP = GMCCI   
 --- GENERAL INPUT OPTIONS:
 MAXIT =     100  MICIT =       1  ACURCY= 1.000E-06
 DAMP  =   0.000  CANONC=       T  ENGTOL= 1.000E-10
 EKT   =       F  NPUNCH=       2  NWORD =         0
 REGENERATE CI AFTER CONVERGENCE = NONE    
 DIABATIZATION AFTER CONVERGENCE =        F
 --- INPUT FOR FULLNR CONVERGER:
 METHOD=DM2       FORS  =       F  DROPC =       T
 LINSER=       F  FCORE =       F  NORB  =      30

          ----------------------
          INTEGRAL INPUT OPTIONS
          ----------------------
 NOPK  =       1 NORDER=       0 SCHWRZ=       T

 ------------------------------------------
 MULTIREFERENCE PERTURBATION THEORY CONTROL
 ------------------------------------------
 MRPT=GMCPT    READ CONVERGED MCSCF VECTORS= F


     ------------------------------------------
     THE POINT GROUP IS C1 , NAXIS= 1, ORDER= 1
     ------------------------------------------

 -- VARIATIONAL SPACE WILL BE RESTRICTED TO PURE SPHERICAL HARMONICS ONLY --
 AFTER EXCLUDING CONTAMINANT COMBINATIONS FROM THE CARTESIAN GAUSSIAN BASIS
 SET, THE NUMBER OF SPHERICAL HARMONICS KEPT IN THE VARIATION SPACE IS   29

     DIMENSIONS OF THE SYMMETRY SUBSPACES ARE
 A   =   29

 ..... DONE SETTING UP THE RUN .....
 CPU     0: STEP CPU TIME=     0.03 TOTAL CPU TIME=          0.0 (      0.0 MIN)
 TOTAL WALL CLOCK TIME=          0.0 SECONDS, CPU UTILIZATION IS    75.00%

          ********************
          1 ELECTRON INTEGRALS
          ********************
 TIME TO DO   DIPOLE INTEGRALS=      0.00
 ...... END OF ONE-ELECTRON INTEGRALS ......
 CPU     0: STEP CPU TIME=     0.00 TOTAL CPU TIME=          0.0 (      0.0 MIN)
 TOTAL WALL CLOCK TIME=          0.1 SECONDS, CPU UTILIZATION IS    60.00%

          -------------
          GUESS OPTIONS
          -------------
          GUESS =MOREAD            NORB  =      29          NORDER=       0
          MIX   =       F          PRTMO =       F          PUNMO =       F
          TOLZ  = 1.0E-08          TOLE  = 1.0E-05
          SYMDEN=       F          PURIFY=       T

 INITIAL GUESS ORBITALS GENERATED BY MOREAD   ROUTINE.

 STATISTICS FOR GENERATION OF SYMMETRY ORBITAL -Q- MATRIX
 NUMBER OF CARTESIAN ATOMIC ORBITALS=         30
 NUMBER OF SPHERICAL CONTAMINANTS DROPPED=     1
 NUMBER OF LINEARLY DEPENDENT MOS DROPPED=     0
 TOTAL NUMBER OF MOS IN VARIATION SPACE=      29
 ORBITAL PURIFICATION WILL OCCUR

 SYMMETRIES FOR INITIAL GUESS ORBITALS FOLLOW.   BOTH SET(S).
     5 ORBITALS ARE OCCUPIED (    1 CORE ORBITALS).
     1=A        2=A        3=A        4=A        5=A        6=A        7=A   
     8=A        9=A       10=A       11=A       12=A       13=A       14=A   
    15=A       16=A       17=A       18=A       19=A       20=A       21=A   
    22=A       23=A       24=A       25=A       26=A       27=A       28=A   
    29=A   
 ...... END OF INITIAL ORBITAL SELECTION ......
 CPU     0: STEP CPU TIME=     0.01 TOTAL CPU TIME=          0.0 (      0.0 MIN)
 TOTAL WALL CLOCK TIME=          0.1 SECONDS, CPU UTILIZATION IS    80.00%

                    ----------------------
                    AO INTEGRAL TECHNOLOGY
                    ----------------------
     S,P,L SHELL ROTATED AXIS INTEGRALS, REPROGRAMMED BY
        KAZUYA ISHIMURA (IMS) AND JOSE SIERRA (SYNSTAR).
     S,P,D,L SHELL ROTATED AXIS INTEGRALS PROGRAMMED BY
        KAZUYA ISHIMURA (INSTITUTE FOR MOLECULAR SCIENCE).
     S,P,D,F,G SHELL TO TOTAL QUARTET ANGULAR MOMENTUM SUM 5,
        ERIC PROGRAM BY GRAHAM FLETCHER (ELORET AND NASA ADVANCED
        SUPERCOMPUTING DIVISION, AMES RESEARCH CENTER).
     S,P,D,F,G,L SHELL GENERAL RYS QUADRATURE PROGRAMMED BY
        MICHEL DUPUIS (PACIFIC NORTHWEST NATIONAL LABORATORY).

          --------------------
          2 ELECTRON INTEGRALS
          --------------------

 DIRECT SCF METHOD SKIPS INTEGRAL STORAGE ON DISK.
 DIRECT TRANSFORMATION SKIPS AO INTEGRAL STORAGE ON DISK.
  ...... END OF TWO-ELECTRON INTEGRALS .....
 STEP CPU TIME =     0.02 TOTAL CPU TIME =          0.1 (      0.0 MIN)
 TOTAL WALL CLOCK TIME=          0.1 SECONDS, CPU UTILIZATION IS    75.00%
 DDI: Creating Array [0] - 900 x 36 = 32400 words.
 DDI: Creating Array [1] - 21 x 288 = 6048 words.
 DDI: Creating Array [2] - 36 x 36 = 1296 words.
 DDI: Creating Array [3] - 465 x 36 = 16740 words.

          -----------------
          MCSCF CALCULATION
          -----------------

 ----- NUCLEAR ENERGY ----- =        11.4015019345

     -------------------------------------------------
     GMC-PT/GMC-QDPT or general MCSCF input parameters
     -------------------------------------------------
 # of frozen core orbs. =         0 ->         0
 # of doubly occ. orbs. =         1
 # of active      orbs. =         7
 # of virtual     orbs. =        21
 # of active electrons  =         7
 # of states in CI      =         3
 Highest state in CI    =         3
 kstate =  1 1 1
 avecoe =  0.333 0.333 0.333
 State symmetry           = A           
 Assigned symmetry number = 1

 <<<Act. MO sym.: 1111111

 <<<Division of 1-ext.:  0
 <<<Division of 2-ext.:  0

 *** Reference space

 Reference type: ORMAS (= Occupation restricted multiple active space)
 # of orbitals          =  7
 # of minimum electrons =  7
 # of maximum electrons =  7
 State symmetry    =    1 (input)
 2*Sz              =    1 (input)
 Spin multiplicity =    2 (input)
 Dimension of reference space =      1225  (from      3432 walks)

 Dimension of reference space =      1225  (from      1225 walks)

 <<<Ionized spaces for Ref-CI:
      0:         1225 /   -1-0:         1960 /  0-1-0:         2891

 EVALUATING EXCHANGE INTEGRALS FOR DIRECT INTEGRAL TRANSFORMATION
 SCHWARZ INEQUALITY OVERHEAD:       465 INTEGRALS, T=        0.00

     --------------------------------------------
     PARTIAL TWO ELECTRON INTEGRAL TRANSFORMATION
     --------------------------------------------

 NUMBER OF CORE MOLECULAR ORBITALS     =    1
 NUMBER OF OCCUPIED MOLECULAR ORBITALS =    8
 TOTAL NUMBER OF MOLECULAR ORBITALS    =   29
 TOTAL NUMBER OF ATOMIC ORBITALS       =   30
 THRESHOLD FOR KEEPING TRANSFORMED 2E- INTEGRALS = 1.000E-09

 -------------------------------     ------------------------------
 DISTRIBUTED DATA TRANSFORMATION     PROGRAM WRITTEN BY G. FLETCHER
 -------------------------------     ------------------------------

 THE DISTRIBUTED MEMORY REQUIRED FOR THIS STEP IS MEMDDI=         1 MWORDS
 CREATING DISTRIBUTED STORAGE FOR [VIR OCC|VIR OCC] INTEGRALS
 CREATING DISTRIBUTED STORAGE FOR [VIR OCC|OCC OCC] INTEGRALS
 CREATING DISTRIBUTED STORAGE FOR [OCC OCC|OCC OCC] INTEGRALS
 CREATING DISTRIBUTED STORAGE FOR [VIR VIR|OCC OCC] INTEGRALS
 FOR    1 PROCESSORS, THE REPLICATED MEMORY NEEDED IS       73700 WORDS.
 SCHWARZ INEQUALITY OVERHEAD:       465 INTEGRALS, T=        0.00

      DIRECT 4-INDEX TRANSFORMATION 
      SCHWARZ INEQUALITY TEST SKIPPED          0 INTEGRAL BLOCKS
 ----- FROZEN CORE ENERGY =       -47.7079754734
 ... END OF INTEGRAL TRANSFORMATION ...
 CPU     0: STEP CPU TIME=     0.22 TOTAL CPU TIME=          0.3 (      0.0 MIN)
 TOTAL WALL CLOCK TIME=          0.3 SECONDS, CPU UTILIZATION IS    93.33%

     --------------------------------     -----------------------------
     MCHF NEWTON-RAPHSON OPTIMIZATION     CODE WRITTEN BY MICHEL DUPUIS
     --------------------------------     -----------------------------
     PARALLEL VERSION WRITTEN BY G. FLETCHER (ELORET)
     NASA ADVANCED SUPERCOMPUTING DIVISION, AMES RESEARCH CENTER

 NUMBER OF INDEPENDENT ORBITAL ROTATION PARAMETERS =   175
 ..... DONE SOLVING NEWTON-RAPHSON EQUATIONS .....
 CPU     0: STEP CPU TIME=     0.89 TOTAL CPU TIME=          1.2 (      0.0 MIN)
 TOTAL WALL CLOCK TIME=          1.2 SECONDS, CPU UTILIZATION IS    98.32%
 ..... DONE WITH NTN-RPH ORBITAL ROTATIONS ..... 
 CPU     0: STEP CPU TIME=     0.00 TOTAL CPU TIME=          1.2 (      0.0 MIN)
 TOTAL WALL CLOCK TIME=          1.2 SECONDS, CPU UTILIZATION IS    98.32%
 MAXIMUM MEMORY USED BY NTN-RPH CODE WAS     57645 WORDS.

 ITER     TOTAL ENERGY      DEL(E)  LAGRANGIAN ASYMMETRY   SQCDF  MICIT   DAMP
   1      -55.646305350 -0.646305350  0.122082   14    4 1.343E-01  1   0.0000
   2      -55.690828123 -0.044522773  0.021513   12    5 4.563E-01  1   0.0000
   3      -55.724969089 -0.034140966  0.012849   11    6 2.165E-01  1   0.0234
   4      -55.739567936 -0.014598847  0.004415   11    6 3.897E-02  1   0.0047
   5      -55.741364733 -0.001796797  0.000776   13    5 9.341E-04  1   0.0000
   6      -55.741411135 -0.000046402  0.000302   13    5 6.217E-05  1   0.0000
   7      -55.741415271 -0.000004136  0.000127   13    5 9.661E-06  1   0.0000
   8      -55.741415976 -0.000000704  0.000058   22    5 1.905E-06  1   0.0000
   9      -55.741416120 -0.000000144  0.000028   22    5 4.400E-07  1   0.0000
  10      -55.741416153 -0.000000034  0.000014   22    5 1.151E-07  1   0.0000
  11      -55.741416162 -0.000000009  0.000007   22    5 3.287E-08  1   0.0000
  12      -55.741416164 -0.000000002  0.000004   22    5 9.947E-09  1   0.0000
  13      -55.741416165 -0.000000001  0.000002   22    5 3.115E-09  1   0.0000
  14      -55.741416165 -0.000000000  0.000001   22    5 9.954E-10  1   0.0000
  15      -55.741416165 -0.000000000  0.000001   12    7 3.231E-10  1   0.0000

          --------------------
          LAGRANGIAN CONVERGED
          --------------------

 FINAL MCSCF ENERGY IS      -55.7414161653 AFTER  15 ITERATIONS

 -MCCI- BASED ON OPTIMIZED ORBITALS
 ----------------------------------

 PLEASE NOTE: IF THE ACTIVE ORBITALS ARE CANONICALIZED BELOW,
 THE FOLLOWING CI EXPANSION COEFFICIENTS AND THE DENSITY DO NOT
 CORRESPOND TO THE PRINTED ORBITALS.  THE PRINTED EXPANSIONS MATCH
 THE ORBITALS USED DURING THE LAST ITERATION.  IF YOU WISH TO SEE
 CI EXPANSIONS BASED ON THE CANONICAL (OR NATURAL) ORBITALS, YOU
 MUST RUN A CI CALCULATION WITH THAT ORBITAL CHOICE READ IN $VEC.

 Averaged energy =     -55.741416165

 State #    1  Energy =     -55.881594520  S =  0.500

      Det      Coef    Occupancy (Ignoring core)
      ---      ----    --------- --------- -----
        1    0.923782  11110001110000
        2    0.054638  11101001110000
        5   -0.065843  01111001110000
        8   -0.131936  10110101110000
       17   -0.129987  11010011110000
       71   -0.221728  11110001011000
      211    0.050070  11110000110100
      386    0.091036  11110001010010
      393    0.074411  10110101010010
      701    0.109156  11110001100001

 State #    2  Energy =     -55.729706520  S =  0.500

      Det      Coef    Occupancy (Ignoring core)
      ---      ----    --------- --------- -----
        1    0.211972  11110001110000
       36   -0.179784  11110001101000
       71    0.920946  11110001011000
       74   -0.053046  10111001011000
       75   -0.060498  01111001011000
       78   -0.079854  10110101011000
       87   -0.097984  11010011011000
      316    0.054683  11110000011100
      386    0.057592  11110001010010
      806   -0.093091  11110001001001
      822   -0.051450  11010011001001

 State #    3  Energy =     -55.612947456  S =  0.500

      Det      Coef    Occupancy (Ignoring core)
      ---      ----    --------- --------- -----
       36   -0.949444  11110001101000
       43    0.081353  10110101101000
       52    0.065496  11010011101000
       71   -0.174208  11110001011000
      281   -0.071849  11110000101100
      456   -0.102591  11110001001010
      463   -0.077231  10110101001010

 DENSITY MATRIX OVER ACTIVE MO-S

             1           2           3           4           5

    1    1.9767574
    2    0.0192365   1.6306532
    3   -0.0002087  -0.0007487   1.6347845
    4    0.0009284   0.0044270   0.0003339   1.6534578
    5    0.1021754  -0.0365578  -0.0003421   0.0394999   0.0286551
    6    0.0032072  -0.1472489   0.0028699   0.0455354   0.0075905
    7   -0.0036489  -0.0038611   0.1498066   0.0002776  -0.0009259

             6           7

    6    0.0424428
    7   -0.0005920   0.0332492

 FORMING THE "STANDARD FOCK OPERATOR" IN DIRECT AO INTEGRAL MODE...
 ONLY THE    1 CORE AND   21 VIRTUAL ORBITALS WILL BE CANONICALIZED

          ----------------------
          MCSCF NATURAL ORBITALS
          ----------------------

                      1          2          3          4          5
                  -15.9835     1.9830     1.6558     1.6490     1.6438
                     A          A          A          A          A   
    1  N  1  S    1.001191   0.009265  -0.009914   0.001009  -0.002881
    2  N  1  S   -0.001911   0.437246  -0.172597   0.040200  -0.072789
    3  N  1  S   -0.006325   0.306625  -0.273513   0.055397  -0.109115
    4  N  1  X    0.000037   0.041780  -0.093765  -0.109393   0.507350
    5  N  1  Y    0.000051  -0.003475   0.045494   0.463943   0.120831
    6  N  1  Z    0.001117   0.092971   0.588635  -0.051493   0.028830
    7  N  1  X    0.000051  -0.002061  -0.078588  -0.043764   0.260815
    8  N  1  Y    0.000007  -0.001164   0.022019   0.172694   0.058756
    9  N  1  Z   -0.000468   0.010254   0.386651  -0.023301  -0.011787
   10  N  1 XX   -0.000178  -0.001769  -0.013067  -0.002381   0.014319
   11  N  1 YY    0.000354   0.001090  -0.010631   0.004876  -0.015974
   12  N  1 ZZ   -0.000177   0.000679   0.023698  -0.002495   0.001654
   13  N  1 XY   -0.000085  -0.000855  -0.000206  -0.002060  -0.000942
   14  N  1 XZ    0.000162   0.001897   0.000751  -0.006028   0.024440
   15  N  1 YZ   -0.000007  -0.000842   0.001663   0.020126   0.005104
   16  H  2  S   -0.001883   0.172559   0.134603   0.350317  -0.063430
   17  H  2  S    0.000559  -0.000449   0.032396   0.046572  -0.022331
   18  H  2  X   -0.000281   0.010330   0.003199   0.009694   0.019580
   19  H  2  Y    0.000954  -0.032542  -0.016965  -0.035159   0.007004
   20  H  2  Z    0.000372  -0.004771   0.018773  -0.015256   0.003700
   21  H  3  S   -0.001759   0.172510   0.085515  -0.299206  -0.215391
   22  H  3  S    0.000473  -0.000711   0.027616  -0.041166  -0.055056
   23  H  3  X   -0.000197   0.006856   0.001395  -0.015545   0.014847
   24  H  3  Y   -0.000896   0.031881   0.012676  -0.030600  -0.021371
   25  H  3  Z    0.000393  -0.006289   0.020988   0.010098   0.009457
   26  H  4  S   -0.001930   0.213007   0.098222  -0.109603   0.364476
   27  H  4  S    0.000293   0.008376   0.021719  -0.015629   0.084016
   28  H  4  X    0.000896  -0.034138  -0.019938   0.009466  -0.024624
   29  H  4  Y   -0.000076   0.003152   0.001521   0.022269   0.007567
   30  H  4  Z    0.000519  -0.016116   0.019462   0.004323  -0.021296

                      6          7          8
                    0.0289     0.0204     0.0191
                     A          A          A   
    1  N  1  S   -0.112983  -0.189138   0.081257
    2  N  1  S   -0.364491  -0.633631   0.253200
    3  N  1  S    0.015810  -0.181372   0.024661
    4  N  1  X    0.718008  -0.393348   0.002833
    5  N  1  Y    0.104342   0.243610   0.907864
    6  N  1  Z   -0.138267  -0.634621   0.178624
    7  N  1  X   -0.022623  -0.070392   0.007080
    8  N  1  Y   -0.004265   0.035157   0.075242
    9  N  1  Z    0.045286   0.082521  -0.038985
   10  N  1 XX   -0.050771  -0.017492   0.006008
   11  N  1 YY    0.053567   0.012607  -0.007856
   12  N  1 ZZ   -0.002796   0.004885   0.001848
   13  N  1 XY   -0.003818  -0.021491  -0.040024
   14  N  1 XZ   -0.009554   0.044764  -0.009320
   15  N  1 YZ   -0.005313  -0.020870  -0.051663
   16  H  2  S    0.425718   0.167044  -0.726907
   17  H  2  S    0.077398  -0.003805  -0.139795
   18  H  2  X   -0.005280   0.014231  -0.028129
   19  H  2  Y   -0.044459  -0.030143   0.071709
   20  H  2  Z   -0.003539   0.011363  -0.020097
   21  H  3  S    0.565231   0.434313   0.435655
   22  H  3  S    0.121258   0.054453   0.111169
   23  H  3  X   -0.007666   0.028737   0.017065
   24  H  3  Y    0.058359   0.053525   0.034251
   25  H  3  Z   -0.003861   0.024150   0.008769
   26  H  4  S   -0.484770   0.701320  -0.123494
   27  H  4  S   -0.140778   0.112609  -0.022130
   28  H  4  X    0.019339  -0.075339   0.016546
   29  H  4  Y   -0.006379  -0.012997  -0.042734
   30  H  4  Z    0.019641   0.003966   0.000778

          ------------------------
          MCSCF OPTIMIZED ORBITALS
          ------------------------

                      1          2          3          4          5
                  -15.9835     0.0000     0.0000     0.0000     0.0000
                     A          A          A          A          A   
    1  N  1  S    1.001191  -0.002719   0.006769  -0.002353  -0.016577
    2  N  1  S   -0.001911   0.401008  -0.017422   0.001688  -0.196694
    3  N  1  S   -0.006325   0.305255  -0.085754   0.005730  -0.281959
    4  N  1  X    0.000037   0.014196   0.451031   0.017447  -0.031664
    5  N  1  Y    0.000051   0.000108   0.002036   0.392127   0.008134
    6  N  1  Z    0.001117   0.052259   0.004423   0.001253   0.579080
    7  N  1  X    0.000051  -0.018307   0.268243   0.020054  -0.060086
    8  N  1  Y    0.000007  -0.000856   0.013396   0.174962   0.008858
    9  N  1  Z   -0.000468   0.013163  -0.038579   0.004716   0.388312
   10  N  1 XX   -0.000178  -0.004375   0.019759   0.000854  -0.013915
   11  N  1 YY    0.000354   0.003826  -0.020509  -0.000420  -0.009897
   12  N  1 ZZ   -0.000177   0.000549   0.000750  -0.000434   0.023812
   13  N  1 XY   -0.000085  -0.001432  -0.000901   0.001839  -0.000124
   14  N  1 XZ    0.000162   0.002618   0.026440   0.000510   0.002991
   15  N  1 YZ   -0.000007  -0.001247  -0.000779   0.025851   0.000064
   16  H  2  S   -0.001883   0.205203  -0.196047   0.385663   0.121025
   17  H  2  S    0.000559   0.004282  -0.044565   0.052989   0.030229
   18  H  2  X   -0.000281   0.010386   0.016984   0.016797   0.003717
   19  H  2  Y    0.000954  -0.036426   0.019735  -0.038358  -0.015876
   20  H  2  Z    0.000372  -0.004595   0.005899  -0.010688   0.020397
   21  H  3  S   -0.001759   0.204284  -0.170068  -0.390923   0.122521
   22  H  3  S    0.000473   0.004904  -0.053698  -0.064032   0.031915
   23  H  3  X   -0.000197   0.006851   0.019721  -0.013063   0.003687
   24  H  3  Y   -0.000896   0.035593  -0.016398  -0.038826   0.016802
   25  H  3  Z    0.000393  -0.005778   0.005440   0.012438   0.020456
   26  H  4  S   -0.001930   0.216313   0.434002  -0.003098   0.122966
   27  H  4  S    0.000293   0.006421   0.097681   0.009365   0.024571
   28  H  4  X    0.000896  -0.035873  -0.028872   0.001254  -0.022721
   29  H  4  Y   -0.000076   0.002886   0.001593   0.027569  -0.000116
   30  H  4  Z    0.000519  -0.014532  -0.025577  -0.000210   0.018227

                      6          7          8          9         10
                    0.0000     0.0000     0.0000     0.1528     0.2045
                     A          A          A          A          A   
    1  N  1  S    0.231336  -0.033116   0.019691  -0.145322  -0.003338
    2  N  1  S    0.783889  -0.097861   0.049788  -0.221858  -0.012128
    3  N  1  S    0.173986   0.083743  -0.014303   1.441165  -0.031148
    4  N  1  X    0.077084   0.859600   0.019572  -0.045069  -0.004595
    5  N  1  Y   -0.018401  -0.043692   0.985035   0.004987   0.150965
    6  N  1  Z    0.681868   0.096103   0.010882  -0.221110  -0.010128
    7  N  1  X    0.064382   0.032727  -0.010907   0.170726   0.160466
    8  N  1  Y   -0.010343  -0.020663   0.096296  -0.038365  -0.813497
    9  N  1  Z   -0.089657  -0.003182  -0.012146   0.492431   0.042564
   10  N  1 XX    0.034896  -0.038121  -0.005433  -0.028716   0.024485
   11  N  1 YY   -0.032633   0.043313   0.002996   0.074458  -0.034306
   12  N  1 ZZ   -0.002263  -0.005192   0.002437  -0.045742   0.009820
   13  N  1 XY    0.010080   0.006751  -0.043941  -0.018215   0.027842
   14  N  1 XZ   -0.039356  -0.023570  -0.000408   0.057382   0.028238
   15  N  1 YZ    0.007032   0.005655  -0.053062  -0.010511  -0.102478
   16  H  2  S   -0.478474   0.340410  -0.568710   0.327866  -0.512141
   17  H  2  S   -0.059755   0.074707  -0.119947  -0.851665   1.845763
   18  H  2  X   -0.017915  -0.007689  -0.023315  -0.026453   0.019217
   19  H  2  Y    0.059371  -0.030312   0.052686   0.093318  -0.098575
   20  H  2  Z   -0.014001  -0.006752  -0.018421   0.002835  -0.075916
   21  H  3  S   -0.464745   0.311952   0.564897   0.348425   0.294354
   22  H  3  S   -0.061949   0.079558   0.131616  -0.932289  -1.123275
   23  H  3  X   -0.018410  -0.017452   0.020573   0.008820  -0.012787
   24  H  3  Y   -0.057724   0.029276   0.049993  -0.089409  -0.064565
   25  H  3  Z   -0.017809  -0.013536   0.014489   0.025448   0.073043
   26  H  4  S   -0.476578  -0.680713  -0.034653   0.186971   0.177329
   27  H  4  S   -0.055955  -0.164838  -0.016030  -0.711609  -0.624663
   28  H  4  X    0.062811   0.044656   0.002210   0.085574   0.023481
   29  H  4  Y    0.002882   0.001363  -0.042663  -0.035415   0.008181
   30  H  4  Z   -0.010299   0.013723   0.004561   0.064693   0.030816

                     11         12         13         14         15
                    0.2178     0.5363     0.6186     0.6574     0.7670
                     A          A          A          A          A   
    1  N  1  S    0.033593   0.071261   0.068062  -0.045396  -0.159733
    2  N  1  S    0.068460   0.092191   0.277127  -0.147182  -0.376365
    3  N  1  S   -0.203720  -0.448356   0.258236   0.015513   0.580656
    4  N  1  X   -0.005891  -0.616310  -0.235116   0.038862   0.005999
    5  N  1  Y    0.042480  -0.004262  -0.161324  -0.444501   0.074076
    6  N  1  Z    0.053871   0.391982  -0.537525   0.206772   0.158606
    7  N  1  X   -0.394780   1.308952   0.913275  -0.324795  -0.054732
    8  N  1  Y   -0.258423  -0.064924   0.525749   1.888283  -0.426645
    9  N  1  Z   -0.165576  -0.467071   0.988553  -0.406289  -0.135598
   10  N  1 XX   -0.072707   0.025597  -0.002487  -0.007399   0.011838
   11  N  1 YY    0.082137  -0.009558  -0.045872   0.021446   0.017704
   12  N  1 ZZ   -0.009430  -0.016039   0.048359  -0.014048  -0.029543
   13  N  1 XY    0.017797  -0.008826   0.060764   0.055822   0.169272
   14  N  1 XZ   -0.076241   0.032408  -0.032892   0.020635   0.022826
   15  N  1 YZ   -0.028341  -0.001502   0.000686  -0.059970   0.089524
   16  H  2  S    0.166681   0.375814  -0.515172  -0.561190   0.061655
   17  H  2  S   -0.411077   0.478561   0.161373  -0.750728  -0.028050
   18  H  2  X    0.028259   0.019523   0.095849   0.055185   0.288586
   19  H  2  Y   -0.002328  -0.048607   0.017140   0.215216  -0.043100
   20  H  2  Z   -0.010927  -0.064840   0.053828  -0.103554   0.200616
   21  H  3  S    0.475950   0.295910  -0.082361   0.771980   0.004520
   22  H  3  S   -1.542492   0.485903   0.543438   0.480999  -0.304363
   23  H  3  X   -0.007509   0.041842  -0.116460  -0.063122  -0.389425
   24  H  3  Y   -0.050731   0.034255   0.062501   0.192960  -0.154249
   25  H  3  Z    0.019360  -0.071614   0.020902   0.076367  -0.194759
   26  H  4  S   -0.593684  -0.144906  -0.749725   0.304207   0.110042
   27  H  4  S    2.071154  -0.815507  -0.493833   0.108844  -0.062563
   28  H  4  X   -0.090155   0.093267   0.064344  -0.054444   0.095863
   29  H  4  Y    0.008242  -0.040719   0.100780   0.002361   0.488700
   30  H  4  Z   -0.060524   0.061387   0.064620   0.014656   0.006248

                     16         17         18         19         20
                    0.9787     1.0174     1.2407     1.4186     1.4551
                     A          A          A          A          A   
    1  N  1  S   -0.555063  -0.248549  -0.008052  -0.444775  -0.239339
    2  N  1  S   -1.177877  -0.524352  -0.015845  -0.934607  -0.489729
    3  N  1  S    2.350472   1.233955   0.021761   1.626014   1.039368
    4  N  1  X   -0.076850  -0.036287  -0.015624  -0.037769   0.134522
    5  N  1  Y    0.023838  -0.029977  -0.277173   0.013013   0.003136
    6  N  1  Z    0.161457   0.071861  -0.010623  -0.042935   0.007272
    7  N  1  X    0.405427   0.354715  -0.068532  -0.214254   0.588104
    8  N  1  Y   -0.078660   0.165754   1.061915   0.153316  -0.123367
    9  N  1  Z    0.002143   0.412676  -0.022930   0.691947   0.528540
   10  N  1 XX   -0.124362   0.192254  -0.004638   0.127039  -0.070363
   11  N  1 YY   -0.087971  -0.063360   0.002431   0.101900   0.044747
   12  N  1 ZZ    0.212332  -0.128895   0.002207  -0.228940   0.025616
   13  N  1 XY   -0.028955  -0.041060  -0.117240   0.023066  -0.041080
   14  N  1 XZ   -0.058416  -0.212626   0.024767   0.012673  -0.118895
   15  N  1 YZ   -0.002472  -0.042354   0.065356  -0.002173  -0.019366
   16  H  2  S   -0.267336  -0.214482  -0.501999  -0.505253  -0.213503
   17  H  2  S   -0.302231  -0.189474  -0.229145  -0.191817   0.053426
   18  H  2  X   -0.024669  -0.415660  -0.358428   0.531414  -0.409574
   19  H  2  Y    0.010480   0.031144  -0.308880   0.112923  -0.072142
   20  H  2  Z    0.297400   0.020579   0.383375  -0.247695  -0.607652
   21  H  3  S   -0.346681  -0.081830   0.506194  -0.385243  -0.330123
   22  H  3  S   -0.281105  -0.084851   0.184223  -0.090669   0.053995
   23  H  3  X    0.070397  -0.256763   0.429001   0.465035  -0.238167
   24  H  3  Y    0.004160  -0.041161  -0.346575  -0.068939   0.059957
   25  H  3  Z    0.348303   0.100540  -0.377502  -0.366339  -0.493039
   26  H  4  S   -0.483897  -0.290029   0.017796  -0.407478  -0.392582
   27  H  4  S   -0.348743  -0.245290   0.020776  -0.122629  -0.354755
   28  H  4  X   -0.113576   0.442024  -0.053086   0.098989   0.080840
   29  H  4  Y   -0.073786  -0.072755   0.188918  -0.179707   0.073104
   30  H  4  Z    0.304104  -0.463343  -0.009346  -0.298662   0.549764

                     21         22         23         24         25
                    1.6433     1.8243     1.9017     1.9334     2.1512
                     A          A          A          A          A   
    1  N  1  S    0.083025  -0.030388  -0.094659   0.183536  -0.088319
    2  N  1  S    0.160573   0.004993  -0.259617   0.446591  -0.169509
    3  N  1  S   -0.380369   0.975337  -0.471164   0.420425   0.385662
    4  N  1  X    0.131285  -0.198327  -0.193770   0.252787  -0.079271
    5  N  1  Y    0.071226   0.139265   0.513779   0.280619   0.056854
    6  N  1  Z    0.013994   0.075545  -0.184455   0.233850  -0.007070
    7  N  1  X   -0.007236   0.076915   0.131343  -0.264199  -0.037358
    8  N  1  Y    0.924798   0.194447   0.140717   0.022169   0.012394
    9  N  1  Z   -0.168450   0.374461  -0.178266   0.131218   0.452712
   10  N  1 XX   -0.076996   0.196390   0.062364  -0.106726  -0.767591
   11  N  1 YY    0.008950  -0.191619   0.080412  -0.059571  -0.044774
   12  N  1 ZZ    0.068045  -0.004771  -0.142777   0.166297   0.812365
   13  N  1 XY    0.051999   0.042448   0.175782   0.169469  -0.320794
   14  N  1 XZ   -0.062811  -0.018478   0.147214  -0.231832   0.371296
   15  N  1 YZ   -0.097964  -0.070313  -0.160518  -0.101566  -0.111526
   16  H  2  S   -0.256127  -0.211799   0.073330  -0.109277  -0.164373
   17  H  2  S   -0.102697  -0.491395  -0.199740  -0.231350  -0.115596
   18  H  2  X    0.140385  -0.173740  -0.418110  -0.027358  -0.015292
   19  H  2  Y   -0.146247   0.837697   0.188662   0.664632   0.209994
   20  H  2  Z    0.547876   0.059605   0.342243   0.181700  -0.169583
   21  H  3  S    0.349942  -0.117717   0.120209  -0.064256  -0.135227
   22  H  3  S    0.356856  -0.333820   0.410864   0.124284  -0.024153
   23  H  3  X   -0.310097  -0.214969   0.154711   0.575021  -0.187831
   24  H  3  Y    0.235930  -0.656959   0.853343   0.010966  -0.045232
   25  H  3  Z   -0.523046  -0.287696  -0.316294  -0.078818  -0.289205
   26  H  4  S    0.205165  -0.301272   0.030880   0.000913  -0.135529
   27  H  4  S   -0.128969   0.312827   0.140437  -0.277923   0.061536
   28  H  4  X    0.171106  -0.456170  -0.432696   0.767368   0.237488
   29  H  4  Y   -0.781208  -0.253206   0.290119   0.226044   0.115917
   30  H  4  Z    0.139320   0.017698  -0.233845   0.294633  -0.643701

                     26         27         28         29
                    2.2989     2.5870     2.6374     3.0712
                     A          A          A          A   
    1  N  1  S   -0.057204  -0.115823   0.046356  -0.026722
    2  N  1  S   -0.101995  -0.071795   0.062878   0.022069
    3  N  1  S    0.340784   2.391467  -0.403077   0.820466
    4  N  1  X   -0.000689   0.281574  -0.066779  -0.434667
    5  N  1  Y   -0.103324   0.103232   0.493107   0.058981
    6  N  1  Z    0.014406   0.335201  -0.050484   0.042449
    7  N  1  X    0.157839   0.809419  -0.199559  -0.648556
    8  N  1  Y    0.122129   0.193178   1.426524   0.101499
    9  N  1  Z    0.224981   0.684536  -0.134440  -0.000906
   10  N  1 XX   -0.244468   0.130627   0.014673  -1.018974
   11  N  1 YY    0.063323   0.439987  -0.101709   1.515323
   12  N  1 ZZ    0.181145  -0.570614   0.087036  -0.496350
   13  N  1 XY    1.015186  -0.300505  -0.353550  -0.022677
   14  N  1 XZ    0.286215   0.971238  -0.200587  -0.610548
   15  N  1 YZ    0.365677   0.119407   1.245743   0.021429
   16  H  2  S   -0.077028  -0.802160  -0.895913  -0.959114
   17  H  2  S    0.028153  -0.187740  -0.410187  -0.276313
   18  H  2  X   -0.486371  -0.288873  -0.064945  -0.210098
   19  H  2  Y   -0.177532   0.494095   0.720076   0.756845
   20  H  2  Z   -0.255176   0.301069  -0.000257   0.421292
   21  H  3  S   -0.094223  -0.435982   1.072213  -0.838112
   22  H  3  S   -0.073036   0.006538   0.428648  -0.244315
   23  H  3  X    0.199381  -0.254734   0.062444  -0.148324
   24  H  3  Y   -0.215352  -0.137220   0.808852  -0.743023
   25  H  3  Z    0.128679   0.238572  -0.162855   0.423816
   26  H  4  S   -0.151440  -1.355014   0.274808   0.907726
   27  H  4  S   -0.061000  -0.545226   0.082967   0.276303
   28  H  4  X    0.096147   0.857523  -0.139386  -0.712346
   29  H  4  Y   -0.488473  -0.109574  -0.200445   0.058166
   30  H  4  Z   -0.185091   0.556732  -0.087246  -0.449309
 .....DONE WITH MCSCF ITERATIONS.....
 CPU     0: STEP CPU TIME=     9.79 TOTAL CPU TIME=         11.0 (      0.2 MIN)
 TOTAL WALL CLOCK TIME=         11.0 SECONDS, CPU UTILIZATION IS    99.82%

     ----------------------------------------------------------------
     PROPERTY VALUES FOR THE MCSCF SELF-CONSISTENT FIELD WAVEFUNCTION
     ----------------------------------------------------------------

          -----------------
          ENERGY COMPONENTS
          -----------------

         WAVEFUNCTION NORMALIZATION =       1.0000000000

                ONE ELECTRON ENERGY =     -94.3020383119
                TWO ELECTRON ENERGY =      27.1591202121
           NUCLEAR REPULSION ENERGY =      11.4015019345
                                      ------------------
                       TOTAL ENERGY =     -55.7414161653

 ELECTRON-ELECTRON POTENTIAL ENERGY =      27.1591202121
  NUCLEUS-ELECTRON POTENTIAL ENERGY =    -150.0979238141
   NUCLEUS-NUCLEUS POTENTIAL ENERGY =      11.4015019345
                                      ------------------
             TOTAL POTENTIAL ENERGY =    -111.5373016676
               TOTAL KINETIC ENERGY =      55.7958855023
                 VIRIAL RATIO (V/T) =       1.9990237750

          ---------------------------------------
          MULLIKEN AND LOWDIN POPULATION ANALYSES
          ---------------------------------------

     ATOMIC MULLIKEN POPULATION IN EACH MOLECULAR ORBITAL

                      1          2          3          4          5

                  2.000000   1.982998   1.655772   1.648981   1.643842

    1             2.000825   1.331745   1.540137   0.906642   1.095306
    2            -0.000271   0.184941   0.053182   0.402556   0.021071
    3            -0.000230   0.186303   0.024693   0.293416   0.151449
    4            -0.000324   0.280008   0.037760   0.046366   0.376017

                      6          7          8

                  0.028916   0.020423   0.019068

    1             0.013233   0.011014   0.010327
    2             0.004042   0.000326   0.006347
    3             0.007135   0.002702   0.002182
    4             0.004507   0.006381   0.000213
 WARNING! MCSCF POPULATIONS SHOWN ABOVE ARE FOR THE NATURAL ORBITALS.
 IGNORE THE ABOVE DATA FOR MCSCF FUNCTIONS WHICH ARE NOT OF -FORS- TYPE.
 THE FOLLOWING POPULATIONS ARE CORRECT FOR ANY MCSCF WAVEFUNCTION.

               ----- POPULATIONS IN EACH AO -----
                             MULLIKEN      LOWDIN
              1  N  1  S      2.00248     1.89959
              2  N  1  S      0.82390     0.57681
              3  N  1  S      0.66312     0.40240
              4  N  1  X      0.72368     0.66278
              5  N  1  Y      0.65165     0.56880
              6  N  1  Z      0.87695     0.82191
              7  N  1  X      0.36554     0.43676
              8  N  1  Y      0.26060     0.38443
              9  N  1  Z      0.52337     0.56116
             10  N  1 XX      0.00059     0.15453
             11  N  1 YY      0.00567     0.19026
             12  N  1 ZZ      0.00020     0.14301
             13  N  1 XY      0.00614     0.00158
             14  N  1 XZ      0.00532     0.01177
             15  N  1 YZ      0.00000     0.01040
             16  H  2  S      0.58148     0.45365
             17  H  2  S      0.03413     0.14610
             18  H  2  X      0.01020     0.02219
             19  H  2  Y      0.03436     0.05799
             20  H  2  Z      0.01203     0.03183
             21  H  3  S      0.57166     0.44491
             22  H  3  S      0.04041     0.14729
             23  H  3  X      0.00958     0.02303
             24  H  3  Y      0.03347     0.05515
             25  H  3  Z      0.01252     0.03144
             26  H  4  S      0.63971     0.49537
             27  H  4  S      0.05074     0.14432
             28  H  4  X      0.03027     0.05391
             29  H  4  Y      0.01111     0.02240
             30  H  4  Z      0.01909     0.04420

          ----- MULLIKEN ATOMIC OVERLAP POPULATIONS -----
          (OFF-DIAGONAL ELEMENTS NEED TO BE MULTIPLIED BY 2)

             1           2           3           4

    1    6.0218514
    2    0.3029179   0.3812086
    3    0.2892793  -0.0060422   0.3924453
    4    0.2951792  -0.0058888  -0.0080334   0.4696708

          TOTAL MULLIKEN AND LOWDIN ATOMIC POPULATIONS
       ATOM         MULL.POP.    CHARGE          LOW.POP.     CHARGE
    1 N             6.909228    0.090772         6.826203    0.173797
    2 H             0.672195    0.327805         0.711757    0.288243
    3 H             0.667649    0.332351         0.701828    0.298172
    4 H             0.750928    0.249072         0.760212    0.239788

          MULLIKEN SPHERICAL HARMONIC POPULATIONS
       ATOM           S       P       D      F      G      H      I    TOTAL
    1 N             3.49    3.40    0.02   0.00   0.00   0.00   0.00    6.91
    2 H             0.62    0.06    0.00   0.00   0.00   0.00   0.00    0.67
    3 H             0.61    0.06    0.00   0.00   0.00   0.00   0.00    0.67
    4 H             0.69    0.06    0.00   0.00   0.00   0.00   0.00    0.75

          ---------------------
          ELECTROSTATIC MOMENTS
          ---------------------

 POINT   1           X           Y           Z (BOHR)    CHARGE
                 0.000003   -0.000001   -0.177185        1.00 (A.U.)
         DX          DY          DZ         /D/  (DEBYE)
     0.558021   -0.117440    2.136574    2.211363
 ...... END OF PROPERTY EVALUATION ......
 CPU     0: STEP CPU TIME=     0.01 TOTAL CPU TIME=         11.0 (      0.2 MIN)
 TOTAL WALL CLOCK TIME=         11.0 SECONDS, CPU UTILIZATION IS    99.91%

     -------------------------------------------------
     GMC-PT/GMC-QDPT or general MCSCF input parameters
     -------------------------------------------------
 # of frozen core orbs. =         0 ->         0
 # of doubly occ. orbs. =         1
 # of active      orbs. =         7
 # of virtual     orbs. =        21
 # of active electrons  =         7
 # of states in CI      =         3
 Highest state in CI    =         3
 kstate =  1 1 1
 avecoe =  0.333 0.333 0.333
 State symmetry           = A           
 Assigned symmetry number = 1

 <<<Act. MO sym.: 1111111

 <<<Division of 1-ext.:  0
 <<<Division of 2-ext.:  0

     ------------------------
     Orbital canonicalization
     ------------------------

 MOs are canonicalized for core, virtual, and invariant-active orbital spaces.
 This is a part of the GMC-QDPT calculation.
 SCHWARZ INEQUALITY OVERHEAD:       465 INTEGRALS, T=        0.00
 DIRECT TRANSFORMATION SKIPS AO INTEGRAL STORAGE ON DISK.

 Averaged energy =     -55.741416165

 State #    1  Energy =     -55.881594520  S =  0.500
 State #    2  Energy =     -55.729706520  S =  0.500
 State #    3  Energy =     -55.612947456  S =  0.500

 Orbital energies for filled orbital space
  -15.983542
 Orbital energies for active orbital space
   -1.515575  -0.858260  -0.975458  -0.740913   0.375485
    0.207437   0.406756
 Orbital energies for external orbital space
    0.152784   0.204462   0.217770   0.536350   0.618606
    0.657363   0.767039   0.978664   1.017364   1.240694
    1.418557   1.455105   1.643272   1.824343   1.901704
    1.933362   2.151214   2.298909   2.587034   2.637449
    3.071176

 Zero values mean non-canonical orbitals.
 ... done with orbital canonicalization ...
 CPU     0: STEP CPU TIME=     0.61 TOTAL CPU TIME=         11.6 (      0.2 MIN)
 TOTAL WALL CLOCK TIME=         11.6 SECONDS, CPU UTILIZATION IS    99.91%

     --------------------------------------------
     PARTIAL TWO ELECTRON INTEGRAL TRANSFORMATION
     --------------------------------------------

 NUMBER OF CORE MOLECULAR ORBITALS     =    0
 NUMBER OF OCCUPIED MOLECULAR ORBITALS =    8
 TOTAL NUMBER OF MOLECULAR ORBITALS    =   29
 TOTAL NUMBER OF ATOMIC ORBITALS       =   30
 THRESHOLD FOR KEEPING TRANSFORMED 2E- INTEGRALS = 1.000E-09
 AO INTEGRALS WILL BE CALCULATED IN DIRECT MODE...
 DIRECT TRANSFORMATION SKIPS AO INTEGRAL STORAGE ON DISK.
 SCHWARZ INEQUALITY OVERHEAD:       465 INTEGRALS, T=        0.00

 PLAN A: REQUIREMENTS FOR FULLY IN-MEMORY TRANSFORMATION:
 # OF WORDS AVAILABLE =            100000000
 # OF WORDS NEEDED    =               221798

 PARALLEL ONLY WORKS WITH THE SEGMENTED ALGORITHM.
 ADJUSTING MEMORY TO USE SEGMENTED ALGORITHM.


 PLAN B: REQUIREMENTS FOR THE SEGMENTED TRANSFORMATION:
       MINIMUM=         124148 WORDS FOR 1 MOLECULAR ORBITAL PER PASS
       MAXIMUM=         221798 WORDS FOR ALL MOLECULAR ORBITALS IN 1 PASS
              (          13950 EXTRA WORDS INCLUDES 1 EXTRA ORBITAL/PASS)
 THIS RUN USES=         221798 WORDS,
 DISTRIBUTING   1 PASSES EACH CONTAINING     8 ORBITALS OVER   1 PROCESSORS.

 CHOOSING SEGMENTED PARTIAL TRANSFORMATION...
 DIRECT TRANSFORMATION SKIPS AO INTEGRAL STORAGE ON DISK.
 PASS #   1 TOOK        0.04 SECONDS.
 TOTAL NUMBER OF TRANSFORMED 2E- INTEGRALS KEPT =        29226
 ... END OF INTEGRAL TRANSFORMATION ...
 CPU     0: STEP CPU TIME=     0.04 TOTAL CPU TIME=         11.6 (      0.2 MIN)
 TOTAL WALL CLOCK TIME=         11.6 SECONDS, CPU UTILIZATION IS    99.83%

     --------     ------------------------------------------
     GMC-QDPT     Program written by H.Nakano (Kyushu Univ.)
     --------     ------------------------------------------

 *** Reference space

 Reference type: ORMAS (= Occupation restricted multiple active space)
 # of orbitals          =  7
 # of minimum electrons =  7
 # of maximum electrons =  7
 State symmetry    =    1 (input)
 2*Sz              =    1 (input)
 Spin multiplicity =    2 (input)
 Dimension of reference space =      1225  (from      3432 walks)

 Dimension of reference space =      1225  (from      1225 walks)

 <<<Ionized spaces for Ref-CI:
      0:         1225 /   -1-0:         1960 /  0-1-0:         2891

 ***                    ***
 *** Reference space CI ***
 ***                    ***

 Converged after   32 iterations

 Reference wavefunctions:

 State #    1  Energy =     -55.881594520  S =  0.500

      Det      Coef    Occupancy (Ignoring core)
      ---      ----    --------- --------- -----
        1   -0.976220  11110001110000
       71   -0.058435  11110001011000
      393   -0.064226  10110101010010
      717   -0.059226  11010011100001

 State #    2  Energy =     -55.729706520  S =  0.500

      Det      Coef    Occupancy (Ignoring core)
      ---      ----    --------- --------- -----
        1    0.061786  11110001110000
       71   -0.980486  11110001011000
      822    0.060129  11010011001001

 State #    3  Energy =     -55.612947456  S =  0.500

      Det      Coef    Occupancy (Ignoring core)
      ---      ----    --------- --------- -----
       36    0.979553  11110001101000
      463    0.065204  10110101001010

 Davidson method: CPU/Wall time =           0.44 /           0.44 sec.

 Oscillator strength (invalid if E(1)/=E(GS)):
 -----------------------------------------
   State                        f
 -----------------------------------------
     2     F(REF-CI)=        0.0019179615
     3     F(REF-CI)=        0.0021370673
 -----------------------------------------

 Dipole moment matrix elements, x, y, z, in A.U.

 Dimension of ionized spaces for PT:
 (N-2) space:         1715 /  (N-1) space:         2842 /  N space:         2891
 (N+1) space:         2842 /  (N+2) space:         1715

 <<<Ionized spaces for internal:
         0:         1225 /      -1-0:         1960 /     0-1-0:         2891
  -1-0-1-0:         2842 / 0-1-0-1-0:         3381

 Diagonal elements of averaged one-particle density matrix:
       2       3       4       5       6       7       8
  0.9937  0.9864  0.9879  0.9924  0.0115  0.0169  0.0113
  0.9892  0.6579  0.6609  0.6628  0.0092  0.0120  0.0080

 Orbital energies:
 -------- Doubly-occupied orbitals (highest several orbs.) -------
             1
 -1.598354D+01
 -------- Active orbitals ----------------------------------------
             2            3            4            5            6
 -1.515575D+00-8.582596D-01-9.754583D-01-7.409130D-01 3.754848D-01
             7            8
  2.074370D-01 4.067559D-01
 -------- External orbitals (lowest several orbs.) ---------------
             9           10           11           12           13
  1.527839D-01 2.044616D-01 2.177702D-01 5.363500D-01 6.186057D-01
            14           15           16           17           18
  6.573627D-01 7.670390D-01 9.786638D-01 1.017364D+00 1.240694D+00

 *** Quasi-degeneracy checking

 === Det (|Ci| > 1.0D-01 and dE < 5.0D-03)

 # of small denominators (single excitations)
 State       dEmin  dE < 5.0D-03  dE < 5.0D-04  dE < 5.0D-05  dE < 5.0D-06
 ----- ----------- ------------- ------------- ------------- -------------
     1    5.00D-03             0             0             0             0
     2    5.00D-03             0             0             0             0
     3    5.00D-03             0             0             0             0

 # of small denominators (double excitations)
 State       dEmin  dE < 5.0D-03  dE < 5.0D-04  dE < 5.0D-05  dE < 5.0D-06
 ----- ----------- ------------- ------------- ------------- -------------
     1    5.00D-03             0             0             0             0
     2    5.00D-03             0             0             0             0
     3    5.00D-03             0             0             0             0

 *** Zeroth-Order Setup (Granovsky's zeroth-order vectors)
 Zeroth-order effective Hamiltonian
  (= Sum_i e(i)*<I|a+(i)a(i)|J> ):
                   1            2            3
     1 -7.335374D+00
     2  1.262375D-02-7.238379D+00
     3 -1.110815D-03-2.098169D-03-7.114799D+00

 Zeroth-order vectors:
 State #    1
       MC st            1           2           3
       Coeff    9.919D-01  -1.269D-01   3.761D-03
 State #    2
       MC st            2           1           3
       Coeff   -9.918D-01  -1.268D-01  -1.821D-02
 State #    3
       MC st            3           2           1
       Coeff    9.998D-01  -1.759D-02  -6.040D-03

 *** GMC-QDPT computation

 (Integral reading:  CPU/Wall time =           0.00 /           0.00 sec.)

 One-external:
   0 -ionized terms: CPU/Wall time =           0.03 /           0.04 sec.
 (-1)-ionized terms: CPU/Wall time =           0.09 /           0.08 sec.
 (+1)-ionized terms: CPU/Wall time =           0.02 /           0.03 sec.
 (+1)-ionized terms: CPU/Wall time =           0.01 /           0.00 sec.
 (+2)-ionized terms: CPU/Wall time =           0.00 /           0.01 sec.

 Internal:
 # of macro loops for internal contribution =         1 (input)
 Loop:    1
 Dimension of internal CISD space     =         0  (after screening)
 Space construction: CPU/Wall time =           0.01 /           0.01 sec.
 Internal terms:     CPU/Wall time =           0.00 /           0.00 sec.

 Two-external:
   0 -ionized terms: CPU/Wall time =           0.06 /           0.06 sec.
 (-1)-ionized terms: CPU/Wall time =           0.99 /           0.99 sec.
 (-2)-ionized terms: CPU/Wall time =           0.17 /           0.17 sec.

 Total time:         CPU/Wall time =           1.38 /           1.39 sec.

 ***                  ***
 *** GMC-QDPT Results ***
 ***                  ***

 Diagonal elements of effective Hamiltonian:
 Heff(  1) =   -55.97757623
 Heff(  2) =   -55.84014877
 Heff(  3) =   -55.72396027

 Off-diagonal elements of effective Hamiltonian:
                   1            2
     2  1.697681D-02
     3  1.096456D-03-2.088299D-03

 ******** GMC-QDPT energies ********
 ----------------------------------------------------------------------------
   State                        1st order                           2nd order
 ----------------------------------------------------------------------------
     1     E(REF-CI)=      -55.8815945204   E(GMC-QDPT2)=      -55.9796493943
     2     E(REF-CI)=      -55.7297065197   E(GMC-QDPT2)=      -55.8381156178
     3     E(REF-CI)=      -55.6129474558   E(GMC-QDPT2)=      -55.7239202534
 ----------------------------------------------------------------------------

 Excitation energies (invalid if E(1)/=E(GS)):
 ----------------------------------------------------------------------------
   State                        1st order                           2nd order
 ----------------------------------------------------------------------------

     TZ Sorted GMC-PT ENERGIES:
         1      -55.9796493943
         2      -55.8381156178
         3      -55.7239202534
     2     E(REF-CI)=        4.1330851 eV   E(GMC-QDPT2)=        3.8513322 eV
     3     E(REF-CI)=        7.3102627 eV   E(GMC-QDPT2)=        6.9587479 eV
 ----------------------------------------------------------------------------

 Main characters of perturbed GMC-QDPT states:

 State #    1  Energy =     -55.979649394  S =  0.500

      Det      Coef    Occupancy (Ignoring core)
      ---      ----    --------- --------- -----
        1   -0.976573  11110001110000
       71   -0.052574  11110001011000
      393   -0.064141  10110101010010
      717   -0.059229  11010011100001

 State #    2  Energy =     -55.838115618  S =  0.500

      Det      Coef    Occupancy (Ignoring core)
      ---      ----    --------- --------- -----
        1    0.055941  11110001110000
       71   -0.980826  11110001011000
      822    0.060147  11010011001001

 State #    3  Energy =     -55.723920253  S =  0.500

      Det      Coef    Occupancy (Ignoring core)
      ---      ----    --------- --------- -----
       36    0.979561  11110001101000
      463    0.065207  10110101001010

 <<<Max |V/de| = 2.452D-02  Thresh = 1.000D+00

 Oscillator strength (invalid if E(1)/=E(GS)):
 ----------------------------------------------------------------------------
   State                        1st order                           2nd order
 ----------------------------------------------------------------------------
     2     F(REF-CI)=        0.0019179615     F(GMC-PT2)=        0.0018553644
     3     F(REF-CI)=        0.0021370673     F(GMC-PT2)=        0.0020948078
 ----------------------------------------------------------------------------

 Dipole moment matrix elements, x, y, z, in A.U.
States    1    1        0.2459021007       -0.0566794471        0.7221259356
States    1    2        0.0212828101       -0.0073213995        0.1384085232
States    1    3        0.0104994669       -0.1064622652       -0.0290312259
States    2    1        0.0212828101       -0.0073213995        0.1384085232
States    2    2        0.2033970500        0.0470340520        0.2928969669
States    2    3        0.0437090950        0.2518450956        0.0015117209
States    3    1        0.0104994669       -0.1064622652       -0.0290312259
States    3    2        0.0437090950        0.2518450956        0.0015117209
States    3    3        0.4627058211       -0.1658823076        0.2754113663

 Oscillator strength (valid only when positive): 
 ----------------------------------------------------------------------------
  States                        1st order                           2nd order
 ----------------------------------------------------------------------------
  1  1     F(REF-CI)=        0.0000000000     F(GMC-PT2)=        0.0000000000
  1  2     F(REF-CI)=       -0.0019179615     F(GMC-PT2)=       -0.0018553644
  1  3     F(REF-CI)=       -0.0021370673     F(GMC-PT2)=       -0.0020948078
  2  1     F(REF-CI)=        0.0019179615     F(GMC-PT2)=        0.0018553644
  2  2     F(REF-CI)=        0.0000000000     F(GMC-PT2)=        0.0000000000
  2  3     F(REF-CI)=       -0.0051144305     F(GMC-PT2)=       -0.0049742528
  3  1     F(REF-CI)=        0.0021370673     F(GMC-PT2)=        0.0020948078
  3  2     F(REF-CI)=        0.0051144305     F(GMC-PT2)=        0.0049742528
  3  3     F(REF-CI)=        0.0000000000     F(GMC-PT2)=        0.0000000000
 CPU     0: STEP CPU TIME=     1.89 TOTAL CPU TIME=         13.5 (      0.2 MIN)
 TOTAL WALL CLOCK TIME=         13.5 SECONDS, CPU UTILIZATION IS    99.85%

     !!! DIABATIZATION FOR REF CI STATES !!!

 *******************************************************
          $DMO GROUP FOUND IN THE INPUT.
        DIABATIZATION OF ADIABATIC STATES BEGINS.
     PROGRAMMED BY TAO ZENG (CARLETON UNIVERSITY).
               Email: toby.zeng@carleton.ca
     See T. Zeng, J. Chem. Phys. 2017, 146, 144103
 *******************************************************

 *************************************************************************
     STEP 1: TRANSFORMATION OF ADIABATIC STATES TO THE DMO REPRESENTATION
         See Atchity and Ruedenberg, J. Chem. Phys. 1999, 111, 2910
 *************************************************************************

Read in Diabatic Molecualr Orbitals:

                      1          2          3          4          5

    1  N  1  S    0.008609   0.000000   0.000000  -0.013219   0.279491
    2  N  1  S    0.442914  -0.000000   0.000000  -0.184329   0.867803
    3  N  1  S    0.276913   0.000000  -0.000000  -0.288315   0.144236
    4  N  1  X   -0.000000   0.493155  -0.024636  -0.000000  -0.000000
    5  N  1  Y    0.000000   0.024636   0.493155  -0.000000   0.000000
    6  N  1  Z    0.090197   0.000000   0.000000   0.593421   0.705309
    7  N  1  X   -0.000000   0.210628  -0.010522   0.000000   0.000000
    8  N  1  Y    0.000000   0.010522   0.210628  -0.000000  -0.000000
    9  N  1  Z   -0.004381   0.000000   0.000000   0.381592  -0.106092
   10  N  1 XX   -0.000457   0.010719  -0.000535  -0.012387   0.006153
   11  N  1 YY   -0.000457  -0.010719   0.000535  -0.012387   0.006153
   12  N  1 ZZ    0.000914  -0.000000   0.000000   0.024773  -0.012306
   13  N  1 XY    0.000000  -0.000618  -0.012377  -0.000000   0.000000
   14  N  1 XZ   -0.000000   0.026529  -0.001325  -0.000000   0.000000
   15  N  1 YZ    0.000000   0.001325   0.026529  -0.000000   0.000000
   16  H  2  S    0.194462  -0.176074   0.343485   0.112865  -0.523343
   17  H  2  S    0.003574  -0.023812   0.046452   0.024014  -0.054445
   18  H  2  X    0.018760   0.009101   0.022834   0.009336  -0.039151
   19  H  2  Y   -0.032493   0.022287  -0.020044  -0.016171   0.067811
   20  H  2  Z   -0.009251   0.008464  -0.016511   0.018769  -0.010566
   21  H  3  S    0.194462  -0.209430  -0.324227   0.112865  -0.523343
   22  H  3  S    0.003574  -0.028322  -0.043847   0.024014  -0.054445
   23  H  3  X    0.018760   0.006781  -0.023627   0.009336  -0.039151
   24  H  3  Y    0.032493  -0.024174  -0.017723   0.016171  -0.067811
   25  H  3  Z   -0.009251   0.010067   0.015585   0.018769  -0.010566
   26  H  4  S    0.194462   0.385503  -0.019258   0.112865  -0.523343
   27  H  4  S    0.003574   0.052134  -0.002604   0.024014  -0.054445
   28  H  4  X   -0.037519  -0.032295   0.001613  -0.018672   0.078302
   29  H  4  Y    0.000000   0.001067   0.021353  -0.000000   0.000000
   30  H  4  Z   -0.009251  -0.018530   0.000926   0.018769  -0.010566

                      6          7

    1  N  1  S    0.000000  -0.000000
    2  N  1  S    0.000000  -0.000000
    3  N  1  S   -0.000000   0.000000
    4  N  1  X   -0.930415  -0.002083
    5  N  1  Y   -0.002083   0.930415
    6  N  1  Z   -0.000000   0.000000
    7  N  1  X   -0.046866  -0.000105
    8  N  1  Y   -0.000105   0.046866
    9  N  1  Z   -0.000000   0.000000
   10  N  1 XX    0.001538   0.000003
   11  N  1 YY   -0.001538  -0.000003
   12  N  1 ZZ   -0.000000   0.000000
   13  N  1 XY   -0.000004   0.001776
   14  N  1 XZ    0.039985   0.000090
   15  N  1 YZ    0.000090  -0.039985
   16  H  2  S   -0.362630  -0.631354
   17  H  2  S   -0.065964  -0.114846
   18  H  2  X    0.002763  -0.037520
   19  H  2  Y    0.037435   0.040736
   20  H  2  Z    0.001882   0.003276
   21  H  3  S   -0.365454   0.629724
   22  H  3  S   -0.066477   0.114549
   23  H  3  X    0.002595   0.037532
   24  H  3  Y   -0.037617   0.040567
   25  H  3  Z    0.001896  -0.003268
   26  H  4  S    0.728084   0.001630
   27  H  4  S    0.132441   0.000297
   28  H  4  X   -0.062317  -0.000140
   29  H  4  Y    0.000055  -0.024345
   30  H  4  Z   -0.003778  -0.000008

NUMBER OF SUB ACTIVE SPACES:   1
ROTATE ACTIVE MOS TO DMOS IN EACH SUB-SPACE

SPACE  1:

OVERLAP BETWEEN ORTHONORMAL AND PRE-ORTHONORMAL REF. DMOS

             1           2           3           4           5

    1    0.9863573   0.0282829  -0.0033719  -0.0045679   0.0030950
    2    0.0282829   0.9281014  -0.0092351   0.0344679  -0.0544589
    3   -0.0033719  -0.0092351   1.0307941  -0.0070850   0.0167223
    4   -0.0045679   0.0344679  -0.0070850   0.9970982  -0.0064866
    5    0.0030950  -0.0544589   0.0167223  -0.0064866   1.0726341
    6   -0.0020693  -0.0467721  -0.0129388   0.0343279   0.0291423
    7   -0.0010961   0.0086632  -0.0359718   0.0091746  -0.0150029

             6           7

    1   -0.0020693  -0.0010961
    2   -0.0467721   0.0086632
    3   -0.0129388  -0.0359718
    4    0.0343279   0.0091746
    5    0.0291423  -0.0150029
    6    1.0560696  -0.0023339
    7   -0.0023339   1.0119304
REFERENCE DMOS AFTER ORTHONORMALIZATION:

                      1          2          3          4          5

    1  N  1  S    0.007394   0.015175  -0.004113  -0.011897   0.261527
    2  N  1  S    0.444479   0.039634  -0.012262  -0.178661   0.809447
    3  N  1  S    0.278711   0.010221  -0.002874  -0.287663   0.132373
    4  N  1  X   -0.016085   0.490592  -0.031381   0.012802   0.048804
    5  N  1  Y    0.002077   0.023774   0.511314  -0.006023   0.006105
    6  N  1  Z    0.091713   0.011806  -0.006541   0.600668   0.662684
    7  N  1  X   -0.006665   0.226315  -0.008962  -0.006624   0.012519
    8  N  1  Y    0.000409   0.012911   0.206393   0.000409  -0.001898
    9  N  1  Z   -0.001792  -0.020351   0.003731   0.383199  -0.097452
   10  N  1 XX   -0.000899   0.012529  -0.000569  -0.012902   0.006246
   11  N  1 YY   -0.000225  -0.010881   0.000244  -0.011957   0.005158
   12  N  1 ZZ    0.001124  -0.001648   0.000325   0.024858  -0.011405
   13  N  1 XY   -0.000018  -0.000794  -0.011973  -0.000063   0.000170
   14  N  1 XZ   -0.000813   0.030702  -0.000547  -0.002417   0.000487
   15  N  1 YZ   -0.000011   0.001987   0.024426   0.000442  -0.000829
   16  H  2  S    0.205901  -0.239021   0.314964   0.138826  -0.504093
   17  H  2  S    0.004711  -0.031661   0.041113   0.028360  -0.052715
   18  H  2  X    0.019006   0.007463   0.021705   0.009312  -0.037081
   19  H  2  Y   -0.034058   0.030764  -0.018600  -0.018741   0.064660
   20  H  2  Z   -0.009546   0.008104  -0.015603   0.018254  -0.009069
   21  H  3  S    0.206525  -0.291041  -0.291103   0.125542  -0.479956
   22  H  3  S    0.004876  -0.039159  -0.038836   0.026063  -0.048694
   23  H  3  X    0.019032   0.003943  -0.020901   0.008495  -0.035564
   24  H  3  Y    0.034107  -0.033785  -0.015338   0.017905  -0.063167
   25  H  3  Z   -0.009502   0.010179   0.015379   0.018433  -0.009534
   26  H  4  S    0.188629   0.414744   0.002794   0.071884  -0.486652
   27  H  4  S    0.002445   0.058960   0.000549   0.017298  -0.051188
   28  H  4  X   -0.037554  -0.031944  -0.000873  -0.015200   0.073109
   29  H  4  Y    0.000002   0.001538   0.019928   0.000289  -0.000566
   30  H  4  Z   -0.008651  -0.021292   0.000921   0.019626  -0.010672

                      6          7

    1  N  1  S   -0.006186   0.003703
    2  N  1  S   -0.014024   0.013295
    3  N  1  S    0.006672   0.004698
    4  N  1  X   -0.861487  -0.008771
    5  N  1  Y    0.007448   0.937583
    6  N  1  Z   -0.037180   0.004059
    7  N  1  X   -0.034612  -0.002201
    8  N  1  Y    0.003159   0.053515
    9  N  1  Z   -0.010636  -0.004639
   10  N  1 XX    0.002250   0.000090
   11  N  1 YY   -0.001689   0.000279
   12  N  1 ZZ   -0.000561  -0.000369
   13  N  1 XY   -0.000185   0.001339
   14  N  1 XZ    0.039279  -0.000075
   15  N  1 YZ    0.000395  -0.038678
   16  H  2  S   -0.341673  -0.619966
   17  H  2  S   -0.063068  -0.112938
   18  H  2  X    0.003889  -0.036974
   19  H  2  Y    0.035429   0.040504
   20  H  2  Z    0.001593   0.002307
   21  H  3  S   -0.351601   0.605602
   22  H  3  S   -0.064407   0.111052
   23  H  3  X    0.003198   0.035736
   24  H  3  Y   -0.035990   0.038688
   25  H  3  Z    0.002073  -0.003084
   26  H  4  S    0.719276  -0.007844
   27  H  4  S    0.128881  -0.000808
   28  H  4  X   -0.062028   0.001143
   29  H  4  Y    0.000318  -0.023373
   30  H  4  Z   -0.004870  -0.000150

 -------------------------------------------
       MAXIMIZING MORMO OVERLAP TERM        
 -------------------------------------------
   SWEEP    VALUE       PROGRESS
     0     6.04271
     1     6.97251     0.92979735
     2     6.97514     0.00263001
     3     6.97514     0.00000014
     4     6.97514     0.00000000
     5     6.97514     0.00000000
 THE ROTATION IS DONE
ACTIVE ORBITALS AFTER MORMO:

                      1          2          3          4          5

    1  N  1  S    0.006644   0.023053  -0.004780  -0.012215   0.231448
    2  N  1  S    0.431831   0.055672  -0.009034  -0.186251   0.772054
    3  N  1  S    0.311074  -0.052733   0.000170  -0.278718   0.170325
    4  N  1  X   -0.002027   0.458161  -0.032536   0.031636   0.027287
    5  N  1  Y    0.002823   0.019209   0.506665  -0.005496   0.007690
    6  N  1  Z    0.085265   0.030101  -0.009751   0.599515   0.662015
    7  N  1  X   -0.024480   0.274575  -0.001570  -0.045912   0.046718
    8  N  1  Y   -0.000896   0.023357   0.184619   0.006475  -0.006521
    9  N  1  Z    0.014585  -0.059523   0.011239   0.383352  -0.095710
   10  N  1 XX   -0.003435   0.022539  -0.001032  -0.014075   0.034576
   11  N  1 YY    0.002720  -0.022119   0.000832  -0.009356  -0.031882
   12  N  1 ZZ    0.000716  -0.000420   0.000200   0.023431  -0.002694
   13  N  1 XY   -0.001142   0.000266  -0.003717   0.000877   0.009163
   14  N  1 XZ    0.000398   0.023480   0.000175   0.001783  -0.040721
   15  N  1 YZ   -0.001056   0.001884   0.019063   0.000935   0.006290
   16  H  2  S    0.189482  -0.195876   0.329644   0.120382  -0.487407
   17  H  2  S    0.002778  -0.044826   0.040876   0.031637  -0.060480
   18  H  2  X    0.009192   0.017086   0.013329   0.003586  -0.019625
   19  H  2  Y   -0.034437   0.020295  -0.033584  -0.015118   0.060811
   20  H  2  Z   -0.005151   0.003342  -0.012488   0.020135  -0.014983
   21  H  3  S    0.189964  -0.231447  -0.305995   0.113628  -0.463220
   22  H  3  S    0.003981  -0.064121  -0.044586   0.031134  -0.058802
   23  H  3  X    0.005679   0.017263  -0.010946   0.002868  -0.019490
   24  H  3  Y    0.033705  -0.023028  -0.030867   0.015455  -0.058403
   25  H  3  Z   -0.006306   0.003888   0.014600   0.019340  -0.017555
   26  H  4  S    0.189172   0.397776  -0.008301   0.090877  -0.503145
   27  H  4  S    0.002512   0.092808   0.006404   0.018524  -0.060039
   28  H  4  X   -0.032908  -0.024221   0.000861  -0.019583   0.065714
   29  H  4  Y    0.002886   0.004098   0.022022   0.000375   0.002142
   30  H  4  Z   -0.014062  -0.027296   0.002106   0.017717  -0.008439

                      6          7

    1  N  1  S    0.027156   0.016760
    2  N  1  S    0.068228   0.035628
    3  N  1  S   -0.103254  -0.025545
    4  N  1  X   -0.858743  -0.003847
    5  N  1  Y    0.001109   0.932309
    6  N  1  Z   -0.080173   0.001719
    7  N  1  X   -0.035044  -0.011178
    8  N  1  Y    0.014328   0.075874
    9  N  1  Z    0.024675  -0.007531
   10  N  1 XX    0.036988  -0.004668
   11  N  1 YY   -0.043347   0.001727
   12  N  1 ZZ    0.006359   0.002940
   13  N  1 XY   -0.005399  -0.044218
   14  N  1 XZ    0.024590   0.001487
   15  N  1 YZ   -0.004405  -0.056031
   16  H  2  S   -0.314373  -0.615102
   17  H  2  S   -0.068968  -0.127129
   18  H  2  X    0.008746  -0.024236
   19  H  2  Y    0.027545   0.056995
   20  H  2  Z    0.008989  -0.016211
   21  H  3  S   -0.310586   0.603046
   22  H  3  S   -0.080338   0.136087
   23  H  3  X    0.017577   0.023232
   24  H  3  Y   -0.028555   0.054127
   25  H  3  Z    0.014186   0.013961
   26  H  4  S    0.697465   0.005036
   27  H  4  S    0.167776  -0.008736
   28  H  4  X   -0.047001  -0.001207
   29  H  4  Y   -0.000468  -0.045674
   30  H  4  Z   -0.012809   0.004042

Actually Used Diabatic Molecualr Orbitals:

                      1          2          3          4          5

    1  N  1  S    0.006644   0.023053  -0.004780  -0.012215   0.231448
    2  N  1  S    0.431831   0.055672  -0.009034  -0.186251   0.772054
    3  N  1  S    0.311074  -0.052733   0.000170  -0.278718   0.170325
    4  N  1  X   -0.002027   0.458161  -0.032536   0.031636   0.027287
    5  N  1  Y    0.002823   0.019209   0.506665  -0.005496   0.007690
    6  N  1  Z    0.085265   0.030101  -0.009751   0.599515   0.662015
    7  N  1  X   -0.024480   0.274575  -0.001570  -0.045912   0.046718
    8  N  1  Y   -0.000896   0.023357   0.184619   0.006475  -0.006521
    9  N  1  Z    0.014585  -0.059523   0.011239   0.383352  -0.095710
   10  N  1 XX   -0.003435   0.022539  -0.001032  -0.014075   0.034576
   11  N  1 YY    0.002720  -0.022119   0.000832  -0.009356  -0.031882
   12  N  1 ZZ    0.000716  -0.000420   0.000200   0.023431  -0.002694
   13  N  1 XY   -0.001142   0.000266  -0.003717   0.000877   0.009163
   14  N  1 XZ    0.000398   0.023480   0.000175   0.001783  -0.040721
   15  N  1 YZ   -0.001056   0.001884   0.019063   0.000935   0.006290
   16  H  2  S    0.189482  -0.195876   0.329644   0.120382  -0.487407
   17  H  2  S    0.002778  -0.044826   0.040876   0.031637  -0.060480
   18  H  2  X    0.009192   0.017086   0.013329   0.003586  -0.019625
[...]
      810   -0.020926   -0.020926  -++2+0-
      526   -0.020402   -0.020402  ++220-0
      542   -0.020011    0.020011  ++-20-+

 State #    3  Energy =     -55.727227115

      Det      Coef        Coefp    Occupancy (Ignoring core)
      ---      ----        ----    --------- --------- -----
       36   -0.963436   -0.963436  22+2000
       71   -0.178180    0.178180  2+22000
      463    0.063602   -0.063602  20+2020
      249    0.047505   -0.047505  20+2200
      112   -0.043941   -0.043941  +2-20+0
      121   -0.041192    0.041192  +22-00+
      253    0.036869    0.036869  20+2-+0
        7    0.032825    0.032825  22-+0+0
      459   -0.032281    0.032281  20+2+-0
      472   -0.031270   -0.031270  2+020-+
      285    0.030272   -0.030272  02+2200
       41   -0.029479    0.029479  22+-0+0
      356    0.028566    0.028566  22+0020
       86    0.027299    0.027299  2+2-00+
      250    0.026064    0.026064  -++2200
       77    0.025624   -0.025624  2+-20+0
      716    0.024788    0.024788  22+0002
      284   -0.024422    0.024422  +-+2200
      367    0.024181   -0.024181  220+0-+
      771    0.023966    0.023966  +22+00-
      498    0.022789   -0.022789  +-+2020
      499    0.022726   -0.022726  02+2020
      464   -0.022166   -0.022166  -++2020
       44    0.022003   -0.022003  -2+20+0
      491    0.021938   -0.021938  +2+20-0
      142    0.021870    0.021870  22+0200
       52    0.021705   -0.021705  220200+

 ---------------------------------------
    -DIABATIC STATES IN PROTOTYPES-     
 ---------------------------------------

     STATE:    1
 Group Ref#    Coefficients
     1    1    0.976656
     2    2    0.003628
     3    3    0.000935

WEIGHT OF LISTED PROTOTYPES:   95.39%

     STATE:    2
 Group Ref#    Coefficients
     1    1    0.003628
     2    2    0.976598
     3    3    0.000694

WEIGHT OF LISTED PROTOTYPES:   95.38%

     STATE:    3
 Group Ref#    Coefficients
     1    1    0.000935
     2    2    0.000694
     3    3    0.970892

WEIGHT OF LISTED PROTOTYPES:   94.26%

 --------------------------------------------------
 IN DIRECT MAX. DIABATIZATION FOR GMC-QDPT

 DIRECT MAXIMIZATION (DM) WITHOUT TRUNCATING ADIABATS
 EXPANSIONS INTO THE REFERENCE CONFIGURATION SPACE
 --------------------------------------------------

 -------------------------------------------
 - DM DIABT PT HAMILTONIAN MATRIX ELEMENTS -
 -------------------------------------------
                                            
 --- DIABATIC ENERGIES (DIAGONAL ELEMENT) ---       HARTREE            EV
 STATE #  1'S GMC-PT-LEVEL DIABATIC ENERGY=     -55.968569698       0.000000000
 STATE #  2'S GMC-PT-LEVEL DIABATIC ENERGY=     -55.845888423       3.338327525
 STATE #  3'S GMC-PT-LEVEL DIABATIC ENERGY=     -55.727227145       6.567265363

 --- DIABATIC COUPLINGS (OFF DIAGONAL ELEMENTS)---  HATREE            EV
 STATE #  1 &  2'S GMC-PT-LEVEL COUPLING  =      -0.038451389      -1.046315593
 STATE #  1 &  3'S GMC-PT-LEVEL COUPLING  =       0.007642123       0.207952756
 STATE #  2 &  3'S GMC-PT-LEVEL COUPLING  =      -0.017658306      -0.480506974

 ---------------------------------------
     - ROTATION TO DIABATIC STATES -    
 ---------------------------------------
 ROWS=ADIABATIC, COLUMNS=DIABATIC STATES

             1           2           3

    1    0.9613769   0.2750585  -0.0098640
    2    0.2694821  -0.9479658  -0.1695297
    3   -0.0559813   0.1603237  -0.9854757

 ---------------------------------------
          - DIABATIC STATES -           
 ---------------------------------------

 State #    1  Energy =     -55.968569698

      Det      Coef        Coefp    Occupancy (Ignoring core)
      ---      ----        ----    --------- --------- -----
        1    0.957861   -0.957861  222+000
        8   -0.120757    0.120757  2-2+0+0
      386    0.089575   -0.089575  2+2+0-0
        4   -0.089044    0.089044  2-2++00
      176    0.085663   -0.085663  2+2+-00
      393   -0.075628   -0.075628  202+020
        6    0.064352   -0.064352  22200+0
      717   -0.064140   -0.064140  220+002
      708    0.042552   -0.042552  2-++0+-
      402    0.039538   -0.039538  2+-+0-+
      215   -0.035983   -0.035983  022+200
      705   -0.033743   -0.033743  -2+++0-
      227   -0.033535   -0.033535  +2-+-0+
      218    0.033070   -0.033070  +-2+-+0
      390    0.032949   -0.032949  -+2++-0
       76    0.031182    0.031182  2+2-0+0
      212    0.029087    0.029087  +220200
      113   -0.028944    0.028944  +-220+0
      143   -0.027627   -0.027627  220+200
        2    0.026893   -0.026893  2220+00
       51   -0.026821    0.026821  22+-00+
      424   -0.025631   -0.025631  +-2++-0
      387   -0.023804    0.023804  2+20+-0
      184   -0.023675   -0.023675  -+2+-+0
      122    0.022688    0.022688  +2-200+
      702    0.022452    0.022452  22+0+0-
      391    0.021972   -0.021972  2+20020
     1051   -0.021794   -0.021794  2+++0--
      773    0.021251   -0.021251  +2-++0-
      159    0.021017   -0.021017  -2++-0+
      742   -0.020955   -0.020955  2+-+0+-
      357   -0.020926   -0.020926  220+020
        5    0.020841    0.020841  -22++00
        3    0.020588    0.020588  22-++00
      368   -0.020242   -0.020242  2-++0-+
      141   -0.020239   -0.020239  22++-00

 State #    2  Energy =     -55.845888423

      Det      Coef        Coefp    Occupancy (Ignoring core)
      ---      ----        ----    --------- --------- -----
       71   -0.959541    0.959541  2+22000
       74    0.117727   -0.117727  2022+00
       76    0.096677    0.096677  2+2-0+0
      386   -0.084280    0.084280  2+2+0-0
       78    0.069287   -0.069287  20220+0
      106    0.067442    0.067442  +222000
      822    0.061850   -0.061850  2+02002
       36    0.046103    0.046103  22+2000
      813    0.045397   -0.045397  20+20+-
      113    0.038859   -0.038859  +-220+0
      323   -0.037310    0.037310  +022-+0
      320    0.035039    0.035039  0+22200
      810   -0.034153   -0.034153  -++2+0-
       81    0.031781    0.031781  202-++0
      332   -0.031660    0.031660  ++-2-0+
      180   -0.030504    0.030504  -+2+200
      317    0.030008   -0.030008  ++2-200
      183   -0.029414    0.029414  202+-+0
       99   -0.028851    0.028851  20-20++
      177    0.028764   -0.028764  2+20200
      111    0.028496   -0.028496  +22-0+0
       38   -0.028224    0.028224  2202+00
      248    0.027862   -0.027862  2+02200
      806    0.027758    0.027758  2++200-
       87   -0.026078    0.026078  2+-200+
      393   -0.025729   -0.025729  202+020
       42   -0.024831    0.024831  22020+0
       73    0.024347   -0.024347  2+-2+00
      529    0.024219    0.024219  +022+-0
        6    0.023683   -0.023683  22200+0
      807   -0.023135    0.023135  2++-+0-
      526   -0.022450   -0.022450  ++220-0
      192   -0.022171    0.022171  2+-+-0+
      534    0.021623    0.021623  0+22020
      751    0.021072   -0.021072  2+20002
      462    0.020279   -0.020279  2+02020
      878    0.020062    0.020062  ++-2+0-

 State #    3  Energy =     -55.727227145

      Det      Coef        Coefp    Occupancy (Ignoring core)
      ---      ----        ----    --------- --------- -----
       36   -0.959385   -0.959385  22+2000
      246   -0.098421   -0.098421  2++2-00
      456   -0.090446   -0.090446  2++20-0
      463    0.079256   -0.079256  20+2020
       43    0.072357    0.072357  2-+20+0
      351   -0.067351   -0.067351  22++0-0
       39    0.066417    0.066417  2-+2+00
       41    0.052298   -0.052298  22+-0+0
       52    0.051683   -0.051683  220200+
       71   -0.046351    0.046351  2+22000
      472   -0.046112   -0.046112  2+020-+
      121   -0.042009    0.042009  +22-00+
      112   -0.039457   -0.039457  +2-20+0
      285    0.036607   -0.036607  02+2200
      460   -0.035036   -0.035036  -++2+-0
      297    0.033445   -0.033445  +202-0+
      288   -0.032726   -0.032726  +-+2-+0
       73    0.032004   -0.032004  2+-2+00
      282    0.030156    0.030156  +2+-200
      145   -0.029872   -0.029872  -2++200
      142    0.028998    0.028998  22+0200
       64    0.028941   -0.028941  2-020++
      281    0.028475   -0.028475  +2+2-00
       16   -0.028107    0.028107  222000+
      457   -0.027804    0.027804  2++-+-0
      148   -0.027262   -0.027262  2-++-+0
      254    0.026108   -0.026108  -++2-+0
      108   -0.025246   -0.025246  +2-2+00
      461    0.024821   -0.024821  2++-020
      358   -0.024184    0.024184  2-++020
       46    0.023870   -0.023870  2-+-++0
      157    0.023612   -0.023612  220+-0+
      494    0.023586   -0.023586  +-+2+-0
      771    0.023330    0.023330  +22+00-
      561    0.023167    0.023167  2+++--0
      716    0.023056    0.023056  22+0002
       86    0.020525    0.020525  2+2-00+
      491    0.020092   -0.020092  +2+20-0

 ---------------------------------------
      - DIABATIC STATES IN CMO -        
 ---------------------------------------

 State #    1  Energy =     -55.968569698

      Det      Coef        Coefp    Occupancy (Ignoring core)
      ---      ----        ----    --------- --------- -----
        1    0.923753   -0.923753  222+000
       71    0.314212   -0.314212  2+22000
      393   -0.065548   -0.065548  202+020
       36   -0.058640   -0.058640  22+2000
      717   -0.057107   -0.057107  220+002
       17    0.039807    0.039807  22-+00+
      179   -0.039617   -0.039617  202+200
      402    0.037129   -0.037129  2+-+0-+
      357   -0.035396   -0.035396  220+020
      389    0.031379    0.031379  202++-0
        4    0.031085   -0.031085  2-2++00
      215   -0.029735   -0.029735  022+200
      106   -0.029158   -0.029158  +222000
      708    0.028443   -0.028443  2-++0+-
        8   -0.027667    0.027667  2-2+0+0
        6    0.027455   -0.027455  22200+0
      391   -0.026212    0.026212  2+20020
      183   -0.025166    0.025166  202+-+0
      394    0.024130   -0.024130  -+2+020
      113   -0.024071    0.024071  +-220+0
      214    0.023381    0.023381  +-2+200
       51   -0.023346    0.023346  22+-00+
      390    0.023238   -0.023238  -+2++-0
      742   -0.022521   -0.022521  2+-+0+-
      706    0.022048    0.022048  22+00+-
      122    0.021664    0.021664  +2-200+
       76    0.021295    0.021295  2+2-0+0
      366   -0.021231    0.021231  22+00-+
      437   -0.020768   -0.020768  +2-+0-+
      428   -0.020642   -0.020642  +-2+020
      822   -0.020163    0.020163  2+02002

 State #    2  Energy =     -55.845888423

      Det      Coef        Coefp    Occupancy (Ignoring core)
      ---      ----        ----    --------- --------- -----
       71   -0.913477    0.913477  2+22000
        1    0.321721   -0.321721  222+000
       36    0.167383    0.167383  22+2000
      822    0.057329   -0.057329  2+02002
      113    0.042995   -0.042995  +-220+0
      462    0.038619   -0.038619  2+02020
      813    0.032351   -0.032351  20+20+-
      320    0.029999    0.029999  0+22200
      183   -0.029472    0.029472  202+-+0
       42   -0.029450    0.029450  22020+0
        6    0.029170   -0.029170  22200+0
      177    0.026939   -0.026939  2+20200
       74    0.026617   -0.026617  2022+00
      811   -0.024779    0.024779  2++-0+-
      179   -0.024247   -0.024247  202+200
       79   -0.022594   -0.022594  -+220+0
      107   -0.022017    0.022017  +22-+00
      751    0.021572   -0.021572  2+20002
      534    0.021447    0.021447  0+22020
      810   -0.020926   -0.020926  -++2+0-
      526   -0.020402   -0.020402  ++220-0
      542   -0.020011    0.020011  ++-20-+

 State #    3  Energy =     -55.727227145

      Det      Coef        Coefp    Occupancy (Ignoring core)
      ---      ----        ----    --------- --------- -----
       36   -0.963436   -0.963436  22+2000
       71   -0.178181    0.178181  2+22000
      463    0.063602   -0.063602  20+2020
      249    0.047505   -0.047505  20+2200
      112   -0.043941   -0.043941  +2-20+0
      121   -0.041192    0.041192  +22-00+
      253    0.036869    0.036869  20+2-+0
        7    0.032825    0.032825  22-+0+0
      459   -0.032281    0.032281  20+2+-0
      472   -0.031270   -0.031270  2+020-+
      285    0.030272   -0.030272  02+2200
       41   -0.029479    0.029479  22+-0+0
      356    0.028566    0.028566  22+0020
       86    0.027299    0.027299  2+2-00+
      250    0.026064    0.026064  -++2200
       77    0.025624   -0.025624  2+-20+0
      716    0.024788    0.024788  22+0002
      284   -0.024422    0.024422  +-+2200
      367    0.024181   -0.024181  220+0-+
      771    0.023966    0.023966  +22+00-
      498    0.022789   -0.022789  +-+2020
      499    0.022726   -0.022726  02+2020
      464   -0.022166   -0.022166  -++2020
       44    0.022003   -0.022003  -2+20+0
      491    0.021938   -0.021938  +2+20-0
      142    0.021870    0.021870  22+0200
       52    0.021705   -0.021705  220200+

 ---------------------------------------
    -DIABATIC STATES IN PROTOTYPES-     
 ---------------------------------------

     STATE:    1
 Group Ref#    Coefficients
     1    1    0.976656
     2    2    0.003627
     3    3    0.000932

WEIGHT OF LISTED PROTOTYPES:   95.39%

     STATE:    2
 Group Ref#    Coefficients
     1    1    0.003628
     2    2    0.976598
     3    3    0.000692

WEIGHT OF LISTED PROTOTYPES:   95.38%

     STATE:    3
 Group Ref#    Coefficients
     1    1    0.000938
     2    2    0.000696
     3    3    0.970892

WEIGHT OF LISTED PROTOTYPES:   94.26%

     DIRECT MAX. DIABATIZATION FINISHED    
 CPU     0: STEP CPU TIME=     0.25 TOTAL CPU TIME=         13.8 (      0.2 MIN)
 TOTAL WALL CLOCK TIME=         13.8 SECONDS, CPU UTILIZATION IS    99.85%

DIABATS FOR SPIN-ORBIT CALCULATION ARE READY

TRANSITION DIPOLES BETWEEN ADIABATS (in A.U.):

STATE PAIR      X         Y         Z
    1    1  0.245902 -0.056679  0.722126
    2    1  0.021283 -0.007321  0.138409
    2    2  0.203397  0.047034  0.292897
    3    1  0.010499 -0.106462 -0.029031
    3    2  0.043709  0.251845  0.001512
    3    3  0.462706 -0.165882  0.275411


TRANSITION DIPOLES BETWEEN DIABATS (in A.U.):

STATE PAIR      X         Y         Z
    1    1  0.252073 -0.049423  0.764350
    2    1 -0.003242 -0.009908 -0.006102
    2    2  0.189819 -0.048407  0.249723
    3    1 -0.010757  0.026763 -0.000861
    3    2 -0.005095  0.291648  0.005725
    3    3  0.470112 -0.077698  0.276361

TRANSITION DIPOLES BETWEEN DIRECT MAX. DIABATS (in A.U.):

STATE PAIR      X         Y         Z
    1    1  0.252074 -0.049423  0.764350
    2    1 -0.003241 -0.009909 -0.006102
    2    2  0.189819 -0.048408  0.249723
    3    1 -0.010757  0.026763 -0.000860
    3    2 -0.005096  0.291648  0.005725
    3    3  0.470112 -0.077696  0.276361
 No $TRANST Group Found.
 Quit without doing spin-orbit coupling
 ..... DONE WITH MP2 ENERGY .....
 CPU     0: STEP CPU TIME=     0.01 TOTAL CPU TIME=         13.8 (      0.2 MIN)
 TOTAL WALL CLOCK TIME=         13.8 SECONDS, CPU UTILIZATION IS    99.93%
            100000000  WORDS OF DYNAMIC MEMORY USED
 EXECUTION OF GAMESS TERMINATED NORMALLY Wed Nov 16 19:18:12 2022
 DDI: 715512 bytes (0.7 MB / 0 MWords) used by master data server.

 ----------------------------------------
 CPU timing information for all processes
 ========================================
 0: 13.374 + 0.403 = 13.778
 ----------------------------------------
Note: The following floating-point exceptions are signalling: IEEE_DENORMAL
 ddikick.x: exited gracefully.
unset echo
----- accounting info -----
Files used on the master node io002 were:
-rw-r--r-- 1 bsonghao nooijen   20708 Nov 16 19:17 /scratch/bsonghao/nh3_diabatization_2d_at_mode_7_8_dist-0.1_0.5.F05
-rw-r--r-- 1 bsonghao nooijen  363520 Nov 16 19:18 /scratch/bsonghao/nh3_diabatization_2d_at_mode_7_8_dist-0.1_0.5.F09
-rw-r--r-- 1 bsonghao nooijen 1995920 Nov 16 19:18 /scratch/bsonghao/nh3_diabatization_2d_at_mode_7_8_dist-0.1_0.5.F10
-rw-r--r-- 1 bsonghao nooijen  131264 Nov 16 19:18 /scratch/bsonghao/nh3_diabatization_2d_at_mode_7_8_dist-0.1_0.5.F13
-rw-r--r-- 1 bsonghao nooijen  180312 Nov 16 19:18 /scratch/bsonghao/nh3_diabatization_2d_at_mode_7_8_dist-0.1_0.5.F15
-rw-r--r-- 1 bsonghao nooijen       0 Nov 16 19:17 /scratch/bsonghao/nh3_diabatization_2d_at_mode_7_8_dist-0.1_0.5.F16
-rw-r--r-- 1 bsonghao nooijen    9808 Nov 16 19:18 /scratch/bsonghao/nh3_diabatization_2d_at_mode_7_8_dist-0.1_0.5.F70
-rw-r--r-- 1 bsonghao nooijen    9808 Nov 16 19:18 /scratch/bsonghao/nh3_diabatization_2d_at_mode_7_8_dist-0.1_0.5.F71
-rw-r--r-- 1 bsonghao nooijen   19608 Nov 16 19:18 /scratch/bsonghao/nh3_diabatization_2d_at_mode_7_8_dist-0.1_0.5.F72
-rw-r--r-- 1 bsonghao nooijen   19608 Nov 16 19:18 /scratch/bsonghao/nh3_diabatization_2d_at_mode_7_8_dist-0.1_0.5.F73
-rw-r--r-- 1 bsonghao nooijen 1920824 Nov 16 19:18 /scratch/bsonghao/nh3_diabatization_2d_at_mode_7_8_dist-0.1_0.5.F74
-rw-r--r-- 1 bsonghao nooijen       0 Nov 16 19:17 /scratch/bsonghao/nh3_diabatization_2d_at_mode_7_8_dist-0.1_0.5.F75
-rw-r--r-- 1 bsonghao nooijen   58848 Nov 16 19:18 /scratch/bsonghao/nh3_diabatization_2d_at_mode_7_8_dist-0.1_0.5.F76
-rw-r--r-- 1 bsonghao nooijen       0 Nov 16 19:17 /scratch/bsonghao/nh3_diabatization_2d_at_mode_7_8_dist-0.1_0.5.F77
-rw-r--r-- 1 bsonghao nooijen    1864 Nov 16 19:18 /scratch/bsonghao/nh3_diabatization_2d_at_mode_7_8_dist-0.1_0.5.F78
-rw-r--r-- 1 bsonghao nooijen   39208 Nov 16 19:18 /scratch/bsonghao/nh3_diabatization_2d_at_mode_7_8_dist-0.1_0.5.F79
-rw-r--r-- 1 bsonghao nooijen     104 Nov 16 19:18 /scratch/bsonghao/nh3_diabatization_2d_at_mode_7_8_dist-0.1_0.5.F80
-rw-r--r-- 1 bsonghao nooijen   13472 Nov 16 19:18 /scratch/bsonghao/nh3_diabatization_2d_at_mode_7_8_dist-0.1_0.5.F81
-rw-r--r-- 1 bsonghao nooijen      16 Nov 16 19:18 /scratch/bsonghao/nh3_diabatization_2d_at_mode_7_8_dist-0.1_0.5.F82
-rw-r--r-- 1 bsonghao nooijen   19216 Nov 16 19:18 /scratch/bsonghao/nh3_diabatization_2d_at_mode_7_8_dist-0.1_0.5.F83
-rw-r--r-- 1 bsonghao nooijen   29712 Nov 16 19:18 /scratch/bsonghao/nh3_diabatization_2d_at_mode_7_8_dist-0.1_0.5.F84
-rw-r--r-- 1 bsonghao nooijen  401576 Nov 16 19:18 /scratch/bsonghao/nh3_diabatization_2d_at_mode_7_8_dist-0.1_0.5.F85
-rw-r--r-- 1 bsonghao nooijen  903672 Nov 16 19:18 /scratch/bsonghao/nh3_diabatization_2d_at_mode_7_8_dist-0.1_0.5.F86
-rw-r--r-- 1 bsonghao nooijen     656 Nov 16 19:18 /scratch/bsonghao/nh3_diabatization_2d_at_mode_7_8_dist-0.1_0.5.F87
-rw-r--r-- 1 bsonghao nooijen   33648 Nov 16 19:18 /scratch/bsonghao/nh3_diabatization_2d_at_mode_7_8_dist-0.1_0.5.F88
-rw-r--r-- 1 bsonghao nooijen     240 Nov 16 19:18 /scratch/bsonghao/nh3_diabatization_2d_at_mode_7_8_dist-0.1_0.5.F89
-rw-r--r-- 1 bsonghao nooijen       0 Nov 16 19:17 /scratch/bsonghao/nh3_diabatization_2d_at_mode_7_8_dist-0.1_0.5.F90
-rw-r--r-- 1 bsonghao nooijen   13760 Nov 16 19:18 /scratch/bsonghao/nh3_diabatization_2d_at_mode_7_8_dist-0.1_0.5.F91
-rw-r--r-- 1 bsonghao nooijen   22776 Nov 16 19:18 /scratch/bsonghao/nh3_diabatization_2d_at_mode_7_8_dist-0.1_0.5.F92
-rw-r--r-- 1 bsonghao nooijen   23168 Nov 16 19:18 /scratch/bsonghao/nh3_diabatization_2d_at_mode_7_8_dist-0.1_0.5.F93
-rw-r--r-- 1 bsonghao nooijen   22776 Nov 16 19:18 /scratch/bsonghao/nh3_diabatization_2d_at_mode_7_8_dist-0.1_0.5.F94
-rw-r--r-- 1 bsonghao nooijen   13760 Nov 16 19:18 /scratch/bsonghao/nh3_diabatization_2d_at_mode_7_8_dist-0.1_0.5.F95
-rw-r--r-- 1 bsonghao nooijen   29440 Nov 16 19:18 /scratch/bsonghao/nh3_diabatization_2d_at_mode_7_8_dist-0.1_0.5.F96
-rw-r--r-- 1 bsonghao nooijen    1184 Nov 16 19:18 /scratch/bsonghao/nh3_diabatization_2d_at_mode_7_8_dist-0.1_0.5.F97
-rw-r--r-- 1 bsonghao nooijen    9808 Nov 16 19:18 /scratch/bsonghao/nh3_diabatization_2d_at_mode_7_8_dist-0.1_0.5.F98
-rw-r--r-- 1 bsonghao nooijen   30264 Nov 16 19:18 /scratch/bsonghao/nh3_diabatization_2d_at_mode_7_8_dist-0.1_0.5.F99
ls: No match.
ls: No match.
ls: No match.
Wed 16 Nov 2022 07:18:15 PM EST
0.285u 0.045s 0:17.15 1.8%	0+0k 48+224io 0pf+0w
