----- GAMESS execution script 'rungms' -----
This job is running on host io002
under operating system Linux at Wed 16 Nov 2022 06:40:26 PM EST
Available scratch disk space (Kbyte units) at beginning of the job is
Filesystem       1K-blocks       Used   Available Use% Mounted on
/dev/sdc1      15378471580 3278917120 11318349060  23% /scratch
GAMESS temporary binary files will be written to /scratch/bsonghao
GAMESS supplementary output files will be written to /home/bsonghao/.gamess_ascii_files/267638
Copying input file nh3_diabatization_2d_at_mode_7_8_dist-0.6_0.7.inp to your run's scratch directory...
cp nh3_diabatization_2d_at_mode_7_8_dist-0.6_0.7.inp /scratch/bsonghao/nh3_diabatization_2d_at_mode_7_8_dist-0.6_0.7.F05
unset echo
/home/bjb2chen/gamess/ddikick.x /home/bjb2chen/gamess/gamess.00.x nh3_diabatization_2d_at_mode_7_8_dist-0.6_0.7 -ddi 1 1 io002 -scr /scratch/bsonghao

 Distributed Data Interface kickoff program.
 Initiating 1 compute processes on 1 nodes to run the following command:
 /home/bjb2chen/gamess/gamess.00.x nh3_diabatization_2d_at_mode_7_8_dist-0.6_0.7 

          ******************************************************
          *         GAMESS VERSION = 02 AUG 2018 (R2)         *
          *             FROM IOWA STATE UNIVERSITY             *
          * M.W.SCHMIDT, K.K.BALDRIDGE, J.A.BOATZ, S.T.ELBERT, *
          *   M.S.GORDON, J.H.JENSEN, S.KOSEKI, N.MATSUNAGA,   *
          *          K.A.NGUYEN, S.J.SU, T.L.WINDUS,           *
          *       TOGETHER WITH M.DUPUIS, J.A.MONTGOMERY       *
          *         J.COMPUT.CHEM.  14, 1347-1363(1993)        *
          **************** 64 BIT LINUX VERSION ****************

  SINCE 1993, STUDENTS AND POSTDOCS WORKING AT IOWA STATE UNIVERSITY
  AND ALSO IN THEIR VARIOUS JOBS AFTER LEAVING ISU HAVE MADE IMPORTANT
  CONTRIBUTIONS TO THE CODE:
     IVANA ADAMOVIC, CHRISTINE AIKENS, YURI ALEXEEV, POOJA ARORA,
     ANDREY ASADCHEV, ROB BELL, PRADIPTA BANDYOPADHYAY, JONATHAN BENTZ,
     BRETT BODE, KURT BRORSEN, CALEB CARLIN, GALINA CHABAN, WEI CHEN,
     CHEOL HO CHOI, PAUL DAY, ALBERT DEFUSCO, NUWAN DESILVA, TIM DUDLEY,
     DMITRI FEDOROV, ALEX FINDLATER, GRAHAM FLETCHER, MARK FREITAG,
     KURT GLAESEMANN, ANASTASIA GUININA,
     DAN KEMP, GRANT MERRILL, NORIYUKI MINEZAWA, JONATHAN MULLIN,
     TAKESHI NAGATA, SEAN NEDD, HEATHER NETZLOFF, BOSILJKA NJEGIC, RYAN OLSON,
     MIKE PAK, BUU PHAM,
     SPENCER PRUITT, LUKE ROSKOP, JIM SHOEMAKER, LYUDMILA SLIPCHENKO,
     TONY SMITH, SAROM SOK LEANG, JIE SONG, TETSUYA TAKETSUGU, SIMON WEBB,
     PENG XU, SOOHAENG YOO, FEDERICO ZAHARIEV

  ADDITIONAL CODE HAS BEEN PROVIDED BY COLLABORATORS IN OTHER GROUPS:
     IOWA STATE UNIVERSITY:
          JOE IVANIC, AARON WEST, LAIMUTIS BYTAUTAS, KLAUS RUEDENBERG
     UNIVERSITY OF TOKYO: KIMIHIKO HIRAO, TAKAHITO NAKAJIMA,
          TAKAO TSUNEDA, MUNEAKI KAMIYA, SUSUMU YANAGISAWA,
          KIYOSHI YAGI, MAHITO CHIBA, SEIKEN TOKURA, NAOAKI KAWAKAMI
     UNIVERSITY OF AARHUS: FRANK JENSEN
     UNIVERSITY OF IOWA: VISVALDAS KAIRYS, HUI LI
     NATIONAL INST. OF STANDARDS AND TECHNOLOGY: WALT STEVENS, DAVID GARMER
     UNIVERSITY OF PISA: BENEDETTA MENNUCCI, JACOPO TOMASI
     UNIVERSITY OF MEMPHIS: HENRY KURTZ, PRAKASHAN KORAMBATH
     UNIVERSITY OF ALBERTA: TOBY ZENG, MARIUSZ KLOBUKOWSKI
     UNIVERSITY OF NEW ENGLAND: MARK SPACKMAN
     MIE UNIVERSITY: HIROAKI UMEDA
     NAT. INST. OF ADVANCED INDUSTRIAL SCIENCE AND TECHNOLOGY: KAZUO KITAURA
     MICHIGAN STATE UNIVERSITY:
          KAROL KOWALSKI, MARTA WLOCH, JEFFREY GOUR, JESSE LUTZ,
          WEI LI, JUN SHEN, J. EMILIANO DEUSTUA, PIOTR PIECUCH
     UNIVERSITY OF MINNESOTA:
          YINAN SHU
     UNIVERSITY OF SILESIA: MONIKA MUSIAL, STANISLAW KUCHARSKI
     FACULTES UNIVERSITAIRES NOTRE-DAME DE LA PAIX:
          OLIVIER QUINET, BENOIT CHAMPAGNE
     UNIVERSITY OF CALIFORNIA - SANTA BARBARA: BERNARD KIRTMAN
     INSTITUTE FOR MOLECULAR SCIENCE:
          KAZUYA ISHIMURA, MICHIO KATOUDA, AND SHIGERU NAGASE
     UNIVERSITY OF NOTRE DAME: ANNA POMOGAEVA, DAN CHIPMAN
     KYUSHU UNIVERSITY:
          HARUYUKI NAKANO,
          FENG LONG GU, JACEK KORCHOWIEC, MARCIN MAKOWSKI, AND YURIKO AOKI,
          HIROTOSHI MORI AND EISAKU MIYOSHI
     PENNSYLVANIA STATE UNIVERSITY:
          TZVETELIN IORDANOV, CHET SWALINA, JONATHAN SKONE,
          SHARON HAMMES-SCHIFFER
     WASEDA UNIVERSITY:
          MASATO KOBAYASHI, TOMOKO AKAMA, TSUGUKI TOUMA,
          TAKESHI YOSHIKAWA, YASUHIRO IKABATA, JUNJI SEINO,
          YUYA NAKAJIMA, HIROMI NAKAI
     NANJING UNIVERSITY: SHUHUA LI
     UNIVERSITY OF NEBRASKA:
          PEIFENG SU, DEJUN SI, NANDUN THELLAMUREGE, YALI WANG, HUI LI
     UNIVERSITY OF ZURICH: ROBERTO PEVERATI, KIM BALDRIDGE
     N. COPERNICUS UNIVERSITY AND JACKSON STATE UNIVERSITY:
          MARIA BARYSZ
     UNIVERSITY OF COPENHAGEN: Jimmy Kromann, CASPER STEINMANN
     TOKYO INSTITUTE OF TECHNOLOGY: HIROYA NAKATA
     NAGOYA UNIVERSITY: YOSHIO NISHIMOTO, STEPHAN IRLE
     MOSCOW STATE UNIVERSITY: VLADIMIR MIRONOV

 EXECUTION OF GAMESS BEGUN Wed Nov 16 18:40:27 2022

            ECHO OF THE FIRST FEW INPUT CARDS -
 INPUT CARD> $system kdiag=3 mwords=100 memddi=1000 parall=.t. $end                         
 INPUT CARD> $contrl runtyp=energy ispher=1 $end                                            
 INPUT CARD> $contrl icut=9 itol=20 inttyp=rysquad qmttol=1.0d-05 nosym=1 $end              
 INPUT CARD> $scf    npunch=2 conv=1.0d-06 dirscf=.t.      $end                             
 INPUT CARD> $contrl scftyp=mcscf  mult=2 maxit=200 icharg=1 mplevl=2 $end                  
 INPUT CARD> $guess  guess=moread norb=29 purify=.t. $end                                   
 INPUT CARD> $basis  gbasis=ccd $end                                                        
 INPUT CARD> $mcscf  cistep=gmcci fullnr=.t. finci=mos                                      
 INPUT CARD>         acurcy=1.d-6 maxit=100 $end                                            
 INPUT CARD> $trans  dirtrf=.t. $end                                                        
 INPUT CARD> $mrmp   mrpt=gmcpt rdvecs=.f. $end                                             
 INPUT CARD> $gmcpt  nmofzc=0 nmodoc=1 nmoact=7 nelact=7 stsym(1)=A                         
 INPUT CARD>         reftyp=ormas nspace=1 mstart(1)=2 mine(1)=7 maxe(1)=7                  
 INPUT CARD>         kstate(1)=1,1,1                                                        
 INPUT CARD>         wstate(1)=1,1,1                                                        
 INPUT CARD>         iwgt=0 thrwgt=-1.0 krot=.f. kszdoe=.f. knospn=.f.                      
 INPUT CARD>         thrde=-1.0 edshft=0.02 $end                                            
 INPUT CARD> $data                                                                          
 INPUT CARD> NH3+ 3 states calculation at NH3 structure.                                    
 INPUT CARD> c1                                                                             
 INPUT CARD>N 7.0 -0.043602426 0.037373418000000005 -0.1693810622                           
 INPUT CARD>H 1.0 -0.33820985700000006 1.0327271768 0.02690674110000002                     
 INPUT CARD>H 1.0 0.12034203099999996 -1.1141889898000001 0.30123557710000004               
 INPUT CARD>H 1.0 0.823735246 -0.43785445000000006 0.44124415510000004                      
 INPUT CARD>$end                                                                            
 INPUT CARD>--- OPTIMIZED RHF      MO-S --- GENERATED AT Mon Nov 14 16:47:08 2022           
 INPUT CARD>E=      -56.3825050291, E(NUC)=   11.8429239490                                 
 INPUT CARD> $VEC                                                                           
 INPUT CARD> 1  1-1.00134066E+00-2.25158504E-03 3.44925845E-03 0.00000000E+00 0.00000000E+00
 INPUT CARD> 1  2-2.13170927E-03 0.00000000E+00 0.00000000E+00 6.57129898E-04-6.87950443E-05
 INPUT CARD> 1  3-6.87950443E-05 1.37590089E-04 0.00000000E+00 0.00000000E+00 0.00000000E+00
 INPUT CARD> 1  4 3.25502815E-04-4.84772356E-04 3.62525460E-04-6.27912517E-04-3.45956485E-04
 INPUT CARD> 1  5 3.25502815E-04-4.84772356E-04 3.62525460E-04 6.27912517E-04-3.45956485E-04
 INPUT CARD> 1  6 3.25502815E-04-4.84772356E-04-7.25050921E-04 0.00000000E+00-3.45956485E-04
 INPUT CARD> 2  1 1.31286642E-02-4.05911371E-01-2.82090992E-01 0.00000000E+00 0.00000000E+00
 INPUT CARD> 2  2-7.71489043E-02 0.00000000E+00 0.00000000E+00 9.73717494E-03 6.62450916E-04
 INPUT CARD> 2  3 6.62450916E-04-1.32490183E-03 0.00000000E+00 0.00000000E+00 0.00000000E+00
 INPUT CARD> 2  4-1.96090317E-01-1.96656153E-02-1.74855877E-02 3.02859263E-02 8.68214399E-03
 INPUT CARD> 2  5-1.96090317E-01-1.96656153E-02-1.74855877E-02-3.02859263E-02 8.68214399E-03
 INPUT CARD> 2  6-1.96090317E-01-1.96656153E-02 3.49711754E-02 0.00000000E+00 8.68214399E-03
 INPUT CARD> 3  1 0.00000000E+00 0.00000000E+00 0.00000000E+00 4.48608762E-01 0.00000000E+00
 INPUT CARD> 3  2 0.00000000E+00 2.18692520E-01 0.00000000E+00 0.00000000E+00 1.30198027E-02
 INPUT CARD> 3  3-1.30198027E-02 0.00000000E+00 0.00000000E+00 2.71832968E-02 0.00000000E+00
 INPUT CARD> 3  4-1.85332726E-01-7.03958951E-02 8.47929477E-03 1.95242443E-02 8.32835058E-03
 INPUT CARD> 3  5-1.85332726E-01-7.03958951E-02 8.47929477E-03-1.95242443E-02 8.32835058E-03
 INPUT CARD> 3  6 3.70665453E-01 1.40791790E-01-2.53376884E-02 0.00000000E+00-1.66567012E-02
 INPUT CARD> 4  1 0.00000000E+00 0.00000000E+00 0.00000000E+00 0.00000000E+00 4.48608762E-01
 INPUT CARD> 4  2 0.00000000E+00 0.00000000E+00 2.18692520E-01 0.00000000E+00 0.00000000E+00
 INPUT CARD> 4  3 0.00000000E+00 0.00000000E+00-1.50339731E-02 0.00000000E+00 2.71832968E-02
 INPUT CARD> 4  4 3.21005698E-01 1.21929267E-01 1.95242443E-02-1.40653607E-02-1.44251263E-02
  100000000 WORDS OF MEMORY AVAILABLE

     BASIS OPTIONS
     -------------
     GBASIS=CCD          IGAUSS=       0      POLAR=NONE    
     NDFUNC=       0     NFFUNC=       0     DIFFSP=       F
     NPFUNC=       0      DIFFS=       F     BASNAM=        


     RUN TITLE
     ---------
  NH3+ 3 states calculation at NH3 structure.                                    

 THE POINT GROUP OF THE MOLECULE IS C1      
 THE ORDER OF THE PRINCIPAL AXIS IS     0

 ATOM      ATOMIC                      COORDINATES (BOHR)
           CHARGE         X                   Y                   Z
 N           7.0    -0.0823966375        0.0706255192       -0.3200837951
 H           1.0    -0.6391239561        1.9515713842        0.0508463679
 H           1.0     0.2274134634       -2.1055118893        0.5692526985
 H           1.0     1.5566339014       -0.8274249330        0.8338305468

          INTERNUCLEAR DISTANCES (ANGS.)
          ------------------------------

                1 N          2 H          3 H          4 H     

   1 N       0.0000000    1.0564334 *  1.2547724 *  1.1623164 *
   2 H       1.0564334 *  0.0000000    2.2124139 *  1.9194797 *
   3 H       1.2547724 *  2.2124139 *  0.0000000    0.9857955 *
   4 H       1.1623164 *  1.9194797 *  0.9857955 *  0.0000000  

  * ... LESS THAN  3.000


     ATOMIC BASIS SET
     ----------------
 THE CONTRACTED PRIMITIVE FUNCTIONS HAVE BEEN UNNORMALIZED
 THE CONTRACTED BASIS FUNCTIONS ARE NOW NORMALIZED TO UNITY

  SHELL TYPE  PRIMITIVE        EXPONENT          CONTRACTION COEFFICIENT(S)

 N         

      1   S       1          9046.0000000    0.000699617413
      1   S       2          1357.0000000    0.005386054630
      1   S       3           309.3000000    0.027391021189
      1   S       4            87.7300000    0.103150591982
      1   S       5            28.5600000    0.278570663317
      1   S       6            10.2100000    0.448294849454
      1   S       7             3.8380000    0.278085928395
      1   S       8             0.7466000    0.015431561233

      2   S       9          9046.0000000   -0.000304990096
      2   S      10          1357.0000000   -0.002408026379
      2   S      11           309.3000000   -0.011944448725
      2   S      12            87.7300000   -0.048925992909
      2   S      13            28.5600000   -0.134472724725
      2   S      14            10.2100000   -0.315112577700
      2   S      15             3.8380000   -0.242857832550
      2   S      16             0.7466000    1.094382206854

      3   S      17             0.2248000    1.000000000000

      4   P      18            13.5500000    0.058905676772
      4   P      19             2.9170000    0.320461106714
      4   P      20             0.7973000    0.753042061792

      5   P      21             0.2185000    1.000000000000

      6   D      22             0.8170000    1.000000000000

 H         

      7   S      23            13.0100000    0.033498726390
      7   S      24             1.9620000    0.234800801174
      7   S      25             0.4446000    0.813682957883

      8   S      26             0.1220000    1.000000000000

      9   P      27             0.7270000    1.000000000000

 H         

     10   S      28            13.0100000    0.033498726390
     10   S      29             1.9620000    0.234800801174
     10   S      30             0.4446000    0.813682957883

     11   S      31             0.1220000    1.000000000000

     12   P      32             0.7270000    1.000000000000

 H         

     13   S      33            13.0100000    0.033498726390
     13   S      34             1.9620000    0.234800801174
     13   S      35             0.4446000    0.813682957883

     14   S      36             0.1220000    1.000000000000

     15   P      37             0.7270000    1.000000000000

 TOTAL NUMBER OF BASIS SET SHELLS             =   15
 NUMBER OF CARTESIAN GAUSSIAN BASIS FUNCTIONS =   30
 NOTE: THIS RUN WILL RESTRICT THE MO VARIATION SPACE TO SPHERICAL HARMONICS.
 THE NUMBER OF ORBITALS KEPT IN THE VARIATIONAL SPACE WILL BE PRINTED LATER.
 NUMBER OF ELECTRONS                          =    9
 CHARGE OF MOLECULE                           =    1
 SPIN MULTIPLICITY                            =    2
 NUMBER OF OCCUPIED ORBITALS (ALPHA)          =    5
 NUMBER OF OCCUPIED ORBITALS (BETA )          =    4
 TOTAL NUMBER OF ATOMS                        =    4
 THE NUCLEAR REPULSION ENERGY IS       10.6971089267

     $CONTRL OPTIONS
     ---------------
 SCFTYP=MCSCF        RUNTYP=ENERGY       EXETYP=RUN     
 MPLEVL=       2     CITYP =NONE         CCTYP =NONE         VBTYP =NONE    
 DFTTYP=NONE         TDDFT =NONE    
 MULT  =       2     ICHARG=       1     NZVAR =       0     COORD =UNIQUE  
 PP    =NONE         RELWFN=NONE         LOCAL =NONE         NUMGRD=       F
 ISPHER=       1     NOSYM =       1     MAXIT =     200     UNITS =ANGS    
 PLTORB=       F     MOLPLT=       F     AIMPAC=       F     FRIEND=        
 NPRINT=       7     IREST =       0     GEOM  =INPUT   
 NORMF =       0     NORMP =       0     ITOL  =      20     ICUT  =       9
 INTTYP=RYSQUAD      GRDTYP=BEST         QMTTOL= 1.0E-05

     $SYSTEM OPTIONS
     ---------------
  REPLICATED MEMORY=   100000000 WORDS (ON EVERY NODE).
 DISTRIBUTED MEMDDI=        1000 MILLION WORDS IN AGGREGATE,
 MEMDDI DISTRIBUTED OVER   1 PROCESSORS IS  1000000000 WORDS/PROCESSOR.
 TOTAL MEMORY REQUESTED ON EACH PROCESSOR=  1100000000 WORDS.
 TIMLIM=      525600.00 MINUTES, OR     365.0 DAYS.
 PARALL= T  BALTYP=  DLB     KDIAG=    3  COREFL= F
 MXSEQ2=     300 MXSEQ3=     150  mem10=         0

          ----------------
          PROPERTIES INPUT
          ----------------

     MOMENTS            FIELD           POTENTIAL          DENSITY
 IEMOM =       1   IEFLD =       0   IEPOT =       0   IEDEN =       0
 WHERE =COMASS     WHERE =NUCLEI     WHERE =NUCLEI     WHERE =NUCLEI  
 OUTPUT=BOTH       OUTPUT=BOTH       OUTPUT=BOTH       OUTPUT=BOTH    
 IEMINT=       0   IEFINT=       0                     IEDINT=       0
                                                       MORB  =       0

     -------------------------------
     INTEGRAL TRANSFORMATION OPTIONS
     -------------------------------
     NWORD  =            0
     CUTOFF = 1.0E-09     MPTRAN =       0
     DIRTRF =       T     AOINTS =DUP     

          ----------------------
          MCSCF INPUT PARAMETERS
          ----------------------
 CONVERGER SELECTION: FOCAS = F  SOSCF = F  FULLNR = T  QUD = F  JACOBI = F
 SECULAR EQUATION METHOD CISTEP = GMCCI   
 --- GENERAL INPUT OPTIONS:
 MAXIT =     100  MICIT =       1  ACURCY= 1.000E-06
 DAMP  =   0.000  CANONC=       T  ENGTOL= 1.000E-10
 EKT   =       F  NPUNCH=       2  NWORD =         0
 REGENERATE CI AFTER CONVERGENCE = NONE    
 DIABATIZATION AFTER CONVERGENCE =        F
 --- INPUT FOR FULLNR CONVERGER:
 METHOD=DM2       FORS  =       F  DROPC =       T
 LINSER=       F  FCORE =       F  NORB  =      30

          ----------------------
          INTEGRAL INPUT OPTIONS
          ----------------------
 NOPK  =       1 NORDER=       0 SCHWRZ=       T

 ------------------------------------------
 MULTIREFERENCE PERTURBATION THEORY CONTROL
 ------------------------------------------
 MRPT=GMCPT    READ CONVERGED MCSCF VECTORS= F


     ------------------------------------------
     THE POINT GROUP IS C1 , NAXIS= 1, ORDER= 1
     ------------------------------------------

 -- VARIATIONAL SPACE WILL BE RESTRICTED TO PURE SPHERICAL HARMONICS ONLY --
 AFTER EXCLUDING CONTAMINANT COMBINATIONS FROM THE CARTESIAN GAUSSIAN BASIS
 SET, THE NUMBER OF SPHERICAL HARMONICS KEPT IN THE VARIATION SPACE IS   29

     DIMENSIONS OF THE SYMMETRY SUBSPACES ARE
 A   =   29

 ..... DONE SETTING UP THE RUN .....
 CPU     0: STEP CPU TIME=     0.04 TOTAL CPU TIME=          0.0 (      0.0 MIN)
 TOTAL WALL CLOCK TIME=          0.0 SECONDS, CPU UTILIZATION IS   100.00%

          ********************
          1 ELECTRON INTEGRALS
          ********************
 TIME TO DO   DIPOLE INTEGRALS=      0.00
 ...... END OF ONE-ELECTRON INTEGRALS ......
 CPU     0: STEP CPU TIME=     0.00 TOTAL CPU TIME=          0.0 (      0.0 MIN)
 TOTAL WALL CLOCK TIME=          0.1 SECONDS, CPU UTILIZATION IS    80.00%

          -------------
          GUESS OPTIONS
          -------------
          GUESS =MOREAD            NORB  =      29          NORDER=       0
          MIX   =       F          PRTMO =       F          PUNMO =       F
          TOLZ  = 1.0E-08          TOLE  = 1.0E-05
          SYMDEN=       F          PURIFY=       T

 INITIAL GUESS ORBITALS GENERATED BY MOREAD   ROUTINE.

 STATISTICS FOR GENERATION OF SYMMETRY ORBITAL -Q- MATRIX
 NUMBER OF CARTESIAN ATOMIC ORBITALS=         30
 NUMBER OF SPHERICAL CONTAMINANTS DROPPED=     1
 NUMBER OF LINEARLY DEPENDENT MOS DROPPED=     0
 TOTAL NUMBER OF MOS IN VARIATION SPACE=      29
 ORBITAL PURIFICATION WILL OCCUR

 SYMMETRIES FOR INITIAL GUESS ORBITALS FOLLOW.   BOTH SET(S).
     5 ORBITALS ARE OCCUPIED (    1 CORE ORBITALS).
     1=A        2=A        3=A        4=A        5=A        6=A        7=A   
     8=A        9=A       10=A       11=A       12=A       13=A       14=A   
    15=A       16=A       17=A       18=A       19=A       20=A       21=A   
    22=A       23=A       24=A       25=A       26=A       27=A       28=A   
    29=A   
 ...... END OF INITIAL ORBITAL SELECTION ......
 CPU     0: STEP CPU TIME=     0.00 TOTAL CPU TIME=          0.0 (      0.0 MIN)
 TOTAL WALL CLOCK TIME=          0.1 SECONDS, CPU UTILIZATION IS    80.00%

                    ----------------------
                    AO INTEGRAL TECHNOLOGY
                    ----------------------
     S,P,L SHELL ROTATED AXIS INTEGRALS, REPROGRAMMED BY
        KAZUYA ISHIMURA (IMS) AND JOSE SIERRA (SYNSTAR).
     S,P,D,L SHELL ROTATED AXIS INTEGRALS PROGRAMMED BY
        KAZUYA ISHIMURA (INSTITUTE FOR MOLECULAR SCIENCE).
     S,P,D,F,G SHELL TO TOTAL QUARTET ANGULAR MOMENTUM SUM 5,
        ERIC PROGRAM BY GRAHAM FLETCHER (ELORET AND NASA ADVANCED
        SUPERCOMPUTING DIVISION, AMES RESEARCH CENTER).
     S,P,D,F,G,L SHELL GENERAL RYS QUADRATURE PROGRAMMED BY
        MICHEL DUPUIS (PACIFIC NORTHWEST NATIONAL LABORATORY).

          --------------------
          2 ELECTRON INTEGRALS
          --------------------

 DIRECT SCF METHOD SKIPS INTEGRAL STORAGE ON DISK.
 DIRECT TRANSFORMATION SKIPS AO INTEGRAL STORAGE ON DISK.
  ...... END OF TWO-ELECTRON INTEGRALS .....
 STEP CPU TIME =     0.02 TOTAL CPU TIME =          0.1 (      0.0 MIN)
 TOTAL WALL CLOCK TIME=          0.1 SECONDS, CPU UTILIZATION IS    85.71%
 DDI: Creating Array [0] - 900 x 36 = 32400 words.
 DDI: Creating Array [1] - 21 x 288 = 6048 words.
 DDI: Creating Array [2] - 36 x 36 = 1296 words.
 DDI: Creating Array [3] - 465 x 36 = 16740 words.

          -----------------
          MCSCF CALCULATION
          -----------------

 ----- NUCLEAR ENERGY ----- =        10.6971089267

     -------------------------------------------------
     GMC-PT/GMC-QDPT or general MCSCF input parameters
     -------------------------------------------------
 # of frozen core orbs. =         0 ->         0
 # of doubly occ. orbs. =         1
 # of active      orbs. =         7
 # of virtual     orbs. =        21
 # of active electrons  =         7
 # of states in CI      =         3
 Highest state in CI    =         3
 kstate =  1 1 1
 avecoe =  0.333 0.333 0.333
 State symmetry           = A           
 Assigned symmetry number = 1

 <<<Act. MO sym.: 1111111

 <<<Division of 1-ext.:  0
 <<<Division of 2-ext.:  0

 *** Reference space

 Reference type: ORMAS (= Occupation restricted multiple active space)
 # of orbitals          =  7
 # of minimum electrons =  7
 # of maximum electrons =  7
 State symmetry    =    1 (input)
 2*Sz              =    1 (input)
 Spin multiplicity =    2 (input)
 Dimension of reference space =      1225  (from      3432 walks)

 Dimension of reference space =      1225  (from      1225 walks)

 <<<Ionized spaces for Ref-CI:
      0:         1225 /   -1-0:         1960 /  0-1-0:         2891

 EVALUATING EXCHANGE INTEGRALS FOR DIRECT INTEGRAL TRANSFORMATION
 SCHWARZ INEQUALITY OVERHEAD:       465 INTEGRALS, T=        0.00

     --------------------------------------------
     PARTIAL TWO ELECTRON INTEGRAL TRANSFORMATION
     --------------------------------------------

 NUMBER OF CORE MOLECULAR ORBITALS     =    1
 NUMBER OF OCCUPIED MOLECULAR ORBITALS =    8
 TOTAL NUMBER OF MOLECULAR ORBITALS    =   29
 TOTAL NUMBER OF ATOMIC ORBITALS       =   30
 THRESHOLD FOR KEEPING TRANSFORMED 2E- INTEGRALS = 1.000E-09

 -------------------------------     ------------------------------
 DISTRIBUTED DATA TRANSFORMATION     PROGRAM WRITTEN BY G. FLETCHER
 -------------------------------     ------------------------------

 THE DISTRIBUTED MEMORY REQUIRED FOR THIS STEP IS MEMDDI=         1 MWORDS
 CREATING DISTRIBUTED STORAGE FOR [VIR OCC|VIR OCC] INTEGRALS
 CREATING DISTRIBUTED STORAGE FOR [VIR OCC|OCC OCC] INTEGRALS
 CREATING DISTRIBUTED STORAGE FOR [OCC OCC|OCC OCC] INTEGRALS
 CREATING DISTRIBUTED STORAGE FOR [VIR VIR|OCC OCC] INTEGRALS
 FOR    1 PROCESSORS, THE REPLICATED MEMORY NEEDED IS       73700 WORDS.
 SCHWARZ INEQUALITY OVERHEAD:       465 INTEGRALS, T=        0.01

      DIRECT 4-INDEX TRANSFORMATION 
      SCHWARZ INEQUALITY TEST SKIPPED          0 INTEGRAL BLOCKS
 ----- FROZEN CORE ENERGY =       -47.4876910300
 ... END OF INTEGRAL TRANSFORMATION ...
 CPU     0: STEP CPU TIME=     0.23 TOTAL CPU TIME=          0.3 (      0.0 MIN)
 TOTAL WALL CLOCK TIME=          0.3 SECONDS, CPU UTILIZATION IS   100.00%

     --------------------------------     -----------------------------
     MCHF NEWTON-RAPHSON OPTIMIZATION     CODE WRITTEN BY MICHEL DUPUIS
     --------------------------------     -----------------------------
     PARALLEL VERSION WRITTEN BY G. FLETCHER (ELORET)
     NASA ADVANCED SUPERCOMPUTING DIVISION, AMES RESEARCH CENTER

 NUMBER OF INDEPENDENT ORBITAL ROTATION PARAMETERS =   175
 ..... DONE SOLVING NEWTON-RAPHSON EQUATIONS .....
 CPU     0: STEP CPU TIME=     0.73 TOTAL CPU TIME=          1.0 (      0.0 MIN)
 TOTAL WALL CLOCK TIME=          1.0 SECONDS, CPU UTILIZATION IS    99.03%
 ..... DONE WITH NTN-RPH ORBITAL ROTATIONS ..... 
 CPU     0: STEP CPU TIME=     0.00 TOTAL CPU TIME=          1.0 (      0.0 MIN)
 TOTAL WALL CLOCK TIME=          1.0 SECONDS, CPU UTILIZATION IS    99.03%
 MAXIMUM MEMORY USED BY NTN-RPH CODE WAS     57645 WORDS.

 ITER     TOTAL ENERGY      DEL(E)  LAGRANGIAN ASYMMETRY   SQCDF  MICIT   DAMP
   1      -55.508549806 -0.508549806  0.138261    9    3 8.386E-02  1   0.0000
   2      -55.596513522 -0.087963715  0.056369   13    3 2.174E-01  1   0.0000
   3      -55.642033057 -0.045519535  0.018211   14    4 2.826E-01  1   0.0184
   4      -55.663443897 -0.021410840  0.008634   11    6 7.642E-02  1   0.0081
   5      -55.668420327 -0.004976430  0.002895   24    6 3.757E-03  1   0.0000
   6      -55.668742443 -0.000322115  0.000867   24    6 3.084E-04  1   0.0000
   7      -55.668776000 -0.000033557  0.000309   12    6 5.255E-05  1   0.0000
   8      -55.668781949 -0.000005949  0.000148   27    6 1.087E-05  1   0.0000
   9      -55.668783226 -0.000001278  0.000078   27    6 2.471E-06  1   0.0000
  10      -55.668783524 -0.000000298  0.000040   27    6 5.896E-07  1   0.0000
  11      -55.668783596 -0.000000072  0.000020   27    6 1.441E-07  1   0.0000
  12      -55.668783614 -0.000000018  0.000010   27    6 3.576E-08  1   0.0000
  13      -55.668783619 -0.000000004  0.000005   27    6 8.946E-09  1   0.0000
  14      -55.668783620 -0.000000001  0.000003   27    6 2.250E-09  1   0.0000
  15      -55.668783620 -0.000000000  0.000001   27    6 5.720E-10  1   0.0000
  16      -55.668783620 -0.000000000  0.000001   27    6 1.392E-10  1   0.0000

          --------------------
          LAGRANGIAN CONVERGED
          --------------------

 FINAL MCSCF ENERGY IS      -55.6687836203 AFTER  16 ITERATIONS

 -MCCI- BASED ON OPTIMIZED ORBITALS
 ----------------------------------

 PLEASE NOTE: IF THE ACTIVE ORBITALS ARE CANONICALIZED BELOW,
 THE FOLLOWING CI EXPANSION COEFFICIENTS AND THE DENSITY DO NOT
 CORRESPOND TO THE PRINTED ORBITALS.  THE PRINTED EXPANSIONS MATCH
 THE ORBITALS USED DURING THE LAST ITERATION.  IF YOU WISH TO SEE
 CI EXPANSIONS BASED ON THE CANONICAL (OR NATURAL) ORBITALS, YOU
 MUST RUN A CI CALCULATION WITH THAT ORBITAL CHOICE READ IN $VEC.

 Averaged energy =     -55.668783620

 State #    1  Energy =     -55.780273051  S =  0.500

      Det      Coef    Occupancy (Ignoring core)
      ---      ----    --------- --------- -----
        1    0.861182  11110001110000
        4   -0.050417  10111001110000
        5   -0.065605  01111001110000
        8   -0.148356  10110101110000
       17   -0.114888  11010011110000
       36    0.077133  11110001101000
       71   -0.367397  11110001011000
       76   -0.052895  11100101011000
       78    0.062441  10110101011000
      176    0.055116  11110001010100
      386    0.095460  11110001010010
      393    0.060961  10110101010010
      701    0.093911  11110001100001

 State #    2  Energy =     -55.708669178  S =  0.500

      Det      Coef    Occupancy (Ignoring core)
      ---      ----    --------- --------- -----
        1   -0.341944  11110001110000
        8    0.050720  10110101110000
       36    0.516026  11110001101000
       43   -0.077169  10110101101000
       52   -0.057886  11010011101000
       71   -0.707799  11110001011000
       74    0.087787  10111001011000
       75    0.055090  01111001011000
       78    0.105603  10110101011000
       87    0.083815  11010011011000
      246    0.063034  11110001001100
      386   -0.091272  11110001010010
      456    0.052421  11110001001010
      806    0.052510  11110001001001

 State #    3  Energy =     -55.517408632  S =  0.500

      Det      Coef    Occupancy (Ignoring core)
      ---      ----    --------- --------- -----
        2    0.449150  11101001110000
        3    0.084794  11011001110000
        4   -0.235903  10111001110000
        5   -0.054185  01111001110000
       11   -0.091033  10101101110000
       16   -0.178508  11100011110000
       18    0.083687  10110011110000
       20   -0.073537  11001011110000
       37    0.272833  11101001101000
       39   -0.068368  10111001101000
       46   -0.052048  10101101101000
       51   -0.143752  11100011101000
       72   -0.491179  11101001011000
       74    0.147425  10111001011000
       76   -0.064723  11100101011000
       81    0.098674  10101101011000
       86    0.192253  11100011011000
       90    0.073345  11001011011000
      107   -0.100508  11101000111000
      141    0.188040  11110001100100
      176   -0.255276  11110001010100
      183    0.065121  10110101010100
      192    0.057143  11010011010100
      246    0.070939  11110001001100
      386   -0.055476  11110001010010
      387    0.077256  11101001010010
      701   -0.105483  11110001100001
      702    0.090678  11101001100001
      736    0.108566  11110001010001
      807    0.091278  11101001001001

 DENSITY MATRIX OVER ACTIVE MO-S

             1           2           3           4           5

    1    1.9681545
    2    0.0465166   1.5176759
    3    0.0279588  -0.2433515   1.7811063
    4   -0.0238414   0.2293528   0.0210665   1.2543109
    5    0.0952820  -0.0669290   0.0468444  -0.0414976   0.3181850
    6    0.0018058  -0.2116467  -0.0195257   0.0224371   0.0395050
    7   -0.0055330   0.0011551   0.1962129   0.0317466  -0.1167568

             6           7

    6    0.0651913
    7   -0.0212889   0.0953762

 FORMING THE "STANDARD FOCK OPERATOR" IN DIRECT AO INTEGRAL MODE...
 ONLY THE    1 CORE AND   21 VIRTUAL ORBITALS WILL BE CANONICALIZED

          ----------------------
          MCSCF NATURAL ORBITALS
          ----------------------

                      1          2          3          4          5
                  -16.0223     1.9796     1.9620     1.5443     1.1052
                     A          A          A          A          A   
    1  N  1  S    1.000901   0.014450   0.000647  -0.010219  -0.006798
    2  N  1  S   -0.003077   0.448598  -0.028489  -0.160446  -0.104048
    3  N  1  S   -0.007237   0.359773   0.014443  -0.215456  -0.169659
    4  N  1  X    0.001058   0.007901  -0.201988   0.385659  -0.389503
    5  N  1  Y   -0.001790   0.115664   0.374047   0.295915  -0.031477
    6  N  1  Z    0.000584   0.056173  -0.086135   0.315516   0.484859
    7  N  1  X    0.000016   0.003372  -0.071119   0.224192  -0.251689
    8  N  1  Y   -0.000594   0.038644   0.126973   0.179169  -0.016470
    9  N  1  Z   -0.000474   0.015781  -0.026442   0.193230   0.322686
   10  N  1 XX   -0.000078  -0.003177  -0.003535   0.007017  -0.015209
   11  N  1 YY    0.000316   0.006195   0.005781  -0.009874   0.003695
   12  N  1 ZZ   -0.000238  -0.003017  -0.002246   0.002857   0.011514
   13  N  1 XY   -0.000287  -0.003150   0.004552  -0.001019   0.002035
   14  N  1 XZ    0.000207   0.001170  -0.008351   0.016673  -0.008418
   15  N  1 YZ   -0.000059   0.001415   0.012636   0.005744  -0.008731
   16  H  2  S   -0.003320   0.251497   0.263411   0.093858   0.104882
   17  H  2  S    0.000507   0.010473   0.035920   0.012058   0.024760
   18  H  2  X   -0.000268   0.013396   0.005035   0.016857  -0.008150
   19  H  2  Y    0.000962  -0.037290  -0.027127  -0.006468  -0.013463
   20  H  2  Z    0.000260  -0.004922  -0.008875   0.008280   0.013077
   21  H  3  S   -0.000063   0.068887  -0.280110  -0.108593   0.186524
   22  H  3  S    0.000338  -0.009869  -0.042638  -0.076183   0.097475
   23  H  3  X    0.000055  -0.001451  -0.006684   0.013767  -0.009700
   24  H  3  Y   -0.000363   0.014388  -0.033428  -0.010451   0.016174
   25  H  3  Z    0.000201  -0.003730   0.008969   0.015091   0.011308
   26  H  4  S   -0.000508   0.128966  -0.299444   0.247118  -0.016563
   27  H  4  S    0.000443   0.003615  -0.033813   0.106412  -0.023939
   28  H  4  X    0.000552  -0.022542   0.030715  -0.016178  -0.011622
   29  H  4  Y   -0.000269   0.013387   0.002156   0.018793  -0.009938
   30  H  4  Z    0.000368  -0.012613   0.018540  -0.005866   0.023366

                      6          7          8
                    0.3597     0.0278     0.0213
                     A          A          A   
    1  N  1  S   -0.033200  -0.013069  -0.171185
    2  N  1  S   -0.290905  -0.065681  -0.512705
    3  N  1  S   -0.542814  -0.062591   0.037408
    4  N  1  X   -0.040374  -0.697498   0.133912
    5  N  1  Y    0.290769  -0.003537  -0.818593
    6  N  1  Z   -0.313708  -0.308177  -0.130532
    7  N  1  X   -0.028754   0.065084   0.050050
    8  N  1  Y    0.180470   0.096710  -0.033259
    9  N  1  Z   -0.217598   0.042136   0.032740
   10  N  1 XX   -0.026279   0.012265   0.000389
   11  N  1 YY    0.040608  -0.046811  -0.019168
   12  N  1 ZZ   -0.014329   0.034547   0.018780
   13  N  1 XY   -0.018416  -0.025804  -0.002827
   14  N  1 XZ    0.006477   0.033720   0.014018
   15  N  1 YZ   -0.001555   0.002973   0.006966
   16  H  2  S    0.253396  -0.119671   0.830919
   17  H  2  S    0.121057  -0.053094   0.142935
   18  H  2  X    0.000107   0.010201   0.028779
   19  H  2  Y    0.000077   0.005141  -0.069773
   20  H  2  Z   -0.016722   0.007388   0.001638
   21  H  3  S    0.544569  -0.330417  -0.229932
   22  H  3  S    0.511558  -0.300339  -0.090665
   23  H  3  X    0.027128   0.039429  -0.011157
   24  H  3  Y   -0.018342  -0.011405  -0.002337
   25  H  3  Z    0.012547   0.025630  -0.010001
   26  H  4  S    0.135824   0.784007   0.038735
   27  H  4  S    0.051943   0.282768   0.038559
   28  H  4  X    0.005273  -0.038729  -0.006764
   29  H  4  Y   -0.055193   0.026843   0.033484
   30  H  4  Z    0.013612  -0.013581  -0.006635

          ------------------------
          MCSCF OPTIMIZED ORBITALS
          ------------------------

                      1          2          3          4          5
                  -16.0223     0.0000     0.0000     0.0000     0.0000
                     A          A          A          A          A   
    1  N  1  S    1.000901   0.009577   0.006409  -0.015031  -0.015269
    2  N  1  S   -0.003077   0.417167  -0.023636  -0.009523  -0.194963
    3  N  1  S   -0.007237   0.313188  -0.054208   0.044165  -0.256992
    4  N  1  X    0.001058   0.011975   0.455060   0.094296  -0.043655
    5  N  1  Y   -0.001790  -0.002912   0.012243   0.396492   0.044706
    6  N  1  Z    0.000584   0.063421  -0.020063  -0.006365   0.599487
    7  N  1  X    0.000016  -0.006156   0.317809   0.127074  -0.073338
    8  N  1  Y   -0.000594   0.001938   0.049309   0.203679   0.053895
    9  N  1  Z   -0.000474   0.016726  -0.012171   0.034114   0.379585
   10  N  1 XX   -0.000078  -0.004834   0.018065   0.005189  -0.007602
   11  N  1 YY    0.000316   0.007040  -0.020022  -0.006560  -0.003397
   12  N  1 ZZ   -0.000238  -0.002207   0.001956   0.001371   0.010999
   13  N  1 XY   -0.000287  -0.005299  -0.005909   0.000284   0.002222
   14  N  1 XZ    0.000207   0.002612   0.022589   0.007922   0.002162
   15  N  1 YZ   -0.000059  -0.002830   0.001129   0.015850  -0.005764
   16  H  2  S   -0.003320   0.196451  -0.244935   0.354120   0.107231
   17  H  2  S    0.000507   0.009808  -0.050557   0.036383   0.023660
   18  H  2  X   -0.000268   0.010473   0.010621   0.021334   0.001551
   19  H  2  Y    0.000962  -0.029797   0.025654  -0.037241  -0.010958
   20  H  2  Z    0.000260  -0.003022   0.005881  -0.005108   0.017058
   21  H  3  S   -0.000063   0.184378  -0.086937  -0.358677   0.119995
   22  H  3  S    0.000338   0.038775  -0.147265  -0.144713   0.038512
   23  H  3  X    0.000055   0.000641   0.021433   0.004611  -0.002206
   24  H  3  Y   -0.000363   0.023089   0.002379  -0.031234   0.012574
   25  H  3  Z    0.000201  -0.005516   0.002087   0.012110   0.014683
   26  H  4  S   -0.000508   0.200127   0.412589  -0.007306   0.121991
   27  H  4  S    0.000443   0.009740   0.129666   0.058335   0.030935
   28  H  4  X    0.000552  -0.029462  -0.024569   0.007981  -0.020373
   29  H  4  Y   -0.000269   0.007966   0.020448   0.024182   0.002755
   30  H  4  Z    0.000368  -0.014736  -0.027466   0.001001   0.013858

                      6          7          8          9         10
                    0.0000     0.0000     0.0000     0.1570     0.2107
                     A          A          A          A          A   
    1  N  1  S    0.088492  -0.059041   0.137945   0.055443   0.040673
    2  N  1  S    0.478219  -0.174029   0.344613   0.102419   0.047770
    3  N  1  S    0.533533   0.017359  -0.225466  -0.751886  -0.487609
    4  N  1  X    0.138332   0.771116   0.124891   0.079510  -0.031137
    5  N  1  Y   -0.005338  -0.280314   0.870938  -0.025099   0.186800
    6  N  1  Z    0.390350   0.166597   0.107981   0.097461   0.002547
    7  N  1  X   -0.018994   0.014539  -0.055744  -0.270734   0.294644
    8  N  1  Y   -0.180709  -0.071118   0.092079  -0.052134  -0.762716
    9  N  1  Z    0.170793  -0.068149  -0.114534  -0.150725   0.020907
   10  N  1 XX    0.020214  -0.010618  -0.013731   0.019902   0.035551
   11  N  1 YY   -0.018718   0.036733   0.046755  -0.058975  -0.072253
   12  N  1 ZZ   -0.001496  -0.026115  -0.033024   0.039073   0.036701
   13  N  1 XY    0.023957   0.019757   0.004058   0.075312   0.024367
   14  N  1 XZ   -0.019490  -0.021167  -0.019571  -0.047025   0.032839
   15  N  1 YZ   -0.001344   0.000894  -0.005862   0.032683  -0.069237
   16  H  2  S   -0.442649   0.438814  -0.545363  -0.398082  -0.516502
   17  H  2  S   -0.141282   0.111664  -0.055655   0.546009   1.912174
   18  H  2  X   -0.011407   0.004382  -0.025658   0.038554   0.032710
   19  H  2  Y    0.017541  -0.029281   0.055010  -0.063362  -0.137088
   20  H  2  Z    0.012066  -0.008021  -0.010428   0.030024  -0.053630
   21  H  3  S   -0.343217   0.239177   0.478315  -0.479409   0.209642
   22  H  3  S   -0.364272   0.266442   0.357819   0.150723  -0.458539
   23  H  3  X   -0.031871  -0.034394   0.007798  -0.073285   0.032141
   24  H  3  Y    0.020841   0.006174  -0.004729   0.012503  -0.031094
   25  H  3  Z   -0.015232  -0.026276   0.006695  -0.020668   0.057051
   26  H  4  S   -0.338507  -0.637586  -0.236512  -0.520189   0.219917
   27  H  4  S   -0.134110  -0.219630  -0.098515   1.351239  -0.754805
   28  H  4  X    0.006813   0.031261   0.021159  -0.044206   0.016519
   29  H  4  Y    0.033464  -0.013493  -0.056108   0.092316  -0.019283
   30  H  4  Z   -0.006989   0.006538   0.015517  -0.034394   0.046437

                     11         12         13         14         15
                    0.3070     0.5558     0.5858     0.6847     0.8730
                     A          A          A          A          A   
    1  N  1  S   -0.019882  -0.029499   0.031328  -0.007056  -0.651018
    2  N  1  S   -0.036276   0.025332   0.040510  -0.021421  -1.447532
    3  N  1  S    0.069596   0.466902  -0.343124   0.097779   2.441527
    4  N  1  X    0.010349  -0.417781  -0.568503  -0.194960  -0.010378
    5  N  1  Y   -0.071472  -0.143525   0.036820  -0.452981   0.226528
    6  N  1  Z   -0.038164  -0.536941   0.584691   0.342026   0.121844
    7  N  1  X    0.241566   1.064411   1.000183  -0.036601   0.120637
    8  N  1  Y    0.402683   0.060817  -0.549765   1.623124  -0.328132
    9  N  1  Z    0.129012   0.931068  -0.542277  -0.552535   0.039634
   10  N  1 XX    0.058343  -0.030139   0.021210  -0.053089  -0.026980
   11  N  1 YY   -0.082892   0.010770  -0.006462   0.002980  -0.009027
   12  N  1 ZZ    0.024549   0.019369  -0.014748   0.050109   0.036007
   13  N  1 XY   -0.018016   0.043418  -0.004340   0.057455   0.080395
   14  N  1 XZ    0.042165  -0.012924  -0.011426   0.013145   0.023895
   15  N  1 YZ    0.024076   0.001705   0.040383  -0.104106   0.025793
   16  H  2  S   -0.193265  -0.162220   0.384967  -0.600889  -0.128862
   17  H  2  S    0.101180   0.161141   0.439558  -0.472756  -0.498885
   18  H  2  X   -0.028226   0.082688   0.033737   0.028224   0.086824
   19  H  2  Y    0.009248   0.030061  -0.118100   0.141238   0.123156
   20  H  2  Z    0.006830   0.046840   0.050806  -0.141205   0.138495
   21  H  3  S   -0.747326   0.026962  -0.168282   0.483835  -0.032807
   22  H  3  S    2.327525   0.418051   0.400923   0.524313  -0.487751
   23  H  3  X    0.076939  -0.086364   0.047433  -0.116045  -0.165662
   24  H  3  Y    0.102992  -0.065772  -0.024055   0.193027  -0.144003
   25  H  3  Z    0.021093   0.039027  -0.151256   0.126107   0.128744
   26  H  4  S    0.517081  -0.612299  -0.173208   0.087952  -0.067994
   27  H  4  S   -2.076677  -0.748099  -0.483286  -0.039247  -0.323713
   28  H  4  X    0.105331   0.068371   0.096689  -0.209158   0.123344
   29  H  4  Y    0.109700  -0.057964  -0.045232   0.049525   0.103406
   30  H  4  Z    0.034207   0.118199  -0.075062   0.104754   0.225725

                     16         17         18         19         20
                    1.0500     1.1312     1.2271     1.3183     1.4399
                     A          A          A          A          A   
    1  N  1  S   -0.262240  -0.064433  -0.001037  -0.202847  -0.308840
    2  N  1  S   -0.546490  -0.102368   0.010731  -0.430675  -0.689659
    3  N  1  S    1.176569   0.367526   0.091221   0.756860   0.864750
    4  N  1  X   -0.015323   0.026448   0.124593   0.032984  -0.048962
    5  N  1  Y   -0.250251  -0.033712  -0.162568   0.102380   0.123707
    6  N  1  Z   -0.040663   0.064432   0.014604  -0.007328  -0.153571
    7  N  1  X   -0.146635   0.217829  -0.647982   0.059343   0.276461
    8  N  1  Y    1.205515  -0.108071   0.596903  -0.266165  -0.079743
    9  N  1  Z    0.286876  -0.213867  -0.050208   0.339900   0.503204
   10  N  1 XX    0.185682  -0.138044  -0.078703   0.071433  -0.181676
   11  N  1 YY   -0.071594  -0.131147   0.101379   0.009654   0.075516
   12  N  1 ZZ   -0.114088   0.269191  -0.022676  -0.081087   0.106159
   13  N  1 XY   -0.095703  -0.157567   0.139525   0.024875  -0.158564
   14  N  1 XZ   -0.108567  -0.090439   0.187409  -0.279521  -0.024747
   15  N  1 YZ    0.013604   0.087097   0.136768  -0.204671  -0.040211
   16  H  2  S   -0.744492   0.029632  -0.373645  -0.032425  -0.200282
   17  H  2  S   -0.499652  -0.012464  -0.183071  -0.034858  -0.065485
   18  H  2  X   -0.337587  -0.167006   0.675348   0.268226  -0.172195
   19  H  2  Y   -0.047429  -0.119016   0.120365   0.121155  -0.092639
   20  H  2  Z    0.171694   0.458999   0.255514  -0.243528  -0.487849
   21  H  3  S    0.395822  -0.180420   0.111027  -0.472615  -0.352393
   22  H  3  S    0.101357   0.007169   0.038937   0.074304   0.168069
   23  H  3  X    0.184377   0.348024   0.344135   0.025332   0.304376
   24  H  3  Y   -0.210086  -0.006341  -0.085985   0.334794   0.125552
   25  H  3  Z   -0.199401   0.337361  -0.376252   0.298324  -0.602330
   26  H  4  S   -0.091478  -0.257697   0.214066  -0.219581  -0.405694
   27  H  4  S   -0.153250  -0.051656   0.094277  -0.147622  -0.119693
   28  H  4  X    0.178939  -0.268266   0.001943   0.228117  -0.318203
   29  H  4  Y   -0.078616  -0.285345  -0.166995  -0.564904  -0.029511
   30  H  4  Z   -0.466582   0.253239  -0.000795  -0.320077   0.270948

                     21         22         23         24         25
                    1.6015     1.6512     1.8666     1.9024     2.1263
                     A          A          A          A          A   
    1  N  1  S    0.095744   0.062283   0.150913  -0.002246   0.059338
    2  N  1  S    0.151006   0.253311   0.335149   0.015528   0.084512
    3  N  1  S   -0.595745   0.580999   0.107878   0.023357  -0.609075
    4  N  1  X    0.134633   0.226243  -0.139385   0.059041  -0.033672
    5  N  1  Y   -0.090178  -0.249919   0.479869  -0.136189  -0.077974
    6  N  1  Z   -0.032695   0.243462   0.016617   0.030332  -0.045747
    7  N  1  X   -0.078778   0.200738  -0.197464  -0.185466  -0.364575
    8  N  1  Y    0.830020  -0.116380   0.316948  -0.099459  -0.132536
    9  N  1  Z   -0.339460   0.228639  -0.026031   0.183747  -0.322844
   10  N  1 XX   -0.207593   0.022221  -0.079401  -0.617288   0.413278
   11  N  1 YY    0.140467  -0.015420  -0.182044  -0.169282  -0.216012
   12  N  1 ZZ    0.067126  -0.006801   0.261445   0.786569  -0.197266
   13  N  1 XY   -0.005844   0.125707   0.097017  -0.407235  -0.488787
   14  N  1 XZ   -0.147190  -0.286218  -0.124918  -0.000479  -0.628125
   15  N  1 YZ   -0.113668  -0.010481  -0.311765  -0.015673  -0.241074
   16  H  2  S   -0.261401  -0.041109  -0.090117  -0.003445   0.175741
   17  H  2  S    0.003083   0.024641  -0.471729   0.055307   0.098567
   18  H  2  X   -0.129438  -0.195634  -0.236904   0.280969   0.658440
   19  H  2  Y   -0.377981   0.120660   0.946581  -0.027028  -0.073224
   20  H  2  Z    0.489991  -0.326925   0.360056  -0.271475   0.151770
   21  H  3  S    0.220366  -0.042868   0.033704  -0.003037  -0.039574
   22  H  3  S    0.516173  -0.162247   0.059645  -0.211998  -0.221113
   23  H  3  X   -0.508043   0.182557  -0.001069  -0.186502  -0.192489
   24  H  3  Y    0.502629  -0.471121   0.060404  -0.317840  -0.307417
   25  H  3  Z   -0.428651  -0.087321  -0.398171   0.060516  -0.147885
   26  H  4  S    0.470644   0.041091   0.085061   0.138738   0.448006
   27  H  4  S   -0.257891  -0.430742   0.201823   0.053055   0.336260
   28  H  4  X    0.245917   0.505911  -0.108843   0.276897  -0.483532
   29  H  4  Y   -0.197125  -0.313021   0.011199  -0.010434   0.242573
   30  H  4  Z    0.189281   0.637029  -0.109817  -0.375650   0.180637

                     26         27         28         29
                    2.2986     2.4538     2.6550     2.9663
                     A          A          A          A   
    1  N  1  S    0.065369   0.100439  -0.132584  -0.108266
    2  N  1  S    0.093025   0.217066  -0.143967  -0.091212
    3  N  1  S   -0.527244   0.252052   1.428134   1.613671
    4  N  1  X    0.018982  -0.047098   0.197657  -0.185585
    5  N  1  Y    0.008582   0.327127  -0.034617   0.286432
    6  N  1  Z   -0.039381   0.075969   0.191736   0.110948
    7  N  1  X   -0.285057  -0.272137   0.610272  -0.238012
    8  N  1  Y   -0.200049   1.089179  -0.493596   0.442501
    9  N  1  Z   -0.209401  -0.037479   0.430338   0.177884
   10  N  1 XX   -0.286173   0.129309   0.297323  -0.750536
   11  N  1 YY    0.225686   0.000372  -0.032726   1.395669
   12  N  1 ZZ    0.060488  -0.129681  -0.264597  -0.645133
   13  N  1 XY    0.153105  -0.510679  -0.775596  -0.394418
   14  N  1 XZ   -0.359600  -0.178970   0.748527  -0.153878
   15  N  1 YZ   -0.240360   0.923920  -0.602861  -0.022752
   16  H  2  S    0.159011  -0.862839  -0.123328  -1.278890
   17  H  2  S    0.137122  -0.404112   0.027387  -0.382730
   18  H  2  X    0.094679  -0.026047   0.090198  -0.377362
   19  H  2  Y   -0.160370   0.837649   0.185381   0.959934
   20  H  2  Z    0.128006  -0.136274   0.233715   0.334780
   21  H  3  S    0.675346   0.765496  -0.019795  -0.731311
   22  H  3  S    0.166802   0.425595   0.026847  -0.179787
   23  H  3  X    0.998059   0.031291   0.290249  -0.089349
   24  H  3  Y    0.550843   0.823483   0.090107  -0.816734
   25  H  3  Z    0.264270  -0.074952   0.139098   0.342085
   26  H  4  S   -0.385594  -0.192577  -1.259487   0.407160
   27  H  4  S   -0.096150  -0.153102  -0.522676   0.045005
   28  H  4  X    0.579946   0.355277   0.996426  -0.355570
   29  H  4  Y    1.170714   0.219816  -0.187160  -0.067492
   30  H  4  Z   -0.049687   0.151433   0.646817  -0.162222
 .....DONE WITH MCSCF ITERATIONS.....
 CPU     0: STEP CPU TIME=    10.53 TOTAL CPU TIME=         11.5 (      0.2 MIN)
 TOTAL WALL CLOCK TIME=         11.6 SECONDS, CPU UTILIZATION IS   100.00%

     ----------------------------------------------------------------
     PROPERTY VALUES FOR THE MCSCF SELF-CONSISTENT FIELD WAVEFUNCTION
     ----------------------------------------------------------------

          -----------------
          ENERGY COMPONENTS
          -----------------

         WAVEFUNCTION NORMALIZATION =       1.0000000000

                ONE ELECTRON ENERGY =     -92.7819833642
                TWO ELECTRON ENERGY =      26.4160908172
           NUCLEAR REPULSION ENERGY =      10.6971089267
                                      ------------------
                       TOTAL ENERGY =     -55.6687836203

 ELECTRON-ELECTRON POTENTIAL ENERGY =      26.4160908172
  NUCLEUS-ELECTRON POTENTIAL ENERGY =    -148.4678700968
   NUCLEUS-NUCLEUS POTENTIAL ENERGY =      10.6971089267
                                      ------------------
             TOTAL POTENTIAL ENERGY =    -111.3546703528
               TOTAL KINETIC ENERGY =      55.6858867326
                 VIRIAL RATIO (V/T) =       1.9996928645

          ---------------------------------------
          MULLIKEN AND LOWDIN POPULATION ANALYSES
          ---------------------------------------

     ATOMIC MULLIKEN POPULATION IN EACH MOLECULAR ORBITAL

                      1          2          3          4          5

                  2.000000   1.979617   1.962014   1.544322   1.105232

    1             2.000439   1.465567   0.894191   1.308144   0.997438
    2            -0.000388   0.350555   0.264156   0.026035   0.024105
    3             0.000006   0.038411   0.395332   0.056094   0.074942
    4            -0.000057   0.125083   0.408335   0.154048   0.008747

                      6          7          8

                  0.359671   0.027824   0.021320

    1             0.103699   0.011929   0.010969
    2             0.032519   0.000255   0.009441
    3             0.199567   0.002955   0.000798
    4             0.023886   0.012685   0.000111
 WARNING! MCSCF POPULATIONS SHOWN ABOVE ARE FOR THE NATURAL ORBITALS.
 IGNORE THE ABOVE DATA FOR MCSCF FUNCTIONS WHICH ARE NOT OF -FORS- TYPE.
 THE FOLLOWING POPULATIONS ARE CORRECT FOR ANY MCSCF WAVEFUNCTION.

               ----- POPULATIONS IN EACH AO -----
                             MULLIKEN      LOWDIN
              1  N  1  S      2.00201     1.90673
              2  N  1  S      0.85318     0.61236
              3  N  1  S      0.71164     0.42359
              4  N  1  X      0.71053     0.65568
              5  N  1  Y      0.75089     0.65838
              6  N  1  Z      0.66769     0.62817
              7  N  1  X      0.38107     0.43698
              8  N  1  Y      0.31334     0.44714
              9  N  1  Z      0.38690     0.42075
             10  N  1 XX      0.00076     0.16008
             11  N  1 YY      0.00567     0.19022
             12  N  1 ZZ      0.00161     0.15380
             13  N  1 XY      0.00358     0.00593
             14  N  1 XZ      0.00349     0.00694
             15  N  1 YZ      0.00000     0.00870
             16  H  2  S      0.61412     0.48556
             17  H  2  S      0.04045     0.16724
             18  H  2  X      0.00971     0.02527
             19  H  2  Y      0.03509     0.06885
             20  H  2  Z      0.00730     0.02113
             21  H  3  S      0.56591     0.42862
             22  H  3  S      0.15614     0.21163
             23  H  3  X      0.00926     0.03335
             24  H  3  Y      0.02882     0.06635
             25  H  3  Z      0.00798     0.02013
             26  H  4  S      0.60733     0.45260
             27  H  4  S      0.06448     0.16907
             28  H  4  X      0.02682     0.04966
             29  H  4  Y      0.01947     0.05566
             30  H  4  Z      0.01473     0.02945

          ----- MULLIKEN ATOMIC OVERLAP POPULATIONS -----
          (OFF-DIAGONAL ELEMENTS NEED TO BE MULTIPLIED BY 2)

             1           2           3           4

    1    6.2939623
    2    0.3020468   0.3985983
    3    0.0013079   0.0087018   0.6725078
    4    0.1950604  -0.0026689   0.0855882   0.4548591

          TOTAL MULLIKEN AND LOWDIN ATOMIC POPULATIONS
       ATOM         MULL.POP.    CHARGE          LOW.POP.     CHARGE
    1 N             6.792377    0.207623         6.715444    0.284556
    2 H             0.706678    0.293322         0.768043    0.231957
    3 H             0.768106    0.231894         0.760069    0.239931
    4 H             0.732839    0.267161         0.756444    0.243556

          MULLIKEN SPHERICAL HARMONIC POPULATIONS
       ATOM           S       P       D      F      G      H      I    TOTAL
    1 N             3.57    3.21    0.02   0.00   0.00   0.00   0.00    6.79
    2 H             0.65    0.05    0.00   0.00   0.00   0.00   0.00    0.71
    3 H             0.72    0.05    0.00   0.00   0.00   0.00   0.00    0.77
    4 H             0.67    0.06    0.00   0.00   0.00   0.00   0.00    0.73

          ---------------------
          ELECTROSTATIC MOMENTS
          ---------------------

 POINT   1           X           Y           Z (BOHR)    CHARGE
                 0.000004   -0.000004   -0.177185        1.00 (A.U.)
         DX          DY          DZ         /D/  (DEBYE)
     0.912688   -0.200131    1.591324    1.845362
 ...... END OF PROPERTY EVALUATION ......
 CPU     0: STEP CPU TIME=     0.00 TOTAL CPU TIME=         11.5 (      0.2 MIN)
 TOTAL WALL CLOCK TIME=         11.6 SECONDS, CPU UTILIZATION IS    99.91%

     -------------------------------------------------
     GMC-PT/GMC-QDPT or general MCSCF input parameters
     -------------------------------------------------
 # of frozen core orbs. =         0 ->         0
 # of doubly occ. orbs. =         1
 # of active      orbs. =         7
 # of virtual     orbs. =        21
 # of active electrons  =         7
 # of states in CI      =         3
 Highest state in CI    =         3
 kstate =  1 1 1
 avecoe =  0.333 0.333 0.333
 State symmetry           = A           
 Assigned symmetry number = 1

 <<<Act. MO sym.: 1111111

 <<<Division of 1-ext.:  0
 <<<Division of 2-ext.:  0

     ------------------------
     Orbital canonicalization
     ------------------------

 MOs are canonicalized for core, virtual, and invariant-active orbital spaces.
 This is a part of the GMC-QDPT calculation.
 SCHWARZ INEQUALITY OVERHEAD:       465 INTEGRALS, T=        0.00
 DIRECT TRANSFORMATION SKIPS AO INTEGRAL STORAGE ON DISK.

 Averaged energy =     -55.668783620

 State #    1  Energy =     -55.780273051  S =  0.500
 State #    2  Energy =     -55.708669178  S =  0.500
 State #    3  Energy =     -55.517408632  S =  0.500

 Orbital energies for filled orbital space
  -16.022280
 Orbital energies for active orbital space
   -1.490539  -0.758080  -1.089292  -0.605879  -0.213434
    0.202884   0.375217
 Orbital energies for external orbital space
    0.157024   0.210664   0.307044   0.555776   0.585767
    0.684706   0.872973   1.049962   1.131169   1.227060
    1.318302   1.439852   1.601478   1.651225   1.866554
    1.902387   2.126329   2.298650   2.453792   2.654953
    2.966271

 Zero values mean non-canonical orbitals.
 ... done with orbital canonicalization ...
 CPU     0: STEP CPU TIME=     0.55 TOTAL CPU TIME=         12.1 (      0.2 MIN)
 TOTAL WALL CLOCK TIME=         12.1 SECONDS, CPU UTILIZATION IS    99.92%

     --------------------------------------------
     PARTIAL TWO ELECTRON INTEGRAL TRANSFORMATION
     --------------------------------------------

 NUMBER OF CORE MOLECULAR ORBITALS     =    0
 NUMBER OF OCCUPIED MOLECULAR ORBITALS =    8
 TOTAL NUMBER OF MOLECULAR ORBITALS    =   29
 TOTAL NUMBER OF ATOMIC ORBITALS       =   30
 THRESHOLD FOR KEEPING TRANSFORMED 2E- INTEGRALS = 1.000E-09
 AO INTEGRALS WILL BE CALCULATED IN DIRECT MODE...
 DIRECT TRANSFORMATION SKIPS AO INTEGRAL STORAGE ON DISK.
 SCHWARZ INEQUALITY OVERHEAD:       465 INTEGRALS, T=        0.00

 PLAN A: REQUIREMENTS FOR FULLY IN-MEMORY TRANSFORMATION:
 # OF WORDS AVAILABLE =            100000000
 # OF WORDS NEEDED    =               221798

 PARALLEL ONLY WORKS WITH THE SEGMENTED ALGORITHM.
 ADJUSTING MEMORY TO USE SEGMENTED ALGORITHM.


 PLAN B: REQUIREMENTS FOR THE SEGMENTED TRANSFORMATION:
       MINIMUM=         124148 WORDS FOR 1 MOLECULAR ORBITAL PER PASS
       MAXIMUM=         221798 WORDS FOR ALL MOLECULAR ORBITALS IN 1 PASS
              (          13950 EXTRA WORDS INCLUDES 1 EXTRA ORBITAL/PASS)
 THIS RUN USES=         221798 WORDS,
 DISTRIBUTING   1 PASSES EACH CONTAINING     8 ORBITALS OVER   1 PROCESSORS.

 CHOOSING SEGMENTED PARTIAL TRANSFORMATION...
 DIRECT TRANSFORMATION SKIPS AO INTEGRAL STORAGE ON DISK.
 PASS #   1 TOOK        0.05 SECONDS.
 TOTAL NUMBER OF TRANSFORMED 2E- INTEGRALS KEPT =        29226
 ... END OF INTEGRAL TRANSFORMATION ...
 CPU     0: STEP CPU TIME=     0.05 TOTAL CPU TIME=         12.1 (      0.2 MIN)
 TOTAL WALL CLOCK TIME=         12.2 SECONDS, CPU UTILIZATION IS    99.92%

     --------     ------------------------------------------
     GMC-QDPT     Program written by H.Nakano (Kyushu Univ.)
     --------     ------------------------------------------

 *** Reference space

 Reference type: ORMAS (= Occupation restricted multiple active space)
 # of orbitals          =  7
 # of minimum electrons =  7
 # of maximum electrons =  7
 State symmetry    =    1 (input)
 2*Sz              =    1 (input)
 Spin multiplicity =    2 (input)
 Dimension of reference space =      1225  (from      3432 walks)

 Dimension of reference space =      1225  (from      1225 walks)

 <<<Ionized spaces for Ref-CI:
      0:         1225 /   -1-0:         1960 /  0-1-0:         2891

 ***                    ***
 *** Reference space CI ***
 ***                    ***

 Converged after   25 iterations

 Reference wavefunctions:

 State #    1  Energy =     -55.780273051  S =  0.500

      Det      Coef    Occupancy (Ignoring core)
      ---      ----    --------- --------- -----
        1    0.950465  11110001110000
       71    0.208480  11110001011000
      106    0.055486  11110000111000
      143    0.054845  11011001100100
      393    0.075896  10110101010010

 State #    2  Energy =     -55.708669178  S =  0.500

      Det      Coef    Occupancy (Ignoring core)
      ---      ----    --------- --------- -----
        1    0.212155  11110001110000
       71   -0.952893  11110001011000
      177    0.060609  11101001010100
      248    0.057472  11011001001100
      822    0.050068  11010011001001

 State #    3  Energy =     -55.517408632  S =  0.500

      Det      Coef    Occupancy (Ignoring core)
      ---      ----    --------- --------- -----
        2   -0.821967  11101001110000
        4   -0.205192  10111001110000
       11    0.057485  10101101110000
       72    0.175517  11101001011000
       74    0.183111  10111001011000
      107    0.063619  11101000111000
      110    0.051339  01111000111000
      142    0.068310  11101001100100
      176    0.380709  11110001010100
      211    0.058431  11110000110100

 Davidson method: CPU/Wall time =           0.39 /           0.39 sec.

 Oscillator strength (invalid if E(1)/=E(GS)):
 -----------------------------------------
   State                        f
 -----------------------------------------
     2     F(REF-CI)=        0.0013752815
     3     F(REF-CI)=        0.0021633105
 -----------------------------------------

 Dipole moment matrix elements, x, y, z, in A.U.

 Dimension of ionized spaces for PT:
 (N-2) space:         1715 /  (N-1) space:         2842 /  N space:         2891
 (N+1) space:         2842 /  (N+2) space:         1715

 <<<Ionized spaces for internal:
         0:         1225 /      -1-0:         1960 /     0-1-0:         2891
  -1-0-1-0:         2842 / 0-1-0-1-0:         3381

 Diagonal elements of averaged one-particle density matrix:
       2       3       4       5       6       7       8
  0.9923  0.9601  0.9842  0.7448  0.2901  0.0170  0.0114
  0.9847  0.5850  0.9788  0.3604  0.0693  0.0112  0.0105

 Orbital energies:
 -------- Doubly-occupied orbitals (highest several orbs.) -------
             1
 -1.602228D+01
 -------- Active orbitals ----------------------------------------
             2            3            4            5            6
 -1.490539D+00-7.580801D-01-1.089292D+00-6.058794D-01-2.134342D-01
             7            8
  2.028843D-01 3.752169D-01
 -------- External orbitals (lowest several orbs.) ---------------
             9           10           11           12           13
  1.570237D-01 2.106645D-01 3.070439D-01 5.557761D-01 5.857669D-01
            14           15           16           17           18
  6.847062D-01 8.729727D-01 1.049962D+00 1.131169D+00 1.227060D+00

 *** Quasi-degeneracy checking

 === Det (|Ci| > 1.0D-01 and dE < 5.0D-03)

 # of small denominators (single excitations)
 State       dEmin  dE < 5.0D-03  dE < 5.0D-04  dE < 5.0D-05  dE < 5.0D-06
 ----- ----------- ------------- ------------- ------------- -------------
     1    5.00D-03             0             0             0             0
     2    5.00D-03             0             0             0             0
     3    5.00D-03             0             0             0             0

 # of small denominators (double excitations)
 State       dEmin  dE < 5.0D-03  dE < 5.0D-04  dE < 5.0D-05  dE < 5.0D-06
 ----- ----------- ------------- ------------- ------------- -------------
     1    5.00D-03             0             0             0             0
     2    5.00D-03             0             0             0             0
     3    5.00D-03             0             0             0             0

 *** Zeroth-Order Setup (Granovsky's zeroth-order vectors)
 Zeroth-order effective Hamiltonian
  (= Sum_i e(i)*<I|a+(i)a(i)|J> ):
                   1            2            3
     1 -7.172167D+00
     2 -3.479952D-02-7.051011D+00
     3 -2.728538D-02 6.143798D-03-6.743618D+00

 Zeroth-order vectors:
 State #    1
       MC st            1           2           3
       Coeff    9.660D-01   2.523D-01   5.648D-02
 State #    2
       MC st            2           1           3
       Coeff    9.673D-01  -2.502D-01  -4.275D-02
 State #    3
       MC st            3           1           2
       Coeff    9.975D-01  -6.542D-02   2.717D-02

 *** GMC-QDPT computation

 (Integral reading:  CPU/Wall time =           0.00 /           0.00 sec.)

 One-external:
   0 -ionized terms: CPU/Wall time =           0.03 /           0.03 sec.
 (-1)-ionized terms: CPU/Wall time =           0.09 /           0.09 sec.
 (+1)-ionized terms: CPU/Wall time =           0.02 /           0.02 sec.
 (+1)-ionized terms: CPU/Wall time =           0.01 /           0.01 sec.
 (+2)-ionized terms: CPU/Wall time =           0.00 /           0.00 sec.

 Internal:
 # of macro loops for internal contribution =         1 (input)
 Loop:    1
 Dimension of internal CISD space     =         0  (after screening)
 Space construction: CPU/Wall time =           0.02 /           0.02 sec.
 Internal terms:     CPU/Wall time =           0.00 /           0.00 sec.

 Two-external:
   0 -ionized terms: CPU/Wall time =           0.06 /           0.06 sec.
 (-1)-ionized terms: CPU/Wall time =           1.00 /           1.00 sec.
 (-2)-ionized terms: CPU/Wall time =           0.17 /           0.17 sec.

 Total time:         CPU/Wall time =           1.40 /           1.40 sec.

 ***                  ***
 *** GMC-QDPT Results ***
 ***                  ***

 Diagonal elements of effective Hamiltonian:
 Heff(  1) =   -55.88114895
 Heff(  2) =   -55.83014404
 Heff(  3) =   -55.63106818

 Off-diagonal elements of effective Hamiltonian:
                   1            2
     2  1.264986D-02
     3  1.618049D-02-7.060831D-03

 ******** GMC-QDPT energies ********
 ----------------------------------------------------------------------------
   State                        1st order                           2nd order
 ----------------------------------------------------------------------------
     1     E(REF-CI)=      -55.7802730510   E(GMC-QDPT2)=      -55.8853007967
     2     E(REF-CI)=      -55.7086691779   E(GMC-QDPT2)=      -55.8272293297
     3     E(REF-CI)=      -55.5174086319   E(GMC-QDPT2)=      -55.6298310306
 ----------------------------------------------------------------------------

 Excitation energies (invalid if E(1)/=E(GS)):
 ----------------------------------------------------------------------------
   State                        1st order                           2nd order
 ----------------------------------------------------------------------------

     TZ Sorted GMC-PT ENERGIES:
         1      -55.8853007967
         2      -55.8272293297
         3      -55.6298310306
     2     E(REF-CI)=        1.9484416 eV   E(GMC-QDPT2)=        1.5802059 eV
     3     E(REF-CI)=        7.1529089 eV   E(GMC-QDPT2)=        6.9516900 eV
 ----------------------------------------------------------------------------

 Main characters of perturbed GMC-QDPT states:

 State #    1  Energy =     -55.885300797  S =  0.500

      Det      Coef    Occupancy (Ignoring core)
      ---      ----    --------- --------- -----
        1    0.954230  11110001110000
       71    0.189980  11110001011000
      106    0.054974  11110000111000
      143    0.055179  11011001100100
      393    0.075926  10110101010010

 State #    2  Energy =     -55.827229330  S =  0.500

      Det      Coef    Occupancy (Ignoring core)
      ---      ----    --------- --------- -----
        1    0.193133  11110001110000
       71   -0.956901  11110001011000
      177    0.060491  11101001010100
      248    0.057812  11011001001100
      822    0.050264  11010011001001

 State #    3  Energy =     -55.629831031  S =  0.500

      Det      Coef    Occupancy (Ignoring core)
      ---      ----    --------- --------- -----
        1    0.050832  11110001110000
        2   -0.821660  11101001110000
        4   -0.205348  10111001110000
       11    0.057592  10101101110000
       72    0.175465  11101001011000
       74    0.183395  10111001011000
      107    0.063375  11101000111000
      110    0.051331  01111000111000
      142    0.068444  11101001100100
      176    0.380813  11110001010100
      211    0.058263  11110000110100

 <<<Max |V/de| = 7.756D-02  Thresh = 1.000D+00

 Oscillator strength (invalid if E(1)/=E(GS)):
 ----------------------------------------------------------------------------
   State                        1st order                           2nd order
 ----------------------------------------------------------------------------
     2     F(REF-CI)=        0.0013752815     F(GMC-PT2)=        0.0012017408
     3     F(REF-CI)=        0.0021633105     F(GMC-PT2)=        0.0020361357
 ----------------------------------------------------------------------------

 Dipole moment matrix elements, x, y, z, in A.U.
States    1    1        0.2863363394       -0.3499687288        0.5833577195
States    1    2       -0.0142627106        0.0326506576       -0.1725449631
States    1    3        0.0057253003       -0.0476884839        0.0982256290
States    2    1       -0.0142627106        0.0326506576       -0.1725449631
States    2    2        0.4318700868       -0.1896898739        0.3531191853
States    2    3        0.0153050374       -0.1367837574        0.0738493780
States    3    1        0.0057253003       -0.0476884839        0.0982256290
States    3    2        0.0153050374       -0.1367837574        0.0738493780
States    3    3        0.4021882934       -1.1066406108        0.9978529072

 Oscillator strength (valid only when positive): 
 ----------------------------------------------------------------------------
  States                        1st order                           2nd order
 ----------------------------------------------------------------------------
  1  1     F(REF-CI)=        0.0000000000     F(GMC-PT2)=        0.0000000000
  1  2     F(REF-CI)=       -0.0013752815     F(GMC-PT2)=       -0.0012017408
  1  3     F(REF-CI)=       -0.0021633105     F(GMC-PT2)=       -0.0020361357
  2  1     F(REF-CI)=        0.0013752815     F(GMC-PT2)=        0.0012017408
  2  2     F(REF-CI)=        0.0000000000     F(GMC-PT2)=        0.0000000000
  2  3     F(REF-CI)=       -0.0037860172     F(GMC-PT2)=       -0.0032107190
  3  1     F(REF-CI)=        0.0021633105     F(GMC-PT2)=        0.0020361357
  3  2     F(REF-CI)=        0.0037860172     F(GMC-PT2)=        0.0032107190
  3  3     F(REF-CI)=        0.0000000000     F(GMC-PT2)=        0.0000000000
 CPU     0: STEP CPU TIME=     1.85 TOTAL CPU TIME=         14.0 (      0.2 MIN)
 TOTAL WALL CLOCK TIME=         14.0 SECONDS, CPU UTILIZATION IS    99.93%

     !!! DIABATIZATION FOR REF CI STATES !!!

 *******************************************************
          $DMO GROUP FOUND IN THE INPUT.
        DIABATIZATION OF ADIABATIC STATES BEGINS.
     PROGRAMMED BY TAO ZENG (CARLETON UNIVERSITY).
               Email: toby.zeng@carleton.ca
     See T. Zeng, J. Chem. Phys. 2017, 146, 144103
 *******************************************************

 *************************************************************************
     STEP 1: TRANSFORMATION OF ADIABATIC STATES TO THE DMO REPRESENTATION
         See Atchity and Ruedenberg, J. Chem. Phys. 1999, 111, 2910
 *************************************************************************

Read in Diabatic Molecualr Orbitals:

                      1          2          3          4          5

    1  N  1  S    0.008609   0.000000   0.000000  -0.013219   0.279491
    2  N  1  S    0.442914  -0.000000   0.000000  -0.184329   0.867803
    3  N  1  S    0.276913   0.000000  -0.000000  -0.288315   0.144236
    4  N  1  X   -0.000000   0.493155  -0.024636  -0.000000  -0.000000
    5  N  1  Y    0.000000   0.024636   0.493155  -0.000000   0.000000
    6  N  1  Z    0.090197   0.000000   0.000000   0.593421   0.705309
    7  N  1  X   -0.000000   0.210628  -0.010522   0.000000   0.000000
    8  N  1  Y    0.000000   0.010522   0.210628  -0.000000  -0.000000
    9  N  1  Z   -0.004381   0.000000   0.000000   0.381592  -0.106092
   10  N  1 XX   -0.000457   0.010719  -0.000535  -0.012387   0.006153
   11  N  1 YY   -0.000457  -0.010719   0.000535  -0.012387   0.006153
   12  N  1 ZZ    0.000914  -0.000000   0.000000   0.024773  -0.012306
   13  N  1 XY    0.000000  -0.000618  -0.012377  -0.000000   0.000000
   14  N  1 XZ   -0.000000   0.026529  -0.001325  -0.000000   0.000000
   15  N  1 YZ    0.000000   0.001325   0.026529  -0.000000   0.000000
   16  H  2  S    0.194462  -0.176074   0.343485   0.112865  -0.523343
   17  H  2  S    0.003574  -0.023812   0.046452   0.024014  -0.054445
   18  H  2  X    0.018760   0.009101   0.022834   0.009336  -0.039151
   19  H  2  Y   -0.032493   0.022287  -0.020044  -0.016171   0.067811
   20  H  2  Z   -0.009251   0.008464  -0.016511   0.018769  -0.010566
   21  H  3  S    0.194462  -0.209430  -0.324227   0.112865  -0.523343
   22  H  3  S    0.003574  -0.028322  -0.043847   0.024014  -0.054445
   23  H  3  X    0.018760   0.006781  -0.023627   0.009336  -0.039151
   24  H  3  Y    0.032493  -0.024174  -0.017723   0.016171  -0.067811
   25  H  3  Z   -0.009251   0.010067   0.015585   0.018769  -0.010566
   26  H  4  S    0.194462   0.385503  -0.019258   0.112865  -0.523343
   27  H  4  S    0.003574   0.052134  -0.002604   0.024014  -0.054445
   28  H  4  X   -0.037519  -0.032295   0.001613  -0.018672   0.078302
   29  H  4  Y    0.000000   0.001067   0.021353  -0.000000   0.000000
   30  H  4  Z   -0.009251  -0.018530   0.000926   0.018769  -0.010566

                      6          7

    1  N  1  S    0.000000  -0.000000
    2  N  1  S    0.000000  -0.000000
    3  N  1  S   -0.000000   0.000000
    4  N  1  X   -0.930415  -0.002083
    5  N  1  Y   -0.002083   0.930415
    6  N  1  Z   -0.000000   0.000000
    7  N  1  X   -0.046866  -0.000105
    8  N  1  Y   -0.000105   0.046866
    9  N  1  Z   -0.000000   0.000000
   10  N  1 XX    0.001538   0.000003
   11  N  1 YY   -0.001538  -0.000003
   12  N  1 ZZ   -0.000000   0.000000
   13  N  1 XY   -0.000004   0.001776
   14  N  1 XZ    0.039985   0.000090
   15  N  1 YZ    0.000090  -0.039985
   16  H  2  S   -0.362630  -0.631354
   17  H  2  S   -0.065964  -0.114846
   18  H  2  X    0.002763  -0.037520
   19  H  2  Y    0.037435   0.040736
   20  H  2  Z    0.001882   0.003276
   21  H  3  S   -0.365454   0.629724
   22  H  3  S   -0.066477   0.114549
   23  H  3  X    0.002595   0.037532
   24  H  3  Y   -0.037617   0.040567
   25  H  3  Z    0.001896  -0.003268
   26  H  4  S    0.728084   0.001630
   27  H  4  S    0.132441   0.000297
   28  H  4  X   -0.062317  -0.000140
   29  H  4  Y    0.000055  -0.024345
   30  H  4  Z   -0.003778  -0.000008

NUMBER OF SUB ACTIVE SPACES:   1
ROTATE ACTIVE MOS TO DMOS IN EACH SUB-SPACE

SPACE  1:

OVERLAP BETWEEN ORTHONORMAL AND PRE-ORTHONORMAL REF. DMOS

             1           2           3           4           5

    1    0.9652254   0.0293378  -0.0063989  -0.0126800  -0.0038812
    2    0.0293378   0.8545324  -0.0795158   0.0410298  -0.0599372
    3   -0.0063989  -0.0795158   1.0132849  -0.0296560   0.0718992
    4   -0.0126800   0.0410298  -0.0296560   0.9903970  -0.0145666
    5   -0.0038812  -0.0599372   0.0718992  -0.0145666   1.2211015
    6    0.0041894  -0.0985748  -0.0912158   0.0496465  -0.0098810
    7   -0.0004077   0.0622602  -0.0367005   0.0546171  -0.1084416

             6           7

    1    0.0041894  -0.0004077
    2   -0.0985748   0.0622602
    3   -0.0912158  -0.0367005
    4    0.0496465   0.0546171
    5   -0.0098810  -0.1084416
    6    1.0707438   0.0126951
    7    0.0126951   1.0626085
REFERENCE DMOS AFTER ORTHONORMALIZATION:

                      1          2          3          4          5

    1  N  1  S    0.009175   0.013810  -0.014653  -0.012213   0.232371
    2  N  1  S    0.458064   0.034582  -0.046900  -0.177410   0.721592
    3  N  1  S    0.283117   0.010990  -0.012146  -0.288633   0.119236
    4  N  1  X   -0.010983   0.477609  -0.063180   0.021286   0.018760
    5  N  1  Y    0.002762   0.020945   0.519512  -0.035897   0.050132
    6  N  1  Z    0.103725   0.001275  -0.024509   0.608097   0.588995
    7  N  1  X   -0.007457   0.247027   0.005726  -0.008311   0.010381
    8  N  1  Y    0.000418   0.030504   0.214361   0.001360  -0.006615
    9  N  1  Z    0.001092  -0.023852   0.012911   0.387859  -0.086713
   10  N  1 XX   -0.001063   0.013980   0.000097  -0.013206   0.005622
   11  N  1 YY   -0.000242  -0.012126  -0.001218  -0.011971   0.004512
   12  N  1 ZZ    0.001305  -0.001854   0.001122   0.025177  -0.010134
   13  N  1 XY   -0.000015  -0.002071  -0.012499  -0.000296   0.000751
   14  N  1 XZ   -0.001301   0.036748   0.005004  -0.003325   0.001618
   15  N  1 YZ   -0.000047   0.006664   0.026014   0.002356  -0.004502
   16  H  2  S    0.211786  -0.222344   0.311292   0.179271  -0.513515
   17  H  2  S    0.005296  -0.029151   0.039133   0.035113  -0.058336
   18  H  2  X    0.019178   0.012806   0.025622   0.011280  -0.036211
   19  H  2  Y   -0.034946   0.032266  -0.017563  -0.021976   0.061885
   20  H  2  Z   -0.009705   0.007510  -0.014684   0.017928  -0.007192
   21  H  3  S    0.213526  -0.405741  -0.337999   0.107835  -0.379833
   22  H  3  S    0.005659  -0.057572  -0.047411   0.022650  -0.035551
   23  H  3  X    0.019272   0.000825  -0.019829   0.006914  -0.027924
   24  H  3  Y    0.035066  -0.043253  -0.018947   0.017461  -0.053526
   25  H  3  Z   -0.009671   0.013000   0.017687   0.018787  -0.009294
   26  H  4  S    0.182551   0.514044   0.116293   0.060128  -0.409927
   27  H  4  S    0.001004   0.074884   0.018150   0.015069  -0.041630
   28  H  4  X   -0.037391  -0.040323  -0.011895  -0.014538   0.062917
   29  H  4  Y   -0.000021   0.004882   0.021107   0.001523  -0.002997
   30  H  4  Z   -0.008610  -0.023800  -0.000360   0.020042  -0.009693

                      6          7

    1  N  1  S    0.002425   0.023001
    2  N  1  S    0.011342   0.079153
    3  N  1  S    0.013046   0.025893
    4  N  1  X   -0.830873  -0.021384
    5  N  1  Y    0.035698   0.898847
    6  N  1  Z   -0.025472   0.028276
    7  N  1  X   -0.019879  -0.012654
    8  N  1  Y    0.020268   0.048734
    9  N  1  Z   -0.019567  -0.026707
   10  N  1 XX    0.003395   0.000399
   11  N  1 YY   -0.002080   0.001766
   12  N  1 ZZ   -0.001315  -0.002165
   13  N  1 XY   -0.001256   0.001468
   14  N  1 XZ    0.041352  -0.002055
   15  N  1 YZ    0.003210  -0.037740
   16  H  2  S   -0.339057  -0.627864
   17  H  2  S   -0.061814  -0.112037
   18  H  2  X    0.005479  -0.039508
   19  H  2  Y    0.037655   0.042820
   20  H  2  Z    0.000333   0.000473
   21  H  3  S   -0.423502   0.565556
   22  H  3  S   -0.074077   0.105631
   23  H  3  X   -0.000215   0.031392
   24  H  3  Y   -0.042574   0.034219
   25  H  3  Z    0.003617  -0.005187
   26  H  4  S    0.730852  -0.078154
   27  H  4  S    0.131163  -0.010071
   28  H  4  X   -0.061639   0.009711
   29  H  4  Y    0.002472  -0.022881
   30  H  4  Z   -0.006729  -0.000568

 -------------------------------------------
       MAXIMIZING MORMO OVERLAP TERM        
 -------------------------------------------
   SWEEP    VALUE       PROGRESS
     0     5.06198
     1     6.77290     1.71091682
     2     6.78266     0.00976148
     3     6.78266     0.00000116
     4     6.78266     0.00000000
     5     6.78266     0.00000000
 THE ROTATION IS DONE
ACTIVE ORBITALS AFTER MORMO:

                      1          2          3          4          5

    1  N  1  S    0.013760   0.004433  -0.006161  -0.024191   0.104348
    2  N  1  S    0.434511   0.024004  -0.012852  -0.219209   0.508056
    3  N  1  S    0.325660   0.050857  -0.031496  -0.233526   0.497658
    4  N  1  X   -0.000588   0.418625  -0.090046   0.040080   0.072859
    5  N  1  Y    0.010364   0.006967   0.488479  -0.030920   0.134036
    6  N  1  Z    0.088725  -0.027339  -0.030882   0.614157   0.378660
    7  N  1  X   -0.018519   0.335630   0.068898  -0.055617  -0.049969
    8  N  1  Y   -0.002339   0.054902   0.226235   0.036066  -0.156721
    9  N  1  Z    0.029159   0.007967   0.035794   0.381244   0.154458
   10  N  1 XX   -0.004946   0.022631   0.000689  -0.006195   0.017487
   11  N  1 YY    0.007298  -0.028613  -0.003606  -0.004328  -0.013133
   12  N  1 ZZ   -0.002353   0.005983   0.002917   0.010522  -0.004353
   13  N  1 XY   -0.004283  -0.005033  -0.003423   0.004215   0.023919
   14  N  1 XZ    0.001170   0.024294   0.007772   0.001710  -0.022495
   15  N  1 YZ   -0.002992   0.004187   0.014578  -0.005534  -0.000975
   16  H  2  S    0.185303  -0.201167   0.322529   0.137141  -0.481493
   17  H  2  S    0.006196  -0.060050   0.037148   0.028120  -0.143893
   18  H  2  X    0.009575   0.014964   0.017676   0.002902  -0.014653
   19  H  2  Y   -0.029690   0.017033  -0.033635  -0.013335   0.021397
   20  H  2  Z   -0.002594   0.006682  -0.005854   0.017617   0.009917
   21  H  3  S    0.179609  -0.236367  -0.298672   0.101607  -0.314711
   22  H  3  S    0.033769  -0.253705  -0.094688   0.024727  -0.324193
   23  H  3  X   -0.000924   0.019718   0.009580  -0.005548  -0.030756
   24  H  3  Y    0.023660  -0.000376  -0.033531   0.014147   0.016335
   25  H  3  Z   -0.005565   0.002421   0.017714   0.011531  -0.012425
   26  H  4  S    0.177242   0.424896   0.038844   0.086074  -0.384354
   27  H  4  S    0.001713   0.142553   0.074792   0.018390  -0.144018
   28  H  4  X   -0.028621  -0.025624   0.007339  -0.019331   0.012275
   29  H  4  Y    0.008060   0.033362   0.015153   0.006098   0.025936
   30  H  4  Z   -0.013650  -0.030245   0.006628   0.012159  -0.002043

                      6          7

    1  N  1  S    0.025669   0.136226
    2  N  1  S    0.071462   0.299341
    3  N  1  S    0.002261  -0.304925
    4  N  1  X   -0.810485  -0.014746
    5  N  1  Y    0.027060   0.859115
    6  N  1  Z   -0.145932   0.064775
    7  N  1  X   -0.039949  -0.036377
    8  N  1  Y    0.024708   0.111095
    9  N  1  Z    0.110971  -0.094310
   10  N  1 XX    0.010785  -0.012114
   11  N  1 YY   -0.043701   0.037479
   12  N  1 ZZ    0.032916  -0.025365
   13  N  1 XY   -0.019828  -0.003217
[...]
        1    0.116112   -0.116112  222+000
       73    0.109728   -0.109728  2+-2+00
      386   -0.103922    0.103922  2+2+0-0
      176   -0.102695    0.102695  2+2+-00
       86   -0.093674   -0.093674  2+2-00+
       18    0.089722   -0.089722  2-2+00+
      806    0.086513    0.086513  2++200-
       37    0.082754   -0.082754  22+-+00
       77   -0.082417    0.082417  2+-20+0
       83   -0.080066    0.080066  20-2++0
       38   -0.078942    0.078942  2202+00
      141   -0.077974   -0.077974  22++-00
      107   -0.076173    0.076173  +22-+00
        6    0.070587   -0.070587  22200+0
       39    0.062586    0.062586  2-+2+00
       80    0.062066    0.062066  2+--++0
      109    0.061374   -0.061374  +-22+00
        8   -0.061349    0.061349  2-2+0+0
      253    0.056762    0.056762  20+2-+0
      177    0.056191   -0.056191  2+20200
      393   -0.055732   -0.055732  202+020
       53   -0.052756   -0.052756  2-+200+
       41    0.052268   -0.052268  22+-0+0
       99   -0.050630    0.050630  20-20++
      737   -0.050295    0.050295  2+20+0-
       11   -0.050284    0.050284  2-20++0
      106    0.049948    0.049948  +222000
        5    0.048217    0.048217  -22++00
      813    0.047064   -0.047064  20+20+-
       43    0.046832    0.046832  2-+20+0
       51   -0.045794    0.045794  22+-00+
       10   -0.042550   -0.042550  22-0++0
      252   -0.041961   -0.041961  2+02-+0
      822    0.039411   -0.039411  2+02002
      387    0.037984   -0.037984  2+20+-0
       75   -0.037323   -0.037323  -+22+00
      810   -0.037111   -0.037111  -++2+0-
      351   -0.036757   -0.036757  22++0-0
      186   -0.036501    0.036501  20202+0
      456    0.035585    0.035585  2++20-0
      323   -0.034582    0.034582  +022-+0
       87   -0.033757    0.033757  2+-200+
       13   -0.032712   -0.032712  2--+++0
      113    0.032453   -0.032453  +-220+0
      247    0.030736   -0.030736  2++-200
      352    0.030658    0.030658  22+0+-0
      463    0.030537   -0.030537  20+2020
       81   -0.030361   -0.030361  202-++0
      249   -0.030044    0.030044  20+2200
       52    0.029874   -0.029874  220200+
      751    0.029711   -0.029711  2+20002
      332   -0.029710    0.029710  ++-2-0+
      701    0.029670    0.029670  22++00-
      401    0.029322    0.029322  2+200-+
       48    0.029304   -0.029304  2-02++0
      702   -0.028635   -0.028635  22+0+0-
      263   -0.028557   -0.028557  20+2-0+
      457   -0.028189    0.028189  2++-+-0
      529    0.028038    0.028038  +022+-0
      211    0.027955    0.027955  +22+-00
      396   -0.027804   -0.027804  2020+20
      251   -0.026306   -0.026306  2++--+0
       91    0.025668    0.025668  202-+0+
      191    0.025320    0.025320  2+20-0+
      366    0.025224   -0.025224  22+00-+
       21    0.024974   -0.024974  2-20+0+
      316   -0.024051   -0.024051  ++22-00
       89    0.023782    0.023782  -+2200+
      739   -0.023659   -0.023659  202++0-
      121    0.023377   -0.023377  +22-00+
      459    0.023305   -0.023305  20+2+-0
      123   -0.022825    0.022825  +-2200+
      320    0.022565    0.022565  0+22200
      148    0.022557    0.022557  2-++-+0
      878    0.022527    0.022527  ++-2+0-
      248    0.022185   -0.022185  2+02200
      561    0.021783    0.021783  2+++--0
      264    0.021219   -0.021219  -++2-0+
       27   -0.020959    0.020959  2-200++
       19   -0.020336   -0.020336  -22+00+
       64    0.020202   -0.020202  2-020++

 State #    3  Energy =     -55.722561450

      Det      Coef        Coefp    Occupancy (Ignoring core)
      ---      ----        ----    --------- --------- -----
       71   -0.477501    0.477501  2+22000
       72   -0.400885   -0.400885  2+2-+00
       36   -0.283422   -0.283422  22+2000
        2   -0.267853    0.267853  2220+00
       86    0.235488    0.235488  2+2-00+
        4    0.212573   -0.212573  2-2++00
        1   -0.208858    0.208858  222+000
      176    0.188311   -0.188311  2+2+-00
       37   -0.141901    0.141901  22+-+00
      141    0.139564    0.139564  22++-00
      736   -0.131116    0.131116  2+2+00-
       51    0.127317   -0.127317  22+-00+
       16    0.114194   -0.114194  222000+
       81    0.113946    0.113946  202-++0
       18   -0.104373    0.104373  2-2+00+
      701   -0.102919   -0.102919  22++00-
       78    0.092950   -0.092950  20220+0
       77   -0.086442    0.086442  2+-20+0
      107    0.085079   -0.085079  +22-+00
       80   -0.078806   -0.078806  2+--++0
      183   -0.074356    0.074356  202+-+0
        8    0.073201   -0.073201  2-2+0+0
        6   -0.068703    0.068703  22200+0
       97    0.064562    0.064562  202-0++
       43    0.063424    0.063424  2-+20+0
      148   -0.055545   -0.055545  2-++-+0
       11    0.055222   -0.055222  2-20++0
      246   -0.054810   -0.054810  2++2-00
      386   -0.052077    0.052077  2+2+0-0
      121   -0.050970    0.050970  +22-00+
        5   -0.050734   -0.050734  -22++00
       96   -0.050245   -0.050245  2+--0++
      111    0.047486   -0.047486  +22-0+0
       42    0.046723   -0.046723  22020+0
       10    0.045874    0.045874  22-0++0
      743   -0.045738   -0.045738  202+0+-
      737    0.044486   -0.044486  2+20+0-
      742    0.043504    0.043504  2+-+0+-
      387   -0.043153    0.043153  2+20+-0
      247   -0.043016    0.043016  2++-200
       46    0.042335   -0.042335  2-+-++0
       13    0.040898    0.040898  2--+++0
      389   -0.039591   -0.039591  202++-0
        7    0.038934    0.038934  22-+0+0
      182    0.037410   -0.037410  2+-+-+0
      708   -0.036235    0.036235  2-++0+-
       62    0.035381   -0.035381  2-+-0++
       73    0.034997   -0.034997  2+-2+00
      211   -0.034345   -0.034345  +22+-00
      822    0.033243   -0.033243  2+02002
      352   -0.032920   -0.032920  22+0+-0
       19    0.032873    0.032873  -22+00+
      144    0.031693   -0.031693  2-++200
       74   -0.031015    0.031015  2022+00
       90    0.030670    0.030670  2+--+0+
      396    0.030503    0.030503  2020+20
       21   -0.030252    0.030252  2-20+0+
      825    0.029985    0.029985  2+0-+02
      351   -0.028777   -0.028777  22++0-0
      186    0.027829   -0.027829  20202+0
        9   -0.027798   -0.027798  -22+0+0
      317    0.027766   -0.027766  ++2-200
      354   -0.027687    0.027687  2-+++-0
      147   -0.027497    0.027497  220+-+0
      192   -0.027495    0.027495  2+-+-0+
      142    0.027295    0.027295  22+0200
      180   -0.026409    0.026409  -+2+200
      463    0.026159   -0.026159  20+2020
      320    0.026107    0.026107  0+22200
       17   -0.024398   -0.024398  22-+00+
      282    0.024132    0.024132  +2+-200
      702    0.024066    0.024066  22+0+0-
      471    0.023934    0.023934  2++-0-+
      813    0.023895   -0.023895  20+20+-
      717    0.023565    0.023565  220+002
      807   -0.023483    0.023483  2++-+0-
      456    0.023019    0.023019  2++20-0
      145   -0.022912   -0.022912  -2++200
      457    0.022762   -0.022762  2++-+-0
      157    0.022596   -0.022596  220+-0+
       45    0.022585    0.022585  220-++0
      707   -0.022437   -0.022437  220+0+-
       91   -0.022313   -0.022313  202-+0+
      158    0.021953    0.021953  2-++-0+
      316    0.021801    0.021801  ++22-00
       76   -0.021125   -0.021125  2+2-0+0
       27    0.020666   -0.020666  2-200++
       61    0.020424    0.020424  220-0++
       20   -0.020012   -0.020012  22-0+0+

 ---------------------------------------
      - DIABATIC STATES IN CMO -        
 ---------------------------------------

 State #    1  Energy =     -55.857589853

      Det      Coef        Coefp    Occupancy (Ignoring core)
      ---      ----        ----    --------- --------- -----
        1    0.800973   -0.800973  222+000
       71    0.502146   -0.502146  2+22000
        2   -0.214571    0.214571  2220+00
      176    0.075308   -0.075308  2+2+-00
      393   -0.067526   -0.067526  202+020
      106   -0.066063   -0.066063  +222000
       72   -0.048307   -0.048307  2+2-+00
       74    0.043976   -0.043976  2022+00
      717   -0.042820   -0.042820  220+002
      143   -0.039775   -0.039775  220+200
      142   -0.038303   -0.038303  22+0200
      215   -0.031594   -0.031594  022+200
      248   -0.031362    0.031362  2+02200
       11    0.031127   -0.031127  2-20++0
      387   -0.030493    0.030493  2+20+-0
      392   -0.029559   -0.029559  2+-+020
      177   -0.029352    0.029352  2+20200
      212    0.028880    0.028880  +220200
      388    0.028161    0.028161  2+-++-0
      358    0.027413   -0.027413  2-++020
        4   -0.027001    0.027001  2-2++00
      561   -0.026487   -0.026487  2+++--0
      179   -0.026165   -0.026165  202+200
      822   -0.026101    0.026101  2+02002
      357   -0.024859   -0.024859  220+020
        6    0.024420   -0.024420  22200+0
       76    0.023437    0.023437  2+2-0+0
      702    0.022969    0.022969  22+0+0-
      148    0.022544    0.022544  2-++-+0
      402    0.021733   -0.021733  2+-+0-+
      316    0.021207    0.021207  ++22-00
      156   -0.021140    0.021140  22+0-0+
      787    0.020558   -0.020558  +2-+002
      719   -0.020214   -0.020214  -2++002
      386   -0.020175    0.020175  2+2+0-0
      110    0.020107   -0.020107  0222+00

 State #    2  Energy =     -55.762209854

      Det      Coef        Coefp    Occupancy (Ignoring core)
      ---      ----        ----    --------- --------- -----
        2    0.539530   -0.539530  2220+00
       71   -0.533624    0.533624  2+22000
        1    0.518650   -0.518650  222+000
      176   -0.242474    0.242474  2+2+-00
        4    0.128771   -0.128771  2-2++00
       72    0.113704    0.113704  2+2-+00
       74   -0.100935    0.100935  2022+00
      107   -0.059871    0.059871  +22-+00
      211    0.054510    0.054510  +22+-00
       73    0.051080   -0.051080  2+-2+00
      143   -0.043953   -0.043953  220+200
       36    0.042375    0.042375  22+2000
      141   -0.041484   -0.041484  22++-00
      248    0.040583   -0.040583  2+02200
      246   -0.036825   -0.036825  2++2-00
      393   -0.034615   -0.034615  202+020
      396   -0.034598   -0.034598  2020+20
      386   -0.033723    0.033723  2+2+0-0
      110   -0.031149    0.031149  0222+00
      316   -0.030830   -0.030830  ++22-00
      720   -0.029899   -0.029899  2200+02
      142    0.029838    0.029838  22+0200
      822    0.027269   -0.027269  2+02002
       51   -0.026552    0.026552  22+-00+
        3    0.026390    0.026390  22-++00
      701    0.026333    0.026333  22++00-
       75    0.025894    0.025894  -+22+00
       11   -0.025760    0.025760  2-20++0
        8    0.025072   -0.025072  2-2+0+0
      717   -0.024529   -0.024529  220+002
       13   -0.023224   -0.023224  2--+++0
       83   -0.023188    0.023188  20-2++0
      253    0.022534    0.022534  20+2-+0
       38   -0.021255    0.021255  2202+00
      144   -0.021094    0.021094  2-++200
      705   -0.020891   -0.020891  -2+++0-

 State #    3  Energy =     -55.722561450

      Det      Coef        Coefp    Occupancy (Ignoring core)
      ---      ----        ----    --------- --------- -----
       71   -0.644119    0.644119  2+22000
        2   -0.582581    0.582581  2220+00
      176    0.285945   -0.285945  2+2+-00
        1    0.199708   -0.199708  222+000
        4   -0.161214    0.161214  2-2++00
       74    0.148235   -0.148235  2022+00
       72   -0.124730   -0.124730  2+2-+00
      177    0.075792   -0.075792  2+20200
      142   -0.053447   -0.053447  22+0200
       11    0.044846   -0.044846  2-20++0
      178   -0.044085   -0.044085  2+-+200
      183   -0.039686    0.039686  202+-+0
      211   -0.038084   -0.038084  +22+-00
        6    0.037201   -0.037201  22200+0
      107    0.036808   -0.036808  +22-+00
      109    0.036700   -0.036700  +-22+00
      110    0.035958   -0.035958  0222+00
      396    0.034980    0.034980  2020+20
      822    0.034688   -0.034688  2+02002
      720    0.033958    0.033958  2200+02
      180   -0.032783    0.032783  -+2+200
       37   -0.031268    0.031268  22+-+00
      248    0.030571   -0.030571  2+02200
      247    0.028127   -0.028127  2++-200
      317    0.028103   -0.028103  ++2-200
      192   -0.027989    0.027989  2+-+-0+
       75   -0.027529   -0.027529  -+22+00
       81    0.026784    0.026784  202-++0
      387   -0.025884    0.025884  2+20+-0
      738    0.025431    0.025431  2+-++0-
      702    0.025140    0.025140  22+0+0-
      463    0.023066   -0.023066  20+2020
      261    0.022202    0.022202  2++--0+
      320    0.022030    0.022030  0+22200
      751    0.021789   -0.021789  2+20002
      112   -0.021736   -0.021736  +2-20+0
      462    0.021043   -0.021043  2+02020
      156   -0.020814    0.020814  22+0-0+
      361   -0.020512    0.020512  2-+0+20

 ---------------------------------------
    -DIABATIC STATES IN PROTOTYPES-     
 ---------------------------------------

     STATE:    1
 Group Ref#    Coefficients
     1    1    0.820723
     2    2    0.124688
     3    3   -0.109330

WEIGHT OF LISTED PROTOTYPES:   70.11%

     STATE:    2
 Group Ref#    Coefficients
     1    1    0.134319
     2    2    0.635796
     3    3    0.242360

WEIGHT OF LISTED PROTOTYPES:   48.10%

     STATE:    3
 Group Ref#    Coefficients
     1    1   -0.228572
     2    2    0.470361
     3    3    0.315434

WEIGHT OF LISTED PROTOTYPES:   37.30%

     DIRECT MAX. DIABATIZATION FINISHED    
 CPU     0: STEP CPU TIME=     0.25 TOTAL CPU TIME=         14.2 (      0.2 MIN)
 TOTAL WALL CLOCK TIME=         14.3 SECONDS, CPU UTILIZATION IS    99.93%

DIABATS FOR SPIN-ORBIT CALCULATION ARE READY

TRANSITION DIPOLES BETWEEN ADIABATS (in A.U.):

STATE PAIR      X         Y         Z
    1    1  0.286336 -0.349969  0.583358
    2    1 -0.014263  0.032651 -0.172545
    2    2  0.431870 -0.189690  0.353119
    3    1  0.005725 -0.047688  0.098226
    3    2  0.015305 -0.136784  0.073849
    3    3  0.402188 -1.106641  0.997853


TRANSITION DIPOLES BETWEEN DIABATS (in A.U.):

STATE PAIR      X         Y         Z
    1    1  0.324883 -0.363907  0.703312
    2    1 -0.060356 -0.008915 -0.050981
    2    2  0.375159 -0.252818  0.306010
    3    1 -0.015139 -0.130967  0.096597
    3    2  0.015212  0.261133 -0.203308
    3    3  0.420353 -1.029575  0.925008

TRANSITION DIPOLES BETWEEN DIRECT MAX. DIABATS (in A.U.):

STATE PAIR      X         Y         Z
    1    1  0.321829 -0.409963  0.731726
    2    1 -0.055208  0.078637 -0.107827
    2    2  0.367690 -0.422834  0.436538
    3    1 -0.015977 -0.199264  0.097558
    3    2  0.009118  0.404221 -0.312509
    3    3  0.430877 -0.813502  0.766066
 No $TRANST Group Found.
 Quit without doing spin-orbit coupling
 ..... DONE WITH MP2 ENERGY .....
 CPU     0: STEP CPU TIME=     0.00 TOTAL CPU TIME=         14.2 (      0.2 MIN)
 TOTAL WALL CLOCK TIME=         14.3 SECONDS, CPU UTILIZATION IS    99.93%
            100000000  WORDS OF DYNAMIC MEMORY USED
 EXECUTION OF GAMESS TERMINATED NORMALLY Wed Nov 16 18:40:41 2022
 DDI: 715512 bytes (0.7 MB / 0 MWords) used by master data server.

 ----------------------------------------
 CPU timing information for all processes
 ========================================
 0: 13.906 + 0.352 = 14.258
 ----------------------------------------
Note: The following floating-point exceptions are signalling: IEEE_DENORMAL
 ddikick.x: exited gracefully.
unset echo
----- accounting info -----
Files used on the master node io002 were:
-rw-r--r-- 1 bsonghao nooijen   20739 Nov 16 18:40 /scratch/bsonghao/nh3_diabatization_2d_at_mode_7_8_dist-0.6_0.7.F05
-rw-r--r-- 1 bsonghao nooijen  363520 Nov 16 18:40 /scratch/bsonghao/nh3_diabatization_2d_at_mode_7_8_dist-0.6_0.7.F09
-rw-r--r-- 1 bsonghao nooijen 1995920 Nov 16 18:40 /scratch/bsonghao/nh3_diabatization_2d_at_mode_7_8_dist-0.6_0.7.F10
-rw-r--r-- 1 bsonghao nooijen  131264 Nov 16 18:40 /scratch/bsonghao/nh3_diabatization_2d_at_mode_7_8_dist-0.6_0.7.F13
-rw-r--r-- 1 bsonghao nooijen  180312 Nov 16 18:40 /scratch/bsonghao/nh3_diabatization_2d_at_mode_7_8_dist-0.6_0.7.F15
-rw-r--r-- 1 bsonghao nooijen       0 Nov 16 18:40 /scratch/bsonghao/nh3_diabatization_2d_at_mode_7_8_dist-0.6_0.7.F16
-rw-r--r-- 1 bsonghao nooijen    9808 Nov 16 18:40 /scratch/bsonghao/nh3_diabatization_2d_at_mode_7_8_dist-0.6_0.7.F70
-rw-r--r-- 1 bsonghao nooijen    9808 Nov 16 18:40 /scratch/bsonghao/nh3_diabatization_2d_at_mode_7_8_dist-0.6_0.7.F71
-rw-r--r-- 1 bsonghao nooijen   19608 Nov 16 18:40 /scratch/bsonghao/nh3_diabatization_2d_at_mode_7_8_dist-0.6_0.7.F72
-rw-r--r-- 1 bsonghao nooijen   19608 Nov 16 18:40 /scratch/bsonghao/nh3_diabatization_2d_at_mode_7_8_dist-0.6_0.7.F73
-rw-r--r-- 1 bsonghao nooijen 1920824 Nov 16 18:40 /scratch/bsonghao/nh3_diabatization_2d_at_mode_7_8_dist-0.6_0.7.F74
-rw-r--r-- 1 bsonghao nooijen       0 Nov 16 18:40 /scratch/bsonghao/nh3_diabatization_2d_at_mode_7_8_dist-0.6_0.7.F75
-rw-r--r-- 1 bsonghao nooijen   58848 Nov 16 18:40 /scratch/bsonghao/nh3_diabatization_2d_at_mode_7_8_dist-0.6_0.7.F76
-rw-r--r-- 1 bsonghao nooijen       0 Nov 16 18:40 /scratch/bsonghao/nh3_diabatization_2d_at_mode_7_8_dist-0.6_0.7.F77
-rw-r--r-- 1 bsonghao nooijen    1864 Nov 16 18:40 /scratch/bsonghao/nh3_diabatization_2d_at_mode_7_8_dist-0.6_0.7.F78
-rw-r--r-- 1 bsonghao nooijen   39208 Nov 16 18:40 /scratch/bsonghao/nh3_diabatization_2d_at_mode_7_8_dist-0.6_0.7.F79
-rw-r--r-- 1 bsonghao nooijen     104 Nov 16 18:40 /scratch/bsonghao/nh3_diabatization_2d_at_mode_7_8_dist-0.6_0.7.F80
-rw-r--r-- 1 bsonghao nooijen   13472 Nov 16 18:40 /scratch/bsonghao/nh3_diabatization_2d_at_mode_7_8_dist-0.6_0.7.F81
-rw-r--r-- 1 bsonghao nooijen      16 Nov 16 18:40 /scratch/bsonghao/nh3_diabatization_2d_at_mode_7_8_dist-0.6_0.7.F82
-rw-r--r-- 1 bsonghao nooijen   19216 Nov 16 18:40 /scratch/bsonghao/nh3_diabatization_2d_at_mode_7_8_dist-0.6_0.7.F83
-rw-r--r-- 1 bsonghao nooijen   29712 Nov 16 18:40 /scratch/bsonghao/nh3_diabatization_2d_at_mode_7_8_dist-0.6_0.7.F84
-rw-r--r-- 1 bsonghao nooijen  401576 Nov 16 18:40 /scratch/bsonghao/nh3_diabatization_2d_at_mode_7_8_dist-0.6_0.7.F85
-rw-r--r-- 1 bsonghao nooijen  903672 Nov 16 18:40 /scratch/bsonghao/nh3_diabatization_2d_at_mode_7_8_dist-0.6_0.7.F86
-rw-r--r-- 1 bsonghao nooijen     656 Nov 16 18:40 /scratch/bsonghao/nh3_diabatization_2d_at_mode_7_8_dist-0.6_0.7.F87
-rw-r--r-- 1 bsonghao nooijen   49104 Nov 16 18:40 /scratch/bsonghao/nh3_diabatization_2d_at_mode_7_8_dist-0.6_0.7.F88
-rw-r--r-- 1 bsonghao nooijen     240 Nov 16 18:40 /scratch/bsonghao/nh3_diabatization_2d_at_mode_7_8_dist-0.6_0.7.F89
-rw-r--r-- 1 bsonghao nooijen       0 Nov 16 18:40 /scratch/bsonghao/nh3_diabatization_2d_at_mode_7_8_dist-0.6_0.7.F90
-rw-r--r-- 1 bsonghao nooijen   13760 Nov 16 18:40 /scratch/bsonghao/nh3_diabatization_2d_at_mode_7_8_dist-0.6_0.7.F91
-rw-r--r-- 1 bsonghao nooijen   22776 Nov 16 18:40 /scratch/bsonghao/nh3_diabatization_2d_at_mode_7_8_dist-0.6_0.7.F92
-rw-r--r-- 1 bsonghao nooijen   23168 Nov 16 18:40 /scratch/bsonghao/nh3_diabatization_2d_at_mode_7_8_dist-0.6_0.7.F93
-rw-r--r-- 1 bsonghao nooijen   22776 Nov 16 18:40 /scratch/bsonghao/nh3_diabatization_2d_at_mode_7_8_dist-0.6_0.7.F94
-rw-r--r-- 1 bsonghao nooijen   13760 Nov 16 18:40 /scratch/bsonghao/nh3_diabatization_2d_at_mode_7_8_dist-0.6_0.7.F95
-rw-r--r-- 1 bsonghao nooijen   29440 Nov 16 18:40 /scratch/bsonghao/nh3_diabatization_2d_at_mode_7_8_dist-0.6_0.7.F96
-rw-r--r-- 1 bsonghao nooijen    1184 Nov 16 18:40 /scratch/bsonghao/nh3_diabatization_2d_at_mode_7_8_dist-0.6_0.7.F97
-rw-r--r-- 1 bsonghao nooijen    9808 Nov 16 18:40 /scratch/bsonghao/nh3_diabatization_2d_at_mode_7_8_dist-0.6_0.7.F98
-rw-r--r-- 1 bsonghao nooijen   30264 Nov 16 18:40 /scratch/bsonghao/nh3_diabatization_2d_at_mode_7_8_dist-0.6_0.7.F99
ls: No match.
ls: No match.
ls: No match.
Wed 16 Nov 2022 06:40:44 PM EST
0.286u 0.046s 0:17.64 1.8%	0+0k 48+224io 0pf+0w
