----- GAMESS execution script 'rungms' -----
This job is running on host io002
under operating system Linux at Wed 16 Nov 2022 07:55:06 PM EST
Available scratch disk space (Kbyte units) at beginning of the job is
Filesystem       1K-blocks       Used   Available Use% Mounted on
/dev/sdc1      15378471580 3278917120 11318349060  23% /scratch
GAMESS temporary binary files will be written to /scratch/bsonghao
GAMESS supplementary output files will be written to /home/bsonghao/.gamess_ascii_files/267638
Copying input file nh3_diabatization_2d_at_mode_7_8_dist0.4_0.4.inp to your run's scratch directory...
cp nh3_diabatization_2d_at_mode_7_8_dist0.4_0.4.inp /scratch/bsonghao/nh3_diabatization_2d_at_mode_7_8_dist0.4_0.4.F05
unset echo
/home/bjb2chen/gamess/ddikick.x /home/bjb2chen/gamess/gamess.00.x nh3_diabatization_2d_at_mode_7_8_dist0.4_0.4 -ddi 1 1 io002 -scr /scratch/bsonghao

 Distributed Data Interface kickoff program.
 Initiating 1 compute processes on 1 nodes to run the following command:
 /home/bjb2chen/gamess/gamess.00.x nh3_diabatization_2d_at_mode_7_8_dist0.4_0.4 

          ******************************************************
          *         GAMESS VERSION = 02 AUG 2018 (R2)         *
          *             FROM IOWA STATE UNIVERSITY             *
          * M.W.SCHMIDT, K.K.BALDRIDGE, J.A.BOATZ, S.T.ELBERT, *
          *   M.S.GORDON, J.H.JENSEN, S.KOSEKI, N.MATSUNAGA,   *
          *          K.A.NGUYEN, S.J.SU, T.L.WINDUS,           *
          *       TOGETHER WITH M.DUPUIS, J.A.MONTGOMERY       *
          *         J.COMPUT.CHEM.  14, 1347-1363(1993)        *
          **************** 64 BIT LINUX VERSION ****************

  SINCE 1993, STUDENTS AND POSTDOCS WORKING AT IOWA STATE UNIVERSITY
  AND ALSO IN THEIR VARIOUS JOBS AFTER LEAVING ISU HAVE MADE IMPORTANT
  CONTRIBUTIONS TO THE CODE:
     IVANA ADAMOVIC, CHRISTINE AIKENS, YURI ALEXEEV, POOJA ARORA,
     ANDREY ASADCHEV, ROB BELL, PRADIPTA BANDYOPADHYAY, JONATHAN BENTZ,
     BRETT BODE, KURT BRORSEN, CALEB CARLIN, GALINA CHABAN, WEI CHEN,
     CHEOL HO CHOI, PAUL DAY, ALBERT DEFUSCO, NUWAN DESILVA, TIM DUDLEY,
     DMITRI FEDOROV, ALEX FINDLATER, GRAHAM FLETCHER, MARK FREITAG,
     KURT GLAESEMANN, ANASTASIA GUININA,
     DAN KEMP, GRANT MERRILL, NORIYUKI MINEZAWA, JONATHAN MULLIN,
     TAKESHI NAGATA, SEAN NEDD, HEATHER NETZLOFF, BOSILJKA NJEGIC, RYAN OLSON,
     MIKE PAK, BUU PHAM,
     SPENCER PRUITT, LUKE ROSKOP, JIM SHOEMAKER, LYUDMILA SLIPCHENKO,
     TONY SMITH, SAROM SOK LEANG, JIE SONG, TETSUYA TAKETSUGU, SIMON WEBB,
     PENG XU, SOOHAENG YOO, FEDERICO ZAHARIEV

  ADDITIONAL CODE HAS BEEN PROVIDED BY COLLABORATORS IN OTHER GROUPS:
     IOWA STATE UNIVERSITY:
          JOE IVANIC, AARON WEST, LAIMUTIS BYTAUTAS, KLAUS RUEDENBERG
     UNIVERSITY OF TOKYO: KIMIHIKO HIRAO, TAKAHITO NAKAJIMA,
          TAKAO TSUNEDA, MUNEAKI KAMIYA, SUSUMU YANAGISAWA,
          KIYOSHI YAGI, MAHITO CHIBA, SEIKEN TOKURA, NAOAKI KAWAKAMI
     UNIVERSITY OF AARHUS: FRANK JENSEN
     UNIVERSITY OF IOWA: VISVALDAS KAIRYS, HUI LI
     NATIONAL INST. OF STANDARDS AND TECHNOLOGY: WALT STEVENS, DAVID GARMER
     UNIVERSITY OF PISA: BENEDETTA MENNUCCI, JACOPO TOMASI
     UNIVERSITY OF MEMPHIS: HENRY KURTZ, PRAKASHAN KORAMBATH
     UNIVERSITY OF ALBERTA: TOBY ZENG, MARIUSZ KLOBUKOWSKI
     UNIVERSITY OF NEW ENGLAND: MARK SPACKMAN
     MIE UNIVERSITY: HIROAKI UMEDA
     NAT. INST. OF ADVANCED INDUSTRIAL SCIENCE AND TECHNOLOGY: KAZUO KITAURA
     MICHIGAN STATE UNIVERSITY:
          KAROL KOWALSKI, MARTA WLOCH, JEFFREY GOUR, JESSE LUTZ,
          WEI LI, JUN SHEN, J. EMILIANO DEUSTUA, PIOTR PIECUCH
     UNIVERSITY OF MINNESOTA:
          YINAN SHU
     UNIVERSITY OF SILESIA: MONIKA MUSIAL, STANISLAW KUCHARSKI
     FACULTES UNIVERSITAIRES NOTRE-DAME DE LA PAIX:
          OLIVIER QUINET, BENOIT CHAMPAGNE
     UNIVERSITY OF CALIFORNIA - SANTA BARBARA: BERNARD KIRTMAN
     INSTITUTE FOR MOLECULAR SCIENCE:
          KAZUYA ISHIMURA, MICHIO KATOUDA, AND SHIGERU NAGASE
     UNIVERSITY OF NOTRE DAME: ANNA POMOGAEVA, DAN CHIPMAN
     KYUSHU UNIVERSITY:
          HARUYUKI NAKANO,
          FENG LONG GU, JACEK KORCHOWIEC, MARCIN MAKOWSKI, AND YURIKO AOKI,
          HIROTOSHI MORI AND EISAKU MIYOSHI
     PENNSYLVANIA STATE UNIVERSITY:
          TZVETELIN IORDANOV, CHET SWALINA, JONATHAN SKONE,
          SHARON HAMMES-SCHIFFER
     WASEDA UNIVERSITY:
          MASATO KOBAYASHI, TOMOKO AKAMA, TSUGUKI TOUMA,
          TAKESHI YOSHIKAWA, YASUHIRO IKABATA, JUNJI SEINO,
          YUYA NAKAJIMA, HIROMI NAKAI
     NANJING UNIVERSITY: SHUHUA LI
     UNIVERSITY OF NEBRASKA:
          PEIFENG SU, DEJUN SI, NANDUN THELLAMUREGE, YALI WANG, HUI LI
     UNIVERSITY OF ZURICH: ROBERTO PEVERATI, KIM BALDRIDGE
     N. COPERNICUS UNIVERSITY AND JACKSON STATE UNIVERSITY:
          MARIA BARYSZ
     UNIVERSITY OF COPENHAGEN: Jimmy Kromann, CASPER STEINMANN
     TOKYO INSTITUTE OF TECHNOLOGY: HIROYA NAKATA
     NAGOYA UNIVERSITY: YOSHIO NISHIMOTO, STEPHAN IRLE
     MOSCOW STATE UNIVERSITY: VLADIMIR MIRONOV

 EXECUTION OF GAMESS BEGUN Wed Nov 16 19:55:06 2022

            ECHO OF THE FIRST FEW INPUT CARDS -
 INPUT CARD> $system kdiag=3 mwords=100 memddi=1000 parall=.t. $end                         
 INPUT CARD> $contrl runtyp=energy ispher=1 $end                                            
 INPUT CARD> $contrl icut=9 itol=20 inttyp=rysquad qmttol=1.0d-05 nosym=1 $end              
 INPUT CARD> $scf    npunch=2 conv=1.0d-06 dirscf=.t.      $end                             
 INPUT CARD> $contrl scftyp=mcscf  mult=2 maxit=200 icharg=1 mplevl=2 $end                  
 INPUT CARD> $guess  guess=moread norb=29 purify=.t. $end                                   
 INPUT CARD> $basis  gbasis=ccd $end                                                        
 INPUT CARD> $mcscf  cistep=gmcci fullnr=.t. finci=mos                                      
 INPUT CARD>         acurcy=1.d-6 maxit=100 $end                                            
 INPUT CARD> $trans  dirtrf=.t. $end                                                        
 INPUT CARD> $mrmp   mrpt=gmcpt rdvecs=.f. $end                                             
 INPUT CARD> $gmcpt  nmofzc=0 nmodoc=1 nmoact=7 nelact=7 stsym(1)=A                         
 INPUT CARD>         reftyp=ormas nspace=1 mstart(1)=2 mine(1)=7 maxe(1)=7                  
 INPUT CARD>         kstate(1)=1,1,1                                                        
 INPUT CARD>         wstate(1)=1,1,1                                                        
 INPUT CARD>         iwgt=0 thrwgt=-1.0 krot=.f. kszdoe=.f. knospn=.f.                      
 INPUT CARD>         thrde=-1.0 edshft=0.02 $end                                            
 INPUT CARD> $data                                                                          
 INPUT CARD> NH3+ 3 states calculation at NH3 structure.                                    
 INPUT CARD> c1                                                                             
 INPUT CARD>N 7.0 -0.024915672000000007 -0.02491561200000001 -0.1693809002                  
 INPUT CARD>H 1.0 -0.1088230819999999 0.9859740998000002 0.29510943210000007                
 INPUT CARD>H 1.0 -0.414524358 -0.9316662158000001 0.11222352409999997                      
 INPUT CARD>H 1.0 0.8695573719999999 0.2919029840000001 0.36205103610000006                 
 INPUT CARD>$end                                                                            
 INPUT CARD>--- OPTIMIZED RHF      MO-S --- GENERATED AT Mon Nov 14 16:47:08 2022           
 INPUT CARD>E=      -56.3825050291, E(NUC)=   11.8429239490                                 
 INPUT CARD> $VEC                                                                           
 INPUT CARD> 1  1-1.00134066E+00-2.25158504E-03 3.44925845E-03 0.00000000E+00 0.00000000E+00
 INPUT CARD> 1  2-2.13170927E-03 0.00000000E+00 0.00000000E+00 6.57129898E-04-6.87950443E-05
 INPUT CARD> 1  3-6.87950443E-05 1.37590089E-04 0.00000000E+00 0.00000000E+00 0.00000000E+00
 INPUT CARD> 1  4 3.25502815E-04-4.84772356E-04 3.62525460E-04-6.27912517E-04-3.45956485E-04
 INPUT CARD> 1  5 3.25502815E-04-4.84772356E-04 3.62525460E-04 6.27912517E-04-3.45956485E-04
 INPUT CARD> 1  6 3.25502815E-04-4.84772356E-04-7.25050921E-04 0.00000000E+00-3.45956485E-04
 INPUT CARD> 2  1 1.31286642E-02-4.05911371E-01-2.82090992E-01 0.00000000E+00 0.00000000E+00
 INPUT CARD> 2  2-7.71489043E-02 0.00000000E+00 0.00000000E+00 9.73717494E-03 6.62450916E-04
 INPUT CARD> 2  3 6.62450916E-04-1.32490183E-03 0.00000000E+00 0.00000000E+00 0.00000000E+00
 INPUT CARD> 2  4-1.96090317E-01-1.96656153E-02-1.74855877E-02 3.02859263E-02 8.68214399E-03
 INPUT CARD> 2  5-1.96090317E-01-1.96656153E-02-1.74855877E-02-3.02859263E-02 8.68214399E-03
 INPUT CARD> 2  6-1.96090317E-01-1.96656153E-02 3.49711754E-02 0.00000000E+00 8.68214399E-03
 INPUT CARD> 3  1 0.00000000E+00 0.00000000E+00 0.00000000E+00 4.48608762E-01 0.00000000E+00
 INPUT CARD> 3  2 0.00000000E+00 2.18692520E-01 0.00000000E+00 0.00000000E+00 1.30198027E-02
 INPUT CARD> 3  3-1.30198027E-02 0.00000000E+00 0.00000000E+00 2.71832968E-02 0.00000000E+00
 INPUT CARD> 3  4-1.85332726E-01-7.03958951E-02 8.47929477E-03 1.95242443E-02 8.32835058E-03
 INPUT CARD> 3  5-1.85332726E-01-7.03958951E-02 8.47929477E-03-1.95242443E-02 8.32835058E-03
 INPUT CARD> 3  6 3.70665453E-01 1.40791790E-01-2.53376884E-02 0.00000000E+00-1.66567012E-02
 INPUT CARD> 4  1 0.00000000E+00 0.00000000E+00 0.00000000E+00 0.00000000E+00 4.48608762E-01
 INPUT CARD> 4  2 0.00000000E+00 0.00000000E+00 2.18692520E-01 0.00000000E+00 0.00000000E+00
 INPUT CARD> 4  3 0.00000000E+00 0.00000000E+00-1.50339731E-02 0.00000000E+00 2.71832968E-02
 INPUT CARD> 4  4 3.21005698E-01 1.21929267E-01 1.95242443E-02-1.40653607E-02-1.44251263E-02
  100000000 WORDS OF MEMORY AVAILABLE

     BASIS OPTIONS
     -------------
     GBASIS=CCD          IGAUSS=       0      POLAR=NONE    
     NDFUNC=       0     NFFUNC=       0     DIFFSP=       F
     NPFUNC=       0      DIFFS=       F     BASNAM=        


     RUN TITLE
     ---------
  NH3+ 3 states calculation at NH3 structure.                                    

 THE POINT GROUP OF THE MOLECULE IS C1      
 THE ORDER OF THE PRINCIPAL AXIS IS     0

 ATOM      ATOMIC                      COORDINATES (BOHR)
           CHARGE         X                   Y                   Z
 N           7.0    -0.0470837929       -0.0470836795       -0.3200834889
 H           1.0    -0.2056458061        1.8632208796        0.5576759631
 H           1.0    -0.7833374519       -1.7605938599        0.2120717099
 H           1.0     1.6432251637        0.5516166548        0.6841772518

          INTERNUCLEAR DISTANCES (ANGS.)
          ------------------------------

                1 N          2 H          3 H          4 H     

   1 N       0.0000000    1.1156566 *  1.0263005 *  1.0876010 *
   2 H       1.1156566 *  0.0000000    1.9504474 *  1.2014342 *
   3 H       1.0263005 *  1.9504474 *  0.0000000    1.7912011 *
   4 H       1.0876010 *  1.2014342 *  1.7912011 *  0.0000000  

  * ... LESS THAN  3.000


     ATOMIC BASIS SET
     ----------------
 THE CONTRACTED PRIMITIVE FUNCTIONS HAVE BEEN UNNORMALIZED
 THE CONTRACTED BASIS FUNCTIONS ARE NOW NORMALIZED TO UNITY

  SHELL TYPE  PRIMITIVE        EXPONENT          CONTRACTION COEFFICIENT(S)

 N         

      1   S       1          9046.0000000    0.000699617413
      1   S       2          1357.0000000    0.005386054630
      1   S       3           309.3000000    0.027391021189
      1   S       4            87.7300000    0.103150591982
      1   S       5            28.5600000    0.278570663317
      1   S       6            10.2100000    0.448294849454
      1   S       7             3.8380000    0.278085928395
      1   S       8             0.7466000    0.015431561233

      2   S       9          9046.0000000   -0.000304990096
      2   S      10          1357.0000000   -0.002408026379
      2   S      11           309.3000000   -0.011944448725
      2   S      12            87.7300000   -0.048925992909
      2   S      13            28.5600000   -0.134472724725
      2   S      14            10.2100000   -0.315112577700
      2   S      15             3.8380000   -0.242857832550
      2   S      16             0.7466000    1.094382206854

      3   S      17             0.2248000    1.000000000000

      4   P      18            13.5500000    0.058905676772
      4   P      19             2.9170000    0.320461106714
      4   P      20             0.7973000    0.753042061792

      5   P      21             0.2185000    1.000000000000

      6   D      22             0.8170000    1.000000000000

 H         

      7   S      23            13.0100000    0.033498726390
      7   S      24             1.9620000    0.234800801174
      7   S      25             0.4446000    0.813682957883

      8   S      26             0.1220000    1.000000000000

      9   P      27             0.7270000    1.000000000000

 H         

     10   S      28            13.0100000    0.033498726390
     10   S      29             1.9620000    0.234800801174
     10   S      30             0.4446000    0.813682957883

     11   S      31             0.1220000    1.000000000000

     12   P      32             0.7270000    1.000000000000

 H         

     13   S      33            13.0100000    0.033498726390
     13   S      34             1.9620000    0.234800801174
     13   S      35             0.4446000    0.813682957883

     14   S      36             0.1220000    1.000000000000

     15   P      37             0.7270000    1.000000000000

 TOTAL NUMBER OF BASIS SET SHELLS             =   15
 NUMBER OF CARTESIAN GAUSSIAN BASIS FUNCTIONS =   30
 NOTE: THIS RUN WILL RESTRICT THE MO VARIATION SPACE TO SPHERICAL HARMONICS.
 THE NUMBER OF ORBITALS KEPT IN THE VARIATIONAL SPACE WILL BE PRINTED LATER.
 NUMBER OF ELECTRONS                          =    9
 CHARGE OF MOLECULE                           =    1
 SPIN MULTIPLICITY                            =    2
 NUMBER OF OCCUPIED ORBITALS (ALPHA)          =    5
 NUMBER OF OCCUPIED ORBITALS (BETA )          =    4
 TOTAL NUMBER OF ATOMS                        =    4
 THE NUCLEAR REPULSION ENERGY IS       11.3426266822

     $CONTRL OPTIONS
     ---------------
 SCFTYP=MCSCF        RUNTYP=ENERGY       EXETYP=RUN     
 MPLEVL=       2     CITYP =NONE         CCTYP =NONE         VBTYP =NONE    
 DFTTYP=NONE         TDDFT =NONE    
 MULT  =       2     ICHARG=       1     NZVAR =       0     COORD =UNIQUE  
 PP    =NONE         RELWFN=NONE         LOCAL =NONE         NUMGRD=       F
 ISPHER=       1     NOSYM =       1     MAXIT =     200     UNITS =ANGS    
 PLTORB=       F     MOLPLT=       F     AIMPAC=       F     FRIEND=        
 NPRINT=       7     IREST =       0     GEOM  =INPUT   
 NORMF =       0     NORMP =       0     ITOL  =      20     ICUT  =       9
 INTTYP=RYSQUAD      GRDTYP=BEST         QMTTOL= 1.0E-05

     $SYSTEM OPTIONS
     ---------------
  REPLICATED MEMORY=   100000000 WORDS (ON EVERY NODE).
 DISTRIBUTED MEMDDI=        1000 MILLION WORDS IN AGGREGATE,
 MEMDDI DISTRIBUTED OVER   1 PROCESSORS IS  1000000000 WORDS/PROCESSOR.
 TOTAL MEMORY REQUESTED ON EACH PROCESSOR=  1100000000 WORDS.
 TIMLIM=      525600.00 MINUTES, OR     365.0 DAYS.
 PARALL= T  BALTYP=  DLB     KDIAG=    3  COREFL= F
 MXSEQ2=     300 MXSEQ3=     150  mem10=         0

          ----------------
          PROPERTIES INPUT
          ----------------

     MOMENTS            FIELD           POTENTIAL          DENSITY
 IEMOM =       1   IEFLD =       0   IEPOT =       0   IEDEN =       0
 WHERE =COMASS     WHERE =NUCLEI     WHERE =NUCLEI     WHERE =NUCLEI  
 OUTPUT=BOTH       OUTPUT=BOTH       OUTPUT=BOTH       OUTPUT=BOTH    
 IEMINT=       0   IEFINT=       0                     IEDINT=       0
                                                       MORB  =       0

     -------------------------------
     INTEGRAL TRANSFORMATION OPTIONS
     -------------------------------
     NWORD  =            0
     CUTOFF = 1.0E-09     MPTRAN =       0
     DIRTRF =       T     AOINTS =DUP     

          ----------------------
          MCSCF INPUT PARAMETERS
          ----------------------
 CONVERGER SELECTION: FOCAS = F  SOSCF = F  FULLNR = T  QUD = F  JACOBI = F
 SECULAR EQUATION METHOD CISTEP = GMCCI   
 --- GENERAL INPUT OPTIONS:
 MAXIT =     100  MICIT =       1  ACURCY= 1.000E-06
 DAMP  =   0.000  CANONC=       T  ENGTOL= 1.000E-10
 EKT   =       F  NPUNCH=       2  NWORD =         0
 REGENERATE CI AFTER CONVERGENCE = NONE    
 DIABATIZATION AFTER CONVERGENCE =        F
 --- INPUT FOR FULLNR CONVERGER:
 METHOD=DM2       FORS  =       F  DROPC =       T
 LINSER=       F  FCORE =       F  NORB  =      30

          ----------------------
          INTEGRAL INPUT OPTIONS
          ----------------------
 NOPK  =       1 NORDER=       0 SCHWRZ=       T

 ------------------------------------------
 MULTIREFERENCE PERTURBATION THEORY CONTROL
 ------------------------------------------
 MRPT=GMCPT    READ CONVERGED MCSCF VECTORS= F


     ------------------------------------------
     THE POINT GROUP IS C1 , NAXIS= 1, ORDER= 1
     ------------------------------------------

 -- VARIATIONAL SPACE WILL BE RESTRICTED TO PURE SPHERICAL HARMONICS ONLY --
 AFTER EXCLUDING CONTAMINANT COMBINATIONS FROM THE CARTESIAN GAUSSIAN BASIS
 SET, THE NUMBER OF SPHERICAL HARMONICS KEPT IN THE VARIATION SPACE IS   29

     DIMENSIONS OF THE SYMMETRY SUBSPACES ARE
 A   =   29

 ..... DONE SETTING UP THE RUN .....
 CPU     0: STEP CPU TIME=     0.04 TOTAL CPU TIME=          0.0 (      0.0 MIN)
 TOTAL WALL CLOCK TIME=          0.0 SECONDS, CPU UTILIZATION IS    80.00%

          ********************
          1 ELECTRON INTEGRALS
          ********************
 TIME TO DO   DIPOLE INTEGRALS=      0.00
 ...... END OF ONE-ELECTRON INTEGRALS ......
 CPU     0: STEP CPU TIME=     0.00 TOTAL CPU TIME=          0.0 (      0.0 MIN)
 TOTAL WALL CLOCK TIME=          0.0 SECONDS, CPU UTILIZATION IS    80.00%

          -------------
          GUESS OPTIONS
          -------------
          GUESS =MOREAD            NORB  =      29          NORDER=       0
          MIX   =       F          PRTMO =       F          PUNMO =       F
          TOLZ  = 1.0E-08          TOLE  = 1.0E-05
          SYMDEN=       F          PURIFY=       T

 INITIAL GUESS ORBITALS GENERATED BY MOREAD   ROUTINE.

 STATISTICS FOR GENERATION OF SYMMETRY ORBITAL -Q- MATRIX
 NUMBER OF CARTESIAN ATOMIC ORBITALS=         30
 NUMBER OF SPHERICAL CONTAMINANTS DROPPED=     1
 NUMBER OF LINEARLY DEPENDENT MOS DROPPED=     0
 TOTAL NUMBER OF MOS IN VARIATION SPACE=      29
 ORBITAL PURIFICATION WILL OCCUR

 SYMMETRIES FOR INITIAL GUESS ORBITALS FOLLOW.   BOTH SET(S).
     5 ORBITALS ARE OCCUPIED (    1 CORE ORBITALS).
     1=A        2=A        3=A        4=A        5=A        6=A        7=A   
     8=A        9=A       10=A       11=A       12=A       13=A       14=A   
    15=A       16=A       17=A       18=A       19=A       20=A       21=A   
    22=A       23=A       24=A       25=A       26=A       27=A       28=A   
    29=A   
 ...... END OF INITIAL ORBITAL SELECTION ......
 CPU     0: STEP CPU TIME=     0.01 TOTAL CPU TIME=          0.1 (      0.0 MIN)
 TOTAL WALL CLOCK TIME=          0.1 SECONDS, CPU UTILIZATION IS    83.33%

                    ----------------------
                    AO INTEGRAL TECHNOLOGY
                    ----------------------
     S,P,L SHELL ROTATED AXIS INTEGRALS, REPROGRAMMED BY
        KAZUYA ISHIMURA (IMS) AND JOSE SIERRA (SYNSTAR).
     S,P,D,L SHELL ROTATED AXIS INTEGRALS PROGRAMMED BY
        KAZUYA ISHIMURA (INSTITUTE FOR MOLECULAR SCIENCE).
     S,P,D,F,G SHELL TO TOTAL QUARTET ANGULAR MOMENTUM SUM 5,
        ERIC PROGRAM BY GRAHAM FLETCHER (ELORET AND NASA ADVANCED
        SUPERCOMPUTING DIVISION, AMES RESEARCH CENTER).
     S,P,D,F,G,L SHELL GENERAL RYS QUADRATURE PROGRAMMED BY
        MICHEL DUPUIS (PACIFIC NORTHWEST NATIONAL LABORATORY).

          --------------------
          2 ELECTRON INTEGRALS
          --------------------

 DIRECT SCF METHOD SKIPS INTEGRAL STORAGE ON DISK.
 DIRECT TRANSFORMATION SKIPS AO INTEGRAL STORAGE ON DISK.
  ...... END OF TWO-ELECTRON INTEGRALS .....
 STEP CPU TIME =     0.02 TOTAL CPU TIME =          0.1 (      0.0 MIN)
 TOTAL WALL CLOCK TIME=          0.1 SECONDS, CPU UTILIZATION IS    87.50%
 DDI: Creating Array [0] - 900 x 36 = 32400 words.
 DDI: Creating Array [1] - 21 x 288 = 6048 words.
 DDI: Creating Array [2] - 36 x 36 = 1296 words.
 DDI: Creating Array [3] - 465 x 36 = 16740 words.

          -----------------
          MCSCF CALCULATION
          -----------------

 ----- NUCLEAR ENERGY ----- =        11.3426266822

     -------------------------------------------------
     GMC-PT/GMC-QDPT or general MCSCF input parameters
     -------------------------------------------------
 # of frozen core orbs. =         0 ->         0
 # of doubly occ. orbs. =         1
 # of active      orbs. =         7
 # of virtual     orbs. =        21
 # of active electrons  =         7
 # of states in CI      =         3
 Highest state in CI    =         3
 kstate =  1 1 1
 avecoe =  0.333 0.333 0.333
 State symmetry           = A           
 Assigned symmetry number = 1

 <<<Act. MO sym.: 1111111

 <<<Division of 1-ext.:  0
 <<<Division of 2-ext.:  0

 *** Reference space

 Reference type: ORMAS (= Occupation restricted multiple active space)
 # of orbitals          =  7
 # of minimum electrons =  7
 # of maximum electrons =  7
 State symmetry    =    1 (input)
 2*Sz              =    1 (input)
 Spin multiplicity =    2 (input)
 Dimension of reference space =      1225  (from      3432 walks)

 Dimension of reference space =      1225  (from      1225 walks)

 <<<Ionized spaces for Ref-CI:
      0:         1225 /   -1-0:         1960 /  0-1-0:         2891

 EVALUATING EXCHANGE INTEGRALS FOR DIRECT INTEGRAL TRANSFORMATION
 SCHWARZ INEQUALITY OVERHEAD:       465 INTEGRALS, T=        0.01

     --------------------------------------------
     PARTIAL TWO ELECTRON INTEGRAL TRANSFORMATION
     --------------------------------------------

 NUMBER OF CORE MOLECULAR ORBITALS     =    1
 NUMBER OF OCCUPIED MOLECULAR ORBITALS =    8
 TOTAL NUMBER OF MOLECULAR ORBITALS    =   29
 TOTAL NUMBER OF ATOMIC ORBITALS       =   30
 THRESHOLD FOR KEEPING TRANSFORMED 2E- INTEGRALS = 1.000E-09

 -------------------------------     ------------------------------
 DISTRIBUTED DATA TRANSFORMATION     PROGRAM WRITTEN BY G. FLETCHER
 -------------------------------     ------------------------------

 THE DISTRIBUTED MEMORY REQUIRED FOR THIS STEP IS MEMDDI=         1 MWORDS
 CREATING DISTRIBUTED STORAGE FOR [VIR OCC|VIR OCC] INTEGRALS
 CREATING DISTRIBUTED STORAGE FOR [VIR OCC|OCC OCC] INTEGRALS
 CREATING DISTRIBUTED STORAGE FOR [OCC OCC|OCC OCC] INTEGRALS
 CREATING DISTRIBUTED STORAGE FOR [VIR VIR|OCC OCC] INTEGRALS
 FOR    1 PROCESSORS, THE REPLICATED MEMORY NEEDED IS       73700 WORDS.
 SCHWARZ INEQUALITY OVERHEAD:       465 INTEGRALS, T=        0.00

      DIRECT 4-INDEX TRANSFORMATION 
      SCHWARZ INEQUALITY TEST SKIPPED          0 INTEGRAL BLOCKS
 ----- FROZEN CORE ENERGY =       -47.6850003740
 ... END OF INTEGRAL TRANSFORMATION ...
 CPU     0: STEP CPU TIME=     0.22 TOTAL CPU TIME=          0.3 (      0.0 MIN)
 TOTAL WALL CLOCK TIME=          0.3 SECONDS, CPU UTILIZATION IS    96.67%

     --------------------------------     -----------------------------
     MCHF NEWTON-RAPHSON OPTIMIZATION     CODE WRITTEN BY MICHEL DUPUIS
     --------------------------------     -----------------------------
     PARALLEL VERSION WRITTEN BY G. FLETCHER (ELORET)
     NASA ADVANCED SUPERCOMPUTING DIVISION, AMES RESEARCH CENTER

 NUMBER OF INDEPENDENT ORBITAL ROTATION PARAMETERS =   175
 ..... DONE SOLVING NEWTON-RAPHSON EQUATIONS .....
 CPU     0: STEP CPU TIME=     0.94 TOTAL CPU TIME=          1.2 (      0.0 MIN)
 TOTAL WALL CLOCK TIME=          1.2 SECONDS, CPU UTILIZATION IS    99.19%
 ..... DONE WITH NTN-RPH ORBITAL ROTATIONS ..... 
 CPU     0: STEP CPU TIME=     0.00 TOTAL CPU TIME=          1.2 (      0.0 MIN)
 TOTAL WALL CLOCK TIME=          1.2 SECONDS, CPU UTILIZATION IS    99.19%
 MAXIMUM MEMORY USED BY NTN-RPH CODE WAS     57645 WORDS.

 ITER     TOTAL ENERGY      DEL(E)  LAGRANGIAN ASYMMETRY   SQCDF  MICIT   DAMP
   1      -55.624512039 -0.624512039  0.117940   14    4 1.278E-01  1   0.0000
   2      -55.671912258 -0.047400219  0.021296   12    5 4.530E-01  1   0.0000
   3      -55.706622996 -0.034710738  0.013052   11    6 2.285E-01  1   0.0223
   4      -55.721823366 -0.015200369  0.004455   11    6 4.513E-02  1   0.0051
   5      -55.723852123 -0.002028758  0.000776   12    5 1.370E-03  1   0.0000
   6      -55.723913919 -0.000061796  0.000258   24    5 1.255E-04  1   0.0000
   7      -55.723920644 -0.000006725  0.000109   12    5 2.170E-05  1   0.0000
   8      -55.723921873 -0.000001229  0.000053   22    5 4.458E-06  1   0.0000
   9      -55.723922134 -0.000000261  0.000027   22    5 1.055E-06  1   0.0000
  10      -55.723922198 -0.000000063  0.000014   22    5 2.868E-07  1   0.0000
  11      -55.723922215 -0.000000018  0.000008   22    5 8.784E-08  1   0.0000
  12      -55.723922221 -0.000000005  0.000004   22    5 2.936E-08  1   0.0000
  13      -55.723922223 -0.000000002  0.000002   12    7 1.041E-08  1   0.0000
  14      -55.723922223 -0.000000001  0.000001   23    5 3.833E-09  1   0.0000
  15      -55.723922223 -0.000000000  0.000001   23    5 1.444E-09  1   0.0000

          --------------------
          LAGRANGIAN CONVERGED
          --------------------

 FINAL MCSCF ENERGY IS      -55.7239222234 AFTER  15 ITERATIONS

 -MCCI- BASED ON OPTIMIZED ORBITALS
 ----------------------------------

 PLEASE NOTE: IF THE ACTIVE ORBITALS ARE CANONICALIZED BELOW,
 THE FOLLOWING CI EXPANSION COEFFICIENTS AND THE DENSITY DO NOT
 CORRESPOND TO THE PRINTED ORBITALS.  THE PRINTED EXPANSIONS MATCH
 THE ORBITALS USED DURING THE LAST ITERATION.  IF YOU WISH TO SEE
 CI EXPANSIONS BASED ON THE CANONICAL (OR NATURAL) ORBITALS, YOU
 MUST RUN A CI CALCULATION WITH THAT ORBITAL CHOICE READ IN $VEC.

 Averaged energy =     -55.723922223

 State #    1  Energy =     -55.860180550  S =  0.500

      Det      Coef    Occupancy (Ignoring core)
      ---      ----    --------- --------- -----
        1   -0.938202  11110001110000
        5    0.066948  01111001110000
        8    0.129989  10110101110000
       17   -0.131706  11010011110000
       71    0.147195  11110001011000
      211   -0.051049  11110000110100
      386   -0.094732  11110001010010
      393   -0.068989  10110101010010
      701    0.107900  11110001100001
      717   -0.051860  11010011100001

 State #    2  Energy =     -55.747443744  S =  0.500

      Det      Coef    Occupancy (Ignoring core)
      ---      ----    --------- --------- -----
        1    0.107921  11110001110000
       36    0.489671  11110001101000
       71    0.823695  11110001011000
       75   -0.056715  01111001011000
       78   -0.074785  10110101011000
       87    0.088713  11010011011000
      456    0.055901  11110001001010
      806    0.085048  11110001001001

 State #    3  Energy =     -55.564142376  S =  0.500

      Det      Coef    Occupancy (Ignoring core)
      ---      ----    --------- --------- -----
        1    0.100497  11110001110000
       36   -0.832198  11110001101000
       43    0.067699  10110101101000
       52   -0.053980  11010011101000
       71    0.479166  11110001011000
      281   -0.065955  11110000101100
      456   -0.081005  11110001001010
      463   -0.064730  10110101001010

 DENSITY MATRIX OVER ACTIVE MO-S

             1           2           3           4           5

    1    1.9758103
    2    0.0113726   1.6308282
    3    0.0031587   0.0024127   1.6338662
    4    0.0019316   0.0017849  -0.0004451   1.6543410
    5    0.1031943  -0.0283473  -0.0094920   0.0121003   0.0300877
    6   -0.0025761  -0.1442345  -0.0134890   0.0289435   0.0032015
    7   -0.0100250  -0.0092663  -0.1502196   0.0101150  -0.0015737

             6           7

    6    0.0398329
    7   -0.0020444   0.0352338

 FORMING THE "STANDARD FOCK OPERATOR" IN DIRECT AO INTEGRAL MODE...
 ONLY THE    1 CORE AND   21 VIRTUAL ORBITALS WILL BE CANONICALIZED

          ----------------------
          MCSCF NATURAL ORBITALS
          ----------------------

                      1          2          3          4          5
                  -15.9860     1.9817     1.6558     1.6501     1.6411
                     A          A          A          A          A   
    1  N  1  S    1.001182   0.008345  -0.009684  -0.003474  -0.001329
    2  N  1  S   -0.001822   0.435474  -0.147471  -0.121013  -0.023984
    3  N  1  S   -0.006259   0.316963  -0.243451  -0.163762  -0.036620
    4  N  1  X   -0.000038   0.025513  -0.128303   0.197424   0.474359
    5  N  1  Y   -0.000173   0.014267  -0.193116   0.362927  -0.258363
    6  N  1  Z    0.001172   0.089917   0.546953   0.216050  -0.000733
    7  N  1  X   -0.000003   0.000935  -0.073137   0.062299   0.263559
    8  N  1  Y   -0.000033   0.003001  -0.086842   0.110388  -0.139595
    9  N  1  Z   -0.000531   0.014499   0.365532   0.122311  -0.011438
   10  N  1 XX   -0.000139  -0.002192  -0.012856  -0.000787   0.010882
   11  N  1 YY    0.000364   0.001953  -0.008775  -0.008863  -0.010877
   12  N  1 ZZ   -0.000225   0.000239   0.021631   0.009650  -0.000005
   13  N  1 XY    0.000341   0.003032   0.001403  -0.002063   0.003827
   14  N  1 XZ    0.000082   0.001666  -0.003123   0.010886   0.021820
   15  N  1 YZ    0.000034   0.002298  -0.007215   0.017329  -0.011486
   16  H  2  S   -0.001613   0.179610   0.019691   0.254284  -0.281867
   17  H  2  S    0.000344   0.000917   0.019018   0.034847  -0.088782
   18  H  2  X   -0.000128   0.004014  -0.001349   0.017789   0.010716
   19  H  2  Y    0.000822  -0.031602  -0.007539  -0.024499   0.026921
   20  H  2  Z    0.000438  -0.009212   0.023208  -0.003339   0.012863
   21  H  3  S   -0.002055   0.173578   0.236311  -0.304072   0.010373
   22  H  3  S    0.000665  -0.001276   0.038851  -0.028778  -0.003580
   23  H  3  X   -0.000455   0.015217   0.009454  -0.010780   0.019051
   24  H  3  Y   -0.000999   0.031338   0.024611  -0.028995  -0.005074
   25  H  3  Z    0.000369  -0.003236   0.013309   0.019681  -0.000229
   26  H  4  S   -0.001721   0.198633   0.034614   0.248783   0.296372
   27  H  4  S    0.000296   0.005762   0.018670   0.034417   0.091844
   28  H  4  X    0.000818  -0.032123  -0.011645  -0.026129  -0.018398
   29  H  4  Y    0.000248  -0.010491  -0.005459   0.010720  -0.018098
   30  H  4  Z    0.000487  -0.013460   0.022336  -0.004706  -0.017344

                      6          7          8
                    0.0291     0.0240     0.0182
                     A          A          A   
    1  N  1  S   -0.069471  -0.168620  -0.143484
    2  N  1  S   -0.233542  -0.591931  -0.421413
    3  N  1  S   -0.021555  -0.202713   0.029034
    4  N  1  X    0.672771  -0.379732   0.289671
    5  N  1  Y   -0.363709  -0.221217   0.821634
    6  N  1  Z   -0.137094  -0.600385  -0.172169
    7  N  1  X   -0.038539  -0.054475   0.035071
    8  N  1  Y    0.009122  -0.075985   0.085842
    9  N  1  Z    0.022960   0.043375   0.066464
   10  N  1 XX   -0.044315  -0.016542  -0.001737
   11  N  1 YY    0.045733   0.013893   0.014690
   12  N  1 ZZ   -0.001419   0.002649  -0.012954
   13  N  1 XY    0.000645   0.043779  -0.010788
   14  N  1 XZ   -0.011681   0.033122  -0.008062
   15  N  1 YZ    0.016053   0.033335  -0.041429
   16  H  2  S    0.692706   0.367320  -0.254220
   17  H  2  S    0.190531   0.029388  -0.073486
   18  H  2  X   -0.006756   0.036153  -0.021630
   19  H  2  Y   -0.064634  -0.040523   0.008715
   20  H  2  Z   -0.008669   0.024556  -0.005997
   21  H  3  S    0.185042   0.232065   0.852892
   22  H  3  S    0.025090   0.004891   0.146957
   23  H  3  X   -0.001609   0.017314   0.036150
   24  H  3  Y    0.021003   0.033235   0.079234
   25  H  3  Z   -0.001690   0.002901   0.019646
   26  H  4  S   -0.489792   0.683474  -0.069426
   27  H  4  S   -0.169658   0.118914  -0.013164
   28  H  4  X    0.021656  -0.072282  -0.001613
   29  H  4  Y    0.026208   0.007331  -0.032791
   30  H  4  Z    0.022137   0.008805  -0.005138

          ------------------------
          MCSCF OPTIMIZED ORBITALS
          ------------------------

                      1          2          3          4          5
                  -15.9860     0.0000     0.0000     0.0000     0.0000
                     A          A          A          A          A   
    1  N  1  S    1.001182  -0.002573   0.008404   0.009294  -0.013155
    2  N  1  S   -0.001822   0.400315  -0.010021  -0.006442  -0.188460
    3  N  1  S   -0.006259   0.310645  -0.055720  -0.029601  -0.285113
    4  N  1  X   -0.000038   0.007096   0.450366  -0.066786  -0.027179
    5  N  1  Y   -0.000173   0.000634  -0.008905   0.396780  -0.030865
    6  N  1  Z    0.001172   0.051780   0.002640  -0.002875   0.584587
    7  N  1  X   -0.000003  -0.008680   0.266475  -0.077453  -0.042756
    8  N  1  Y   -0.000033  -0.000206  -0.048856   0.181397  -0.036309
    9  N  1  Z   -0.000531   0.015624  -0.028737  -0.020761   0.385679
   10  N  1 XX   -0.000139  -0.003986   0.014407  -0.004178  -0.012759
   11  N  1 YY    0.000364   0.003975  -0.015490   0.002612  -0.010701
   12  N  1 ZZ   -0.000225   0.000011   0.001083   0.001566   0.023460
   13  N  1 XY    0.000341   0.005066   0.003260  -0.002819   0.000338
   14  N  1 XZ    0.000082   0.002318   0.026256  -0.002048   0.001075
   15  N  1 YZ    0.000034   0.003516   0.002159   0.026298  -0.000413
   16  H  2  S   -0.001613   0.205085  -0.138643   0.396364   0.122146
   17  H  2  S    0.000344   0.005605  -0.070631   0.083066   0.032220
   18  H  2  X   -0.000128   0.004781   0.020512   0.010138   0.005227
   19  H  2  Y    0.000822  -0.034421   0.014433  -0.035036  -0.017284
   20  H  2  Z    0.000438  -0.008289   0.005295  -0.016749   0.019849
   21  H  3  S   -0.002055   0.205081  -0.239465  -0.375905   0.117040
   22  H  3  S    0.000665   0.001849  -0.034574  -0.043955   0.027252
   23  H  3  X   -0.000455   0.016346   0.007622  -0.024520   0.005223
   24  H  3  Y   -0.000999   0.035012  -0.027822  -0.032649   0.013177
   25  H  3  Z    0.000369  -0.003384   0.006020   0.009271   0.020115
   26  H  4  S   -0.001721   0.211001   0.423675   0.012473   0.121870
   27  H  4  S    0.000296   0.006042   0.105698  -0.034200   0.028172
   28  H  4  X    0.000818  -0.034279  -0.029881  -0.006239  -0.020776
   29  H  4  Y    0.000248  -0.009968  -0.009097   0.023599  -0.001166
   30  H  4  Z    0.000487  -0.012182  -0.023160  -0.000065   0.018857

                      6          7          8          9         10
                    0.0000     0.0000     0.0000     0.1284     0.1966
                     A          A          A          A          A   
    1  N  1  S    0.215097  -0.052496  -0.068299  -0.114115   0.017705
    2  N  1  S    0.750074  -0.140796  -0.175424  -0.167650   0.017092
    3  N  1  S    0.198991   0.074529   0.058053   1.230142  -0.294301
    4  N  1  X    0.063754   0.863863  -0.058571  -0.029279  -0.037586
    5  N  1  Y    0.068718   0.153462   0.951593  -0.022093  -0.129883
    6  N  1  Z    0.645536   0.037434  -0.016241  -0.158876   0.009107
    7  N  1  X    0.045746   0.029379   0.050100   0.137375   0.316191
    8  N  1  Y    0.041846   0.072489   0.093984   0.153479   0.705666
    9  N  1  Z   -0.061080   0.021256   0.036188   0.372241   0.013626
   10  N  1 XX    0.027829  -0.028899   0.022721  -0.018496   0.026171
   11  N  1 YY   -0.029676   0.037079  -0.012063   0.060351  -0.054794
   12  N  1 ZZ    0.001846  -0.008180  -0.010659  -0.041855   0.028623
   13  N  1 XY   -0.036943  -0.021055  -0.014526   0.060620  -0.044595
   14  N  1 XZ   -0.024988  -0.023673  -0.004555   0.040265   0.044662
   15  N  1 YZ   -0.023245  -0.017711  -0.044856   0.039655   0.091449
   16  H  2  S   -0.450293   0.297763  -0.575690   0.364943   0.185252
   17  H  2  S   -0.059198   0.105210  -0.156503  -0.897707  -0.685764
   18  H  2  X   -0.025088  -0.027288  -0.017946   0.053369   0.001937
   19  H  2  Y    0.051154  -0.031675   0.041673   0.074022   0.026434
   20  H  2  Z   -0.018563  -0.019311  -0.005050   0.042837   0.069778
   21  H  3  S   -0.492262   0.407460   0.575595   0.309279  -0.537618
   22  H  3  S   -0.052700   0.079012   0.108203  -0.627398   1.929786
   23  H  3  X   -0.024860   0.008178   0.027759  -0.042058   0.044949
   24  H  3  Y   -0.056567   0.035881   0.050509  -0.072582   0.114411
   25  H  3  Z   -0.008005   0.006357   0.018152  -0.022029  -0.076597
   26  H  4  S   -0.460834  -0.660433   0.121103   0.320181   0.209186
   27  H  4  S   -0.057555  -0.181718   0.059944  -0.858415  -0.744448
   28  H  4  X    0.059031   0.042803  -0.005450   0.051379   0.018965
   29  H  4  Y   -0.005334   0.003485  -0.040215   0.090857   0.002268
   30  H  4  Z   -0.013032   0.009905  -0.016991   0.051821   0.058648

                     11         12         13         14         15
                    0.2346     0.5307     0.5707     0.6408     0.8380
                     A          A          A          A          A   
    1  N  1  S    0.011460  -0.098383  -0.009247   0.002339  -0.494474
    2  N  1  S    0.024268  -0.100549   0.038406   0.063820  -1.113813
    3  N  1  S   -0.074418   0.880789   0.318069   0.156280   1.963969
    4  N  1  X    0.002673   0.344098  -0.550965  -0.088146  -0.034945
    5  N  1  Y   -0.031489   0.080681   0.282356  -0.407299  -0.070690
    6  N  1  Z    0.015158  -0.613672  -0.242026  -0.261685   0.295090
    7  N  1  X   -0.352429  -0.715576   1.338961   0.654669   0.045026
    8  N  1  Y    0.293751  -0.369005  -0.616250   1.799903   0.112291
    9  N  1  Z   -0.051923   0.921334   0.486150   0.625589  -0.111372
   10  N  1 XX   -0.069309  -0.009399  -0.006911   0.019326   0.032454
   11  N  1 YY    0.071861  -0.014257  -0.007046  -0.014934   0.007067
   12  N  1 ZZ   -0.002551   0.023656   0.013957  -0.004392  -0.039521
   13  N  1 XY   -0.042269  -0.028892  -0.037837   0.005629  -0.095088
   14  N  1 XZ   -0.055885  -0.010500   0.005219  -0.020112   0.010582
   15  N  1 YZ    0.031882  -0.002686  -0.002628  -0.053398  -0.039733
   16  H  2  S    0.580960  -0.264785   0.178729  -0.657194   0.024222
   17  H  2  S   -1.947078  -0.237981   0.768140  -0.460118  -0.374113
   18  H  2  X   -0.046223  -0.104492  -0.091789  -0.023569  -0.345918
   19  H  2  Y    0.065829   0.005673  -0.054815   0.219571   0.140751
   20  H  2  Z    0.017632   0.099836  -0.024886  -0.075549  -0.022744
   21  H  3  S    0.031378  -0.628861  -0.211522   0.486516  -0.146659
   22  H  3  S   -0.022191  -0.438560   0.077225   0.762953  -0.423183
   23  H  3  X    0.044751  -0.029160   0.084778   0.044549   0.043520
   24  H  3  Y   -0.005926  -0.085286  -0.040261   0.186565  -0.089368
   25  H  3  Z   -0.004078   0.059038   0.025498   0.130981   0.172615
   26  H  4  S   -0.595471  -0.116179  -0.553749  -0.457554   0.039801
   27  H  4  S    2.003971   0.321124  -0.911294  -0.224941  -0.303590
   28  H  4  X   -0.084403  -0.007377   0.099905   0.182751   0.236516
   29  H  4  Y    0.007907  -0.115719   0.007770   0.004168  -0.282605
   30  H  4  Z   -0.028930   0.048068   0.101106  -0.054640   0.046306

                     16         17         18         19         20
                    1.0062     1.0892     1.2696     1.3339     1.4817
                     A          A          A          A          A   
    1  N  1  S   -0.348492  -0.143808   0.145704  -0.223675  -0.466689
    2  N  1  S   -0.728027  -0.300703   0.304566  -0.473630  -0.976311
    3  N  1  S    1.462269   0.672625  -0.579959   0.844033   1.667847
    4  N  1  X   -0.041497  -0.066132  -0.003543   0.088036  -0.035409
    5  N  1  Y   -0.063214   0.072738  -0.208924  -0.019708  -0.110327
    6  N  1  Z    0.098370   0.021875   0.022064  -0.009480  -0.053421
    7  N  1  X    0.270046   0.307354   0.376403  -0.464860   0.460617
    8  N  1  Y    0.345585  -0.374845   1.073015  -0.316087   0.437188
    9  N  1  Z   -0.113930   0.171461  -0.120165   0.297233   0.808809
   10  N  1 XX   -0.167831   0.167535  -0.022244   0.059307   0.023530
   11  N  1 YY   -0.085695  -0.128186  -0.034263   0.057682   0.093294
   12  N  1 ZZ    0.253526  -0.039349   0.056508  -0.116989  -0.116823
   13  N  1 XY    0.082670   0.118146  -0.016902  -0.061909   0.060757
   14  N  1 XZ   -0.024184  -0.257679  -0.095454  -0.058628  -0.057386
   15  N  1 YZ   -0.018831   0.124765   0.089180   0.041817   0.037584
   16  H  2  S   -0.400535   0.092769  -0.333494  -0.229877  -0.626243
   17  H  2  S   -0.160198   0.055574  -0.077107   0.009098  -0.037229
   18  H  2  X    0.257983  -0.029223  -0.499546   0.073467   0.150735
   19  H  2  Y   -0.072974  -0.027600  -0.424254  -0.177092  -0.054495
   20  H  2  Z    0.377699   0.296589   0.514483  -0.077242  -0.360065
   21  H  3  S   -0.046368  -0.209754   0.652994  -0.412813  -0.221407
   22  H  3  S   -0.149378  -0.165399   0.343563  -0.214841  -0.056615
   23  H  3  X    0.011353  -0.542117   0.104348   0.587948  -0.214688
   24  H  3  Y    0.030147   0.189237  -0.235588  -0.183293  -0.027591
   25  H  3  Z    0.272221   0.050919  -0.363566   0.061115  -0.793212
   26  H  4  S   -0.407487  -0.226948  -0.012533   0.028259  -0.668132
   27  H  4  S   -0.184919  -0.159708  -0.047674  -0.024038  -0.239796
   28  H  4  X   -0.225588   0.179947   0.087236   0.209782  -0.089318
   29  H  4  Y    0.203951   0.164394  -0.009009   0.598383   0.000839
   30  H  4  Z    0.376322  -0.441857   0.117164  -0.430401   0.132831

                     21         22         23         24         25
                    1.6118     1.8686     1.9005     2.0138     2.0382
                     A          A          A          A          A   
    1  N  1  S   -0.099729   0.004835   0.096518   0.030294   0.034481
    2  N  1  S   -0.203016   0.093539   0.286457   0.036640   0.092072
    3  N  1  S    0.375923   0.672249   1.024979  -0.457350   0.296265
    4  N  1  X   -0.245478   0.303547  -0.040517   0.151768   0.039877
    5  N  1  Y    0.019628   0.549016  -0.224828   0.004874  -0.185677
    6  N  1  Z   -0.022142   0.207506   0.200502  -0.024517   0.059493
    7  N  1  X   -0.217510   0.009458  -0.001880   0.012319  -0.248056
    8  N  1  Y    0.557270   0.235164   0.031287   0.168678  -0.027140
    9  N  1  Z    0.176165   0.285552   0.319959  -0.327435   0.267147
   10  N  1 XX    0.131861  -0.092007   0.304005   0.256647  -0.574318
   11  N  1 YY   -0.033821  -0.020202  -0.156063   0.279030  -0.023126
   12  N  1 ZZ   -0.098040   0.112208  -0.147942  -0.535677   0.597444
   13  N  1 XY    0.007684   0.115374  -0.360146  -0.391188   0.169211
   14  N  1 XZ    0.232534  -0.148397  -0.185422  -0.087113   0.020891
   15  N  1 YZ   -0.136375  -0.164681   0.059661  -0.140794   0.167900
   16  H  2  S   -0.158611  -0.130031  -0.218373   0.203390   0.061885
   17  H  2  S   -0.422004  -0.357397  -0.178798   0.293371   0.206462
   18  H  2  X    0.311062   0.058184   0.274336   0.680507   0.555955
   19  H  2  Y    0.318989   0.692120   0.438057  -0.562969  -0.216175
   20  H  2  Z    0.547569   0.366856  -0.041277   0.330593  -0.156901
   21  H  3  S    0.094260  -0.099857  -0.157618   0.184675  -0.167480
   22  H  3  S   -0.008073   0.231551  -0.381755   0.215657  -0.181353
   23  H  3  X    0.280588   0.249036  -0.355682   0.003969  -0.099863
   24  H  3  Y   -0.285032   0.243756  -0.883777   0.361266  -0.403780
   25  H  3  Z   -0.231116  -0.521983   0.049497   0.087844  -0.028626
   26  H  4  S   -0.268926  -0.096190  -0.218782  -0.035340  -0.139067
   27  H  4  S    0.339260  -0.297371  -0.088712  -0.298217  -0.187266
   28  H  4  X   -0.262926   0.576101   0.138965   0.430462   0.743931
   29  H  4  Y   -0.404598   0.225741   0.311075  -0.406864  -0.460337
   30  H  4  Z   -0.506817   0.329750   0.286544   0.263928  -0.315091

                     26         27         28         29
                    2.2409     2.6454     2.6893     2.9199
                     A          A          A          A   
    1  N  1  S   -0.052327  -0.123884   0.026581   0.004378
    2  N  1  S   -0.071956  -0.130552   0.145443   0.091457
    3  N  1  S    0.618331   1.509859   1.283194   1.056032
    4  N  1  X    0.049821   0.220007   0.069281  -0.386594
    5  N  1  Y   -0.021080   0.314729  -0.420388  -0.161819
    6  N  1  Z    0.064804   0.207308   0.202167   0.118050
    7  N  1  X    0.461553   0.654248   0.148312  -0.625312
    8  N  1  Y   -0.243003   1.075074  -0.836008  -0.266956
    9  N  1  Z    0.301772   0.440287   0.212129   0.094087
   10  N  1 XX   -0.342839   0.101993   0.372579  -0.906583
   11  N  1 YY    0.226248   0.277993   0.104385   1.395327
   12  N  1 ZZ    0.116591  -0.379987  -0.476964  -0.488744
   13  N  1 XY   -0.427845   0.194409   1.048448   0.135126
   14  N  1 XZ    0.730785   0.688382   0.292210  -0.515515
   15  N  1 YZ   -0.431161   1.065259  -0.559036  -0.015657
   16  H  2  S   -0.052027  -0.944705   0.443545  -0.781854
   17  H  2  S    0.101834  -0.291453   0.269820  -0.248905
   18  H  2  X   -0.176361  -0.069467  -0.074362  -0.163259
   19  H  2  Y   -0.084243   0.601059  -0.484929   0.724916
   20  H  2  Z    0.144414   0.309662  -0.068214   0.456268
   21  H  3  S   -0.181105   0.314035  -1.179215  -1.102469
   22  H  3  S   -0.082592   0.205188  -0.404572  -0.327263
   23  H  3  X   -0.661344   0.046686  -0.235781  -0.456518
   24  H  3  Y    0.087534   0.230361  -0.908567  -0.698250
   25  H  3  Z   -0.152192   0.270431   0.312116   0.371892
   26  H  4  S   -0.320348  -1.009636  -0.688689   0.692630
   27  H  4  S   -0.253754  -0.343755  -0.287400   0.251951
   28  H  4  X    0.258564   0.616617   0.584520  -0.580709
   29  H  4  Y    0.557873   0.129075   0.145611  -0.189168
   30  H  4  Z   -0.185821   0.397725   0.456083  -0.299461
 .....DONE WITH MCSCF ITERATIONS.....
 CPU     0: STEP CPU TIME=     9.55 TOTAL CPU TIME=         10.8 (      0.2 MIN)
 TOTAL WALL CLOCK TIME=         10.8 SECONDS, CPU UTILIZATION IS    99.91%

     ----------------------------------------------------------------
     PROPERTY VALUES FOR THE MCSCF SELF-CONSISTENT FIELD WAVEFUNCTION
     ----------------------------------------------------------------

          -----------------
          ENERGY COMPONENTS
          -----------------

         WAVEFUNCTION NORMALIZATION =       1.0000000000

                ONE ELECTRON ENERGY =     -94.1522409866
                TWO ELECTRON ENERGY =      27.0856920809
           NUCLEAR REPULSION ENERGY =      11.3426266822
                                      ------------------
                       TOTAL ENERGY =     -55.7239222234

 ELECTRON-ELECTRON POTENTIAL ENERGY =      27.0856920809
  NUCLEUS-ELECTRON POTENTIAL ENERGY =    -149.9274746633
   NUCLEUS-NUCLEUS POTENTIAL ENERGY =      11.3426266822
                                      ------------------
             TOTAL POTENTIAL ENERGY =    -111.4991559001
               TOTAL KINETIC ENERGY =      55.7752336767
                 VIRIAL RATIO (V/T) =       1.9990800316

          ---------------------------------------
          MULLIKEN AND LOWDIN POPULATION ANALYSES
          ---------------------------------------

     ATOMIC MULLIKEN POPULATION IN EACH MOLECULAR ORBITAL

                      1          2          3          4          5

                  2.000000   1.981679   1.655850   1.650059   1.641119

    1             2.000792   1.343145   1.475739   0.919910   1.144307
    2            -0.000202   0.204818   0.008502   0.213522   0.239409
    3            -0.000339   0.185071   0.159709   0.317158   0.008394
    4            -0.000251   0.248645   0.011900   0.199469   0.249009

                      6          7          8

                  0.029080   0.024029   0.018185

    1             0.013328   0.012657   0.009594
    2             0.010402   0.002592   0.000660
    3             0.000731   0.000826   0.007866
    4             0.004618   0.007954   0.000065
 WARNING! MCSCF POPULATIONS SHOWN ABOVE ARE FOR THE NATURAL ORBITALS.
 IGNORE THE ABOVE DATA FOR MCSCF FUNCTIONS WHICH ARE NOT OF -FORS- TYPE.
 THE FOLLOWING POPULATIONS ARE CORRECT FOR ANY MCSCF WAVEFUNCTION.

               ----- POPULATIONS IN EACH AO -----
                             MULLIKEN      LOWDIN
              1  N  1  S      2.00245     1.90003
              2  N  1  S      0.82011     0.57700
              3  N  1  S      0.67590     0.40309
              4  N  1  X      0.72422     0.66124
              5  N  1  Y      0.65654     0.57600
              6  N  1  Z      0.86490     0.81201
              7  N  1  X      0.37258     0.44370
              8  N  1  Y      0.26404     0.38779
              9  N  1  Z      0.52226     0.55867
             10  N  1 XX      0.00048     0.15677
             11  N  1 YY      0.00378     0.18550
             12  N  1 ZZ      0.00108     0.14239
             13  N  1 XY      0.00538     0.00540
             14  N  1 XZ      0.00576     0.00932
             15  N  1 YZ      0.00000     0.01143
             16  H  2  S      0.57506     0.44153
             17  H  2  S      0.04989     0.14834
             18  H  2  X      0.00992     0.03191
             19  H  2  Y      0.03091     0.05058
             20  H  2  Z      0.01392     0.03240
             21  H  3  S      0.59677     0.46369
             22  H  3  S      0.02582     0.14407
             23  H  3  X      0.01290     0.02877
             24  H  3  Y      0.03241     0.05825
             25  H  3  Z      0.01152     0.03279
             26  H  4  S      0.61175     0.46927
             27  H  4  S      0.05218     0.14696
             28  H  4  X      0.02903     0.05335
             29  H  4  Y      0.01156     0.02972
             30  H  4  Z      0.01688     0.03801

          ----- MULLIKEN ATOMIC OVERLAP POPULATIONS -----
          (OFF-DIAGONAL ELEMENTS NEED TO BE MULTIPLIED BY 2)

             1           2           3           4

    1    6.0579203
    2    0.2692115   0.4269638
    3    0.3153765  -0.0057268   0.3749200
    4    0.2769644  -0.0107460  -0.0051529   0.4603425

          TOTAL MULLIKEN AND LOWDIN ATOMIC POPULATIONS
       ATOM         MULL.POP.    CHARGE          LOW.POP.     CHARGE
    1 N             6.919473    0.080527         6.830353    0.169647
    2 H             0.679703    0.320297         0.704759    0.295241
    3 H             0.679417    0.320583         0.727570    0.272430
    4 H             0.721408    0.278592         0.737318    0.262682

          MULLIKEN SPHERICAL HARMONIC POPULATIONS
       ATOM           S       P       D      F      G      H      I    TOTAL
    1 N             3.50    3.40    0.02   0.00   0.00   0.00   0.00    6.92
    2 H             0.62    0.05    0.00   0.00   0.00   0.00   0.00    0.68
    3 H             0.62    0.06    0.00   0.00   0.00   0.00   0.00    0.68
    4 H             0.66    0.06    0.00   0.00   0.00   0.00   0.00    0.72

          ---------------------
          ELECTROSTATIC MOMENTS
          ---------------------

 POINT   1           X           Y           Z (BOHR)    CHARGE
                 0.000003    0.000003   -0.177185        1.00 (A.U.)
         DX          DY          DZ         /D/  (DEBYE)
     0.461548    0.467978    2.174572    2.271738
 ...... END OF PROPERTY EVALUATION ......
 CPU     0: STEP CPU TIME=     0.00 TOTAL CPU TIME=         10.8 (      0.2 MIN)
 TOTAL WALL CLOCK TIME=         10.8 SECONDS, CPU UTILIZATION IS    99.81%

     -------------------------------------------------
     GMC-PT/GMC-QDPT or general MCSCF input parameters
     -------------------------------------------------
 # of frozen core orbs. =         0 ->         0
 # of doubly occ. orbs. =         1
 # of active      orbs. =         7
 # of virtual     orbs. =        21
 # of active electrons  =         7
 # of states in CI      =         3
 Highest state in CI    =         3
 kstate =  1 1 1
 avecoe =  0.333 0.333 0.333
 State symmetry           = A           
 Assigned symmetry number = 1

 <<<Act. MO sym.: 1111111

 <<<Division of 1-ext.:  0
 <<<Division of 2-ext.:  0

     ------------------------
     Orbital canonicalization
     ------------------------

 MOs are canonicalized for core, virtual, and invariant-active orbital spaces.
 This is a part of the GMC-QDPT calculation.
 SCHWARZ INEQUALITY OVERHEAD:       465 INTEGRALS, T=        0.00
 DIRECT TRANSFORMATION SKIPS AO INTEGRAL STORAGE ON DISK.

 Averaged energy =     -55.723922223

 State #    1  Energy =     -55.860180550  S =  0.500
 State #    2  Energy =     -55.747443744  S =  0.500
 State #    3  Energy =     -55.564142376  S =  0.500

 Orbital energies for filled orbital space
  -15.985985
 Orbital energies for active orbital space
   -1.512324  -0.817215  -1.009580  -0.744156   0.283051
    0.219160   0.418993
 Orbital energies for external orbital space
    0.128406   0.196644   0.234594   0.530735   0.570662
    0.640848   0.837967   1.006236   1.089188   1.269564
    1.333900   1.481737   1.611827   1.868645   1.900513
    2.013752   2.038238   2.240890   2.645422   2.689311
    2.919884

 Zero values mean non-canonical orbitals.
 ... done with orbital canonicalization ...
 CPU     0: STEP CPU TIME=     0.59 TOTAL CPU TIME=         11.4 (      0.2 MIN)
 TOTAL WALL CLOCK TIME=         11.4 SECONDS, CPU UTILIZATION IS    99.82%

     --------------------------------------------
     PARTIAL TWO ELECTRON INTEGRAL TRANSFORMATION
     --------------------------------------------

 NUMBER OF CORE MOLECULAR ORBITALS     =    0
 NUMBER OF OCCUPIED MOLECULAR ORBITALS =    8
 TOTAL NUMBER OF MOLECULAR ORBITALS    =   29
 TOTAL NUMBER OF ATOMIC ORBITALS       =   30
 THRESHOLD FOR KEEPING TRANSFORMED 2E- INTEGRALS = 1.000E-09
 AO INTEGRALS WILL BE CALCULATED IN DIRECT MODE...
 DIRECT TRANSFORMATION SKIPS AO INTEGRAL STORAGE ON DISK.
 SCHWARZ INEQUALITY OVERHEAD:       465 INTEGRALS, T=        0.00

 PLAN A: REQUIREMENTS FOR FULLY IN-MEMORY TRANSFORMATION:
 # OF WORDS AVAILABLE =            100000000
 # OF WORDS NEEDED    =               221798

 PARALLEL ONLY WORKS WITH THE SEGMENTED ALGORITHM.
 ADJUSTING MEMORY TO USE SEGMENTED ALGORITHM.


 PLAN B: REQUIREMENTS FOR THE SEGMENTED TRANSFORMATION:
       MINIMUM=         124148 WORDS FOR 1 MOLECULAR ORBITAL PER PASS
       MAXIMUM=         221798 WORDS FOR ALL MOLECULAR ORBITALS IN 1 PASS
              (          13950 EXTRA WORDS INCLUDES 1 EXTRA ORBITAL/PASS)
 THIS RUN USES=         221798 WORDS,
 DISTRIBUTING   1 PASSES EACH CONTAINING     8 ORBITALS OVER   1 PROCESSORS.

 CHOOSING SEGMENTED PARTIAL TRANSFORMATION...
 DIRECT TRANSFORMATION SKIPS AO INTEGRAL STORAGE ON DISK.
 PASS #   1 TOOK        0.05 SECONDS.
 TOTAL NUMBER OF TRANSFORMED 2E- INTEGRALS KEPT =        29226
 ... END OF INTEGRAL TRANSFORMATION ...
 CPU     0: STEP CPU TIME=     0.05 TOTAL CPU TIME=         11.4 (      0.2 MIN)
 TOTAL WALL CLOCK TIME=         11.4 SECONDS, CPU UTILIZATION IS    99.91%

     --------     ------------------------------------------
     GMC-QDPT     Program written by H.Nakano (Kyushu Univ.)
     --------     ------------------------------------------

 *** Reference space

 Reference type: ORMAS (= Occupation restricted multiple active space)
 # of orbitals          =  7
 # of minimum electrons =  7
 # of maximum electrons =  7
 State symmetry    =    1 (input)
 2*Sz              =    1 (input)
 Spin multiplicity =    2 (input)
 Dimension of reference space =      1225  (from      3432 walks)

 Dimension of reference space =      1225  (from      1225 walks)

 <<<Ionized spaces for Ref-CI:
      0:         1225 /   -1-0:         1960 /  0-1-0:         2891

 ***                    ***
 *** Reference space CI ***
 ***                    ***

 Converged after   27 iterations

 Reference wavefunctions:

 State #    1  Energy =     -55.860180550  S =  0.500

      Det      Coef    Occupancy (Ignoring core)
      ---      ----    --------- --------- -----
        1   -0.975646  11110001110000
       71   -0.053569  11110001011000
      393   -0.067628  10110101010010
      717   -0.059508  11010011100001

 State #    2  Energy =     -55.747443744  S =  0.500

      Det      Coef    Occupancy (Ignoring core)
      ---      ----    --------- --------- -----
        1    0.055660  11110001110000
       71   -0.981553  11110001011000
      822    0.059355  11010011001001

 State #    3  Energy =     -55.564142376  S =  0.500

      Det      Coef    Occupancy (Ignoring core)
      ---      ----    --------- --------- -----
       36   -0.977263  11110001101000
      463   -0.068319  10110101001010

 Davidson method: CPU/Wall time =           0.40 /           0.39 sec.

 Oscillator strength (invalid if E(1)/=E(GS)):
 -----------------------------------------
   State                        f
 -----------------------------------------
     2     F(REF-CI)=        0.0005089863
     3     F(REF-CI)=        0.0034170137
 -----------------------------------------

 Dipole moment matrix elements, x, y, z, in A.U.

 Dimension of ionized spaces for PT:
 (N-2) space:         1715 /  (N-1) space:         2842 /  N space:         2891
 (N+1) space:         2842 /  (N+2) space:         1715

 <<<Ionized spaces for internal:
         0:         1225 /      -1-0:         1960 /     0-1-0:         2891
  -1-0-1-0:         2842 / 0-1-0-1-0:         3381

 Diagonal elements of averaged one-particle density matrix:
       2       3       4       5       6       7       8
  0.9933  0.9850  0.9881  0.9921  0.0139  0.0168  0.0107
  0.9883  0.6563  0.6622  0.6629  0.0107  0.0120  0.0077

 Orbital energies:
 -------- Doubly-occupied orbitals (highest several orbs.) -------
             1
 -1.598599D+01
 -------- Active orbitals ----------------------------------------
             2            3            4            5            6
 -1.512324D+00-8.172149D-01-1.009580D+00-7.441565D-01 2.830509D-01
             7            8
  2.191596D-01 4.189928D-01
 -------- External orbitals (lowest several orbs.) ---------------
             9           10           11           12           13
  1.284063D-01 1.966436D-01 2.345940D-01 5.307355D-01 5.706617D-01
            14           15           16           17           18
  6.408483D-01 8.379675D-01 1.006236D+00 1.089188D+00 1.269564D+00

 *** Quasi-degeneracy checking

 === Det (|Ci| > 1.0D-01 and dE < 5.0D-03)

 # of small denominators (single excitations)
 State       dEmin  dE < 5.0D-03  dE < 5.0D-04  dE < 5.0D-05  dE < 5.0D-06
 ----- ----------- ------------- ------------- ------------- -------------
     1    5.00D-03             0             0             0             0
     2    5.00D-03             0             0             0             0
     3    5.00D-03             0             0             0             0

 # of small denominators (double excitations)
 State       dEmin  dE < 5.0D-03  dE < 5.0D-04  dE < 5.0D-05  dE < 5.0D-06
 ----- ----------- ------------- ------------- ------------- -------------
     1    5.00D-03             0             0             0             0
     2    5.00D-03             0             0             0             0
     3    5.00D-03             0             0             0             0

 *** Zeroth-Order Setup (Granovsky's zeroth-order vectors)
 Zeroth-order effective Hamiltonian
  (= Sum_i e(i)*<I|a+(i)a(i)|J> ):
                   1            2            3
     1 -7.316723D+00
     2  6.955220D-03-7.267084D+00
     3 -1.464181D-03-2.257731D-03-7.060975D+00

 Zeroth-order vectors:
 State #    1
       MC st            1           2           3
       Coeff    9.907D-01  -1.360D-01   4.455D-03
 State #    2
       MC st            2           1           3
       Coeff   -9.906D-01  -1.359D-01  -1.187D-02
 State #    3
       MC st            3           2           1
       Coeff    9.999D-01  -1.115D-02  -6.027D-03

 *** GMC-QDPT computation

 (Integral reading:  CPU/Wall time =           0.00 /           0.00 sec.)

 One-external:
   0 -ionized terms: CPU/Wall time =           0.03 /           0.03 sec.
 (-1)-ionized terms: CPU/Wall time =           0.08 /           0.09 sec.
 (+1)-ionized terms: CPU/Wall time =           0.03 /           0.02 sec.
 (+1)-ionized terms: CPU/Wall time =           0.00 /           0.01 sec.
 (+2)-ionized terms: CPU/Wall time =           0.01 /           0.00 sec.

 Internal:
 # of macro loops for internal contribution =         1 (input)
 Loop:    1
 Dimension of internal CISD space     =         0  (after screening)
 Space construction: CPU/Wall time =           0.01 /           0.02 sec.
 Internal terms:     CPU/Wall time =           0.00 /           0.00 sec.

 Two-external:
   0 -ionized terms: CPU/Wall time =           0.06 /           0.06 sec.
 (-1)-ionized terms: CPU/Wall time =           1.00 /           0.99 sec.
 (-2)-ionized terms: CPU/Wall time =           0.17 /           0.17 sec.

 Total time:         CPU/Wall time =           1.39 /           1.39 sec.

 ***                  ***
 *** GMC-QDPT Results ***
 ***                  ***

 Diagonal elements of effective Hamiltonian:
 Heff(  1) =   -55.95688529
 Heff(  2) =   -55.85711021
 Heff(  3) =   -55.67563501

 Off-diagonal elements of effective Hamiltonian:
                   1            2
     2  1.347739D-02
     3  1.020607D-03-2.098329D-03

 ******** GMC-QDPT energies ********
 ----------------------------------------------------------------------------
   State                        1st order                           2nd order
 ----------------------------------------------------------------------------
     1     E(REF-CI)=      -55.8601805502   E(GMC-QDPT2)=      -55.9586795853
     2     E(REF-CI)=      -55.7474437440   E(GMC-QDPT2)=      -55.8553428365
     3     E(REF-CI)=      -55.5641423761   E(GMC-QDPT2)=      -55.6756080818
 ----------------------------------------------------------------------------

 Excitation energies (invalid if E(1)/=E(GS)):
 ----------------------------------------------------------------------------
   State                        1st order                           2nd order
 ----------------------------------------------------------------------------

     TZ Sorted GMC-PT ENERGIES:
         1      -55.9586795853
         2      -55.8553428365
         3      -55.6756080818
     2     E(REF-CI)=        3.0677263 eV   E(GMC-QDPT2)=        2.8119376 eV
     3     E(REF-CI)=        8.0556132 eV   E(GMC-QDPT2)=        7.7027719 eV
 ----------------------------------------------------------------------------

 Main characters of perturbed GMC-QDPT states:

 State #    1  Energy =     -55.958679585  S =  0.500

      Det      Coef    Occupancy (Ignoring core)
      ---      ----    --------- --------- -----
        1   -0.975875  11110001110000
      393   -0.067545  10110101010010
      717   -0.059494  11010011100001

 State #    2  Energy =     -55.855342837  S =  0.500

      Det      Coef    Occupancy (Ignoring core)
      ---      ----    --------- --------- -----
        1    0.051422  11110001110000
       71   -0.981779  11110001011000
      822    0.059366  11010011001001

 State #    3  Energy =     -55.675608082  S =  0.500

      Det      Coef    Occupancy (Ignoring core)
      ---      ----    --------- --------- -----
       36   -0.977262  11110001101000
      463   -0.068327  10110101001010

 <<<Max |V/de| = 2.823D-02  Thresh = 1.000D+00

 Oscillator strength (invalid if E(1)/=E(GS)):
 ----------------------------------------------------------------------------
   State                        1st order                           2nd order
 ----------------------------------------------------------------------------
     2     F(REF-CI)=        0.0005089863     F(GMC-PT2)=        0.0004862317
     3     F(REF-CI)=        0.0034170137     F(GMC-PT2)=        0.0033143320
 ----------------------------------------------------------------------------

 Dipole moment matrix elements, x, y, z, in A.U.
States    1    1        0.1973023768        0.2224111136        0.7275466059
States    1    2        0.0486433002       -0.0078003630        0.0680511073
States    1    3        0.0416183351        0.1033765951       -0.0717208955
States    2    1        0.0486433002       -0.0078003630        0.0680511073
States    2    2        0.1490644151        0.0177411614        0.2729230138
States    2    3        0.1039360831       -0.1045196927        0.0006140399
States    3    1        0.0416183351        0.1033765951       -0.0717208955
States    3    2        0.1039360831       -0.1045196927        0.0006140399
States    3    3        0.3653752273        0.4640415158        0.2450289214

 Oscillator strength (valid only when positive): 
 ----------------------------------------------------------------------------
  States                        1st order                           2nd order
 ----------------------------------------------------------------------------
  1  1     F(REF-CI)=        0.0000000000     F(GMC-PT2)=        0.0000000000
  1  2     F(REF-CI)=       -0.0005089863     F(GMC-PT2)=       -0.0004862317
  1  3     F(REF-CI)=       -0.0034170137     F(GMC-PT2)=       -0.0033143320
  2  1     F(REF-CI)=        0.0005089863     F(GMC-PT2)=        0.0004862317
  2  2     F(REF-CI)=        0.0000000000     F(GMC-PT2)=        0.0000000000
  2  3     F(REF-CI)=       -0.0026662027     F(GMC-PT2)=       -0.0026034522
  3  1     F(REF-CI)=        0.0034170137     F(GMC-PT2)=        0.0033143320
  3  2     F(REF-CI)=        0.0026662027     F(GMC-PT2)=        0.0026034522
  3  3     F(REF-CI)=        0.0000000000     F(GMC-PT2)=        0.0000000000
 CPU     0: STEP CPU TIME=     1.86 TOTAL CPU TIME=         13.3 (      0.2 MIN)
 TOTAL WALL CLOCK TIME=         13.3 SECONDS, CPU UTILIZATION IS    99.92%

     !!! DIABATIZATION FOR REF CI STATES !!!

 *******************************************************
          $DMO GROUP FOUND IN THE INPUT.
        DIABATIZATION OF ADIABATIC STATES BEGINS.
     PROGRAMMED BY TAO ZENG (CARLETON UNIVERSITY).
               Email: toby.zeng@carleton.ca
     See T. Zeng, J. Chem. Phys. 2017, 146, 144103
 *******************************************************

 *************************************************************************
     STEP 1: TRANSFORMATION OF ADIABATIC STATES TO THE DMO REPRESENTATION
         See Atchity and Ruedenberg, J. Chem. Phys. 1999, 111, 2910
 *************************************************************************

Read in Diabatic Molecualr Orbitals:

                      1          2          3          4          5

    1  N  1  S    0.008609   0.000000   0.000000  -0.013219   0.279491
    2  N  1  S    0.442914  -0.000000   0.000000  -0.184329   0.867803
    3  N  1  S    0.276913   0.000000  -0.000000  -0.288315   0.144236
    4  N  1  X   -0.000000   0.493155  -0.024636  -0.000000  -0.000000
    5  N  1  Y    0.000000   0.024636   0.493155  -0.000000   0.000000
    6  N  1  Z    0.090197   0.000000   0.000000   0.593421   0.705309
    7  N  1  X   -0.000000   0.210628  -0.010522   0.000000   0.000000
    8  N  1  Y    0.000000   0.010522   0.210628  -0.000000  -0.000000
    9  N  1  Z   -0.004381   0.000000   0.000000   0.381592  -0.106092
   10  N  1 XX   -0.000457   0.010719  -0.000535  -0.012387   0.006153
   11  N  1 YY   -0.000457  -0.010719   0.000535  -0.012387   0.006153
   12  N  1 ZZ    0.000914  -0.000000   0.000000   0.024773  -0.012306
   13  N  1 XY    0.000000  -0.000618  -0.012377  -0.000000   0.000000
   14  N  1 XZ   -0.000000   0.026529  -0.001325  -0.000000   0.000000
   15  N  1 YZ    0.000000   0.001325   0.026529  -0.000000   0.000000
   16  H  2  S    0.194462  -0.176074   0.343485   0.112865  -0.523343
   17  H  2  S    0.003574  -0.023812   0.046452   0.024014  -0.054445
   18  H  2  X    0.018760   0.009101   0.022834   0.009336  -0.039151
   19  H  2  Y   -0.032493   0.022287  -0.020044  -0.016171   0.067811
   20  H  2  Z   -0.009251   0.008464  -0.016511   0.018769  -0.010566
   21  H  3  S    0.194462  -0.209430  -0.324227   0.112865  -0.523343
   22  H  3  S    0.003574  -0.028322  -0.043847   0.024014  -0.054445
   23  H  3  X    0.018760   0.006781  -0.023627   0.009336  -0.039151
   24  H  3  Y    0.032493  -0.024174  -0.017723   0.016171  -0.067811
   25  H  3  Z   -0.009251   0.010067   0.015585   0.018769  -0.010566
   26  H  4  S    0.194462   0.385503  -0.019258   0.112865  -0.523343
   27  H  4  S    0.003574   0.052134  -0.002604   0.024014  -0.054445
   28  H  4  X   -0.037519  -0.032295   0.001613  -0.018672   0.078302
   29  H  4  Y    0.000000   0.001067   0.021353  -0.000000   0.000000
   30  H  4  Z   -0.009251  -0.018530   0.000926   0.018769  -0.010566

                      6          7

    1  N  1  S    0.000000  -0.000000
    2  N  1  S    0.000000  -0.000000
    3  N  1  S   -0.000000   0.000000
    4  N  1  X   -0.930415  -0.002083
    5  N  1  Y   -0.002083   0.930415
    6  N  1  Z   -0.000000   0.000000
    7  N  1  X   -0.046866  -0.000105
    8  N  1  Y   -0.000105   0.046866
    9  N  1  Z   -0.000000   0.000000
   10  N  1 XX    0.001538   0.000003
   11  N  1 YY   -0.001538  -0.000003
   12  N  1 ZZ   -0.000000   0.000000
   13  N  1 XY   -0.000004   0.001776
   14  N  1 XZ    0.039985   0.000090
   15  N  1 YZ    0.000090  -0.039985
   16  H  2  S   -0.362630  -0.631354
   17  H  2  S   -0.065964  -0.114846
   18  H  2  X    0.002763  -0.037520
   19  H  2  Y    0.037435   0.040736
   20  H  2  Z    0.001882   0.003276
   21  H  3  S   -0.365454   0.629724
   22  H  3  S   -0.066477   0.114549
   23  H  3  X    0.002595   0.037532
   24  H  3  Y   -0.037617   0.040567
   25  H  3  Z    0.001896  -0.003268
   26  H  4  S    0.728084   0.001630
   27  H  4  S    0.132441   0.000297
   28  H  4  X   -0.062317  -0.000140
   29  H  4  Y    0.000055  -0.024345
   30  H  4  Z   -0.003778  -0.000008

NUMBER OF SUB ACTIVE SPACES:   1
ROTATE ACTIVE MOS TO DMOS IN EACH SUB-SPACE

SPACE  1:

OVERLAP BETWEEN ORTHONORMAL AND PRE-ORTHONORMAL REF. DMOS

             1           2           3           4           5

    1    0.9856856   0.0178943   0.0085998  -0.0052093  -0.0020941
    2    0.0178943   0.9322131   0.0595358   0.0268275  -0.0491944
    3    0.0085998   0.0595358   1.0125416   0.0209760  -0.0501908
    4   -0.0052093   0.0268275   0.0209760   0.9958843  -0.0064509
    5   -0.0020941  -0.0491944  -0.0501908  -0.0064509   1.1000901
    6   -0.0017396  -0.0484066   0.0566098   0.0307041  -0.0069649
    7    0.0031430  -0.0474813  -0.0258307  -0.0354145   0.0508888

             6           7

    1   -0.0017396   0.0031430
    2   -0.0484066  -0.0474813
    3    0.0566098  -0.0258307
    4    0.0307041  -0.0354145
    5   -0.0069649   0.0508888
    6    1.0446846   0.0085383
    7    0.0085383   1.0180886
REFERENCE DMOS AFTER ORTHONORMALIZATION:

                      1          2          3          4          5

    1  N  1  S    0.008926   0.012418   0.011695  -0.012658   0.255681
    2  N  1  S    0.449302   0.034526   0.035479  -0.181226   0.793955
    3  N  1  S    0.279522   0.008985   0.008612  -0.288523   0.131594
    4  N  1  X   -0.010308   0.486082  -0.003130   0.014773   0.014884
    5  N  1  Y   -0.008085   0.037971   0.509283   0.022299  -0.018228
    6  N  1  Z    0.095671   0.012600   0.018558   0.599873   0.646651
    7  N  1  X   -0.004026   0.226710  -0.021081  -0.004265   0.008487
    8  N  1  Y   -0.002021   0.000320   0.210380  -0.002225   0.007159
    9  N  1  Z   -0.002327  -0.015158  -0.010694   0.384159  -0.096234
   10  N  1 XX   -0.000730   0.012373  -0.000830  -0.012803   0.006058
   11  N  1 YY   -0.000329  -0.011129   0.001757  -0.012132   0.005146
   12  N  1 ZZ    0.001060  -0.001244  -0.000927   0.024935  -0.011204
   13  N  1 XY    0.000100   0.000187  -0.012271   0.000283  -0.000614
   14  N  1 XZ   -0.000458   0.031056  -0.005240  -0.001922   0.001348
   15  N  1 YZ   -0.000067  -0.002041   0.025564  -0.001818   0.002858
   16  H  2  S    0.200457  -0.290864   0.336336   0.102720  -0.447207
   17  H  2  S    0.004213  -0.040688   0.046547   0.022136  -0.044389
   18  H  2  X    0.018862   0.004556   0.019372   0.007458  -0.032823
   19  H  2  Y   -0.033409   0.033376  -0.019357  -0.016387   0.060615
   20  H  2  Z   -0.009337   0.009669  -0.017717   0.018923  -0.010075
   21  H  3  S    0.201108  -0.227944  -0.301892   0.157023  -0.530005
   22  H  3  S    0.004061  -0.029509  -0.038566   0.031453  -0.058096
   23  H  3  X    0.018960   0.008359  -0.025296   0.010811  -0.038043
   24  H  3  Y    0.033406  -0.029365  -0.016538   0.019793  -0.065723
   25  H  3  Z   -0.009589   0.009097   0.014063   0.018126  -0.008400
   26  H  4  S    0.191045   0.429535  -0.109417   0.081333  -0.457885
   27  H  4  S    0.002875   0.060849  -0.016007   0.018693  -0.046778
   28  H  4  X   -0.037574  -0.033885   0.010981  -0.016107   0.069837
   29  H  4  Y   -0.000086  -0.001287   0.020736  -0.001201   0.001966
   30  H  4  Z   -0.008945  -0.021181   0.001623   0.019445  -0.010430

                      6          7

    1  N  1  S    0.002134  -0.012390
    2  N  1  S    0.011413  -0.044962
    3  N  1  S    0.009911  -0.016923
    4  N  1  X   -0.868503   0.027629
    5  N  1  Y   -0.036228   0.930592
    6  N  1  Z   -0.013495  -0.010580
    7  N  1  X   -0.033118   0.009653
    8  N  1  Y   -0.011793   0.051056
    9  N  1  Z   -0.012201   0.017305
   10  N  1 XX    0.002508  -0.000208
   11  N  1 YY   -0.001683  -0.001142
   12  N  1 ZZ   -0.000824   0.001349
   13  N  1 XY    0.000645   0.001476
   14  N  1 XZ    0.040055   0.000935
   15  N  1 YZ   -0.001004  -0.038919
   16  H  2  S   -0.379612  -0.596677
   17  H  2  S   -0.067591  -0.109979
   18  H  2  X    0.001680  -0.034321
   19  H  2  Y    0.038954   0.037254
   20  H  2  Z    0.002535   0.004389
   21  H  3  S   -0.357025   0.634573
   22  H  3  S   -0.065154   0.114691
   23  H  3  X    0.003385   0.038803
   24  H  3  Y   -0.037782   0.042245
   25  H  3  Z    0.000881  -0.001356
   26  H  4  S    0.717338   0.037969
   27  H  4  S    0.129569   0.004616
   28  H  4  X   -0.060900  -0.004863
   29  H  4  Y   -0.000890  -0.023578
   30  H  4  Z   -0.005344   0.000315

 -------------------------------------------
       MAXIMIZING MORMO OVERLAP TERM        
 -------------------------------------------
   SWEEP    VALUE       PROGRESS
     0     5.25993
     1     6.96066     1.70072875
     2     6.96947     0.00880874
     3     6.96947     0.00000046
     4     6.96947     0.00000000
     5     6.96947     0.00000000
 THE ROTATION IS DONE
FLIPPING SIGN FOR ORBITAL   7
ACTIVE ORBITALS AFTER MORMO:

                      1          2          3          4          5

    1  N  1  S    0.007708   0.017603   0.013181  -0.012244   0.219782
    2  N  1  S    0.434355   0.039230   0.023857  -0.186503   0.748092
    3  N  1  S    0.316422  -0.023110   0.005246  -0.278698   0.185718
    4  N  1  X   -0.004507   0.454836   0.010157   0.023958   0.004125
    5  N  1  Y   -0.009899   0.051809   0.498512   0.022636  -0.024893
    6  N  1  Z    0.086888   0.025507   0.026290   0.600334   0.626236
    7  N  1  X   -0.012183   0.274483  -0.062665  -0.031807   0.029973
    8  N  1  Y   -0.000937  -0.042217   0.197437  -0.026217   0.025328
    9  N  1  Z    0.017295  -0.041697  -0.029997   0.384085  -0.069150
   10  N  1 XX   -0.003088   0.017940  -0.002141  -0.012064   0.027167
   11  N  1 YY    0.002623  -0.017596   0.002752  -0.010631  -0.029508
   12  N  1 ZZ    0.000465  -0.000345  -0.000610   0.022695   0.002341
   13  N  1 XY    0.003650  -0.000070  -0.008257  -0.002193  -0.034969
   14  N  1 XZ    0.000926   0.024140  -0.005801  -0.000179  -0.024993
   15  N  1 YZ    0.002682  -0.002948   0.018938  -0.003140  -0.020925
   16  H  2  S    0.187416  -0.213263   0.331158   0.101917  -0.446579
   17  H  2  S    0.004415  -0.086830   0.071034   0.028662  -0.054064
   18  H  2  X    0.003561   0.017144   0.004564   0.003283  -0.024534
   19  H  2  Y   -0.032317   0.021036  -0.029763  -0.015565   0.052369
   20  H  2  Z   -0.008646   0.003236  -0.020426   0.018153  -0.016553
   21  H  3  S    0.184225  -0.221360  -0.321408   0.130225  -0.522860
   22  H  3  S   -0.000661  -0.030054  -0.031507   0.032013  -0.059368
   23  H  3  X    0.015051   0.008538  -0.022583   0.005660  -0.026902
   24  H  3  Y    0.032717  -0.026865  -0.028744   0.013619  -0.059613
   25  H  3  Z   -0.003941   0.005796   0.010342   0.021234  -0.010573
   26  H  4  S    0.186767   0.396095  -0.058863   0.093573  -0.473633
   27  H  4  S    0.002860   0.104529  -0.046828   0.022843  -0.058153
   28  H  4  X   -0.031425  -0.025860   0.000731  -0.017998   0.061124
   29  H  4  Y   -0.009937  -0.012727   0.019427  -0.002477  -0.002969
   30  H  4  Z   -0.012019  -0.025782  -0.002529   0.017722  -0.010594

                      6          7

    1  N  1  S    0.037162  -0.060379
    2  N  1  S    0.084241  -0.129706
    3  N  1  S   -0.089090   0.097509
    4  N  1  X   -0.868418   0.009578
    5  N  1  Y   -0.015730   0.916293
    6  N  1  Z   -0.036649   0.003636
    7  N  1  X   -0.031768   0.045183
    8  N  1  Y   -0.050112   0.088567
    9  N  1  Z   -0.000735   0.022354
   10  N  1 XX    0.029492   0.020981
   11  N  1 YY   -0.037378  -0.008553
   12  N  1 ZZ    0.007886  -0.012429
   13  N  1 XY    0.020155  -0.018657
   14  N  1 XZ    0.023652  -0.010213
   15  N  1 YZ    0.015084  -0.050250
   16  H  2  S   -0.312152  -0.598850
   17  H  2  S   -0.112695  -0.151577
   18  H  2  X    0.026758  -0.024773
   19  H  2  Y    0.031267   0.044055
   20  H  2  Z    0.018725  -0.007589
   21  H  3  S   -0.345682   0.630857
   22  H  3  S   -0.066253   0.117331
   23  H  3  X   -0.005775   0.028473
   24  H  3  Y   -0.029967   0.054975
   25  H  3  Z   -0.002377   0.015742
   26  H  4  S    0.688276  -0.013794
   27  H  4  S    0.187305   0.031390
   28  H  4  X   -0.046143   0.006239
   29  H  4  Y   -0.006135  -0.041322
   30  H  4  Z   -0.010551  -0.015613

Actually Used Diabatic Molecualr Orbitals:

                      1          2          3          4          5

    1  N  1  S    0.007708   0.017603   0.013181  -0.012244   0.219782
    2  N  1  S    0.434355   0.039230   0.023857  -0.186503   0.748092
    3  N  1  S    0.316422  -0.023110   0.005246  -0.278698   0.185718
    4  N  1  X   -0.004507   0.454836   0.010157   0.023958   0.004125
    5  N  1  Y   -0.009899   0.051809   0.498512   0.022636  -0.024893
    6  N  1  Z    0.086888   0.025507   0.026290   0.600334   0.626236
    7  N  1  X   -0.012183   0.274483  -0.062665  -0.031807   0.029973
    8  N  1  Y   -0.000937  -0.042217   0.197437  -0.026217   0.025328
    9  N  1  Z    0.017295  -0.041697  -0.029997   0.384085  -0.069150
   10  N  1 XX   -0.003088   0.017940  -0.002141  -0.012064   0.027167
   11  N  1 YY    0.002623  -0.017596   0.002752  -0.010631  -0.029508
   12  N  1 ZZ    0.000465  -0.000345  -0.000610   0.022695   0.002341
   13  N  1 XY    0.003650  -0.000070  -0.008257  -0.002193  -0.034969
   14  N  1 XZ    0.000926   0.024140  -0.005801  -0.000179  -0.024993
   15  N  1 YZ    0.002682  -0.002948   0.018938  -0.003140  -0.020925
   16  H  2  S    0.187416  -0.213263   0.331158   0.101917  -0.446579
   17  H  2  S    0.004415  -0.086830   0.071034   0.028662  -0.054064
   18  H  2  X    0.003561   0.017144   0.004564   0.003283  -0.024534
   19  H  2  Y   -0.032317   0.021036  -0.029763  -0.015565   0.052369
[...]
       51   -0.022564    0.022564  22+-00+
      499    0.022297   -0.022297  02+2020
       77    0.022109   -0.022109  2+-20+0
      464   -0.021952   -0.021952  -++2020
        7    0.020959    0.020959  22-+0+0
      822   -0.020198    0.020198  2+02002

 ---------------------------------------
    -DIABATIC STATES IN PROTOTYPES-     
 ---------------------------------------

     STATE:    1
 Group Ref#    Coefficients
     1    1    0.967059
     2    2    0.001233
     3    3   -0.002366

WEIGHT OF LISTED PROTOTYPES:   93.52%

     STATE:    2
 Group Ref#    Coefficients
     1    1    0.001233
     2    2    0.967789
     3    3   -0.000592

WEIGHT OF LISTED PROTOTYPES:   93.66%

     STATE:    3
 Group Ref#    Coefficients
     1    1   -0.002366
     2    2   -0.000592
     3    3    0.964947

WEIGHT OF LISTED PROTOTYPES:   93.11%

 --------------------------------------------------
 IN DIRECT MAX. DIABATIZATION FOR GMC-QDPT

 DIRECT MAXIMIZATION (DM) WITHOUT TRUNCATING ADIABATS
 EXPANSIONS INTO THE REFERENCE CONFIGURATION SPACE
 --------------------------------------------------

 -------------------------------------------
 - DM DIABT PT HAMILTONIAN MATRIX ELEMENTS -
 -------------------------------------------
                                            
 --- DIABATIC ENERGIES (DIAGONAL ELEMENT) ---       HARTREE            EV
 STATE #  1'S GMC-PT-LEVEL DIABATIC ENERGY=     -55.950928642       0.000000000
 STATE #  2'S GMC-PT-LEVEL DIABATIC ENERGY=     -55.824732368       3.433975541
 STATE #  3'S GMC-PT-LEVEL DIABATIC ENERGY=     -55.713969494       6.447986863

 --- DIABATIC COUPLINGS (OFF DIAGONAL ELEMENTS)---  HATREE            EV
 STATE #  1 &  2'S GMC-PT-LEVEL COUPLING  =      -0.030006688      -0.816523566
 STATE #  1 &  3'S GMC-PT-LEVEL COUPLING  =      -0.029991079      -0.816098829
 STATE #  2 &  3'S GMC-PT-LEVEL COUPLING  =       0.068276146       1.857888567

 ---------------------------------------
     - ROTATION TO DIABATIC STATES -    
 ---------------------------------------
 ROWS=ADIABATIC, COLUMNS=DIABATIC STATES

             1           2           3

    1    0.9804060   0.1846421   0.0686395
    2    0.1341260  -0.8809069   0.4538869
    3   -0.1442717   0.4357871   0.8884117

 ---------------------------------------
          - DIABATIC STATES -           
 ---------------------------------------

 State #    1  Energy =     -55.950928642

      Det      Coef        Coefp    Occupancy (Ignoring core)
      ---      ----        ----    --------- --------- -----
        1    0.947934   -0.947934  222+000
        8   -0.118513    0.118513  2-2+0+0
      386    0.088167   -0.088167  2+2+0-0
        4   -0.075577    0.075577  2-2++00
      393   -0.073407   -0.073407  202+020
      176    0.073098   -0.073098  2+2+-00
        7    0.072037    0.072037  22-+0+0
      351   -0.066926   -0.066926  22++0-0
      717   -0.066152   -0.066152  220+002
        3   -0.063695   -0.063695  22-++00
      141    0.062263    0.062263  22++-00
       18   -0.053218    0.053218  2-2+00+
      736    0.050718   -0.050718  2+2+00-
        6    0.048050   -0.048050  22200+0
       16   -0.042226    0.042226  222000+
      708    0.041087   -0.041087  2-++0+-
      402    0.038647   -0.038647  2+-+0-+
      215   -0.037286   -0.037286  022+200
      218    0.034449   -0.034449  +-2+-+0
      390    0.033963   -0.033963  -+2++-0
      705   -0.033888   -0.033888  -2+++0-
      227   -0.033873   -0.033873  +2-+-0+
       76    0.030346    0.030346  2+2-0+0
      212    0.029697    0.029697  +220200
      113   -0.028088    0.028088  +-220+0
       51   -0.026114    0.026114  22+-00+
      143   -0.025827   -0.025827  220+200
      424   -0.025438   -0.025438  +-2++-0
       17    0.025182    0.025182  22-+00+
      387   -0.025023    0.025023  2+20+-0
     1051   -0.024539   -0.024539  2+++0--
      184   -0.024167   -0.024167  -+2+-+0
      122    0.023623    0.023623  +2-200+
      773    0.023197   -0.023197  +2-++0-
      702    0.022726    0.022726  22+0+0-
      159    0.022541   -0.022541  -2++-0+
       13    0.022473    0.022473  2--+++0
       29   -0.021683   -0.021683  2--+0++
      179   -0.021004   -0.021004  202+200

 State #    2  Energy =     -55.824732368

      Det      Coef        Coefp    Occupancy (Ignoring core)
      ---      ----        ----    --------- --------- -----
       71   -0.950718    0.950718  2+22000
       74    0.104583   -0.104583  2022+00
       76    0.078372    0.078372  2+2-0+0
       77    0.076829   -0.076829  2+-20+0
      246    0.076571    0.076571  2++2-00
      456   -0.069307   -0.069307  2++20-0
       78    0.067201   -0.067201  20220+0
      386   -0.064981    0.064981  2+2+0-0
      822    0.064758   -0.064758  2+02002
       73   -0.063177    0.063177  2+-2+00
      736    0.051976   -0.051976  2+2+00-
       88    0.051486   -0.051486  202200+
       86   -0.049307   -0.049307  2+2-00+
       36    0.045021    0.045021  22+2000
      813    0.044826   -0.044826  20+20+-
      106    0.043701    0.043701  +222000
      323   -0.037325    0.037325  +022-+0
      320    0.036942    0.036942  0+22200
      113    0.034629   -0.034629  +-220+0
      810   -0.034427   -0.034427  -++2+0-
       99   -0.032300    0.032300  20-20++
      332   -0.032185    0.032185  ++-2-0+
      111    0.031841   -0.031841  +22-0+0
      180   -0.031501    0.031501  -+2+200
      317    0.031151   -0.031151  ++2-200
      183   -0.030819    0.030819  202+-+0
      177    0.030238   -0.030238  2+20200
       81    0.029723    0.029723  202-++0
       38   -0.029685    0.029685  2202+00
      248    0.025843   -0.025843  2+02200
       72   -0.024459   -0.024459  2+2-+00
      526   -0.024036   -0.024036  ++220-0
      529    0.023830    0.023830  +022+-0
      807   -0.023784    0.023784  2++-+0-
      192   -0.023313    0.023313  2+-+-0+
       83    0.022848   -0.022848  20-2++0
      252   -0.022579   -0.022579  2+02-+0
        6    0.022345   -0.022345  22200+0
      878    0.022314    0.022314  ++-2+0-
      264    0.021627   -0.021627  -++2-0+
      393   -0.021157   -0.021157  202+020
       51    0.020934   -0.020934  22+-00+
      534    0.020895    0.020895  0+22020
      391    0.020396   -0.020396  2+20020

 State #    3  Energy =     -55.713969494

      Det      Coef        Coefp    Occupancy (Ignoring core)
      ---      ----        ----    --------- --------- -----
       36   -0.952221   -0.952221  22+2000
      456   -0.090883   -0.090883  2++20-0
      246   -0.080276   -0.080276  2++2-00
      463    0.077174   -0.077174  20+2020
       43    0.074848    0.074848  2-+20+0
       38    0.065881   -0.065881  2202+00
       42   -0.064733    0.064733  22020+0
       53    0.058615    0.058615  2-+200+
      806   -0.056258   -0.056258  2++200-
       51   -0.054346    0.054346  22+-00+
       39    0.050706    0.050706  2-+2+00
      701    0.049650    0.049650  22++00-
      351   -0.048311   -0.048311  22++0-0
       71   -0.046318    0.046318  2+22000
      472   -0.045991   -0.045991  2+020-+
      121   -0.041401    0.041401  +22-00+
      285    0.038037   -0.038037  02+2200
      112   -0.037711   -0.037711  +2-20+0
      460   -0.036408   -0.036408  -++2+-0
       52    0.035252   -0.035252  220200+
      288   -0.034433   -0.034433  +-+2-+0
       41    0.034043   -0.034043  22+-0+0
      297    0.033832   -0.033832  +202-0+
       64    0.032492   -0.032492  2-020++
      282    0.031821    0.031821  +2+-200
      145   -0.031191   -0.031191  -2++200
      142    0.030311    0.030311  22+0200
      106    0.029777    0.029777  +222000
      457   -0.029743    0.029743  2++-+-0
       73    0.029570   -0.029570  2+-2+00
      148   -0.028557   -0.028557  2-++-+0
       37   -0.028371    0.028371  22+-+00
       16   -0.026406    0.026406  222000+
      254    0.026155   -0.026155  -++2-+0
      494    0.024576   -0.024576  +-+2+-0
      249    0.024382   -0.024382  20+2200
      157    0.024160   -0.024160  220+-0+
       46    0.022859   -0.022859  2-+-++0
      716    0.022019    0.022019  22+0002
      771    0.021785    0.021785  +22+00-
       44    0.021677   -0.021677  -2+20+0
      561    0.021417    0.021417  2+++--0
      358   -0.020705    0.020705  2-++020
      461    0.020656   -0.020656  2++-020
      281    0.020631   -0.020631  +2+2-00
        3    0.020372    0.020372  22-++00
      843   -0.020337   -0.020337  +202+0-
      108   -0.020146   -0.020146  +2-2+00

 ---------------------------------------
      - DIABATIC STATES IN CMO -        
 ---------------------------------------

 State #    1  Energy =     -55.950928642

      Det      Coef        Coefp    Occupancy (Ignoring core)
      ---      ----        ----    --------- --------- -----
        1    0.950282   -0.950282  222+000
       71    0.179016   -0.179016  2+22000
       36    0.138779    0.138779  22+2000
      393   -0.068939   -0.068939  202+020
      717   -0.060577   -0.060577  220+002
      179   -0.045085   -0.045085  202+200
       17   -0.038118   -0.038118  22-+00+
      106   -0.032386   -0.032386  +222000
      215   -0.030578   -0.030578  022+200
      389    0.029292    0.029292  202++-0
      402   -0.029170    0.029170  2+-+0-+
        4    0.028760   -0.028760  2-2++00
      394    0.028679   -0.028679  -+2+020
        8   -0.028407    0.028407  2-2+0+0
      214    0.027279    0.027279  +-2+200
      428   -0.026740   -0.026740  +-2+020
      391   -0.026441    0.026441  2+20020
      183   -0.025496    0.025496  202+-+0
      357   -0.025375   -0.025375  220+020
      180   -0.025342    0.025342  -+2+200
        6    0.025259   -0.025259  22200+0
      708   -0.024714    0.024714  2-++0+-
      113   -0.024483    0.024483  +-220+0
      143   -0.023500   -0.023500  220+200
      388   -0.023300   -0.023300  2+-++-0
       76    0.022839    0.022839  2+2-0+0
      429   -0.022361   -0.022361  022+020
       51    0.022131   -0.022131  22+-00+
      178    0.021482    0.021482  2+-+200
       72   -0.021232   -0.021232  2+2-+00
      122   -0.020834   -0.020834  +2-200+
      787   -0.020659    0.020659  +2-+002
      144   -0.020584    0.020584  2-++200
        3    0.020502    0.020502  22-++00

 State #    2  Energy =     -55.824732368

      Det      Coef        Coefp    Occupancy (Ignoring core)
      ---      ----        ----    --------- --------- -----
       71   -0.852689    0.852689  2+22000
       36   -0.432371   -0.432371  22+2000
        1    0.224200   -0.224200  222+000
      822    0.055120   -0.055120  2+02002
      463    0.044485   -0.044485  20+2020
      462    0.033623   -0.033623  2+02020
      113    0.032962   -0.032962  +-220+0
      320    0.028567    0.028567  0+22200
      813   -0.027347    0.027347  20+20+-
      107   -0.026374    0.026374  +22-+00
      177    0.026373   -0.026373  2+20200
      108   -0.023625   -0.023625  +2-2+00
      179   -0.023465   -0.023465  202+200
      533    0.023383    0.023383  +022020
      319   -0.022134   -0.022134  +022200
      183   -0.022106    0.022106  202+-+0
        6    0.021739   -0.021739  22200+0
       42   -0.021547    0.021547  22020+0
       83    0.021112   -0.021112  20-2++0
      751    0.020990   -0.020990  2+20002
      534    0.020943    0.020943  0+22020
       81    0.020705    0.020705  202-++0
      461   -0.020461    0.020461  2++-020

 State #    3  Energy =     -55.713969494

      Det      Coef        Coefp    Occupancy (Ignoring core)
      ---      ----        ----    --------- --------- -----
       36   -0.865386   -0.865386  22+2000
       71    0.455243   -0.455243  2+22000
      249    0.055226   -0.055226  20+2200
      463    0.052944   -0.052944  20+2020
        1    0.041023   -0.041023  222+000
      121    0.038871   -0.038871  +22-00+
      253    0.038241    0.038241  20+2-+0
      112   -0.034219   -0.034219  +2-20+0
      248   -0.033715    0.033715  2+02200
      250    0.031669    0.031669  -++2200
      285    0.027867   -0.027867  02+2200
      459   -0.026512    0.026512  20+2+-0
       76    0.025517    0.025517  2+2-0+0
      472    0.025221    0.025221  2+020-+
      284   -0.024963    0.024963  +-+2200
      356    0.024646    0.024646  22+0020
      498    0.024496   -0.024496  +-+2020
      113    0.024352   -0.024352  +-220+0
      716    0.024145    0.024145  22+0002
        8   -0.024040    0.024040  2-2+0+0
       74    0.023787   -0.023787  2022+00
      109   -0.023496    0.023496  +-22+00
      771   -0.022863   -0.022863  +22+00-
      111   -0.022848    0.022848  +22-0+0
       52   -0.022602    0.022602  220200+
       51   -0.022564    0.022564  22+-00+
      499    0.022297   -0.022297  02+2020
       77    0.022109   -0.022109  2+-20+0
      464   -0.021952   -0.021952  -++2020
        7    0.020959    0.020959  22-+0+0
      822   -0.020198    0.020198  2+02002

 ---------------------------------------
    -DIABATIC STATES IN PROTOTYPES-     
 ---------------------------------------

     STATE:    1
 Group Ref#    Coefficients
     1    1    0.967059
     2    2    0.001234
     3    3   -0.002364

WEIGHT OF LISTED PROTOTYPES:   93.52%

     STATE:    2
 Group Ref#    Coefficients
     1    1    0.001233
     2    2    0.967789
     3    3   -0.000591

WEIGHT OF LISTED PROTOTYPES:   93.66%

     STATE:    3
 Group Ref#    Coefficients
     1    1   -0.002369
     2    2   -0.000593
     3    3    0.964947

WEIGHT OF LISTED PROTOTYPES:   93.11%

     DIRECT MAX. DIABATIZATION FINISHED    
 CPU     0: STEP CPU TIME=     0.24 TOTAL CPU TIME=         13.5 (      0.2 MIN)
 TOTAL WALL CLOCK TIME=         13.5 SECONDS, CPU UTILIZATION IS    99.85%

DIABATS FOR SPIN-ORBIT CALCULATION ARE READY

TRANSITION DIPOLES BETWEEN ADIABATS (in A.U.):

STATE PAIR      X         Y         Z
    1    1  0.197302  0.222411  0.727547
    2    1  0.048643 -0.007800  0.068051
    2    2  0.149064  0.017741  0.272923
    3    1  0.041618  0.103377 -0.071721
    3    2  0.103936 -0.104520  0.000614
    3    3  0.365375  0.464042  0.245029


TRANSITION DIPOLES BETWEEN DIABATS (in A.U.):

STATE PAIR      X         Y         Z
    1    1  0.196930  0.196508  0.747487
    2    1 -0.009717  0.037554 -0.001653
    2    2  0.102863  0.208897  0.248974
    3    1  0.039031  0.036434  0.003353
    3    2  0.032782  0.256375 -0.017719
    3    3  0.411949  0.298789  0.249037

TRANSITION DIPOLES BETWEEN DIRECT MAX. DIABATS (in A.U.):

STATE PAIR      X         Y         Z
    1    1  0.196930  0.196508  0.747487
    2    1 -0.009717  0.037555 -0.001653
    2    2  0.102863  0.208897  0.248974
    3    1  0.039031  0.036434  0.003352
    3    2  0.032782  0.256375 -0.017719
    3    3  0.411949  0.298788  0.249037
 No $TRANST Group Found.
 Quit without doing spin-orbit coupling
 ..... DONE WITH MP2 ENERGY .....
 CPU     0: STEP CPU TIME=     0.01 TOTAL CPU TIME=         13.5 (      0.2 MIN)
 TOTAL WALL CLOCK TIME=         13.5 SECONDS, CPU UTILIZATION IS    99.93%
            100000000  WORDS OF DYNAMIC MEMORY USED
 EXECUTION OF GAMESS TERMINATED NORMALLY Wed Nov 16 19:55:20 2022
 DDI: 715512 bytes (0.7 MB / 0 MWords) used by master data server.

 ----------------------------------------
 CPU timing information for all processes
 ========================================
 0: 13.282 + 0.252 = 13.535
 ----------------------------------------
Note: The following floating-point exceptions are signalling: IEEE_DENORMAL
 ddikick.x: exited gracefully.
unset echo
----- accounting info -----
Files used on the master node io002 were:
-rw-r--r-- 1 bsonghao nooijen   20751 Nov 16 19:55 /scratch/bsonghao/nh3_diabatization_2d_at_mode_7_8_dist0.4_0.4.F05
-rw-r--r-- 1 bsonghao nooijen  363520 Nov 16 19:55 /scratch/bsonghao/nh3_diabatization_2d_at_mode_7_8_dist0.4_0.4.F09
-rw-r--r-- 1 bsonghao nooijen 1995920 Nov 16 19:55 /scratch/bsonghao/nh3_diabatization_2d_at_mode_7_8_dist0.4_0.4.F10
-rw-r--r-- 1 bsonghao nooijen  131264 Nov 16 19:55 /scratch/bsonghao/nh3_diabatization_2d_at_mode_7_8_dist0.4_0.4.F13
-rw-r--r-- 1 bsonghao nooijen  180312 Nov 16 19:55 /scratch/bsonghao/nh3_diabatization_2d_at_mode_7_8_dist0.4_0.4.F15
-rw-r--r-- 1 bsonghao nooijen       0 Nov 16 19:55 /scratch/bsonghao/nh3_diabatization_2d_at_mode_7_8_dist0.4_0.4.F16
-rw-r--r-- 1 bsonghao nooijen    9808 Nov 16 19:55 /scratch/bsonghao/nh3_diabatization_2d_at_mode_7_8_dist0.4_0.4.F70
-rw-r--r-- 1 bsonghao nooijen    9808 Nov 16 19:55 /scratch/bsonghao/nh3_diabatization_2d_at_mode_7_8_dist0.4_0.4.F71
-rw-r--r-- 1 bsonghao nooijen   19608 Nov 16 19:55 /scratch/bsonghao/nh3_diabatization_2d_at_mode_7_8_dist0.4_0.4.F72
-rw-r--r-- 1 bsonghao nooijen   19608 Nov 16 19:55 /scratch/bsonghao/nh3_diabatization_2d_at_mode_7_8_dist0.4_0.4.F73
-rw-r--r-- 1 bsonghao nooijen 1920824 Nov 16 19:55 /scratch/bsonghao/nh3_diabatization_2d_at_mode_7_8_dist0.4_0.4.F74
-rw-r--r-- 1 bsonghao nooijen       0 Nov 16 19:55 /scratch/bsonghao/nh3_diabatization_2d_at_mode_7_8_dist0.4_0.4.F75
-rw-r--r-- 1 bsonghao nooijen   58848 Nov 16 19:55 /scratch/bsonghao/nh3_diabatization_2d_at_mode_7_8_dist0.4_0.4.F76
-rw-r--r-- 1 bsonghao nooijen       0 Nov 16 19:55 /scratch/bsonghao/nh3_diabatization_2d_at_mode_7_8_dist0.4_0.4.F77
-rw-r--r-- 1 bsonghao nooijen    1864 Nov 16 19:55 /scratch/bsonghao/nh3_diabatization_2d_at_mode_7_8_dist0.4_0.4.F78
-rw-r--r-- 1 bsonghao nooijen   39208 Nov 16 19:55 /scratch/bsonghao/nh3_diabatization_2d_at_mode_7_8_dist0.4_0.4.F79
-rw-r--r-- 1 bsonghao nooijen     104 Nov 16 19:55 /scratch/bsonghao/nh3_diabatization_2d_at_mode_7_8_dist0.4_0.4.F80
-rw-r--r-- 1 bsonghao nooijen   13472 Nov 16 19:55 /scratch/bsonghao/nh3_diabatization_2d_at_mode_7_8_dist0.4_0.4.F81
-rw-r--r-- 1 bsonghao nooijen      16 Nov 16 19:55 /scratch/bsonghao/nh3_diabatization_2d_at_mode_7_8_dist0.4_0.4.F82
-rw-r--r-- 1 bsonghao nooijen   19216 Nov 16 19:55 /scratch/bsonghao/nh3_diabatization_2d_at_mode_7_8_dist0.4_0.4.F83
-rw-r--r-- 1 bsonghao nooijen   29712 Nov 16 19:55 /scratch/bsonghao/nh3_diabatization_2d_at_mode_7_8_dist0.4_0.4.F84
-rw-r--r-- 1 bsonghao nooijen  401576 Nov 16 19:55 /scratch/bsonghao/nh3_diabatization_2d_at_mode_7_8_dist0.4_0.4.F85
-rw-r--r-- 1 bsonghao nooijen  903672 Nov 16 19:55 /scratch/bsonghao/nh3_diabatization_2d_at_mode_7_8_dist0.4_0.4.F86
-rw-r--r-- 1 bsonghao nooijen     656 Nov 16 19:55 /scratch/bsonghao/nh3_diabatization_2d_at_mode_7_8_dist0.4_0.4.F87
-rw-r--r-- 1 bsonghao nooijen   35408 Nov 16 19:55 /scratch/bsonghao/nh3_diabatization_2d_at_mode_7_8_dist0.4_0.4.F88
-rw-r--r-- 1 bsonghao nooijen     240 Nov 16 19:55 /scratch/bsonghao/nh3_diabatization_2d_at_mode_7_8_dist0.4_0.4.F89
-rw-r--r-- 1 bsonghao nooijen       0 Nov 16 19:55 /scratch/bsonghao/nh3_diabatization_2d_at_mode_7_8_dist0.4_0.4.F90
-rw-r--r-- 1 bsonghao nooijen   13760 Nov 16 19:55 /scratch/bsonghao/nh3_diabatization_2d_at_mode_7_8_dist0.4_0.4.F91
-rw-r--r-- 1 bsonghao nooijen   22776 Nov 16 19:55 /scratch/bsonghao/nh3_diabatization_2d_at_mode_7_8_dist0.4_0.4.F92
-rw-r--r-- 1 bsonghao nooijen   23168 Nov 16 19:55 /scratch/bsonghao/nh3_diabatization_2d_at_mode_7_8_dist0.4_0.4.F93
-rw-r--r-- 1 bsonghao nooijen   22776 Nov 16 19:55 /scratch/bsonghao/nh3_diabatization_2d_at_mode_7_8_dist0.4_0.4.F94
-rw-r--r-- 1 bsonghao nooijen   13760 Nov 16 19:55 /scratch/bsonghao/nh3_diabatization_2d_at_mode_7_8_dist0.4_0.4.F95
-rw-r--r-- 1 bsonghao nooijen   29440 Nov 16 19:55 /scratch/bsonghao/nh3_diabatization_2d_at_mode_7_8_dist0.4_0.4.F96
-rw-r--r-- 1 bsonghao nooijen    1184 Nov 16 19:55 /scratch/bsonghao/nh3_diabatization_2d_at_mode_7_8_dist0.4_0.4.F97
-rw-r--r-- 1 bsonghao nooijen    9808 Nov 16 19:55 /scratch/bsonghao/nh3_diabatization_2d_at_mode_7_8_dist0.4_0.4.F98
-rw-r--r-- 1 bsonghao nooijen   30264 Nov 16 19:55 /scratch/bsonghao/nh3_diabatization_2d_at_mode_7_8_dist0.4_0.4.F99
ls: No match.
ls: No match.
ls: No match.
Wed 16 Nov 2022 07:55:23 PM EST
0.299u 0.052s 0:16.93 2.0%	0+0k 48+224io 0pf+0w
