----- GAMESS execution script 'rungms' -----
This job is running on host io002
under operating system Linux at Wed 16 Nov 2022 06:36:40 PM EST
Available scratch disk space (Kbyte units) at beginning of the job is
Filesystem       1K-blocks       Used   Available Use% Mounted on
/dev/sdc1      15378471580 3278917120 11318349060  23% /scratch
GAMESS temporary binary files will be written to /scratch/bsonghao
GAMESS supplementary output files will be written to /home/bsonghao/.gamess_ascii_files/267638
Copying input file nh3_diabatization_2d_at_mode_7_8_dist-0.6_-0.1.inp to your run's scratch directory...
cp nh3_diabatization_2d_at_mode_7_8_dist-0.6_-0.1.inp /scratch/bsonghao/nh3_diabatization_2d_at_mode_7_8_dist-0.6_-0.1.F05
unset echo
/home/bjb2chen/gamess/ddikick.x /home/bjb2chen/gamess/gamess.00.x nh3_diabatization_2d_at_mode_7_8_dist-0.6_-0.1 -ddi 1 1 io002 -scr /scratch/bsonghao

 Distributed Data Interface kickoff program.
 Initiating 1 compute processes on 1 nodes to run the following command:
 /home/bjb2chen/gamess/gamess.00.x nh3_diabatization_2d_at_mode_7_8_dist-0.6_-0.1 

          ******************************************************
          *         GAMESS VERSION = 02 AUG 2018 (R2)         *
          *             FROM IOWA STATE UNIVERSITY             *
          * M.W.SCHMIDT, K.K.BALDRIDGE, J.A.BOATZ, S.T.ELBERT, *
          *   M.S.GORDON, J.H.JENSEN, S.KOSEKI, N.MATSUNAGA,   *
          *          K.A.NGUYEN, S.J.SU, T.L.WINDUS,           *
          *       TOGETHER WITH M.DUPUIS, J.A.MONTGOMERY       *
          *         J.COMPUT.CHEM.  14, 1347-1363(1993)        *
          **************** 64 BIT LINUX VERSION ****************

  SINCE 1993, STUDENTS AND POSTDOCS WORKING AT IOWA STATE UNIVERSITY
  AND ALSO IN THEIR VARIOUS JOBS AFTER LEAVING ISU HAVE MADE IMPORTANT
  CONTRIBUTIONS TO THE CODE:
     IVANA ADAMOVIC, CHRISTINE AIKENS, YURI ALEXEEV, POOJA ARORA,
     ANDREY ASADCHEV, ROB BELL, PRADIPTA BANDYOPADHYAY, JONATHAN BENTZ,
     BRETT BODE, KURT BRORSEN, CALEB CARLIN, GALINA CHABAN, WEI CHEN,
     CHEOL HO CHOI, PAUL DAY, ALBERT DEFUSCO, NUWAN DESILVA, TIM DUDLEY,
     DMITRI FEDOROV, ALEX FINDLATER, GRAHAM FLETCHER, MARK FREITAG,
     KURT GLAESEMANN, ANASTASIA GUININA,
     DAN KEMP, GRANT MERRILL, NORIYUKI MINEZAWA, JONATHAN MULLIN,
     TAKESHI NAGATA, SEAN NEDD, HEATHER NETZLOFF, BOSILJKA NJEGIC, RYAN OLSON,
     MIKE PAK, BUU PHAM,
     SPENCER PRUITT, LUKE ROSKOP, JIM SHOEMAKER, LYUDMILA SLIPCHENKO,
     TONY SMITH, SAROM SOK LEANG, JIE SONG, TETSUYA TAKETSUGU, SIMON WEBB,
     PENG XU, SOOHAENG YOO, FEDERICO ZAHARIEV

  ADDITIONAL CODE HAS BEEN PROVIDED BY COLLABORATORS IN OTHER GROUPS:
     IOWA STATE UNIVERSITY:
          JOE IVANIC, AARON WEST, LAIMUTIS BYTAUTAS, KLAUS RUEDENBERG
     UNIVERSITY OF TOKYO: KIMIHIKO HIRAO, TAKAHITO NAKAJIMA,
          TAKAO TSUNEDA, MUNEAKI KAMIYA, SUSUMU YANAGISAWA,
          KIYOSHI YAGI, MAHITO CHIBA, SEIKEN TOKURA, NAOAKI KAWAKAMI
     UNIVERSITY OF AARHUS: FRANK JENSEN
     UNIVERSITY OF IOWA: VISVALDAS KAIRYS, HUI LI
     NATIONAL INST. OF STANDARDS AND TECHNOLOGY: WALT STEVENS, DAVID GARMER
     UNIVERSITY OF PISA: BENEDETTA MENNUCCI, JACOPO TOMASI
     UNIVERSITY OF MEMPHIS: HENRY KURTZ, PRAKASHAN KORAMBATH
     UNIVERSITY OF ALBERTA: TOBY ZENG, MARIUSZ KLOBUKOWSKI
     UNIVERSITY OF NEW ENGLAND: MARK SPACKMAN
     MIE UNIVERSITY: HIROAKI UMEDA
     NAT. INST. OF ADVANCED INDUSTRIAL SCIENCE AND TECHNOLOGY: KAZUO KITAURA
     MICHIGAN STATE UNIVERSITY:
          KAROL KOWALSKI, MARTA WLOCH, JEFFREY GOUR, JESSE LUTZ,
          WEI LI, JUN SHEN, J. EMILIANO DEUSTUA, PIOTR PIECUCH
     UNIVERSITY OF MINNESOTA:
          YINAN SHU
     UNIVERSITY OF SILESIA: MONIKA MUSIAL, STANISLAW KUCHARSKI
     FACULTES UNIVERSITAIRES NOTRE-DAME DE LA PAIX:
          OLIVIER QUINET, BENOIT CHAMPAGNE
     UNIVERSITY OF CALIFORNIA - SANTA BARBARA: BERNARD KIRTMAN
     INSTITUTE FOR MOLECULAR SCIENCE:
          KAZUYA ISHIMURA, MICHIO KATOUDA, AND SHIGERU NAGASE
     UNIVERSITY OF NOTRE DAME: ANNA POMOGAEVA, DAN CHIPMAN
     KYUSHU UNIVERSITY:
          HARUYUKI NAKANO,
          FENG LONG GU, JACEK KORCHOWIEC, MARCIN MAKOWSKI, AND YURIKO AOKI,
          HIROTOSHI MORI AND EISAKU MIYOSHI
     PENNSYLVANIA STATE UNIVERSITY:
          TZVETELIN IORDANOV, CHET SWALINA, JONATHAN SKONE,
          SHARON HAMMES-SCHIFFER
     WASEDA UNIVERSITY:
          MASATO KOBAYASHI, TOMOKO AKAMA, TSUGUKI TOUMA,
          TAKESHI YOSHIKAWA, YASUHIRO IKABATA, JUNJI SEINO,
          YUYA NAKAJIMA, HIROMI NAKAI
     NANJING UNIVERSITY: SHUHUA LI
     UNIVERSITY OF NEBRASKA:
          PEIFENG SU, DEJUN SI, NANDUN THELLAMUREGE, YALI WANG, HUI LI
     UNIVERSITY OF ZURICH: ROBERTO PEVERATI, KIM BALDRIDGE
     N. COPERNICUS UNIVERSITY AND JACKSON STATE UNIVERSITY:
          MARIA BARYSZ
     UNIVERSITY OF COPENHAGEN: Jimmy Kromann, CASPER STEINMANN
     TOKYO INSTITUTE OF TECHNOLOGY: HIROYA NAKATA
     NAGOYA UNIVERSITY: YOSHIO NISHIMOTO, STEPHAN IRLE
     MOSCOW STATE UNIVERSITY: VLADIMIR MIRONOV

 EXECUTION OF GAMESS BEGUN Wed Nov 16 18:36:41 2022

            ECHO OF THE FIRST FEW INPUT CARDS -
 INPUT CARD> $system kdiag=3 mwords=100 memddi=1000 parall=.t. $end                         
 INPUT CARD> $contrl runtyp=energy ispher=1 $end                                            
 INPUT CARD> $contrl icut=9 itol=20 inttyp=rysquad qmttol=1.0d-05 nosym=1 $end              
 INPUT CARD> $scf    npunch=2 conv=1.0d-06 dirscf=.t.      $end                             
 INPUT CARD> $contrl scftyp=mcscf  mult=2 maxit=200 icharg=1 mplevl=2 $end                  
 INPUT CARD> $guess  guess=moread norb=29 purify=.t. $end                                   
 INPUT CARD> $basis  gbasis=ccd $end                                                        
 INPUT CARD> $mcscf  cistep=gmcci fullnr=.t. finci=mos                                      
 INPUT CARD>         acurcy=1.d-6 maxit=100 $end                                            
 INPUT CARD> $trans  dirtrf=.t. $end                                                        
 INPUT CARD> $mrmp   mrpt=gmcpt rdvecs=.f. $end                                             
 INPUT CARD> $gmcpt  nmofzc=0 nmodoc=1 nmoact=7 nelact=7 stsym(1)=A                         
 INPUT CARD>         reftyp=ormas nspace=1 mstart(1)=2 mine(1)=7 maxe(1)=7                  
 INPUT CARD>         kstate(1)=1,1,1                                                        
 INPUT CARD>         wstate(1)=1,1,1                                                        
 INPUT CARD>         iwgt=0 thrwgt=-1.0 krot=.f. kszdoe=.f. knospn=.f.                      
 INPUT CARD>         thrde=-1.0 edshft=0.02 $end                                            
 INPUT CARD> $data                                                                          
 INPUT CARD> NH3+ 3 states calculation at NH3 structure.                                    
 INPUT CARD> c1                                                                             
 INPUT CARD>N 7.0 0.006228917999999998 0.037373418000000005 -0.1693806302                   
 INPUT CARD>H 1.0 -0.745515977 0.7270260648 0.13249423709999997                             
 INPUT CARD>H 1.0 -0.28696407299999993 -0.8084878858000001 0.4068230891000001               
 INPUT CARD>H 1.0 0.945927582 -0.43785446600000005 0.23006253110000002                      
 INPUT CARD>$end                                                                            
 INPUT CARD>--- OPTIMIZED RHF      MO-S --- GENERATED AT Mon Nov 14 16:47:08 2022           
 INPUT CARD>E=      -56.3825050291, E(NUC)=   11.8429239490                                 
 INPUT CARD> $VEC                                                                           
 INPUT CARD> 1  1-1.00134066E+00-2.25158504E-03 3.44925845E-03 0.00000000E+00 0.00000000E+00
 INPUT CARD> 1  2-2.13170927E-03 0.00000000E+00 0.00000000E+00 6.57129898E-04-6.87950443E-05
 INPUT CARD> 1  3-6.87950443E-05 1.37590089E-04 0.00000000E+00 0.00000000E+00 0.00000000E+00
 INPUT CARD> 1  4 3.25502815E-04-4.84772356E-04 3.62525460E-04-6.27912517E-04-3.45956485E-04
 INPUT CARD> 1  5 3.25502815E-04-4.84772356E-04 3.62525460E-04 6.27912517E-04-3.45956485E-04
 INPUT CARD> 1  6 3.25502815E-04-4.84772356E-04-7.25050921E-04 0.00000000E+00-3.45956485E-04
 INPUT CARD> 2  1 1.31286642E-02-4.05911371E-01-2.82090992E-01 0.00000000E+00 0.00000000E+00
 INPUT CARD> 2  2-7.71489043E-02 0.00000000E+00 0.00000000E+00 9.73717494E-03 6.62450916E-04
 INPUT CARD> 2  3 6.62450916E-04-1.32490183E-03 0.00000000E+00 0.00000000E+00 0.00000000E+00
 INPUT CARD> 2  4-1.96090317E-01-1.96656153E-02-1.74855877E-02 3.02859263E-02 8.68214399E-03
 INPUT CARD> 2  5-1.96090317E-01-1.96656153E-02-1.74855877E-02-3.02859263E-02 8.68214399E-03
 INPUT CARD> 2  6-1.96090317E-01-1.96656153E-02 3.49711754E-02 0.00000000E+00 8.68214399E-03
 INPUT CARD> 3  1 0.00000000E+00 0.00000000E+00 0.00000000E+00 4.48608762E-01 0.00000000E+00
 INPUT CARD> 3  2 0.00000000E+00 2.18692520E-01 0.00000000E+00 0.00000000E+00 1.30198027E-02
 INPUT CARD> 3  3-1.30198027E-02 0.00000000E+00 0.00000000E+00 2.71832968E-02 0.00000000E+00
 INPUT CARD> 3  4-1.85332726E-01-7.03958951E-02 8.47929477E-03 1.95242443E-02 8.32835058E-03
 INPUT CARD> 3  5-1.85332726E-01-7.03958951E-02 8.47929477E-03-1.95242443E-02 8.32835058E-03
 INPUT CARD> 3  6 3.70665453E-01 1.40791790E-01-2.53376884E-02 0.00000000E+00-1.66567012E-02
 INPUT CARD> 4  1 0.00000000E+00 0.00000000E+00 0.00000000E+00 0.00000000E+00 4.48608762E-01
 INPUT CARD> 4  2 0.00000000E+00 0.00000000E+00 2.18692520E-01 0.00000000E+00 0.00000000E+00
 INPUT CARD> 4  3 0.00000000E+00 0.00000000E+00-1.50339731E-02 0.00000000E+00 2.71832968E-02
 INPUT CARD> 4  4 3.21005698E-01 1.21929267E-01 1.95242443E-02-1.40653607E-02-1.44251263E-02
  100000000 WORDS OF MEMORY AVAILABLE

     BASIS OPTIONS
     -------------
     GBASIS=CCD          IGAUSS=       0      POLAR=NONE    
     NDFUNC=       0     NFFUNC=       0     DIFFSP=       F
     NPFUNC=       0      DIFFS=       F     BASNAM=        


     RUN TITLE
     ---------
  NH3+ 3 states calculation at NH3 structure.                                    

 THE POINT GROUP OF THE MOLECULE IS C1      
 THE ORDER OF THE PRINCIPAL AXIS IS     0

 ATOM      ATOMIC                      COORDINATES (BOHR)
           CHARGE         X                   Y                   Z
 N           7.0     0.0117709482        0.0706255192       -0.3200829787
 H           1.0    -1.4088209160        1.3738800484        0.2503778031
 H           1.0    -0.5422834663       -1.5278205686        0.7687841639
 H           1.0     1.7875439342       -0.8274249632        0.4347551438

          INTERNUCLEAR DISTANCES (ANGS.)
          ------------------------------

                1 N          2 H          3 H          4 H     

   1 N       0.0000000    1.0638936 *  1.0646381 *  1.1262460 *
   2 H       1.0638936 *  0.0000000    1.6258319 *  2.0560758 *
   3 H       1.0646381 *  1.6258319 *  0.0000000    1.2994750 *
   4 H       1.1262460 *  2.0560758 *  1.2994750 *  0.0000000  

  * ... LESS THAN  3.000


     ATOMIC BASIS SET
     ----------------
 THE CONTRACTED PRIMITIVE FUNCTIONS HAVE BEEN UNNORMALIZED
 THE CONTRACTED BASIS FUNCTIONS ARE NOW NORMALIZED TO UNITY

  SHELL TYPE  PRIMITIVE        EXPONENT          CONTRACTION COEFFICIENT(S)

 N         

      1   S       1          9046.0000000    0.000699617413
      1   S       2          1357.0000000    0.005386054630
      1   S       3           309.3000000    0.027391021189
      1   S       4            87.7300000    0.103150591982
      1   S       5            28.5600000    0.278570663317
      1   S       6            10.2100000    0.448294849454
      1   S       7             3.8380000    0.278085928395
      1   S       8             0.7466000    0.015431561233

      2   S       9          9046.0000000   -0.000304990096
      2   S      10          1357.0000000   -0.002408026379
      2   S      11           309.3000000   -0.011944448725
      2   S      12            87.7300000   -0.048925992909
      2   S      13            28.5600000   -0.134472724725
      2   S      14            10.2100000   -0.315112577700
      2   S      15             3.8380000   -0.242857832550
      2   S      16             0.7466000    1.094382206854

      3   S      17             0.2248000    1.000000000000

      4   P      18            13.5500000    0.058905676772
      4   P      19             2.9170000    0.320461106714
      4   P      20             0.7973000    0.753042061792

      5   P      21             0.2185000    1.000000000000

      6   D      22             0.8170000    1.000000000000

 H         

      7   S      23            13.0100000    0.033498726390
      7   S      24             1.9620000    0.234800801174
      7   S      25             0.4446000    0.813682957883

      8   S      26             0.1220000    1.000000000000

      9   P      27             0.7270000    1.000000000000

 H         

     10   S      28            13.0100000    0.033498726390
     10   S      29             1.9620000    0.234800801174
     10   S      30             0.4446000    0.813682957883

     11   S      31             0.1220000    1.000000000000

     12   P      32             0.7270000    1.000000000000

 H         

     13   S      33            13.0100000    0.033498726390
     13   S      34             1.9620000    0.234800801174
     13   S      35             0.4446000    0.813682957883

     14   S      36             0.1220000    1.000000000000

     15   P      37             0.7270000    1.000000000000

 TOTAL NUMBER OF BASIS SET SHELLS             =   15
 NUMBER OF CARTESIAN GAUSSIAN BASIS FUNCTIONS =   30
 NOTE: THIS RUN WILL RESTRICT THE MO VARIATION SPACE TO SPHERICAL HARMONICS.
 THE NUMBER OF ORBITALS KEPT IN THE VARIATIONAL SPACE WILL BE PRINTED LATER.
 NUMBER OF ELECTRONS                          =    9
 CHARGE OF MOLECULE                           =    1
 SPIN MULTIPLICITY                            =    2
 NUMBER OF OCCUPIED ORBITALS (ALPHA)          =    5
 NUMBER OF OCCUPIED ORBITALS (BETA )          =    4
 TOTAL NUMBER OF ATOMS                        =    4
 THE NUCLEAR REPULSION ENERGY IS       11.2402132542

     $CONTRL OPTIONS
     ---------------
 SCFTYP=MCSCF        RUNTYP=ENERGY       EXETYP=RUN     
 MPLEVL=       2     CITYP =NONE         CCTYP =NONE         VBTYP =NONE    
 DFTTYP=NONE         TDDFT =NONE    
 MULT  =       2     ICHARG=       1     NZVAR =       0     COORD =UNIQUE  
 PP    =NONE         RELWFN=NONE         LOCAL =NONE         NUMGRD=       F
 ISPHER=       1     NOSYM =       1     MAXIT =     200     UNITS =ANGS    
 PLTORB=       F     MOLPLT=       F     AIMPAC=       F     FRIEND=        
 NPRINT=       7     IREST =       0     GEOM  =INPUT   
 NORMF =       0     NORMP =       0     ITOL  =      20     ICUT  =       9
 INTTYP=RYSQUAD      GRDTYP=BEST         QMTTOL= 1.0E-05

     $SYSTEM OPTIONS
     ---------------
  REPLICATED MEMORY=   100000000 WORDS (ON EVERY NODE).
 DISTRIBUTED MEMDDI=        1000 MILLION WORDS IN AGGREGATE,
 MEMDDI DISTRIBUTED OVER   1 PROCESSORS IS  1000000000 WORDS/PROCESSOR.
 TOTAL MEMORY REQUESTED ON EACH PROCESSOR=  1100000000 WORDS.
 TIMLIM=      525600.00 MINUTES, OR     365.0 DAYS.
 PARALL= T  BALTYP=  DLB     KDIAG=    3  COREFL= F
 MXSEQ2=     300 MXSEQ3=     150  mem10=         0

          ----------------
          PROPERTIES INPUT
          ----------------

     MOMENTS            FIELD           POTENTIAL          DENSITY
 IEMOM =       1   IEFLD =       0   IEPOT =       0   IEDEN =       0
 WHERE =COMASS     WHERE =NUCLEI     WHERE =NUCLEI     WHERE =NUCLEI  
 OUTPUT=BOTH       OUTPUT=BOTH       OUTPUT=BOTH       OUTPUT=BOTH    
 IEMINT=       0   IEFINT=       0                     IEDINT=       0
                                                       MORB  =       0

     -------------------------------
     INTEGRAL TRANSFORMATION OPTIONS
     -------------------------------
     NWORD  =            0
     CUTOFF = 1.0E-09     MPTRAN =       0
     DIRTRF =       T     AOINTS =DUP     

          ----------------------
          MCSCF INPUT PARAMETERS
          ----------------------
 CONVERGER SELECTION: FOCAS = F  SOSCF = F  FULLNR = T  QUD = F  JACOBI = F
 SECULAR EQUATION METHOD CISTEP = GMCCI   
 --- GENERAL INPUT OPTIONS:
 MAXIT =     100  MICIT =       1  ACURCY= 1.000E-06
 DAMP  =   0.000  CANONC=       T  ENGTOL= 1.000E-10
 EKT   =       F  NPUNCH=       2  NWORD =         0
 REGENERATE CI AFTER CONVERGENCE = NONE    
 DIABATIZATION AFTER CONVERGENCE =        F
 --- INPUT FOR FULLNR CONVERGER:
 METHOD=DM2       FORS  =       F  DROPC =       T
 LINSER=       F  FCORE =       F  NORB  =      30

          ----------------------
          INTEGRAL INPUT OPTIONS
          ----------------------
 NOPK  =       1 NORDER=       0 SCHWRZ=       T

 ------------------------------------------
 MULTIREFERENCE PERTURBATION THEORY CONTROL
 ------------------------------------------
 MRPT=GMCPT    READ CONVERGED MCSCF VECTORS= F


     ------------------------------------------
     THE POINT GROUP IS C1 , NAXIS= 1, ORDER= 1
     ------------------------------------------

 -- VARIATIONAL SPACE WILL BE RESTRICTED TO PURE SPHERICAL HARMONICS ONLY --
 AFTER EXCLUDING CONTAMINANT COMBINATIONS FROM THE CARTESIAN GAUSSIAN BASIS
 SET, THE NUMBER OF SPHERICAL HARMONICS KEPT IN THE VARIATION SPACE IS   29

     DIMENSIONS OF THE SYMMETRY SUBSPACES ARE
 A   =   29

 ..... DONE SETTING UP THE RUN .....
 CPU     0: STEP CPU TIME=     0.03 TOTAL CPU TIME=          0.0 (      0.0 MIN)
 TOTAL WALL CLOCK TIME=          0.0 SECONDS, CPU UTILIZATION IS    75.00%

          ********************
          1 ELECTRON INTEGRALS
          ********************
 TIME TO DO   DIPOLE INTEGRALS=      0.00
 ...... END OF ONE-ELECTRON INTEGRALS ......
 CPU     0: STEP CPU TIME=     0.01 TOTAL CPU TIME=          0.0 (      0.0 MIN)
 TOTAL WALL CLOCK TIME=          0.0 SECONDS, CPU UTILIZATION IS   100.00%

          -------------
          GUESS OPTIONS
          -------------
          GUESS =MOREAD            NORB  =      29          NORDER=       0
          MIX   =       F          PRTMO =       F          PUNMO =       F
          TOLZ  = 1.0E-08          TOLE  = 1.0E-05
          SYMDEN=       F          PURIFY=       T

 INITIAL GUESS ORBITALS GENERATED BY MOREAD   ROUTINE.

 STATISTICS FOR GENERATION OF SYMMETRY ORBITAL -Q- MATRIX
 NUMBER OF CARTESIAN ATOMIC ORBITALS=         30
 NUMBER OF SPHERICAL CONTAMINANTS DROPPED=     1
 NUMBER OF LINEARLY DEPENDENT MOS DROPPED=     0
 TOTAL NUMBER OF MOS IN VARIATION SPACE=      29
 ORBITAL PURIFICATION WILL OCCUR

 SYMMETRIES FOR INITIAL GUESS ORBITALS FOLLOW.   BOTH SET(S).
     5 ORBITALS ARE OCCUPIED (    1 CORE ORBITALS).
     1=A        2=A        3=A        4=A        5=A        6=A        7=A   
     8=A        9=A       10=A       11=A       12=A       13=A       14=A   
    15=A       16=A       17=A       18=A       19=A       20=A       21=A   
    22=A       23=A       24=A       25=A       26=A       27=A       28=A   
    29=A   
 ...... END OF INITIAL ORBITAL SELECTION ......
 CPU     0: STEP CPU TIME=     0.01 TOTAL CPU TIME=          0.0 (      0.0 MIN)
 TOTAL WALL CLOCK TIME=          0.1 SECONDS, CPU UTILIZATION IS   100.00%

                    ----------------------
                    AO INTEGRAL TECHNOLOGY
                    ----------------------
     S,P,L SHELL ROTATED AXIS INTEGRALS, REPROGRAMMED BY
        KAZUYA ISHIMURA (IMS) AND JOSE SIERRA (SYNSTAR).
     S,P,D,L SHELL ROTATED AXIS INTEGRALS PROGRAMMED BY
        KAZUYA ISHIMURA (INSTITUTE FOR MOLECULAR SCIENCE).
     S,P,D,F,G SHELL TO TOTAL QUARTET ANGULAR MOMENTUM SUM 5,
        ERIC PROGRAM BY GRAHAM FLETCHER (ELORET AND NASA ADVANCED
        SUPERCOMPUTING DIVISION, AMES RESEARCH CENTER).
     S,P,D,F,G,L SHELL GENERAL RYS QUADRATURE PROGRAMMED BY
        MICHEL DUPUIS (PACIFIC NORTHWEST NATIONAL LABORATORY).

          --------------------
          2 ELECTRON INTEGRALS
          --------------------

 DIRECT SCF METHOD SKIPS INTEGRAL STORAGE ON DISK.
 DIRECT TRANSFORMATION SKIPS AO INTEGRAL STORAGE ON DISK.
  ...... END OF TWO-ELECTRON INTEGRALS .....
 STEP CPU TIME =     0.02 TOTAL CPU TIME =          0.1 (      0.0 MIN)
 TOTAL WALL CLOCK TIME=          0.1 SECONDS, CPU UTILIZATION IS    87.50%
 DDI: Creating Array [0] - 900 x 36 = 32400 words.
 DDI: Creating Array [1] - 21 x 288 = 6048 words.
 DDI: Creating Array [2] - 36 x 36 = 1296 words.
 DDI: Creating Array [3] - 465 x 36 = 16740 words.

          -----------------
          MCSCF CALCULATION
          -----------------

 ----- NUCLEAR ENERGY ----- =        11.2402132542

     -------------------------------------------------
     GMC-PT/GMC-QDPT or general MCSCF input parameters
     -------------------------------------------------
 # of frozen core orbs. =         0 ->         0
 # of doubly occ. orbs. =         1
 # of active      orbs. =         7
 # of virtual     orbs. =        21
 # of active electrons  =         7
 # of states in CI      =         3
 Highest state in CI    =         3
 kstate =  1 1 1
 avecoe =  0.333 0.333 0.333
 State symmetry           = A           
 Assigned symmetry number = 1

 <<<Act. MO sym.: 1111111

 <<<Division of 1-ext.:  0
 <<<Division of 2-ext.:  0

 *** Reference space

 Reference type: ORMAS (= Occupation restricted multiple active space)
 # of orbitals          =  7
 # of minimum electrons =  7
 # of maximum electrons =  7
 State symmetry    =    1 (input)
 2*Sz              =    1 (input)
 Spin multiplicity =    2 (input)
 Dimension of reference space =      1225  (from      3432 walks)

 Dimension of reference space =      1225  (from      1225 walks)

 <<<Ionized spaces for Ref-CI:
      0:         1225 /   -1-0:         1960 /  0-1-0:         2891

 EVALUATING EXCHANGE INTEGRALS FOR DIRECT INTEGRAL TRANSFORMATION
 SCHWARZ INEQUALITY OVERHEAD:       465 INTEGRALS, T=        0.00

     --------------------------------------------
     PARTIAL TWO ELECTRON INTEGRAL TRANSFORMATION
     --------------------------------------------

 NUMBER OF CORE MOLECULAR ORBITALS     =    1
 NUMBER OF OCCUPIED MOLECULAR ORBITALS =    8
 TOTAL NUMBER OF MOLECULAR ORBITALS    =   29
 TOTAL NUMBER OF ATOMIC ORBITALS       =   30
 THRESHOLD FOR KEEPING TRANSFORMED 2E- INTEGRALS = 1.000E-09

 -------------------------------     ------------------------------
 DISTRIBUTED DATA TRANSFORMATION     PROGRAM WRITTEN BY G. FLETCHER
 -------------------------------     ------------------------------

 THE DISTRIBUTED MEMORY REQUIRED FOR THIS STEP IS MEMDDI=         1 MWORDS
 CREATING DISTRIBUTED STORAGE FOR [VIR OCC|VIR OCC] INTEGRALS
 CREATING DISTRIBUTED STORAGE FOR [VIR OCC|OCC OCC] INTEGRALS
 CREATING DISTRIBUTED STORAGE FOR [OCC OCC|OCC OCC] INTEGRALS
 CREATING DISTRIBUTED STORAGE FOR [VIR VIR|OCC OCC] INTEGRALS
 FOR    1 PROCESSORS, THE REPLICATED MEMORY NEEDED IS       73700 WORDS.
 SCHWARZ INEQUALITY OVERHEAD:       465 INTEGRALS, T=        0.00

      DIRECT 4-INDEX TRANSFORMATION 
      SCHWARZ INEQUALITY TEST SKIPPED          0 INTEGRAL BLOCKS
 ----- FROZEN CORE ENERGY =       -47.6606170222
 ... END OF INTEGRAL TRANSFORMATION ...
 CPU     0: STEP CPU TIME=     0.22 TOTAL CPU TIME=          0.3 (      0.0 MIN)
 TOTAL WALL CLOCK TIME=          0.3 SECONDS, CPU UTILIZATION IS    96.67%

     --------------------------------     -----------------------------
     MCHF NEWTON-RAPHSON OPTIMIZATION     CODE WRITTEN BY MICHEL DUPUIS
     --------------------------------     -----------------------------
     PARALLEL VERSION WRITTEN BY G. FLETCHER (ELORET)
     NASA ADVANCED SUPERCOMPUTING DIVISION, AMES RESEARCH CENTER

 NUMBER OF INDEPENDENT ORBITAL ROTATION PARAMETERS =   175
 ..... DONE SOLVING NEWTON-RAPHSON EQUATIONS .....
 CPU     0: STEP CPU TIME=     0.79 TOTAL CPU TIME=          1.1 (      0.0 MIN)
 TOTAL WALL CLOCK TIME=          1.1 SECONDS, CPU UTILIZATION IS    99.08%
 ..... DONE WITH NTN-RPH ORBITAL ROTATIONS ..... 
 CPU     0: STEP CPU TIME=     0.00 TOTAL CPU TIME=          1.1 (      0.0 MIN)
 TOTAL WALL CLOCK TIME=          1.1 SECONDS, CPU UTILIZATION IS    99.08%
 MAXIMUM MEMORY USED BY NTN-RPH CODE WAS     57645 WORDS.

 ITER     TOTAL ENERGY      DEL(E)  LAGRANGIAN ASYMMETRY   SQCDF  MICIT   DAMP
   1      -55.624876676 -0.624876676  0.114727   12    5 1.184E-01  1   0.0000
   2      -55.674916361 -0.050039685  0.020423   12    5 4.584E-01  1   0.0000
   3      -55.710092226 -0.035175865  0.013364   11    6 2.229E-01  1   0.0214
   4      -55.725568661 -0.015476436  0.004609   11    6 4.177E-02  1   0.0052
   5      -55.727555779 -0.001987118  0.000817   23    5 1.041E-03  1   0.0000
   6      -55.727610660 -0.000054881  0.000350   23    5 7.676E-05  1   0.0000
   7      -55.727616086 -0.000005426  0.000156   23    5 1.397E-05  1   0.0000
   8      -55.727617133 -0.000001046  0.000075   23    5 3.238E-06  1   0.0000
   9      -55.727617376 -0.000000243  0.000038   23    5 8.625E-07  1   0.0000
  10      -55.727617440 -0.000000064  0.000020   23    5 2.516E-07  1   0.0000
  11      -55.727617458 -0.000000018  0.000011   23    5 7.776E-08  1   0.0000
  12      -55.727617463 -0.000000005  0.000006   23    5 2.496E-08  1   0.0000
  13      -55.727617465 -0.000000002  0.000003   23    5 8.250E-09  1   0.0000
  14      -55.727617466 -0.000000001  0.000002   23    5 2.784E-09  1   0.0000
  15      -55.727617466 -0.000000000  0.000001   23    5 9.517E-10  1   0.0000

          --------------------
          LAGRANGIAN CONVERGED
          --------------------

 FINAL MCSCF ENERGY IS      -55.7276174659 AFTER  15 ITERATIONS

 -MCCI- BASED ON OPTIMIZED ORBITALS
 ----------------------------------

 PLEASE NOTE: IF THE ACTIVE ORBITALS ARE CANONICALIZED BELOW,
 THE FOLLOWING CI EXPANSION COEFFICIENTS AND THE DENSITY DO NOT
 CORRESPOND TO THE PRINTED ORBITALS.  THE PRINTED EXPANSIONS MATCH
 THE ORBITALS USED DURING THE LAST ITERATION.  IF YOU WISH TO SEE
 CI EXPANSIONS BASED ON THE CANONICAL (OR NATURAL) ORBITALS, YOU
 MUST RUN A CI CALCULATION WITH THAT ORBITAL CHOICE READ IN $VEC.

 Averaged energy =     -55.727617466

 State #    1  Energy =     -55.866366017  S =  0.500

      Det      Coef    Occupancy (Ignoring core)
      ---      ----    --------- --------- -----
        1    0.910976  11110001110000
        2    0.051384  11101001110000
        5   -0.068707  01111001110000
        8   -0.128923  10110101110000
       17   -0.136575  11010011110000
       36   -0.234076  11110001101000
       71    0.112751  11110001011000
      211    0.051333  11110000110100
      386    0.102335  11110001010010
      393    0.055018  10110101010010
      701    0.097472  11110001100001
      717    0.064702  11010011100001

 State #    2  Energy =     -55.730852254  S =  0.500

      Det      Coef    Occupancy (Ignoring core)
      ---      ----    --------- --------- -----
        1   -0.241121  11110001110000
       36   -0.669758  11110001101000
       43    0.073104  10110101101000
       52    0.067738  11010011101000
       71    0.641400  11110001011000
       78   -0.060172  10110101011000
       87   -0.071979  11010011011000
      456   -0.067617  11110001001010
      701   -0.058615  11110001100001
      806   -0.065416  11110001001001

 State #    3  Energy =     -55.585634127  S =  0.500

      Det      Coef    Occupancy (Ignoring core)
      ---      ----    --------- --------- -----
        1   -0.076716  11110001110000
       36   -0.645810  11110001101000
       43    0.058893  10110101101000
       71   -0.709249  11110001011000
       87    0.064579  11010011011000
      281   -0.050746  11110000101100
      316   -0.057916  11110000011100
      456   -0.063224  11110001001010
      806    0.087641  11110001001001
      822    0.054022  11010011001001

 DENSITY MATRIX OVER ACTIVE MO-S

             1           2           3           4           5

    1    1.9750680
    2   -0.0090724   1.6307786
    3   -0.0206025  -0.0045667   1.6291909
    4   -0.0002503  -0.0033244  -0.0052102   1.6521618
    5    0.1061460   0.0211567   0.0481028   0.0318598   0.0319841
    6   -0.0094596  -0.1467921   0.0076166  -0.0206331  -0.0056644
    7    0.0025163   0.0112038   0.1596950   0.0549956   0.0085943

             6           7

    6    0.0367606
    7   -0.0059186   0.0440560

 FORMING THE "STANDARD FOCK OPERATOR" IN DIRECT AO INTEGRAL MODE...
 ONLY THE    1 CORE AND   21 VIRTUAL ORBITALS WILL BE CANONICALIZED

          ----------------------
          MCSCF NATURAL ORBITALS
          ----------------------

                      1          2          3          4          5
                  -15.9821     1.9820     1.6552     1.6486     1.6413
                     A          A          A          A          A   
    1  N  1  S    1.001135   0.009236  -0.009327   0.002126   0.003041
    2  N  1  S   -0.001937   0.435812  -0.163071   0.080861   0.067075
    3  N  1  S   -0.006315   0.317884  -0.261630   0.110209   0.101879
    4  N  1  X   -0.000121  -0.017790  -0.031201  -0.275461   0.421632
    5  N  1  Y    0.000008  -0.042905   0.149005   0.363098   0.321809
    6  N  1  Z    0.001110   0.089823   0.578308  -0.111650  -0.011261
    7  N  1  X   -0.000029   0.002136   0.003218  -0.095742   0.223580
    8  N  1  Y   -0.000008  -0.002361   0.101919   0.135051   0.178400
    9  N  1  Z   -0.000501   0.012944   0.384451  -0.055080   0.022109
   10  N  1 XX    0.000088  -0.000458  -0.010759   0.005378   0.008286
   11  N  1 YY    0.000083   0.000194  -0.012180  -0.000145  -0.007517
   12  N  1 ZZ   -0.000171   0.000263   0.022939  -0.005233  -0.000768
   13  N  1 XY   -0.000329  -0.002957  -0.001987  -0.006119  -0.013780
   14  N  1 XZ   -0.000072   0.000326  -0.003443  -0.010609   0.018652
   15  N  1 YZ   -0.000141  -0.002831   0.001407   0.017592   0.015347
   16  H  2  S   -0.001836   0.168409   0.167377   0.338508  -0.000061
   17  H  2  S    0.000596  -0.000530   0.036746   0.043268   0.013445
   18  H  2  X   -0.000689   0.022322   0.015629   0.027944   0.010759
   19  H  2  Y    0.000705  -0.025041  -0.012349  -0.022732   0.018069
   20  H  2  Z    0.000336  -0.003596   0.017582  -0.015876  -0.000837
   21  H  3  S   -0.001843   0.212778   0.089371  -0.194221  -0.327585
   22  H  3  S    0.000279   0.008577   0.022679  -0.029144  -0.092100
   23  H  3  X   -0.000296   0.011309   0.006776  -0.024967   0.001527
   24  H  3  Y   -0.000823   0.031903   0.018330  -0.005408  -0.023693
   25  H  3  Z    0.000529  -0.016797   0.019883   0.007075   0.020762
   26  H  4  S   -0.001569   0.167251   0.055451  -0.267306   0.252138
   27  H  4  S    0.000410  -0.001133   0.025071  -0.037011   0.076375
   28  H  4  X    0.000758  -0.028123  -0.007398   0.033157  -0.014144
   29  H  4  Y   -0.000320   0.011854   0.005112  -0.001992   0.025146
   30  H  4  Z    0.000377  -0.006424   0.022332   0.006117  -0.009548

                      6          7          8
                    0.0313     0.0224     0.0192
                     A          A          A   
    1  N  1  S   -0.116620  -0.155915  -0.107650
    2  N  1  S   -0.386565  -0.545633  -0.329882
    3  N  1  S    0.004085  -0.197881  -0.012431
    4  N  1  X   -0.492698   0.008991   0.737871
    5  N  1  Y   -0.469695   0.522621  -0.484244
    6  N  1  Z   -0.167129  -0.604208  -0.200091
    7  N  1  X    0.031333  -0.012206   0.064106
    8  N  1  Y    0.031579   0.092073  -0.038258
    9  N  1  Z    0.050809   0.059034   0.058527
   10  N  1 XX    0.024117  -0.019226   0.036464
   11  N  1 YY   -0.020575   0.016264  -0.029559
   12  N  1 ZZ   -0.003542   0.002963  -0.006905
   13  N  1 XY   -0.063128  -0.025468   0.007251
   14  N  1 XZ    0.011160   0.000676  -0.047063
   15  N  1 YZ   -0.001789  -0.051822   0.015000
   16  H  2  S    0.373897   0.126685   0.760116
   17  H  2  S    0.066133  -0.010293   0.146281
   18  H  2  X    0.036156   0.015711   0.053340
   19  H  2  Y   -0.014326  -0.021493  -0.060089
   20  H  2  Z   -0.002823   0.007904   0.024020
   21  H  3  S   -0.430290   0.725873   0.097870
   22  H  3  S   -0.150796   0.130334   0.025774
   23  H  3  X    0.006088   0.048859  -0.029451
   24  H  3  Y   -0.016691   0.052352   0.034312
   25  H  3  Z    0.022361   0.002251  -0.002362
   26  H  4  S    0.624609   0.356513  -0.367335
   27  H  4  S    0.156939   0.038423  -0.107838
   28  H  4  X   -0.048426  -0.051588   0.031620
   29  H  4  Y    0.042545  -0.003867  -0.001100
   30  H  4  Z   -0.001697   0.028079  -0.008186

          ------------------------
          MCSCF OPTIMIZED ORBITALS
          ------------------------

                      1          2          3          4          5
                  -15.9821     0.0000     0.0000     0.0000     0.0000
                     A          A          A          A          A   
    1  N  1  S    1.001135  -0.002351   0.000573  -0.010410  -0.015299
    2  N  1  S   -0.001937   0.399838   0.002590   0.015461  -0.194190
    3  N  1  S   -0.006315   0.315545   0.029343   0.090612  -0.279370
    4  N  1  X   -0.000121  -0.008920   0.418073   0.065996   0.001824
    5  N  1  Y    0.000008  -0.013557   0.005879   0.421862   0.037554
    6  N  1  Z    0.001110   0.051576  -0.005405  -0.006508   0.580620
    7  N  1  X   -0.000029   0.011370   0.227539   0.079616   0.018055
    8  N  1  Y   -0.000008   0.014314   0.043691   0.229523   0.067678
    9  N  1  Z   -0.000501   0.017529   0.008512   0.043951   0.389152
   10  N  1 XX    0.000088   0.000352   0.002950   0.012115  -0.010470
   11  N  1 YY    0.000083  -0.000395  -0.003411  -0.010848  -0.012825
   12  N  1 ZZ   -0.000171   0.000043   0.000460  -0.001267   0.023296
   13  N  1 XY   -0.000329  -0.006604  -0.010916  -0.017573  -0.002711
   14  N  1 XZ   -0.000072   0.000664   0.025150   0.001590  -0.001844
   15  N  1 YZ   -0.000141  -0.003837  -0.001169   0.025315  -0.002520
   16  H  2  S   -0.001836   0.203051  -0.264135   0.342270   0.119017
   17  H  2  S    0.000596   0.004558  -0.027205   0.061220   0.031025
   18  H  2  X   -0.000689   0.025934  -0.013001   0.034755   0.011424
   19  H  2  Y    0.000705  -0.026872   0.033027  -0.010208  -0.009339
   20  H  2  Z    0.000336  -0.003448   0.005828  -0.008113   0.020578
   21  H  3  S   -0.001843   0.213609  -0.167053  -0.397304   0.120916
   22  H  3  S    0.000279   0.005426  -0.064144  -0.091241   0.025025
   23  H  3  X   -0.000296   0.012698   0.018795  -0.019447   0.011579
   24  H  3  Y   -0.000823   0.032899  -0.020169  -0.018400   0.019557
   25  H  3  Z    0.000529  -0.014864   0.010972   0.024398   0.018166
   26  H  4  S   -0.001569   0.200674   0.418064  -0.015821   0.122379
   27  H  4  S    0.000410   0.006291   0.096069   0.031196   0.034775
   28  H  4  X    0.000758  -0.031131  -0.035957   0.014954  -0.015225
   29  H  4  Y   -0.000320   0.013969   0.022226   0.018377   0.006409
   30  H  4  Z    0.000377  -0.005565  -0.012796   0.001172   0.020652

                      6          7          8          9         10
                    0.0000     0.0000     0.0000     0.1462     0.2035
                     A          A          A          A          A   
    1  N  1  S    0.214838  -0.023105   0.051448  -0.131531   0.009596
    2  N  1  S    0.749782  -0.053866   0.143632  -0.198815   0.004287
    3  N  1  S    0.185805  -0.011249  -0.100082   1.329855  -0.184443
    4  N  1  X   -0.005913   0.928879   0.012336   0.012909  -0.132391
    5  N  1  Y   -0.085696  -0.141362   0.883607   0.045693   0.084659
    6  N  1  Z    0.661609  -0.061738  -0.082146  -0.197630   0.009318
    7  N  1  X   -0.015615   0.056474  -0.049081  -0.019224   0.589673
    8  N  1  Y   -0.071100  -0.046043   0.069619  -0.203683  -0.568191
    9  N  1  Z   -0.079654   0.025470  -0.015506   0.440037   0.014155
   10  N  1 XX   -0.004637   0.016912  -0.043837   0.018345  -0.017174
   11  N  1 YY    0.003151  -0.013501   0.035781   0.024721  -0.002828
   12  N  1 ZZ    0.001486  -0.003410   0.008056  -0.043067   0.020002
   13  N  1 XY    0.045831   0.040728   0.026232  -0.065926   0.051283
   14  N  1 XZ    0.008956  -0.043144   0.015225  -0.010982   0.066825
   15  N  1 YZ    0.041063   0.013483  -0.030618  -0.063925  -0.075176
   16  H  2  S   -0.475414   0.397711  -0.527338   0.313272  -0.531016
   17  H  2  S   -0.060921   0.082095  -0.115580  -0.715767   1.901067
   18  H  2  X   -0.042372   0.022850  -0.039254  -0.053415   0.087993
   19  H  2  Y    0.040877  -0.038977   0.026574   0.071406  -0.069386
   20  H  2  Z   -0.012608   0.022333  -0.005421  -0.010741  -0.073954
   21  H  3  S   -0.462699   0.309098   0.603553   0.249033   0.206355
   22  H  3  S   -0.056476   0.100575   0.154631  -0.795934  -0.700052
   23  H  3  X   -0.035017  -0.026150   0.033975   0.024455  -0.008048
   24  H  3  Y   -0.046300   0.036319   0.021636  -0.099410  -0.017313
   25  H  3  Z   -0.010460  -0.013513  -0.010521   0.066255   0.039066
   26  H  4  S   -0.447213  -0.618188  -0.076253   0.381874   0.236128
   27  H  4  S   -0.065462  -0.169127  -0.035030  -0.928794  -0.868512
   28  H  4  X    0.053590   0.050126  -0.007022   0.045952   0.038864
   29  H  4  Y   -0.013041  -0.022750  -0.029558  -0.066448  -0.028865
   30  H  4  Z   -0.020839  -0.006929   0.020543   0.036193   0.070546

                     11         12         13         14         15
                    0.2301     0.5338     0.6005     0.6738     0.7948
                     A          A          A          A          A   
    1  N  1  S    0.028267  -0.084198   0.021704  -0.000608  -0.316172
    2  N  1  S    0.059942  -0.111495   0.169005   0.020838  -0.732766
    3  N  1  S   -0.168689   0.532374   0.438838   0.045218   1.160102
    4  N  1  X   -0.043729  -0.308129   0.248419  -0.415554  -0.021510
    5  N  1  Y    0.031752  -0.509192   0.227743   0.220950   0.019665
    6  N  1  Z    0.041213  -0.460057  -0.505497  -0.105455   0.259889
    7  N  1  X    0.459877   0.476451  -0.683116   1.578335   0.116475
    8  N  1  Y    0.144886   1.038484  -0.847410  -1.161018   0.015367
    9  N  1  Z   -0.141634   0.567472   0.990054   0.288417  -0.225136
   10  N  1 XX    0.058875   0.009413   0.023970  -0.036098   0.141930
   11  N  1 YY   -0.049419  -0.028164  -0.058427   0.045930  -0.106601
   12  N  1 ZZ   -0.009457   0.018750   0.034458  -0.009832  -0.035329
   13  N  1 XY   -0.061116  -0.002926   0.051524  -0.002650   0.069635
   14  N  1 XZ    0.059434   0.009855   0.003054  -0.067453  -0.069883
   15  N  1 YZ    0.044340   0.020390   0.019598   0.050807  -0.010701
   16  H  2  S    0.121895  -0.417418  -0.376715   0.628046  -0.065425
   17  H  2  S   -0.247056  -0.418233   0.271184   0.667269  -0.280109
   18  H  2  X   -0.006557  -0.040539  -0.051967   0.201308  -0.154478
   19  H  2  Y   -0.034854   0.032788  -0.096105  -0.079185  -0.177365
   20  H  2  Z   -0.009501   0.057732   0.068602   0.138979   0.149100
   21  H  3  S   -0.599605   0.073894  -0.740616  -0.186143   0.163318
   22  H  3  S    2.059096   0.674940  -0.669366  -0.050180  -0.132272
   23  H  3  X    0.039929  -0.029039  -0.148300  -0.101637  -0.429515
   24  H  3  Y    0.075664   0.098447  -0.037620  -0.077454   0.091497
   25  H  3  Z   -0.050077  -0.030396   0.091372  -0.048863   0.054221
   26  H  4  S    0.530862  -0.268712  -0.140007  -0.706053   0.124884
   27  H  4  S   -1.749848  -0.442231   0.448945  -0.562481  -0.328332
   28  H  4  X    0.060696   0.052807   0.084751   0.184084   0.318465
   29  H  4  Y   -0.007384   0.039294   0.119344  -0.147537   0.254800
   30  H  4  Z    0.012963   0.078453   0.004221  -0.130381  -0.113813

                     16         17         18         19         20
                    0.9959     1.0455     1.2148     1.3728     1.4324
                     A          A          A          A          A   
    1  N  1  S   -0.488487  -0.297560   0.003840  -0.324403  -0.328146
    2  N  1  S   -1.033019  -0.626393   0.005889  -0.690295  -0.684624
    3  N  1  S    2.034068   1.391756   0.003055   1.149872   1.274832
    4  N  1  X   -0.011868   0.088342  -0.251625  -0.007377  -0.046187
    5  N  1  Y    0.089974   0.000406   0.124010   0.032550  -0.059391
    6  N  1  Z    0.132268   0.060487   0.024461  -0.038185  -0.023262
    7  N  1  X   -0.029779  -0.509208   0.855530  -0.037480  -0.169423
    8  N  1  Y   -0.460034  -0.092378  -0.710632   0.437953  -0.471713
    9  N  1  Z   -0.025856   0.414787   0.074174   0.472503   0.646324
   10  N  1 XX   -0.147202  -0.068981   0.076213   0.135516  -0.014198
   11  N  1 YY   -0.083523   0.185542  -0.061816   0.056198   0.030049
   12  N  1 ZZ    0.230725  -0.116560  -0.014397  -0.191714  -0.015851
   13  N  1 XY   -0.054894   0.085203   0.065411   0.057119  -0.100058
   14  N  1 XZ    0.024521   0.168091   0.128487  -0.012766   0.084386
   15  N  1 YZ    0.049348   0.157161   0.009212  -0.019857   0.068934
   16  H  2  S   -0.168614  -0.343845   0.522725  -0.420960  -0.291758
   17  H  2  S   -0.242216  -0.281590   0.251423  -0.200249  -0.013224
   18  H  2  X    0.011991   0.217484  -0.326547  -0.443909   0.194562
   19  H  2  Y    0.032944   0.413920  -0.069698  -0.503569   0.233640
   20  H  2  Z    0.277664   0.035655  -0.417345  -0.072730  -0.650717
   21  H  3  S   -0.470544  -0.318990  -0.063339  -0.230614  -0.445230
   22  H  3  S   -0.300721  -0.249996  -0.053409  -0.047040  -0.339494
   23  H  3  X    0.223361  -0.090788   0.098091   0.220076  -0.043238
   24  H  3  Y    0.071217  -0.403609  -0.198176  -0.242929  -0.024075
   25  H  3  Z    0.337110  -0.452808  -0.004838  -0.366320   0.433903
   26  H  4  S   -0.383201  -0.006255  -0.543732  -0.228535  -0.400592
   27  H  4  S   -0.220745  -0.041330  -0.159238  -0.038759   0.071702
   28  H  4  X   -0.099935   0.124712  -0.066113  -0.218409  -0.033434
   29  H  4  Y   -0.123447   0.070904   0.550657  -0.390525   0.032334
   30  H  4  Z    0.367112   0.112032   0.405767  -0.255799  -0.565797

                     21         22         23         24         25
                    1.6319     1.8220     1.8685     1.9662     2.0922
                     A          A          A          A          A   
    1  N  1  S   -0.124095   0.114469  -0.082588  -0.142166  -0.031158
    2  N  1  S   -0.232891   0.341729  -0.213603  -0.310302  -0.051922
    3  N  1  S    0.627071   0.903058  -0.092472   0.080887   0.235827
    4  N  1  X    0.106762  -0.105942  -0.296128   0.339731  -0.038075
    5  N  1  Y    0.151859  -0.031798   0.515552   0.010416   0.069033
    6  N  1  Z   -0.018068   0.206354  -0.163298  -0.114689   0.007559
    7  N  1  X    0.726915  -0.135805  -0.312576  -0.115630   0.071986
    8  N  1  Y   -0.446751   0.186286   0.057162  -0.142897   0.145856
    9  N  1  Z    0.285589   0.312274  -0.029882   0.083847   0.344863
   10  N  1 XX   -0.023907  -0.076697   0.081882  -0.227203  -0.563476
   11  N  1 YY    0.118844  -0.043209   0.011547   0.235057  -0.243914
   12  N  1 ZZ   -0.094937   0.119906  -0.093429  -0.007854   0.807390
   13  N  1 XY    0.060677   0.178213   0.115337  -0.052430  -0.542327
   14  N  1 XZ   -0.126250   0.172729   0.089195  -0.151258   0.011142
   15  N  1 YZ   -0.035331   0.130755  -0.221082  -0.099598  -0.263854
   16  H  2  S    0.214709  -0.201566  -0.049367  -0.003036  -0.125980
   17  H  2  S   -0.003794  -0.406181  -0.384544   0.081111  -0.118893
   18  H  2  X   -0.231494  -0.714174  -0.255998   0.225638  -0.288881
   19  H  2  Y    0.199621   0.440366   0.548117  -0.306132   0.026295
   20  H  2  Z   -0.519600   0.063841   0.378043  -0.201438  -0.130740
   21  H  3  S   -0.346062  -0.105430  -0.070252  -0.021328  -0.059646
   22  H  3  S    0.221916   0.057595   0.316065   0.321391   0.049941
   23  H  3  X   -0.389811   0.296056   0.241008   0.761939  -0.336603
   24  H  3  Y    0.541825  -0.298195   0.589186   0.339371  -0.193639
   25  H  3  Z   -0.188246   0.289229  -0.288106  -0.212976  -0.548982
   26  H  4  S   -0.323969  -0.074260   0.048681  -0.103438  -0.079081
   27  H  4  S   -0.452102  -0.315120   0.230750  -0.328021   0.003841
   28  H  4  X    0.173941   0.659632  -0.348956   0.797360   0.053583
   29  H  4  Y   -0.511606  -0.342118   0.338956   0.382185   0.052478
   30  H  4  Z    0.442429  -0.229176  -0.453093  -0.047146  -0.219018

                     26         27         28         29
                    2.2869     2.5727     2.6209     3.0674
                     A          A          A          A   
    1  N  1  S    0.090986  -0.036965  -0.140087   0.051315
    2  N  1  S    0.161609   0.016177  -0.144238   0.014961
    3  N  1  S   -0.537617   1.359536   1.904735  -0.990283
    4  N  1  X   -0.053337  -0.400082   0.074794  -0.064031
    5  N  1  Y    0.029125   0.069116  -0.344488  -0.382597
    6  N  1  Z   -0.017307   0.198664   0.260292  -0.048555
    7  N  1  X    0.243152  -1.111387   0.390450  -0.066017
    8  N  1  Y    0.168825   0.203705  -1.075285  -0.575777
    9  N  1  Z   -0.342854   0.373741   0.576337  -0.034086
   10  N  1 XX   -0.648401  -0.243886   0.145831  -0.848027
   11  N  1 YY    0.903655   0.558842   0.274542   0.302468
   12  N  1 ZZ   -0.255254  -0.314955  -0.420373   0.545559
   13  N  1 XY   -0.224089  -0.268539  -0.188900   1.288395
   14  N  1 XZ    0.491252  -1.033499   0.306374  -0.212350
   15  N  1 YZ    0.245305   0.000128  -1.151659  -0.470576
   16  H  2  S    0.134218  -1.122731   0.059523   1.055604
   17  H  2  S    0.015478  -0.418389   0.144897   0.301068
   18  H  2  X   -0.379337  -0.651404   0.163099   0.587185
   19  H  2  Y   -0.429591   0.613137   0.039899  -0.605029
   20  H  2  Z    0.245589   0.120818   0.231096  -0.412291
   21  H  3  S    0.233293  -0.730016  -1.172426  -0.772682
   22  H  3  S    0.096213  -0.340157  -0.442947  -0.223737
   23  H  3  X   -0.366732  -0.035726  -0.326536  -0.240208
   24  H  3  Y    0.353706  -0.583278  -0.640820  -0.589361
   25  H  3  Z    0.264701   0.360954   0.492130   0.405875
   26  H  4  S    0.135883   0.410196  -0.945845   0.769453
   27  H  4  S    0.058724   0.314321  -0.257822   0.216966
   28  H  4  X   -0.119307  -0.334871   0.575576  -0.701572
   29  H  4  Y    0.164332   0.382574  -0.232981   0.283843
   30  H  4  Z   -0.051008   0.028066   0.253315  -0.407064
 .....DONE WITH MCSCF ITERATIONS.....
 CPU     0: STEP CPU TIME=    10.27 TOTAL CPU TIME=         11.4 (      0.2 MIN)
 TOTAL WALL CLOCK TIME=         11.4 SECONDS, CPU UTILIZATION IS    99.82%

     ----------------------------------------------------------------
     PROPERTY VALUES FOR THE MCSCF SELF-CONSISTENT FIELD WAVEFUNCTION
     ----------------------------------------------------------------

          -----------------
          ENERGY COMPONENTS
          -----------------

         WAVEFUNCTION NORMALIZATION =       1.0000000000

                ONE ELECTRON ENERGY =     -94.0160305129
                TWO ELECTRON ENERGY =      27.0481997929
           NUCLEAR REPULSION ENERGY =      11.2402132542
                                      ------------------
                       TOTAL ENERGY =     -55.7276174659

 ELECTRON-ELECTRON POTENTIAL ENERGY =      27.0481997929
  NUCLEUS-ELECTRON POTENTIAL ENERGY =    -149.7539133757
   NUCLEUS-NUCLEUS POTENTIAL ENERGY =      11.2402132542
                                      ------------------
             TOTAL POTENTIAL ENERGY =    -111.4655003287
               TOTAL KINETIC ENERGY =      55.7378828628
                 VIRIAL RATIO (V/T) =       1.9998158273

          ---------------------------------------
          MULLIKEN AND LOWDIN POPULATION ANALYSES
          ---------------------------------------

     ATOMIC MULLIKEN POPULATION IN EACH MOLECULAR ORBITAL

                      1          2          3          4          5

                  2.000000   1.981985   1.655213   1.648613   1.641292

    1             2.000729   1.347119   1.526909   0.900809   1.128238
    2            -0.000257   0.176539   0.081441   0.385265   0.008341
    3            -0.000297   0.280908   0.032965   0.123036   0.299322
    4            -0.000176   0.177419   0.013898   0.239504   0.205391

                      6          7          8

                  0.031344   0.022379   0.019174

    1             0.013830   0.012036   0.010359
    2             0.003567   0.000182   0.007093
    3             0.003872   0.007917   0.000155
    4             0.010075   0.002244   0.001567
 WARNING! MCSCF POPULATIONS SHOWN ABOVE ARE FOR THE NATURAL ORBITALS.
 IGNORE THE ABOVE DATA FOR MCSCF FUNCTIONS WHICH ARE NOT OF -FORS- TYPE.
 THE FOLLOWING POPULATIONS ARE CORRECT FOR ANY MCSCF WAVEFUNCTION.

               ----- POPULATIONS IN EACH AO -----
                             MULLIKEN      LOWDIN
              1  N  1  S      2.00237     1.90184
              2  N  1  S      0.82127     0.57753
              3  N  1  S      0.68401     0.40882
              4  N  1  X      0.68280     0.61088
              5  N  1  Y      0.69128     0.62219
              6  N  1  Z      0.86801     0.81526
              7  N  1  X      0.32904     0.42344
              8  N  1  Y      0.31835     0.41699
              9  N  1  Z      0.52559     0.56363
             10  N  1 XX      0.00059     0.17254
             11  N  1 YY      0.00167     0.16501
             12  N  1 ZZ      0.00418     0.14356
             13  N  1 XY      0.00465     0.01134
             14  N  1 XZ      0.00622     0.00800
             15  N  1 YZ      0.00000     0.01287
             16  H  2  S      0.57303     0.44668
             17  H  2  S      0.03303     0.14738
             18  H  2  X      0.02275     0.04281
             19  H  2  Y      0.02209     0.03856
             20  H  2  Z      0.01127     0.03025
             21  H  3  S      0.63374     0.48925
             22  H  3  S      0.05408     0.14687
             23  H  3  X      0.01392     0.03241
             24  H  3  Y      0.02684     0.04614
             25  H  3  Z      0.01930     0.04293
             26  H  4  S      0.54886     0.42550
             27  H  4  S      0.04742     0.15010
             28  H  4  X      0.02847     0.04936
             29  H  4  Y      0.01310     0.02874
             30  H  4  Z      0.01207     0.02912

          ----- MULLIKEN ATOMIC OVERLAP POPULATIONS -----
          (OFF-DIAGONAL ELEMENTS NEED TO BE MULTIPLIED BY 2)

             1           2           3           4

    1    6.0832458
    2    0.3021892   0.3711093
    3    0.2836700  -0.0053561   0.4794816
    4    0.2709243  -0.0057722  -0.0099180   0.3946891

          TOTAL MULLIKEN AND LOWDIN ATOMIC POPULATIONS
       ATOM         MULL.POP.    CHARGE          LOW.POP.     CHARGE
    1 N             6.940029    0.059971         6.853912    0.146088
    2 H             0.662170    0.337830         0.705683    0.294317
    3 H             0.747877    0.252123         0.757594    0.242406
    4 H             0.649923    0.350077         0.682810    0.317190

          MULLIKEN SPHERICAL HARMONIC POPULATIONS
       ATOM           S       P       D      F      G      H      I    TOTAL
    1 N             3.51    3.42    0.02   0.00   0.00   0.00   0.00    6.94
    2 H             0.61    0.06    0.00   0.00   0.00   0.00   0.00    0.66
    3 H             0.69    0.06    0.00   0.00   0.00   0.00   0.00    0.75
    4 H             0.60    0.05    0.00   0.00   0.00   0.00   0.00    0.65

          ---------------------
          ELECTROSTATIC MOMENTS
          ---------------------

 POINT   1           X           Y           Z (BOHR)    CHARGE
                -0.000001   -0.000004   -0.177185        1.00 (A.U.)
         DX          DY          DZ         /D/  (DEBYE)
    -0.107678   -0.707491    2.141471    2.257883
 ...... END OF PROPERTY EVALUATION ......
 CPU     0: STEP CPU TIME=     0.01 TOTAL CPU TIME=         11.4 (      0.2 MIN)
 TOTAL WALL CLOCK TIME=         11.4 SECONDS, CPU UTILIZATION IS    99.91%

     -------------------------------------------------
     GMC-PT/GMC-QDPT or general MCSCF input parameters
     -------------------------------------------------
 # of frozen core orbs. =         0 ->         0
 # of doubly occ. orbs. =         1
 # of active      orbs. =         7
 # of virtual     orbs. =        21
 # of active electrons  =         7
 # of states in CI      =         3
 Highest state in CI    =         3
 kstate =  1 1 1
 avecoe =  0.333 0.333 0.333
 State symmetry           = A           
 Assigned symmetry number = 1

 <<<Act. MO sym.: 1111111

 <<<Division of 1-ext.:  0
 <<<Division of 2-ext.:  0

     ------------------------
     Orbital canonicalization
     ------------------------

 MOs are canonicalized for core, virtual, and invariant-active orbital spaces.
 This is a part of the GMC-QDPT calculation.
 SCHWARZ INEQUALITY OVERHEAD:       465 INTEGRALS, T=        0.00
 DIRECT TRANSFORMATION SKIPS AO INTEGRAL STORAGE ON DISK.

 Averaged energy =     -55.727617466

 State #    1  Energy =     -55.866366017  S =  0.500
 State #    2  Energy =     -55.730852254  S =  0.500
 State #    3  Energy =     -55.585634127  S =  0.500

 Orbital energies for filled orbital space
  -15.982122
 Orbital energies for active orbital space
   -1.505696  -0.980079  -0.833878  -0.732730   0.331315
    0.400904   0.173338
 Orbital energies for external orbital space
    0.146221   0.203463   0.230127   0.533840   0.600537
    0.673772   0.794799   0.995900   1.045460   1.214810
    1.372831   1.432367   1.631897   1.822043   1.868459
    1.966221   2.092201   2.286864   2.572666   2.620850
    3.067368

 Zero values mean non-canonical orbitals.
 ... done with orbital canonicalization ...
 CPU     0: STEP CPU TIME=     0.64 TOTAL CPU TIME=         12.0 (      0.2 MIN)
 TOTAL WALL CLOCK TIME=         12.0 SECONDS, CPU UTILIZATION IS    99.92%

     --------------------------------------------
     PARTIAL TWO ELECTRON INTEGRAL TRANSFORMATION
     --------------------------------------------

 NUMBER OF CORE MOLECULAR ORBITALS     =    0
 NUMBER OF OCCUPIED MOLECULAR ORBITALS =    8
 TOTAL NUMBER OF MOLECULAR ORBITALS    =   29
 TOTAL NUMBER OF ATOMIC ORBITALS       =   30
 THRESHOLD FOR KEEPING TRANSFORMED 2E- INTEGRALS = 1.000E-09
 AO INTEGRALS WILL BE CALCULATED IN DIRECT MODE...
 DIRECT TRANSFORMATION SKIPS AO INTEGRAL STORAGE ON DISK.
 SCHWARZ INEQUALITY OVERHEAD:       465 INTEGRALS, T=        0.00

 PLAN A: REQUIREMENTS FOR FULLY IN-MEMORY TRANSFORMATION:
 # OF WORDS AVAILABLE =            100000000
 # OF WORDS NEEDED    =               221798

 PARALLEL ONLY WORKS WITH THE SEGMENTED ALGORITHM.
 ADJUSTING MEMORY TO USE SEGMENTED ALGORITHM.


 PLAN B: REQUIREMENTS FOR THE SEGMENTED TRANSFORMATION:
       MINIMUM=         124148 WORDS FOR 1 MOLECULAR ORBITAL PER PASS
       MAXIMUM=         221798 WORDS FOR ALL MOLECULAR ORBITALS IN 1 PASS
              (          13950 EXTRA WORDS INCLUDES 1 EXTRA ORBITAL/PASS)
 THIS RUN USES=         221798 WORDS,
 DISTRIBUTING   1 PASSES EACH CONTAINING     8 ORBITALS OVER   1 PROCESSORS.

 CHOOSING SEGMENTED PARTIAL TRANSFORMATION...
 DIRECT TRANSFORMATION SKIPS AO INTEGRAL STORAGE ON DISK.
 PASS #   1 TOOK        0.05 SECONDS.
 TOTAL NUMBER OF TRANSFORMED 2E- INTEGRALS KEPT =        29226
 ... END OF INTEGRAL TRANSFORMATION ...
 CPU     0: STEP CPU TIME=     0.05 TOTAL CPU TIME=         12.1 (      0.2 MIN)
 TOTAL WALL CLOCK TIME=         12.1 SECONDS, CPU UTILIZATION IS    99.92%

     --------     ------------------------------------------
     GMC-QDPT     Program written by H.Nakano (Kyushu Univ.)
     --------     ------------------------------------------

 *** Reference space

 Reference type: ORMAS (= Occupation restricted multiple active space)
 # of orbitals          =  7
 # of minimum electrons =  7
 # of maximum electrons =  7
 State symmetry    =    1 (input)
 2*Sz              =    1 (input)
 Spin multiplicity =    2 (input)
 Dimension of reference space =      1225  (from      3432 walks)

 Dimension of reference space =      1225  (from      1225 walks)

 <<<Ionized spaces for Ref-CI:
      0:         1225 /   -1-0:         1960 /  0-1-0:         2891

 ***                    ***
 *** Reference space CI ***
 ***                    ***

 Converged after   39 iterations

 Reference wavefunctions:

 State #    1  Energy =     -55.866366017  S =  0.500

      Det      Coef    Occupancy (Ignoring core)
      ---      ----    --------- --------- -----
        1   -0.973844  11110001110000
       36   -0.077556  11110001101000
      393   -0.055718  10110101010010
      717   -0.061305  11010011100001

 State #    2  Energy =     -55.730852254  S =  0.500

      Det      Coef    Occupancy (Ignoring core)
      ---      ----    --------- --------- -----
        1    0.081484  11110001110000
       36   -0.978105  11110001101000
      463   -0.056741  10110101001010

 State #    3  Energy =     -55.585634127  S =  0.500

      Det      Coef    Occupancy (Ignoring core)
      ---      ----    --------- --------- -----
       71   -0.977451  11110001011000
      248    0.050329  11011001001100
      822    0.062239  11010011001001

 Davidson method: CPU/Wall time =           0.50 /           0.49 sec.

 Oscillator strength (invalid if E(1)/=E(GS)):
 -----------------------------------------
   State                        f
 -----------------------------------------
     2     F(REF-CI)=        0.0019893198
     3     F(REF-CI)=        0.0033355141
 -----------------------------------------

 Dipole moment matrix elements, x, y, z, in A.U.

 Dimension of ionized spaces for PT:
 (N-2) space:         1715 /  (N-1) space:         2842 /  N space:         2891
 (N+1) space:         2842 /  (N+2) space:         1715

 <<<Ionized spaces for internal:
         0:         1225 /      -1-0:         1960 /     0-1-0:         2891
  -1-0-1-0:         2842 / 0-1-0-1-0:         3381

 Diagonal elements of averaged one-particle density matrix:
       2       3       4       5       6       7       8
  0.9933  0.9873  0.9853  0.9917  0.0127  0.0113  0.0183
  0.9885  0.6611  0.6571  0.6622  0.0100  0.0081  0.0129

 Orbital energies:
 -------- Doubly-occupied orbitals (highest several orbs.) -------
             1
 -1.598212D+01
 -------- Active orbitals ----------------------------------------
             2            3            4            5            6
 -1.505696D+00-9.800788D-01-8.338777D-01-7.327304D-01 3.313152D-01
             7            8
  4.009037D-01 1.733383D-01
 -------- External orbitals (lowest several orbs.) ---------------
             9           10           11           12           13
  1.462215D-01 2.034627D-01 2.301266D-01 5.338399D-01 6.005371D-01
            14           15           16           17           18
  6.737724D-01 7.947989D-01 9.958999D-01 1.045460D+00 1.214810D+00

 *** Quasi-degeneracy checking

 === Det (|Ci| > 1.0D-01 and dE < 5.0D-03)

 # of small denominators (single excitations)
 State       dEmin  dE < 5.0D-03  dE < 5.0D-04  dE < 5.0D-05  dE < 5.0D-06
 ----- ----------- ------------- ------------- ------------- -------------
     1    5.00D-03             0             0             0             0
     2    5.00D-03             0             0             0             0
     3    5.00D-03             0             0             0             0

 # of small denominators (double excitations)
 State       dEmin  dE < 5.0D-03  dE < 5.0D-04  dE < 5.0D-05  dE < 5.0D-06
 ----- ----------- ------------- ------------- ------------- -------------
     1    5.00D-03             0             0             0             0
     2    5.00D-03             0             0             0             0
     3    5.00D-03             0             0             0             0

 *** Zeroth-Order Setup (Granovsky's zeroth-order vectors)
 Zeroth-order effective Hamiltonian
  (= Sum_i e(i)*<I|a+(i)a(i)|J> ):
                   1            2            3
     1 -7.265736D+00
     2  1.422260D-02-7.185272D+00
     3  1.422660D-03 4.342397D-03-7.030385D+00

 Zeroth-order vectors:
 State #    1
       MC st            1           2           3
       Coeff    9.856D-01  -1.689D-01  -2.812D-03
 State #    2
       MC st            2           1           3
       Coeff   -9.852D-01  -1.688D-01   2.961D-02
 State #    3
       MC st            3           2           1
       Coeff    9.996D-01   2.871D-02   7.773D-03

 *** GMC-QDPT computation

 (Integral reading:  CPU/Wall time =           0.00 /           0.00 sec.)

 One-external:
   0 -ionized terms: CPU/Wall time =           0.03 /           0.03 sec.
 (-1)-ionized terms: CPU/Wall time =           0.08 /           0.09 sec.
 (+1)-ionized terms: CPU/Wall time =           0.03 /           0.02 sec.
 (+1)-ionized terms: CPU/Wall time =           0.00 /           0.00 sec.
 (+2)-ionized terms: CPU/Wall time =           0.01 /           0.00 sec.

 Internal:
 # of macro loops for internal contribution =         1 (input)
 Loop:    1
 Dimension of internal CISD space     =         0  (after screening)
 Space construction: CPU/Wall time =           0.01 /           0.02 sec.
 Internal terms:     CPU/Wall time =           0.00 /           0.00 sec.

 Two-external:
   0 -ionized terms: CPU/Wall time =           0.06 /           0.06 sec.
 (-1)-ionized terms: CPU/Wall time =           1.00 /           1.00 sec.
 (-2)-ionized terms: CPU/Wall time =           0.17 /           0.17 sec.

 Total time:         CPU/Wall time =           1.39 /           1.39 sec.

 ***                  ***
 *** GMC-QDPT Results ***
 ***                  ***

 Diagonal elements of effective Hamiltonian:
 Heff(  1) =   -55.96147648
 Heff(  2) =   -55.84207078
 Heff(  3) =   -55.69684684

 Off-diagonal elements of effective Hamiltonian:
                   1            2
     2  2.003807D-02
     3 -9.846165D-04 4.190671D-03

 ******** GMC-QDPT energies ********
 ----------------------------------------------------------------------------
   State                        1st order                           2nd order
 ----------------------------------------------------------------------------
     1     E(REF-CI)=      -55.8663660168   E(GMC-QDPT2)=      -55.9647595890
     2     E(REF-CI)=      -55.7308522537   E(GMC-QDPT2)=      -55.8389091298
     3     E(REF-CI)=      -55.5856341273   E(GMC-QDPT2)=      -55.6967253767
 ----------------------------------------------------------------------------

 Excitation energies (invalid if E(1)/=E(GS)):
 ----------------------------------------------------------------------------
   State                        1st order                           2nd order
 ----------------------------------------------------------------------------

     TZ Sorted GMC-PT ENERGIES:
         1      -55.9647595890
         2      -55.8389091298
         3      -55.6967253767
     2     E(REF-CI)=        3.6875192 eV   E(GMC-QDPT2)=        3.4245672 eV
     3     E(REF-CI)=        7.6391077 eV   E(GMC-QDPT2)=        7.2935862 eV
 ----------------------------------------------------------------------------

 Main characters of perturbed GMC-QDPT states:

 State #    1  Energy =     -55.964759589  S =  0.500

      Det      Coef    Occupancy (Ignoring core)
      ---      ----    --------- --------- -----
        1   -0.974429  11110001110000
       36   -0.070206  11110001101000
      393   -0.055722  10110101010010
      717   -0.061157  11010011100001

 State #    2  Energy =     -55.838909130  S =  0.500

      Det      Coef    Occupancy (Ignoring core)
      ---      ----    --------- --------- -----
        1    0.074140  11110001110000
       36   -0.978678  11110001101000
      463   -0.056765  10110101001010

 State #    3  Energy =     -55.696725377  S =  0.500

      Det      Coef    Occupancy (Ignoring core)
      ---      ----    --------- --------- -----
       71   -0.977465  11110001011000
      248    0.050311  11011001001100
      822    0.062247  11010011001001

 <<<Max |V/de| = 2.591D-02  Thresh = 1.000D+00

 Oscillator strength (invalid if E(1)/=E(GS)):
 ----------------------------------------------------------------------------
   State                        1st order                           2nd order
 ----------------------------------------------------------------------------
     2     F(REF-CI)=        0.0019893198     F(GMC-PT2)=        0.0019230995
     3     F(REF-CI)=        0.0033355141     F(GMC-PT2)=        0.0032705580
 ----------------------------------------------------------------------------

 Dipole moment matrix elements, x, y, z, in A.U.
States    1    1       -0.0327852711       -0.2922428738        0.6991010002
States    1    2        0.0043037412       -0.0257514038        0.1491294366
States    1    3       -0.0932702187        0.0813460926        0.0546489236
States    2    1        0.0043037412       -0.0257514038        0.1491294366
States    2    2       -0.1840285168       -0.2064968414        0.3095623147
States    2    3        0.2002537470       -0.0404231280       -0.0020891251
States    3    1       -0.0932702187        0.0813460926        0.0546489236
States    3    2        0.2002537470       -0.0404231280       -0.0020891251
States    3    3        0.0298153255       -0.5509641177        0.2759467365

 Oscillator strength (valid only when positive): 
 ----------------------------------------------------------------------------
  States                        1st order                           2nd order
 ----------------------------------------------------------------------------
  1  1     F(REF-CI)=        0.0000000000     F(GMC-PT2)=        0.0000000000
  1  2     F(REF-CI)=       -0.0019893198     F(GMC-PT2)=       -0.0019230995
  1  3     F(REF-CI)=       -0.0033355141     F(GMC-PT2)=       -0.0032705580
  2  1     F(REF-CI)=        0.0019893198     F(GMC-PT2)=        0.0019230995
  2  2     F(REF-CI)=        0.0000000000     F(GMC-PT2)=        0.0000000000
  2  3     F(REF-CI)=       -0.0040813146     F(GMC-PT2)=       -0.0039564958
  3  1     F(REF-CI)=        0.0033355141     F(GMC-PT2)=        0.0032705580
  3  2     F(REF-CI)=        0.0040813146     F(GMC-PT2)=        0.0039564958
  3  3     F(REF-CI)=        0.0000000000     F(GMC-PT2)=        0.0000000000
 CPU     0: STEP CPU TIME=     1.96 TOTAL CPU TIME=         14.0 (      0.2 MIN)
 TOTAL WALL CLOCK TIME=         14.0 SECONDS, CPU UTILIZATION IS    99.93%

     !!! DIABATIZATION FOR REF CI STATES !!!

 *******************************************************
          $DMO GROUP FOUND IN THE INPUT.
        DIABATIZATION OF ADIABATIC STATES BEGINS.
     PROGRAMMED BY TAO ZENG (CARLETON UNIVERSITY).
               Email: toby.zeng@carleton.ca
     See T. Zeng, J. Chem. Phys. 2017, 146, 144103
 *******************************************************

 *************************************************************************
     STEP 1: TRANSFORMATION OF ADIABATIC STATES TO THE DMO REPRESENTATION
         See Atchity and Ruedenberg, J. Chem. Phys. 1999, 111, 2910
 *************************************************************************

Read in Diabatic Molecualr Orbitals:

                      1          2          3          4          5

    1  N  1  S    0.008609   0.000000   0.000000  -0.013219   0.279491
    2  N  1  S    0.442914  -0.000000   0.000000  -0.184329   0.867803
    3  N  1  S    0.276913   0.000000  -0.000000  -0.288315   0.144236
    4  N  1  X   -0.000000   0.493155  -0.024636  -0.000000  -0.000000
    5  N  1  Y    0.000000   0.024636   0.493155  -0.000000   0.000000
    6  N  1  Z    0.090197   0.000000   0.000000   0.593421   0.705309
    7  N  1  X   -0.000000   0.210628  -0.010522   0.000000   0.000000
    8  N  1  Y    0.000000   0.010522   0.210628  -0.000000  -0.000000
    9  N  1  Z   -0.004381   0.000000   0.000000   0.381592  -0.106092
   10  N  1 XX   -0.000457   0.010719  -0.000535  -0.012387   0.006153
   11  N  1 YY   -0.000457  -0.010719   0.000535  -0.012387   0.006153
   12  N  1 ZZ    0.000914  -0.000000   0.000000   0.024773  -0.012306
   13  N  1 XY    0.000000  -0.000618  -0.012377  -0.000000   0.000000
   14  N  1 XZ   -0.000000   0.026529  -0.001325  -0.000000   0.000000
   15  N  1 YZ    0.000000   0.001325   0.026529  -0.000000   0.000000
   16  H  2  S    0.194462  -0.176074   0.343485   0.112865  -0.523343
   17  H  2  S    0.003574  -0.023812   0.046452   0.024014  -0.054445
   18  H  2  X    0.018760   0.009101   0.022834   0.009336  -0.039151
   19  H  2  Y   -0.032493   0.022287  -0.020044  -0.016171   0.067811
   20  H  2  Z   -0.009251   0.008464  -0.016511   0.018769  -0.010566
   21  H  3  S    0.194462  -0.209430  -0.324227   0.112865  -0.523343
   22  H  3  S    0.003574  -0.028322  -0.043847   0.024014  -0.054445
   23  H  3  X    0.018760   0.006781  -0.023627   0.009336  -0.039151
   24  H  3  Y    0.032493  -0.024174  -0.017723   0.016171  -0.067811
   25  H  3  Z   -0.009251   0.010067   0.015585   0.018769  -0.010566
   26  H  4  S    0.194462   0.385503  -0.019258   0.112865  -0.523343
   27  H  4  S    0.003574   0.052134  -0.002604   0.024014  -0.054445
   28  H  4  X   -0.037519  -0.032295   0.001613  -0.018672   0.078302
   29  H  4  Y    0.000000   0.001067   0.021353  -0.000000   0.000000
   30  H  4  Z   -0.009251  -0.018530   0.000926   0.018769  -0.010566

                      6          7

    1  N  1  S    0.000000  -0.000000
    2  N  1  S    0.000000  -0.000000
    3  N  1  S   -0.000000   0.000000
    4  N  1  X   -0.930415  -0.002083
    5  N  1  Y   -0.002083   0.930415
    6  N  1  Z   -0.000000   0.000000
    7  N  1  X   -0.046866  -0.000105
    8  N  1  Y   -0.000105   0.046866
    9  N  1  Z   -0.000000   0.000000
   10  N  1 XX    0.001538   0.000003
   11  N  1 YY   -0.001538  -0.000003
   12  N  1 ZZ   -0.000000   0.000000
   13  N  1 XY   -0.000004   0.001776
   14  N  1 XZ    0.039985   0.000090
   15  N  1 YZ    0.000090  -0.039985
   16  H  2  S   -0.362630  -0.631354
   17  H  2  S   -0.065964  -0.114846
   18  H  2  X    0.002763  -0.037520
   19  H  2  Y    0.037435   0.040736
   20  H  2  Z    0.001882   0.003276
   21  H  3  S   -0.365454   0.629724
   22  H  3  S   -0.066477   0.114549
   23  H  3  X    0.002595   0.037532
   24  H  3  Y   -0.037617   0.040567
   25  H  3  Z    0.001896  -0.003268
   26  H  4  S    0.728084   0.001630
   27  H  4  S    0.132441   0.000297
   28  H  4  X   -0.062317  -0.000140
   29  H  4  Y    0.000055  -0.024345
   30  H  4  Z   -0.003778  -0.000008

NUMBER OF SUB ACTIVE SPACES:   1
ROTATE ACTIVE MOS TO DMOS IN EACH SUB-SPACE

SPACE  1:

OVERLAP BETWEEN ORTHONORMAL AND PRE-ORTHONORMAL REF. DMOS

             1           2           3           4           5

    1    0.9813592  -0.0143103  -0.0283642  -0.0062998   0.0032484
    2   -0.0143103   0.9659283  -0.0635586  -0.0118703   0.0079120
    3   -0.0283642  -0.0635586   0.9762406  -0.0384875   0.0656079
    4   -0.0062998  -0.0118703  -0.0384875   0.9959001  -0.0086684
    5    0.0032484   0.0079120   0.0656079  -0.0086684   1.1015188
    6   -0.0012043  -0.0122726  -0.0471127  -0.0026014  -0.0450317
    7   -0.0017847   0.0599450   0.0041055   0.0433917   0.0075296

             6           7

    1   -0.0012043  -0.0017847
    2   -0.0122726   0.0599450
    3   -0.0471127   0.0041055
    4   -0.0026014   0.0433917
    5   -0.0450317   0.0075296
    6    1.0370041  -0.0196120
    7   -0.0196120   1.0525208
REFERENCE DMOS AFTER ORTHONORMALIZATION:

                      1          2          3          4          5

    1  N  1  S    0.007326  -0.003063  -0.017091  -0.011638   0.255084
    2  N  1  S    0.446227  -0.004854  -0.045834  -0.177293   0.789173
    3  N  1  S    0.279559  -0.001885  -0.011802  -0.287587   0.128691
    4  N  1  X    0.005316   0.500368  -0.032804   0.004106  -0.037904
    5  N  1  Y    0.016325   0.004697   0.505564  -0.019006  -0.034904
    6  N  1  Z    0.093250   0.004653  -0.015202   0.602892   0.647012
    7  N  1  X    0.003196   0.218584   0.001879   0.003143  -0.003329
    8  N  1  Y    0.006841   0.023093   0.218925   0.006846  -0.013037
    9  N  1  Z   -0.000969   0.007869   0.021934   0.383954  -0.094641
   10  N  1 XX   -0.000420   0.010884  -0.000620  -0.012277   0.005523
   11  N  1 YY   -0.000766  -0.011473  -0.001167  -0.012628   0.005574
   12  N  1 ZZ    0.001186   0.000589   0.001788   0.024904  -0.011098
   13  N  1 XY   -0.000400  -0.001630  -0.012904  -0.000596   0.000742
   14  N  1 XZ    0.000524   0.028170   0.002317   0.000578   0.001264
   15  N  1 YZ    0.000844   0.005669   0.027967   0.002821  -0.001397
   16  H  2  S    0.208395  -0.115729   0.375131   0.148699  -0.506936
   17  H  2  S    0.004932  -0.014528   0.048873   0.030035  -0.053951
   18  H  2  X    0.020273   0.014327   0.028114   0.012044  -0.036958
   19  H  2  Y   -0.033736   0.018359  -0.023638  -0.018173   0.064111
   20  H  2  Z   -0.009608   0.007786  -0.015361   0.018124  -0.008539
   21  H  3  S    0.187236  -0.273740  -0.330936   0.066816  -0.473130
   22  H  3  S    0.002093  -0.039438  -0.047116   0.016449  -0.049693
   23  H  3  X    0.018796   0.004096  -0.020907   0.006888  -0.034538
   24  H  3  Y    0.032543  -0.027896  -0.016383   0.013115  -0.062252
   25  H  3  Z   -0.008570   0.012129   0.018116   0.019751  -0.010453
   26  H  4  S    0.209812   0.422345   0.082599   0.121228  -0.454383
   27  H  4  S    0.005270   0.057177   0.011371   0.025266  -0.045131
   28  H  4  X   -0.039477  -0.036300  -0.010102  -0.019417   0.069531
   29  H  4  Y    0.000683   0.004092   0.022443   0.001936  -0.001166
   30  H  4  Z   -0.009542  -0.019053   0.000592   0.018476  -0.009492

                      6          7

    1  N  1  S    0.010227  -0.000901
    2  N  1  S    0.032269   0.003477
    3  N  1  S    0.004854   0.011653
    4  N  1  X   -0.895300  -0.046921
    5  N  1  Y    0.036179   0.883483
    6  N  1  Z    0.028533  -0.029000
    7  N  1  X   -0.042909  -0.013456
    8  N  1  Y    0.010379   0.042374
    9  N  1  Z   -0.002356  -0.015731
   10  N  1 XX    0.001790  -0.000115
   11  N  1 YY   -0.001441   0.001107
   12  N  1 ZZ   -0.000349  -0.000992
   13  N  1 XY   -0.000544   0.001839
   14  N  1 XZ    0.039038  -0.000833
   15  N  1 YZ    0.000643  -0.038515
   16  H  2  S   -0.366833  -0.603708
   17  H  2  S   -0.065914  -0.110550
   18  H  2  X    0.001866  -0.036736
   19  H  2  Y    0.038673   0.038703
   20  H  2  Z    0.000911   0.002044
   21  H  3  S   -0.379330   0.609061
   22  H  3  S   -0.066752   0.109700
   23  H  3  X    0.000812   0.035517
   24  H  3  Y   -0.039236   0.039425
   25  H  3  Z    0.002294  -0.004577
   26  H  4  S    0.691456  -0.011335
   27  H  4  S    0.126992  -0.001363
   28  H  4  X   -0.058036   0.001129
   29  H  4  Y    0.000631  -0.023509
   30  H  4  Z   -0.004213   0.000286

 -------------------------------------------
       MAXIMIZING MORMO OVERLAP TERM        
 -------------------------------------------
   SWEEP    VALUE       PROGRESS
     0     4.05093
     1     6.86111     2.81018324
     2     6.96547     0.10436303
     3     6.96553     0.00005924
     4     6.96553     0.00000000
     5     6.96553     0.00000000
     6     6.96553     0.00000000
 THE ROTATION IS DONE
ACTIVE ORBITALS AFTER MORMO:

                      1          2          3          4          5

    1  N  1  S    0.006097  -0.008176  -0.024934  -0.012157   0.215871
    2  N  1  S    0.428312  -0.024402  -0.057801  -0.187461   0.741201
    3  N  1  S    0.321433   0.037605   0.043628  -0.275167   0.181520
    4  N  1  X   -0.004607   0.475351  -0.052052  -0.008094  -0.028745
    5  N  1  Y    0.004155  -0.012943   0.480412  -0.036866  -0.012655
    6  N  1  Z    0.084003  -0.003657  -0.036609   0.601242   0.641676
    7  N  1  X    0.015347   0.241892   0.046245   0.014318  -0.012689
    8  N  1  Y    0.020659   0.065643   0.236396   0.050780  -0.049524
    9  N  1  Z    0.020408   0.022018   0.063906   0.384455  -0.085964
   10  N  1 XX    0.000072   0.008591   0.007919  -0.008465  -0.005609
   11  N  1 YY   -0.000494  -0.008365  -0.008244  -0.014354   0.004313
   12  N  1 ZZ    0.000422  -0.000226   0.000325   0.022820   0.001296
   13  N  1 XY   -0.005368  -0.012918  -0.021473  -0.002189   0.044059
   14  N  1 XZ    0.001524   0.021233   0.001670  -0.002827   0.011142
   15  N  1 YZ   -0.001721   0.004724   0.018913  -0.000602   0.041518
   16  H  2  S    0.188417  -0.151607   0.351803   0.123504  -0.489635
   17  H  2  S    0.003079  -0.004804   0.057873   0.033852  -0.063561
   18  H  2  X    0.024962  -0.003982   0.035432   0.010974  -0.042889
   19  H  2  Y   -0.025011   0.026891  -0.012907  -0.009415   0.043548
   20  H  2  Z   -0.003977   0.006876  -0.008478   0.020794  -0.014414
   21  H  3  S    0.186230  -0.238250  -0.322637   0.087439  -0.492347
   22  H  3  S    0.000928  -0.079532  -0.075539   0.018434  -0.062146
   23  H  3  X    0.011344   0.012357  -0.014478   0.009052  -0.034977
   24  H  3  Y    0.030556  -0.021430  -0.013269   0.017532  -0.049807
   25  H  3  Z   -0.014202   0.014422   0.025278   0.017479  -0.008059
   26  H  4  S    0.188845   0.382968   0.014504   0.109317  -0.437847
   27  H  4  S    0.006209   0.092352   0.036884   0.032804  -0.058889
   28  H  4  X   -0.029223  -0.030417   0.010505  -0.013278   0.054088
   29  H  4  Y    0.014143   0.025121   0.016575   0.006677  -0.012458
   30  H  4  Z   -0.006050  -0.013875   0.007165   0.018940  -0.019870

                      6          7

    1  N  1  S    0.013523   0.045030
    2  N  1  S    0.022541   0.105428
    3  N  1  S    0.015094  -0.125789
    4  N  1  X   -0.900726  -0.036595
    5  N  1  Y    0.030104   0.868492
    6  N  1  Z    0.047961  -0.064702
    7  N  1  X   -0.042356  -0.036928
    8  N  1  Y    0.028111   0.070403
    9  N  1  Z   -0.027527   0.006799
   10  N  1 XX   -0.012915  -0.045694
   11  N  1 YY    0.010448   0.035979
   12  N  1 ZZ    0.002467   0.009715
   13  N  1 XY   -0.043541   0.020683
   14  N  1 XZ    0.042504   0.020436
   15  N  1 YZ   -0.013069  -0.034509
   16  H  2  S   -0.370188  -0.574720
   17  H  2  S   -0.074523  -0.123124
   18  H  2  X   -0.020891  -0.041805
   19  H  2  Y    0.037762   0.031214
   20  H  2  Z   -0.020624  -0.004665
   21  H  3  S   -0.339016   0.599493
   22  H  3  S   -0.111517   0.147106
   23  H  3  X    0.025770   0.040381
   24  H  3  Y   -0.037142   0.020108
   25  H  3  Z    0.013598  -0.008076
   26  H  4  S    0.656275   0.036767
   27  H  4  S    0.176107  -0.009069
   28  H  4  X   -0.053322  -0.017794
   29  H  4  Y    0.025848  -0.025602
   30  H  4  Z    0.004358   0.021769

Actually Used Diabatic Molecualr Orbitals:

                      1          2          3          4          5

    1  N  1  S    0.006097  -0.008176  -0.024934  -0.012157   0.215871
    2  N  1  S    0.428312  -0.024402  -0.057801  -0.187461   0.741201
    3  N  1  S    0.321433   0.037605   0.043628  -0.275167   0.181520
    4  N  1  X   -0.004607   0.475351  -0.052052  -0.008094  -0.028745
    5  N  1  Y    0.004155  -0.012943   0.480412  -0.036866  -0.012655
    6  N  1  Z    0.084003  -0.003657  -0.036609   0.601242   0.641676
    7  N  1  X    0.015347   0.241892   0.046245   0.014318  -0.012689
    8  N  1  Y    0.020659   0.065643   0.236396   0.050780  -0.049524
    9  N  1  Z    0.020408   0.022018   0.063906   0.384455  -0.085964
   10  N  1 XX    0.000072   0.008591   0.007919  -0.008465  -0.005609
   11  N  1 YY   -0.000494  -0.008365  -0.008244  -0.014354   0.004313
   12  N  1 ZZ    0.000422  -0.000226   0.000325   0.022820   0.001296
   13  N  1 XY   -0.005368  -0.012918  -0.021473  -0.002189   0.044059
   14  N  1 XZ    0.001524   0.021233   0.001670  -0.002827   0.011142
[...]
      823    0.031484   -0.031484  20+2002
       88    0.028183   -0.028183  202200+
      107    0.027605   -0.027605  +22-+00
       16   -0.027567    0.027567  222000+
      108   -0.027111   -0.027111  +2-2+00
      472   -0.026307   -0.026307  2+020-+
      751   -0.025723    0.025723  2+20002
       38   -0.023937    0.023937  2202+00
       54   -0.023336    0.023336  -2+200+
      248   -0.023290    0.023290  2+02200
      320   -0.023138   -0.023138  0+22200
      143    0.022595    0.022595  220+200
      821    0.021760   -0.021760  2++-002
       51    0.021256   -0.021256  22+-00+
      841   -0.021228    0.021228  +2+200-
      752   -0.020975   -0.020975  2+-+002
      471    0.020929    0.020929  2++-0-+
      809    0.020060   -0.020060  20+2+0-

 ---------------------------------------
    -DIABATIC STATES IN PROTOTYPES-     
 ---------------------------------------

     STATE:    1
 Group Ref#    Coefficients
     1    1    0.965401
     2    2   -0.004197
     3    3   -0.002479

WEIGHT OF LISTED PROTOTYPES:   93.20%

     STATE:    2
 Group Ref#    Coefficients
     1    1   -0.004197
     2    2    0.961055
     3    3    0.003419

WEIGHT OF LISTED PROTOTYPES:   92.37%

     STATE:    3
 Group Ref#    Coefficients
     1    1   -0.002479
     2    2    0.003419
     3    3    0.963028

WEIGHT OF LISTED PROTOTYPES:   92.74%

 --------------------------------------------------
 IN DIRECT MAX. DIABATIZATION FOR GMC-QDPT

 DIRECT MAXIMIZATION (DM) WITHOUT TRUNCATING ADIABATS
 EXPANSIONS INTO THE REFERENCE CONFIGURATION SPACE
 --------------------------------------------------

 -------------------------------------------
 - DM DIABT PT HAMILTONIAN MATRIX ELEMENTS -
 -------------------------------------------
                                            
 --- DIABATIC ENERGIES (DIAGONAL ELEMENT) ---       HARTREE            EV
 STATE #  1'S GMC-PT-LEVEL DIABATIC ENERGY=     -55.950038039       0.000000000
 STATE #  2'S GMC-PT-LEVEL DIABATIC ENERGY=     -55.775202172       4.757526252
 STATE #  3'S GMC-PT-LEVEL DIABATIC ENERGY=     -55.775153884       4.758840245

 --- DIABATIC COUPLINGS (OFF DIAGONAL ELEMENTS)---  HATREE            EV
 STATE #  1 &  2'S GMC-PT-LEVEL COUPLING  =       0.007364760       0.200405315
 STATE #  1 &  3'S GMC-PT-LEVEL COUPLING  =       0.045048321       1.225827262
 STATE #  2 &  3'S GMC-PT-LEVEL COUPLING  =      -0.075546124      -2.055714733

 ---------------------------------------
     - ROTATION TO DIABATIC STATES -    
 ---------------------------------------
 ROWS=ADIABATIC, COLUMNS=DIABATIC STATES

             1           2           3

    1    0.9467274  -0.1502926  -0.2848147
    2    0.3032529   0.7136934   0.6314106
    3    0.1083741  -0.6841446   0.7212498

 ---------------------------------------
          - DIABATIC STATES -           
 ---------------------------------------

 State #    1  Energy =     -55.950038039

      Det      Coef        Coefp    Occupancy (Ignoring core)
      ---      ----        ----    --------- --------- -----
        1    0.945705   -0.945705  222+000
        3    0.105621    0.105621  22-++00
      141   -0.101996   -0.101996  22++-00
       18    0.084634   -0.084634  2-2+00+
      736   -0.080185    0.080185  2+2+00-
        8   -0.076087    0.076087  2-2+0+0
       16    0.075231   -0.075231  222000+
      717   -0.073771   -0.073771  220+002
      393   -0.072800   -0.072800  202+020
       17    0.071569    0.071569  22-+00+
        7   -0.059604   -0.059604  22-+0+0
      351    0.057903    0.057903  22++0-0
      386    0.045587   -0.045587  2+2+0-0
      701   -0.043430   -0.043430  22++00-
      708    0.037681   -0.037681  2-++0+-
      402    0.037651   -0.037651  2+-+0-+
      215   -0.036888   -0.036888  022+200
      218    0.034362   -0.034362  +-2+-+0
      390    0.034297   -0.034297  -+2++-0
      705   -0.033046   -0.033046  -2+++0-
      227   -0.032734   -0.032734  +2-+-0+
       76    0.030500    0.030500  2+2-0+0
      212    0.029696    0.029696  +220200
       51   -0.028139    0.028139  22+-00+
        4    0.027648   -0.027648  2-2++00
      179   -0.027418   -0.027418  202+200
      122    0.026198    0.026198  +2-200+
      176   -0.025830    0.025830  2+2+-00
        5    0.025527    0.025527  -22++00
      113   -0.025428    0.025428  +-220+0
      773    0.024823   -0.024823  +2-++0-
     1051   -0.024109   -0.024109  2+++0--
      387   -0.023967    0.023967  2+20+-0
      702    0.023720    0.023720  22+0+0-
        2    0.023518   -0.023518  2220+00
      424   -0.023327   -0.023327  +-2++-0
      184   -0.022811   -0.022811  -+2+-+0
      159    0.022731   -0.022731  -2++-0+
       29   -0.021044   -0.021044  2--+0++
      738   -0.021017   -0.021017  2+-++0-
      158   -0.020773   -0.020773  2-++-0+

 State #    2  Energy =     -55.775202172

      Det      Coef        Coefp    Occupancy (Ignoring core)
      ---      ----        ----    --------- --------- -----
       71   -0.947771    0.947771  2+22000
      246   -0.117740   -0.117740  2++2-00
       73    0.113621   -0.113621  2+-2+00
      736   -0.090161    0.090161  2+2+00-
       86    0.086319    0.086319  2+2-00+
      822    0.075370   -0.075370  2+02002
       77   -0.071879    0.071879  2+-20+0
       88   -0.071442    0.071442  202200+
      456    0.068014    0.068014  2++20-0
       36    0.045545    0.045545  22+2000
      813    0.043556   -0.043556  20+20+-
      806   -0.042050   -0.042050  2++200-
      320    0.037234    0.037234  0+22200
      111    0.036556   -0.036556  +22-0+0
      810   -0.034659   -0.034659  -++2+0-
      332   -0.033708    0.033708  ++-2-0+
      323   -0.033454    0.033454  +022-+0
       99   -0.031970    0.031970  20-20++
      317    0.031029   -0.031029  ++2-200
      180   -0.031025    0.031025  -+2+200
       87    0.030753   -0.030753  2+-200+
      177    0.030570   -0.030570  2+20200
      183   -0.027416    0.027416  202+-+0
      807   -0.026841    0.026841  2++-+0-
      192   -0.026244    0.026244  2+-+-0+
        6    0.026183   -0.026183  22200+0
      122    0.025979    0.025979  +2-200+
      106   -0.025589   -0.025589  +222000
       90    0.025135    0.025135  2+--+0+
      878    0.025002    0.025002  ++-2+0-
      391    0.024616   -0.024616  2+20020
      264    0.024285   -0.024285  -++2-0+
      316    0.023356    0.023356  ++22-00
      911    0.022883    0.022883  2+++-0-
      108    0.022860    0.022860  +2-2+00
      263   -0.021374   -0.021374  20+2-0+
      526   -0.020905   -0.020905  ++220-0
       38   -0.020805    0.020805  2202+00
      113    0.020557   -0.020557  +-220+0
       72   -0.020150   -0.020150  2+2-+00

 State #    3  Energy =     -55.775153884

      Det      Coef        Coefp    Occupancy (Ignoring core)
      ---      ----        ----    --------- --------- -----
       36   -0.946463   -0.946463  22+2000
       38   -0.104261    0.104261  2202+00
       53   -0.097651   -0.097651  2-+200+
       51    0.088965   -0.088965  22+-00+
      806    0.087474    0.087474  2++200-
      701   -0.086279   -0.086279  22++00-
      463    0.073899   -0.073899  20+2020
      106   -0.070822   -0.070822  +222000
       39   -0.059015   -0.059015  2-+2+00
       42    0.052408   -0.052408  22020+0
       71   -0.045472    0.045472  2+22000
      472   -0.042760   -0.042760  2+020-+
       41   -0.041563    0.041563  22+-0+0
       43    0.037461    0.037461  2-+20+0
      123    0.037216   -0.037216  +-2200+
      285    0.036639   -0.036639  02+2200
      288   -0.036438   -0.036438  +-+2-+0
       73    0.036409   -0.036409  2+-2+00
      460   -0.035888   -0.035888  -++2+-0
      456   -0.034632   -0.034632  2++20-0
      297    0.033926   -0.033926  +202-0+
      351    0.031835    0.031835  22++0-0
       64    0.031790   -0.031790  2-020++
      145   -0.031672   -0.031672  -2++200
      282    0.031661    0.031661  +2+-200
      121   -0.030688    0.030688  +22-00+
      142    0.030252    0.030252  22+0200
      249    0.029962   -0.029962  20+2200
       86    0.027359    0.027359  2+2-00+
      157    0.026909   -0.026909  220+-0+
      457   -0.026594    0.026594  2++-+-0
      148   -0.025832   -0.025832  2-++-+0
       55   -0.025434   -0.025434  220-+0+
       16   -0.025043    0.025043  222000+
      494    0.024321   -0.024321  +-+2+-0
      112   -0.024087   -0.024087  +2-20+0
      109    0.023421   -0.023421  +-22+00
      254    0.023050   -0.023050  -++2-+0
      876   -0.022954   -0.022954  ++2200-
      246    0.022606    0.022606  2++2-00
      718    0.020821   -0.020821  2-++002
      843   -0.020585   -0.020585  +202+0-
      859    0.020263   -0.020263  02+2002
      808    0.020230   -0.020230  2+02+0-

 ---------------------------------------
      - DIABATIC STATES IN CMO -        
 ---------------------------------------

 State #    1  Energy =     -55.950038039

      Det      Coef        Coefp    Occupancy (Ignoring core)
      ---      ----        ----    --------- --------- -----
        1    0.900238   -0.900238  222+000
       36   -0.361218   -0.361218  22+2000
       71    0.110625   -0.110625  2+22000
      717   -0.063934   -0.063934  220+002
      393   -0.053312   -0.053312  202+020
      143   -0.042066   -0.042066  220+200
        8   -0.035904    0.035904  2-2+0+0
      716    0.034730    0.034730  22+0002
      753   -0.034713   -0.034713  202+002
      708    0.031994   -0.031994  2-++0+-
        3   -0.031699   -0.031699  22-++00
      106   -0.031432   -0.031432  +222000
      703    0.031376    0.031376  220++0-
       16    0.030572   -0.030572  222000+
      719   -0.028422   -0.028422  -2++002
      215   -0.028158   -0.028158  022+200
      704   -0.025658    0.025658  2-+++0-
      157   -0.024030    0.024030  220+-0+
      122    0.023629    0.023629  +2-200+
        4    0.022911   -0.022911  2-2++00
      463    0.022749   -0.022749  20+2020
      213   -0.022617    0.022617  +2-+200
      401    0.022402    0.022402  2+200-+
      787    0.022068   -0.022068  +2-+002
      402    0.021542   -0.021542  2+-+0-+
       76    0.021343    0.021343  2+2-0+0
      778   -0.020959   -0.020959  +-2+0+-
      741   -0.020869    0.020869  2+200+-
       37    0.020642   -0.020642  22+-+00
      145    0.020618    0.020618  -2++200
      404   -0.020559   -0.020559  -+2+0-+
      789   -0.020339   -0.020339  022+002
       52   -0.020297    0.020297  220200+

 State #    2  Energy =     -55.775202172

      Det      Coef        Coefp    Occupancy (Ignoring core)
      ---      ----        ----    --------- --------- -----
       36   -0.700765   -0.700765  22+2000
       71   -0.655759    0.655759  2+22000
        1   -0.200639    0.200639  222+000
      248    0.049321   -0.049321  2+02200
      123   -0.043416    0.043416  +-2200+
      262    0.040847    0.040847  2+02-0+
      822    0.035753   -0.035753  2+02002
      111    0.034136   -0.034136  +22-0+0
      463    0.031059   -0.031059  20+2020
      249    0.030542   -0.030542  20+2200
       18    0.029208   -0.029208  2-2+00+
      250    0.027655    0.027655  -++2200
       86   -0.027431   -0.027431  2+2-00+
      808   -0.025932    0.025932  2+02+0-
       53    0.025132    0.025132  2-+200+
      823    0.024815   -0.024815  20+2002
      751    0.022943   -0.022943  2+20002
       41    0.022826   -0.022826  22+-0+0
       89    0.022678    0.022678  -+2200+
      813    0.021836   -0.021836  20+20+-
      285    0.021531   -0.021531  02+2200
      253    0.020881    0.020881  20+2-+0
      876    0.020738    0.020738  ++2200-
      716    0.020050    0.020050  22+0002

 State #    3  Energy =     -55.775153884

      Det      Coef        Coefp    Occupancy (Ignoring core)
      ---      ----        ----    --------- --------- -----
       71    0.716593   -0.716593  2+22000
       36   -0.584414   -0.584414  22+2000
        1   -0.322999    0.322999  222+000
      822   -0.050841    0.050841  2+02002
      122    0.044564    0.044564  +2-200+
      463    0.043869   -0.043869  20+2020
      823    0.031484   -0.031484  20+2002
       88    0.028183   -0.028183  202200+
      107    0.027605   -0.027605  +22-+00
       16   -0.027567    0.027567  222000+
      108   -0.027111   -0.027111  +2-2+00
      472   -0.026307   -0.026307  2+020-+
      751   -0.025723    0.025723  2+20002
       38   -0.023937    0.023937  2202+00
       54   -0.023336    0.023336  -2+200+
      248   -0.023290    0.023290  2+02200
      320   -0.023138   -0.023138  0+22200
      143    0.022596    0.022596  220+200
      821    0.021760   -0.021760  2++-002
       51    0.021256   -0.021256  22+-00+
      841   -0.021228    0.021228  +2+200-
      752   -0.020976   -0.020976  2+-+002
      471    0.020929    0.020929  2++-0-+
      809    0.020060   -0.020060  20+2+0-

 ---------------------------------------
    -DIABATIC STATES IN PROTOTYPES-     
 ---------------------------------------

     STATE:    1
 Group Ref#    Coefficients
     1    1    0.965400
     2    2   -0.004188
     3    3   -0.002476

WEIGHT OF LISTED PROTOTYPES:   93.20%

     STATE:    2
 Group Ref#    Coefficients
     1    1   -0.004207
     2    2    0.961055
     3    3    0.003423

WEIGHT OF LISTED PROTOTYPES:   92.37%

     STATE:    3
 Group Ref#    Coefficients
     1    1   -0.002482
     2    2    0.003416
     3    3    0.963028

WEIGHT OF LISTED PROTOTYPES:   92.74%

     DIRECT MAX. DIABATIZATION FINISHED    
 CPU     0: STEP CPU TIME=     0.25 TOTAL CPU TIME=         14.3 (      0.2 MIN)
 TOTAL WALL CLOCK TIME=         14.3 SECONDS, CPU UTILIZATION IS    99.93%

DIABATS FOR SPIN-ORBIT CALCULATION ARE READY

TRANSITION DIPOLES BETWEEN ADIABATS (in A.U.):

STATE PAIR      X         Y         Z
    1    1 -0.032785 -0.292243  0.699101
    2    1  0.004304 -0.025751  0.149129
    2    2 -0.184029 -0.206497  0.309562
    3    1 -0.093270  0.081346  0.054649
    3    2  0.200254 -0.040423 -0.002089
    3    3  0.029815 -0.550964  0.275947


TRANSITION DIPOLES BETWEEN DIABATS (in A.U.):

STATE PAIR      X         Y         Z
    1    1 -0.049464 -0.288147  0.755014
    2    1  0.001212 -0.027239  0.005023
    2    2 -0.296180 -0.307937  0.283914
    3    1 -0.025171  0.024452  0.003632
    3    2 -0.091818  0.177669 -0.006652
    3    3  0.158646 -0.453620  0.245682

TRANSITION DIPOLES BETWEEN DIRECT MAX. DIABATS (in A.U.):

STATE PAIR      X         Y         Z
    1    1 -0.049464 -0.288147  0.755014
    2    1  0.001209 -0.027238  0.005018
    2    2 -0.296181 -0.307935  0.283913
    3    1 -0.025171  0.024453  0.003631
    3    2 -0.091816  0.177668 -0.006652
    3    3  0.158647 -0.453621  0.245682
 No $TRANST Group Found.
 Quit without doing spin-orbit coupling
 ..... DONE WITH MP2 ENERGY .....
 CPU     0: STEP CPU TIME=     0.00 TOTAL CPU TIME=         14.3 (      0.2 MIN)
 TOTAL WALL CLOCK TIME=         14.3 SECONDS, CPU UTILIZATION IS    99.93%
            100000000  WORDS OF DYNAMIC MEMORY USED
 EXECUTION OF GAMESS TERMINATED NORMALLY Wed Nov 16 18:36:55 2022
 DDI: 715512 bytes (0.7 MB / 0 MWords) used by master data server.

 ----------------------------------------
 CPU timing information for all processes
 ========================================
 0: 13.965 + 0.304 = 14.269
 ----------------------------------------
Note: The following floating-point exceptions are signalling: IEEE_DENORMAL
 ddikick.x: exited gracefully.
unset echo
----- accounting info -----
Files used on the master node io002 were:
-rw-r--r-- 1 bsonghao nooijen   20739 Nov 16 18:36 /scratch/bsonghao/nh3_diabatization_2d_at_mode_7_8_dist-0.6_-0.1.F05
-rw-r--r-- 1 bsonghao nooijen  363520 Nov 16 18:36 /scratch/bsonghao/nh3_diabatization_2d_at_mode_7_8_dist-0.6_-0.1.F09
-rw-r--r-- 1 bsonghao nooijen 1995920 Nov 16 18:36 /scratch/bsonghao/nh3_diabatization_2d_at_mode_7_8_dist-0.6_-0.1.F10
-rw-r--r-- 1 bsonghao nooijen  131264 Nov 16 18:36 /scratch/bsonghao/nh3_diabatization_2d_at_mode_7_8_dist-0.6_-0.1.F13
-rw-r--r-- 1 bsonghao nooijen  180312 Nov 16 18:36 /scratch/bsonghao/nh3_diabatization_2d_at_mode_7_8_dist-0.6_-0.1.F15
-rw-r--r-- 1 bsonghao nooijen       0 Nov 16 18:36 /scratch/bsonghao/nh3_diabatization_2d_at_mode_7_8_dist-0.6_-0.1.F16
-rw-r--r-- 1 bsonghao nooijen    9808 Nov 16 18:36 /scratch/bsonghao/nh3_diabatization_2d_at_mode_7_8_dist-0.6_-0.1.F70
-rw-r--r-- 1 bsonghao nooijen    9808 Nov 16 18:36 /scratch/bsonghao/nh3_diabatization_2d_at_mode_7_8_dist-0.6_-0.1.F71
-rw-r--r-- 1 bsonghao nooijen   19608 Nov 16 18:36 /scratch/bsonghao/nh3_diabatization_2d_at_mode_7_8_dist-0.6_-0.1.F72
-rw-r--r-- 1 bsonghao nooijen   19608 Nov 16 18:36 /scratch/bsonghao/nh3_diabatization_2d_at_mode_7_8_dist-0.6_-0.1.F73
-rw-r--r-- 1 bsonghao nooijen 1920824 Nov 16 18:36 /scratch/bsonghao/nh3_diabatization_2d_at_mode_7_8_dist-0.6_-0.1.F74
-rw-r--r-- 1 bsonghao nooijen       0 Nov 16 18:36 /scratch/bsonghao/nh3_diabatization_2d_at_mode_7_8_dist-0.6_-0.1.F75
-rw-r--r-- 1 bsonghao nooijen   58848 Nov 16 18:36 /scratch/bsonghao/nh3_diabatization_2d_at_mode_7_8_dist-0.6_-0.1.F76
-rw-r--r-- 1 bsonghao nooijen       0 Nov 16 18:36 /scratch/bsonghao/nh3_diabatization_2d_at_mode_7_8_dist-0.6_-0.1.F77
-rw-r--r-- 1 bsonghao nooijen    1864 Nov 16 18:36 /scratch/bsonghao/nh3_diabatization_2d_at_mode_7_8_dist-0.6_-0.1.F78
-rw-r--r-- 1 bsonghao nooijen   39208 Nov 16 18:36 /scratch/bsonghao/nh3_diabatization_2d_at_mode_7_8_dist-0.6_-0.1.F79
-rw-r--r-- 1 bsonghao nooijen     104 Nov 16 18:36 /scratch/bsonghao/nh3_diabatization_2d_at_mode_7_8_dist-0.6_-0.1.F80
-rw-r--r-- 1 bsonghao nooijen   13472 Nov 16 18:36 /scratch/bsonghao/nh3_diabatization_2d_at_mode_7_8_dist-0.6_-0.1.F81
-rw-r--r-- 1 bsonghao nooijen      16 Nov 16 18:36 /scratch/bsonghao/nh3_diabatization_2d_at_mode_7_8_dist-0.6_-0.1.F82
-rw-r--r-- 1 bsonghao nooijen   19216 Nov 16 18:36 /scratch/bsonghao/nh3_diabatization_2d_at_mode_7_8_dist-0.6_-0.1.F83
-rw-r--r-- 1 bsonghao nooijen   29712 Nov 16 18:36 /scratch/bsonghao/nh3_diabatization_2d_at_mode_7_8_dist-0.6_-0.1.F84
-rw-r--r-- 1 bsonghao nooijen  401576 Nov 16 18:36 /scratch/bsonghao/nh3_diabatization_2d_at_mode_7_8_dist-0.6_-0.1.F85
-rw-r--r-- 1 bsonghao nooijen  903672 Nov 16 18:36 /scratch/bsonghao/nh3_diabatization_2d_at_mode_7_8_dist-0.6_-0.1.F86
-rw-r--r-- 1 bsonghao nooijen     656 Nov 16 18:36 /scratch/bsonghao/nh3_diabatization_2d_at_mode_7_8_dist-0.6_-0.1.F87
-rw-r--r-- 1 bsonghao nooijen   38256 Nov 16 18:36 /scratch/bsonghao/nh3_diabatization_2d_at_mode_7_8_dist-0.6_-0.1.F88
-rw-r--r-- 1 bsonghao nooijen     240 Nov 16 18:36 /scratch/bsonghao/nh3_diabatization_2d_at_mode_7_8_dist-0.6_-0.1.F89
-rw-r--r-- 1 bsonghao nooijen       0 Nov 16 18:36 /scratch/bsonghao/nh3_diabatization_2d_at_mode_7_8_dist-0.6_-0.1.F90
-rw-r--r-- 1 bsonghao nooijen   13760 Nov 16 18:36 /scratch/bsonghao/nh3_diabatization_2d_at_mode_7_8_dist-0.6_-0.1.F91
-rw-r--r-- 1 bsonghao nooijen   22776 Nov 16 18:36 /scratch/bsonghao/nh3_diabatization_2d_at_mode_7_8_dist-0.6_-0.1.F92
-rw-r--r-- 1 bsonghao nooijen   23168 Nov 16 18:36 /scratch/bsonghao/nh3_diabatization_2d_at_mode_7_8_dist-0.6_-0.1.F93
-rw-r--r-- 1 bsonghao nooijen   22776 Nov 16 18:36 /scratch/bsonghao/nh3_diabatization_2d_at_mode_7_8_dist-0.6_-0.1.F94
-rw-r--r-- 1 bsonghao nooijen   13760 Nov 16 18:36 /scratch/bsonghao/nh3_diabatization_2d_at_mode_7_8_dist-0.6_-0.1.F95
-rw-r--r-- 1 bsonghao nooijen   29440 Nov 16 18:36 /scratch/bsonghao/nh3_diabatization_2d_at_mode_7_8_dist-0.6_-0.1.F96
-rw-r--r-- 1 bsonghao nooijen    1184 Nov 16 18:36 /scratch/bsonghao/nh3_diabatization_2d_at_mode_7_8_dist-0.6_-0.1.F97
-rw-r--r-- 1 bsonghao nooijen    9808 Nov 16 18:36 /scratch/bsonghao/nh3_diabatization_2d_at_mode_7_8_dist-0.6_-0.1.F98
-rw-r--r-- 1 bsonghao nooijen   30264 Nov 16 18:36 /scratch/bsonghao/nh3_diabatization_2d_at_mode_7_8_dist-0.6_-0.1.F99
ls: No match.
ls: No match.
ls: No match.
Wed 16 Nov 2022 06:36:58 PM EST
0.304u 0.032s 0:17.65 1.8%	0+0k 48+224io 0pf+0w
