----- GAMESS execution script 'rungms' -----
This job is running on host io002
under operating system Linux at Wed 16 Nov 2022 07:39:19 PM EST
Available scratch disk space (Kbyte units) at beginning of the job is
Filesystem       1K-blocks       Used   Available Use% Mounted on
/dev/sdc1      15378471580 3278917120 11318349060  23% /scratch
GAMESS temporary binary files will be written to /scratch/bsonghao
GAMESS supplementary output files will be written to /home/bsonghao/.gamess_ascii_files/267638
Copying input file nh3_diabatization_2d_at_mode_7_8_dist0.2_0.3.inp to your run's scratch directory...
cp nh3_diabatization_2d_at_mode_7_8_dist0.2_0.3.inp /scratch/bsonghao/nh3_diabatization_2d_at_mode_7_8_dist0.2_0.3.F05
unset echo
/home/bjb2chen/gamess/ddikick.x /home/bjb2chen/gamess/gamess.00.x nh3_diabatization_2d_at_mode_7_8_dist0.2_0.3 -ddi 1 1 io002 -scr /scratch/bsonghao

 Distributed Data Interface kickoff program.
 Initiating 1 compute processes on 1 nodes to run the following command:
 /home/bjb2chen/gamess/gamess.00.x nh3_diabatization_2d_at_mode_7_8_dist0.2_0.3 

          ******************************************************
          *         GAMESS VERSION = 02 AUG 2018 (R2)         *
          *             FROM IOWA STATE UNIVERSITY             *
          * M.W.SCHMIDT, K.K.BALDRIDGE, J.A.BOATZ, S.T.ELBERT, *
          *   M.S.GORDON, J.H.JENSEN, S.KOSEKI, N.MATSUNAGA,   *
          *          K.A.NGUYEN, S.J.SU, T.L.WINDUS,           *
          *       TOGETHER WITH M.DUPUIS, J.A.MONTGOMERY       *
          *         J.COMPUT.CHEM.  14, 1347-1363(1993)        *
          **************** 64 BIT LINUX VERSION ****************

  SINCE 1993, STUDENTS AND POSTDOCS WORKING AT IOWA STATE UNIVERSITY
  AND ALSO IN THEIR VARIOUS JOBS AFTER LEAVING ISU HAVE MADE IMPORTANT
  CONTRIBUTIONS TO THE CODE:
     IVANA ADAMOVIC, CHRISTINE AIKENS, YURI ALEXEEV, POOJA ARORA,
     ANDREY ASADCHEV, ROB BELL, PRADIPTA BANDYOPADHYAY, JONATHAN BENTZ,
     BRETT BODE, KURT BRORSEN, CALEB CARLIN, GALINA CHABAN, WEI CHEN,
     CHEOL HO CHOI, PAUL DAY, ALBERT DEFUSCO, NUWAN DESILVA, TIM DUDLEY,
     DMITRI FEDOROV, ALEX FINDLATER, GRAHAM FLETCHER, MARK FREITAG,
     KURT GLAESEMANN, ANASTASIA GUININA,
     DAN KEMP, GRANT MERRILL, NORIYUKI MINEZAWA, JONATHAN MULLIN,
     TAKESHI NAGATA, SEAN NEDD, HEATHER NETZLOFF, BOSILJKA NJEGIC, RYAN OLSON,
     MIKE PAK, BUU PHAM,
     SPENCER PRUITT, LUKE ROSKOP, JIM SHOEMAKER, LYUDMILA SLIPCHENKO,
     TONY SMITH, SAROM SOK LEANG, JIE SONG, TETSUYA TAKETSUGU, SIMON WEBB,
     PENG XU, SOOHAENG YOO, FEDERICO ZAHARIEV

  ADDITIONAL CODE HAS BEEN PROVIDED BY COLLABORATORS IN OTHER GROUPS:
     IOWA STATE UNIVERSITY:
          JOE IVANIC, AARON WEST, LAIMUTIS BYTAUTAS, KLAUS RUEDENBERG
     UNIVERSITY OF TOKYO: KIMIHIKO HIRAO, TAKAHITO NAKAJIMA,
          TAKAO TSUNEDA, MUNEAKI KAMIYA, SUSUMU YANAGISAWA,
          KIYOSHI YAGI, MAHITO CHIBA, SEIKEN TOKURA, NAOAKI KAWAKAMI
     UNIVERSITY OF AARHUS: FRANK JENSEN
     UNIVERSITY OF IOWA: VISVALDAS KAIRYS, HUI LI
     NATIONAL INST. OF STANDARDS AND TECHNOLOGY: WALT STEVENS, DAVID GARMER
     UNIVERSITY OF PISA: BENEDETTA MENNUCCI, JACOPO TOMASI
     UNIVERSITY OF MEMPHIS: HENRY KURTZ, PRAKASHAN KORAMBATH
     UNIVERSITY OF ALBERTA: TOBY ZENG, MARIUSZ KLOBUKOWSKI
     UNIVERSITY OF NEW ENGLAND: MARK SPACKMAN
     MIE UNIVERSITY: HIROAKI UMEDA
     NAT. INST. OF ADVANCED INDUSTRIAL SCIENCE AND TECHNOLOGY: KAZUO KITAURA
     MICHIGAN STATE UNIVERSITY:
          KAROL KOWALSKI, MARTA WLOCH, JEFFREY GOUR, JESSE LUTZ,
          WEI LI, JUN SHEN, J. EMILIANO DEUSTUA, PIOTR PIECUCH
     UNIVERSITY OF MINNESOTA:
          YINAN SHU
     UNIVERSITY OF SILESIA: MONIKA MUSIAL, STANISLAW KUCHARSKI
     FACULTES UNIVERSITAIRES NOTRE-DAME DE LA PAIX:
          OLIVIER QUINET, BENOIT CHAMPAGNE
     UNIVERSITY OF CALIFORNIA - SANTA BARBARA: BERNARD KIRTMAN
     INSTITUTE FOR MOLECULAR SCIENCE:
          KAZUYA ISHIMURA, MICHIO KATOUDA, AND SHIGERU NAGASE
     UNIVERSITY OF NOTRE DAME: ANNA POMOGAEVA, DAN CHIPMAN
     KYUSHU UNIVERSITY:
          HARUYUKI NAKANO,
          FENG LONG GU, JACEK KORCHOWIEC, MARCIN MAKOWSKI, AND YURIKO AOKI,
          HIROTOSHI MORI AND EISAKU MIYOSHI
     PENNSYLVANIA STATE UNIVERSITY:
          TZVETELIN IORDANOV, CHET SWALINA, JONATHAN SKONE,
          SHARON HAMMES-SCHIFFER
     WASEDA UNIVERSITY:
          MASATO KOBAYASHI, TOMOKO AKAMA, TSUGUKI TOUMA,
          TAKESHI YOSHIKAWA, YASUHIRO IKABATA, JUNJI SEINO,
          YUYA NAKAJIMA, HIROMI NAKAI
     NANJING UNIVERSITY: SHUHUA LI
     UNIVERSITY OF NEBRASKA:
          PEIFENG SU, DEJUN SI, NANDUN THELLAMUREGE, YALI WANG, HUI LI
     UNIVERSITY OF ZURICH: ROBERTO PEVERATI, KIM BALDRIDGE
     N. COPERNICUS UNIVERSITY AND JACKSON STATE UNIVERSITY:
          MARIA BARYSZ
     UNIVERSITY OF COPENHAGEN: Jimmy Kromann, CASPER STEINMANN
     TOKYO INSTITUTE OF TECHNOLOGY: HIROYA NAKATA
     NAGOYA UNIVERSITY: YOSHIO NISHIMOTO, STEPHAN IRLE
     MOSCOW STATE UNIVERSITY: VLADIMIR MIRONOV

 EXECUTION OF GAMESS BEGUN Wed Nov 16 19:39:20 2022

            ECHO OF THE FIRST FEW INPUT CARDS -
 INPUT CARD> $system kdiag=3 mwords=100 memddi=1000 parall=.t. $end                         
 INPUT CARD> $contrl runtyp=energy ispher=1 $end                                            
 INPUT CARD> $contrl icut=9 itol=20 inttyp=rysquad qmttol=1.0d-05 nosym=1 $end              
 INPUT CARD> $scf    npunch=2 conv=1.0d-06 dirscf=.t.      $end                             
 INPUT CARD> $contrl scftyp=mcscf  mult=2 maxit=200 icharg=1 mplevl=2 $end                  
 INPUT CARD> $guess  guess=moread norb=29 purify=.t. $end                                   
 INPUT CARD> $basis  gbasis=ccd $end                                                        
 INPUT CARD> $mcscf  cistep=gmcci fullnr=.t. finci=mos                                      
 INPUT CARD>         acurcy=1.d-6 maxit=100 $end                                            
 INPUT CARD> $trans  dirtrf=.t. $end                                                        
 INPUT CARD> $mrmp   mrpt=gmcpt rdvecs=.f. $end                                             
 INPUT CARD> $gmcpt  nmofzc=0 nmodoc=1 nmoact=7 nelact=7 stsym(1)=A                         
 INPUT CARD>         reftyp=ormas nspace=1 mstart(1)=2 mine(1)=7 maxe(1)=7                  
 INPUT CARD>         kstate(1)=1,1,1                                                        
 INPUT CARD>         wstate(1)=1,1,1                                                        
 INPUT CARD>         iwgt=0 thrwgt=-1.0 krot=.f. kszdoe=.f. knospn=.f.                      
 INPUT CARD>         thrde=-1.0 edshft=0.02 $end                                            
 INPUT CARD> $data                                                                          
 INPUT CARD> NH3+ 3 states calculation at NH3 structure.                                    
 INPUT CARD> c1                                                                             
 INPUT CARD>N 7.0 -0.018686754000000003 -0.012457805999999998 -0.1693808462                 
 INPUT CARD>H 1.0 -0.23616166100000002 0.9341844928 0.2625863931                            
 INPUT CARD>H 1.0 -0.38901230099999995 -0.9070305498000001 0.17114343710000002              
 INPUT CARD>H 1.0 0.884831414 0.14595149399999996 0.33565333510000006                       
 INPUT CARD>$end                                                                            
 INPUT CARD>--- OPTIMIZED RHF      MO-S --- GENERATED AT Mon Nov 14 16:47:08 2022           
 INPUT CARD>E=      -56.3825050291, E(NUC)=   11.8429239490                                 
 INPUT CARD> $VEC                                                                           
 INPUT CARD> 1  1-1.00134066E+00-2.25158504E-03 3.44925845E-03 0.00000000E+00 0.00000000E+00
 INPUT CARD> 1  2-2.13170927E-03 0.00000000E+00 0.00000000E+00 6.57129898E-04-6.87950443E-05
 INPUT CARD> 1  3-6.87950443E-05 1.37590089E-04 0.00000000E+00 0.00000000E+00 0.00000000E+00
 INPUT CARD> 1  4 3.25502815E-04-4.84772356E-04 3.62525460E-04-6.27912517E-04-3.45956485E-04
 INPUT CARD> 1  5 3.25502815E-04-4.84772356E-04 3.62525460E-04 6.27912517E-04-3.45956485E-04
 INPUT CARD> 1  6 3.25502815E-04-4.84772356E-04-7.25050921E-04 0.00000000E+00-3.45956485E-04
 INPUT CARD> 2  1 1.31286642E-02-4.05911371E-01-2.82090992E-01 0.00000000E+00 0.00000000E+00
 INPUT CARD> 2  2-7.71489043E-02 0.00000000E+00 0.00000000E+00 9.73717494E-03 6.62450916E-04
 INPUT CARD> 2  3 6.62450916E-04-1.32490183E-03 0.00000000E+00 0.00000000E+00 0.00000000E+00
 INPUT CARD> 2  4-1.96090317E-01-1.96656153E-02-1.74855877E-02 3.02859263E-02 8.68214399E-03
 INPUT CARD> 2  5-1.96090317E-01-1.96656153E-02-1.74855877E-02-3.02859263E-02 8.68214399E-03
 INPUT CARD> 2  6-1.96090317E-01-1.96656153E-02 3.49711754E-02 0.00000000E+00 8.68214399E-03
 INPUT CARD> 3  1 0.00000000E+00 0.00000000E+00 0.00000000E+00 4.48608762E-01 0.00000000E+00
 INPUT CARD> 3  2 0.00000000E+00 2.18692520E-01 0.00000000E+00 0.00000000E+00 1.30198027E-02
 INPUT CARD> 3  3-1.30198027E-02 0.00000000E+00 0.00000000E+00 2.71832968E-02 0.00000000E+00
 INPUT CARD> 3  4-1.85332726E-01-7.03958951E-02 8.47929477E-03 1.95242443E-02 8.32835058E-03
 INPUT CARD> 3  5-1.85332726E-01-7.03958951E-02 8.47929477E-03-1.95242443E-02 8.32835058E-03
 INPUT CARD> 3  6 3.70665453E-01 1.40791790E-01-2.53376884E-02 0.00000000E+00-1.66567012E-02
 INPUT CARD> 4  1 0.00000000E+00 0.00000000E+00 0.00000000E+00 0.00000000E+00 4.48608762E-01
 INPUT CARD> 4  2 0.00000000E+00 0.00000000E+00 2.18692520E-01 0.00000000E+00 0.00000000E+00
 INPUT CARD> 4  3 0.00000000E+00 0.00000000E+00-1.50339731E-02 0.00000000E+00 2.71832968E-02
 INPUT CARD> 4  4 3.21005698E-01 1.21929267E-01 1.95242443E-02-1.40653607E-02-1.44251263E-02
  100000000 WORDS OF MEMORY AVAILABLE

     BASIS OPTIONS
     -------------
     GBASIS=CCD          IGAUSS=       0      POLAR=NONE    
     NDFUNC=       0     NFFUNC=       0     DIFFSP=       F
     NPFUNC=       0      DIFFS=       F     BASNAM=        


     RUN TITLE
     ---------
  NH3+ 3 states calculation at NH3 structure.                                    

 THE POINT GROUP OF THE MOLECULE IS C1      
 THE ORDER OF THE PRINCIPAL AXIS IS     0

 ATOM      ATOMIC                      COORDINATES (BOHR)
           CHARGE         X                   Y                   Z
 N           7.0    -0.0353128447       -0.0235418397       -0.3200833869
 H           1.0    -0.4462808281        1.7653527134        0.4962163311
 H           1.0    -0.7351266547       -1.7140392016        0.3234142007
 H           1.0     1.6720889178        0.2758083312        0.6342928302

          INTERNUCLEAR DISTANCES (ANGS.)
          ------------------------------

                1 N          2 H          3 H          4 H     

   1 N       0.0000000    1.0630252 *  1.0263324 *  1.0471381 *
   2 H       1.0630252 *  0.0000000    1.8498103 *  1.3723249 *
   3 H       1.0263324 *  1.8498103 *  0.0000000    1.6608770 *
   4 H       1.0471381 *  1.3723249 *  1.6608770 *  0.0000000  

  * ... LESS THAN  3.000


     ATOMIC BASIS SET
     ----------------
 THE CONTRACTED PRIMITIVE FUNCTIONS HAVE BEEN UNNORMALIZED
 THE CONTRACTED BASIS FUNCTIONS ARE NOW NORMALIZED TO UNITY

  SHELL TYPE  PRIMITIVE        EXPONENT          CONTRACTION COEFFICIENT(S)

 N         

      1   S       1          9046.0000000    0.000699617413
      1   S       2          1357.0000000    0.005386054630
      1   S       3           309.3000000    0.027391021189
      1   S       4            87.7300000    0.103150591982
      1   S       5            28.5600000    0.278570663317
      1   S       6            10.2100000    0.448294849454
      1   S       7             3.8380000    0.278085928395
      1   S       8             0.7466000    0.015431561233

      2   S       9          9046.0000000   -0.000304990096
      2   S      10          1357.0000000   -0.002408026379
      2   S      11           309.3000000   -0.011944448725
      2   S      12            87.7300000   -0.048925992909
      2   S      13            28.5600000   -0.134472724725
      2   S      14            10.2100000   -0.315112577700
      2   S      15             3.8380000   -0.242857832550
      2   S      16             0.7466000    1.094382206854

      3   S      17             0.2248000    1.000000000000

      4   P      18            13.5500000    0.058905676772
      4   P      19             2.9170000    0.320461106714
      4   P      20             0.7973000    0.753042061792

      5   P      21             0.2185000    1.000000000000

      6   D      22             0.8170000    1.000000000000

 H         

      7   S      23            13.0100000    0.033498726390
      7   S      24             1.9620000    0.234800801174
      7   S      25             0.4446000    0.813682957883

      8   S      26             0.1220000    1.000000000000

      9   P      27             0.7270000    1.000000000000

 H         

     10   S      28            13.0100000    0.033498726390
     10   S      29             1.9620000    0.234800801174
     10   S      30             0.4446000    0.813682957883

     11   S      31             0.1220000    1.000000000000

     12   P      32             0.7270000    1.000000000000

 H         

     13   S      33            13.0100000    0.033498726390
     13   S      34             1.9620000    0.234800801174
     13   S      35             0.4446000    0.813682957883

     14   S      36             0.1220000    1.000000000000

     15   P      37             0.7270000    1.000000000000

 TOTAL NUMBER OF BASIS SET SHELLS             =   15
 NUMBER OF CARTESIAN GAUSSIAN BASIS FUNCTIONS =   30
 NOTE: THIS RUN WILL RESTRICT THE MO VARIATION SPACE TO SPHERICAL HARMONICS.
 THE NUMBER OF ORBITALS KEPT IN THE VARIATIONAL SPACE WILL BE PRINTED LATER.
 NUMBER OF ELECTRONS                          =    9
 CHARGE OF MOLECULE                           =    1
 SPIN MULTIPLICITY                            =    2
 NUMBER OF OCCUPIED ORBITALS (ALPHA)          =    5
 NUMBER OF OCCUPIED ORBITALS (BETA )          =    4
 TOTAL NUMBER OF ATOMS                        =    4
 THE NUCLEAR REPULSION ENERGY IS       11.6216043816

     $CONTRL OPTIONS
     ---------------
 SCFTYP=MCSCF        RUNTYP=ENERGY       EXETYP=RUN     
 MPLEVL=       2     CITYP =NONE         CCTYP =NONE         VBTYP =NONE    
 DFTTYP=NONE         TDDFT =NONE    
 MULT  =       2     ICHARG=       1     NZVAR =       0     COORD =UNIQUE  
 PP    =NONE         RELWFN=NONE         LOCAL =NONE         NUMGRD=       F
 ISPHER=       1     NOSYM =       1     MAXIT =     200     UNITS =ANGS    
 PLTORB=       F     MOLPLT=       F     AIMPAC=       F     FRIEND=        
 NPRINT=       7     IREST =       0     GEOM  =INPUT   
 NORMF =       0     NORMP =       0     ITOL  =      20     ICUT  =       9
 INTTYP=RYSQUAD      GRDTYP=BEST         QMTTOL= 1.0E-05

     $SYSTEM OPTIONS
     ---------------
  REPLICATED MEMORY=   100000000 WORDS (ON EVERY NODE).
 DISTRIBUTED MEMDDI=        1000 MILLION WORDS IN AGGREGATE,
 MEMDDI DISTRIBUTED OVER   1 PROCESSORS IS  1000000000 WORDS/PROCESSOR.
 TOTAL MEMORY REQUESTED ON EACH PROCESSOR=  1100000000 WORDS.
 TIMLIM=      525600.00 MINUTES, OR     365.0 DAYS.
 PARALL= T  BALTYP=  DLB     KDIAG=    3  COREFL= F
 MXSEQ2=     300 MXSEQ3=     150  mem10=         0

          ----------------
          PROPERTIES INPUT
          ----------------

     MOMENTS            FIELD           POTENTIAL          DENSITY
 IEMOM =       1   IEFLD =       0   IEPOT =       0   IEDEN =       0
 WHERE =COMASS     WHERE =NUCLEI     WHERE =NUCLEI     WHERE =NUCLEI  
 OUTPUT=BOTH       OUTPUT=BOTH       OUTPUT=BOTH       OUTPUT=BOTH    
 IEMINT=       0   IEFINT=       0                     IEDINT=       0
                                                       MORB  =       0

     -------------------------------
     INTEGRAL TRANSFORMATION OPTIONS
     -------------------------------
     NWORD  =            0
     CUTOFF = 1.0E-09     MPTRAN =       0
     DIRTRF =       T     AOINTS =DUP     

          ----------------------
          MCSCF INPUT PARAMETERS
          ----------------------
 CONVERGER SELECTION: FOCAS = F  SOSCF = F  FULLNR = T  QUD = F  JACOBI = F
 SECULAR EQUATION METHOD CISTEP = GMCCI   
 --- GENERAL INPUT OPTIONS:
 MAXIT =     100  MICIT =       1  ACURCY= 1.000E-06
 DAMP  =   0.000  CANONC=       T  ENGTOL= 1.000E-10
 EKT   =       F  NPUNCH=       2  NWORD =         0
 REGENERATE CI AFTER CONVERGENCE = NONE    
 DIABATIZATION AFTER CONVERGENCE =        F
 --- INPUT FOR FULLNR CONVERGER:
 METHOD=DM2       FORS  =       F  DROPC =       T
 LINSER=       F  FCORE =       F  NORB  =      30

          ----------------------
          INTEGRAL INPUT OPTIONS
          ----------------------
 NOPK  =       1 NORDER=       0 SCHWRZ=       T

 ------------------------------------------
 MULTIREFERENCE PERTURBATION THEORY CONTROL
 ------------------------------------------
 MRPT=GMCPT    READ CONVERGED MCSCF VECTORS= F


     ------------------------------------------
     THE POINT GROUP IS C1 , NAXIS= 1, ORDER= 1
     ------------------------------------------

 -- VARIATIONAL SPACE WILL BE RESTRICTED TO PURE SPHERICAL HARMONICS ONLY --
 AFTER EXCLUDING CONTAMINANT COMBINATIONS FROM THE CARTESIAN GAUSSIAN BASIS
 SET, THE NUMBER OF SPHERICAL HARMONICS KEPT IN THE VARIATION SPACE IS   29

     DIMENSIONS OF THE SYMMETRY SUBSPACES ARE
 A   =   29

 ..... DONE SETTING UP THE RUN .....
 CPU     0: STEP CPU TIME=     0.04 TOTAL CPU TIME=          0.0 (      0.0 MIN)
 TOTAL WALL CLOCK TIME=          0.0 SECONDS, CPU UTILIZATION IS   100.00%

          ********************
          1 ELECTRON INTEGRALS
          ********************
 TIME TO DO   DIPOLE INTEGRALS=      0.00
 ...... END OF ONE-ELECTRON INTEGRALS ......
 CPU     0: STEP CPU TIME=     0.00 TOTAL CPU TIME=          0.0 (      0.0 MIN)
 TOTAL WALL CLOCK TIME=          0.0 SECONDS, CPU UTILIZATION IS   100.00%

          -------------
          GUESS OPTIONS
          -------------
          GUESS =MOREAD            NORB  =      29          NORDER=       0
          MIX   =       F          PRTMO =       F          PUNMO =       F
          TOLZ  = 1.0E-08          TOLE  = 1.0E-05
          SYMDEN=       F          PURIFY=       T

 INITIAL GUESS ORBITALS GENERATED BY MOREAD   ROUTINE.

 STATISTICS FOR GENERATION OF SYMMETRY ORBITAL -Q- MATRIX
 NUMBER OF CARTESIAN ATOMIC ORBITALS=         30
 NUMBER OF SPHERICAL CONTAMINANTS DROPPED=     1
 NUMBER OF LINEARLY DEPENDENT MOS DROPPED=     0
 TOTAL NUMBER OF MOS IN VARIATION SPACE=      29
 ORBITAL PURIFICATION WILL OCCUR

 SYMMETRIES FOR INITIAL GUESS ORBITALS FOLLOW.   BOTH SET(S).
     5 ORBITALS ARE OCCUPIED (    1 CORE ORBITALS).
     1=A        2=A        3=A        4=A        5=A        6=A        7=A   
     8=A        9=A       10=A       11=A       12=A       13=A       14=A   
    15=A       16=A       17=A       18=A       19=A       20=A       21=A   
    22=A       23=A       24=A       25=A       26=A       27=A       28=A   
    29=A   
 ...... END OF INITIAL ORBITAL SELECTION ......
 CPU     0: STEP CPU TIME=     0.01 TOTAL CPU TIME=          0.0 (      0.0 MIN)
 TOTAL WALL CLOCK TIME=          0.1 SECONDS, CPU UTILIZATION IS   100.00%

                    ----------------------
                    AO INTEGRAL TECHNOLOGY
                    ----------------------
     S,P,L SHELL ROTATED AXIS INTEGRALS, REPROGRAMMED BY
        KAZUYA ISHIMURA (IMS) AND JOSE SIERRA (SYNSTAR).
     S,P,D,L SHELL ROTATED AXIS INTEGRALS PROGRAMMED BY
        KAZUYA ISHIMURA (INSTITUTE FOR MOLECULAR SCIENCE).
     S,P,D,F,G SHELL TO TOTAL QUARTET ANGULAR MOMENTUM SUM 5,
        ERIC PROGRAM BY GRAHAM FLETCHER (ELORET AND NASA ADVANCED
        SUPERCOMPUTING DIVISION, AMES RESEARCH CENTER).
     S,P,D,F,G,L SHELL GENERAL RYS QUADRATURE PROGRAMMED BY
        MICHEL DUPUIS (PACIFIC NORTHWEST NATIONAL LABORATORY).

          --------------------
          2 ELECTRON INTEGRALS
          --------------------

 DIRECT SCF METHOD SKIPS INTEGRAL STORAGE ON DISK.
 DIRECT TRANSFORMATION SKIPS AO INTEGRAL STORAGE ON DISK.
  ...... END OF TWO-ELECTRON INTEGRALS .....
 STEP CPU TIME =     0.02 TOTAL CPU TIME =          0.1 (      0.0 MIN)
 TOTAL WALL CLOCK TIME=          0.1 SECONDS, CPU UTILIZATION IS   100.00%
 DDI: Creating Array [0] - 900 x 36 = 32400 words.
 DDI: Creating Array [1] - 21 x 288 = 6048 words.
 DDI: Creating Array [2] - 36 x 36 = 1296 words.
 DDI: Creating Array [3] - 465 x 36 = 16740 words.

          -----------------
          MCSCF CALCULATION
          -----------------

 ----- NUCLEAR ENERGY ----- =        11.6216043816

     -------------------------------------------------
     GMC-PT/GMC-QDPT or general MCSCF input parameters
     -------------------------------------------------
 # of frozen core orbs. =         0 ->         0
 # of doubly occ. orbs. =         1
 # of active      orbs. =         7
 # of virtual     orbs. =        21
 # of active electrons  =         7
 # of states in CI      =         3
 Highest state in CI    =         3
 kstate =  1 1 1
 avecoe =  0.333 0.333 0.333
 State symmetry           = A           
 Assigned symmetry number = 1

 <<<Act. MO sym.: 1111111

 <<<Division of 1-ext.:  0
 <<<Division of 2-ext.:  0

 *** Reference space

 Reference type: ORMAS (= Occupation restricted multiple active space)
 # of orbitals          =  7
 # of minimum electrons =  7
 # of maximum electrons =  7
 State symmetry    =    1 (input)
 2*Sz              =    1 (input)
 Spin multiplicity =    2 (input)
 Dimension of reference space =      1225  (from      3432 walks)

 Dimension of reference space =      1225  (from      1225 walks)

 <<<Ionized spaces for Ref-CI:
      0:         1225 /   -1-0:         1960 /  0-1-0:         2891

 EVALUATING EXCHANGE INTEGRALS FOR DIRECT INTEGRAL TRANSFORMATION
 SCHWARZ INEQUALITY OVERHEAD:       465 INTEGRALS, T=        0.00

     --------------------------------------------
     PARTIAL TWO ELECTRON INTEGRAL TRANSFORMATION
     --------------------------------------------

 NUMBER OF CORE MOLECULAR ORBITALS     =    1
 NUMBER OF OCCUPIED MOLECULAR ORBITALS =    8
 TOTAL NUMBER OF MOLECULAR ORBITALS    =   29
 TOTAL NUMBER OF ATOMIC ORBITALS       =   30
 THRESHOLD FOR KEEPING TRANSFORMED 2E- INTEGRALS = 1.000E-09

 -------------------------------     ------------------------------
 DISTRIBUTED DATA TRANSFORMATION     PROGRAM WRITTEN BY G. FLETCHER
 -------------------------------     ------------------------------

 THE DISTRIBUTED MEMORY REQUIRED FOR THIS STEP IS MEMDDI=         1 MWORDS
 CREATING DISTRIBUTED STORAGE FOR [VIR OCC|VIR OCC] INTEGRALS
 CREATING DISTRIBUTED STORAGE FOR [VIR OCC|OCC OCC] INTEGRALS
 CREATING DISTRIBUTED STORAGE FOR [OCC OCC|OCC OCC] INTEGRALS
 CREATING DISTRIBUTED STORAGE FOR [VIR VIR|OCC OCC] INTEGRALS
 FOR    1 PROCESSORS, THE REPLICATED MEMORY NEEDED IS       73700 WORDS.
 SCHWARZ INEQUALITY OVERHEAD:       465 INTEGRALS, T=        0.00

      DIRECT 4-INDEX TRANSFORMATION 
      SCHWARZ INEQUALITY TEST SKIPPED          0 INTEGRAL BLOCKS
 ----- FROZEN CORE ENERGY =       -47.7696174256
 ... END OF INTEGRAL TRANSFORMATION ...
 CPU     0: STEP CPU TIME=     0.22 TOTAL CPU TIME=          0.3 (      0.0 MIN)
 TOTAL WALL CLOCK TIME=          0.3 SECONDS, CPU UTILIZATION IS   100.00%

     --------------------------------     -----------------------------
     MCHF NEWTON-RAPHSON OPTIMIZATION     CODE WRITTEN BY MICHEL DUPUIS
     --------------------------------     -----------------------------
     PARALLEL VERSION WRITTEN BY G. FLETCHER (ELORET)
     NASA ADVANCED SUPERCOMPUTING DIVISION, AMES RESEARCH CENTER

 NUMBER OF INDEPENDENT ORBITAL ROTATION PARAMETERS =   175
 ..... DONE SOLVING NEWTON-RAPHSON EQUATIONS .....
 CPU     0: STEP CPU TIME=     0.69 TOTAL CPU TIME=          1.0 (      0.0 MIN)
 TOTAL WALL CLOCK TIME=          1.0 SECONDS, CPU UTILIZATION IS   100.00%
 ..... DONE WITH NTN-RPH ORBITAL ROTATIONS ..... 
 CPU     0: STEP CPU TIME=     0.00 TOTAL CPU TIME=          1.0 (      0.0 MIN)
 TOTAL WALL CLOCK TIME=          1.0 SECONDS, CPU UTILIZATION IS   100.00%
 MAXIMUM MEMORY USED BY NTN-RPH CODE WAS     57645 WORDS.

 ITER     TOTAL ENERGY      DEL(E)  LAGRANGIAN ASYMMETRY   SQCDF  MICIT   DAMP
   1      -55.665393076 -0.665393076  0.132706   14    4 1.590E-01  1   0.0000
   2      -55.704473122 -0.039080046  0.023705   12    5 4.504E-01  1   0.0000
   3      -55.737178203 -0.032705081  0.012174   12    5 2.138E-01  1   0.0253
   4      -55.750818031 -0.013639828  0.004148   11    6 3.813E-02  1   0.0044
   5      -55.752478233 -0.001660202  0.000735   12    5 1.101E-03  1   0.0000
   6      -55.752526720 -0.000048487  0.000244   12    5 9.121E-05  1   0.0000
   7      -55.752531544 -0.000004824  0.000110   12    5 1.319E-05  1   0.0000
   8      -55.752532286 -0.000000741  0.000049   12    5 2.160E-06  1   0.0000
   9      -55.752532411 -0.000000125  0.000020   12    5 3.895E-07  1   0.0000
  10      -55.752532434 -0.000000023  0.000008   12    5 8.027E-08  1   0.0000
  11      -55.752532439 -0.000000005  0.000004   22    5 1.918E-08  1   0.0000
  12      -55.752532440 -0.000000001  0.000002   12    7 5.335E-09  1   0.0000
  13      -55.752532440 -0.000000000  0.000001   12    7 1.631E-09  1   0.0000
  14      -55.752532440 -0.000000000  0.000001   12    7 5.338E-10  1   0.0000

          --------------------
          LAGRANGIAN CONVERGED
          --------------------

 FINAL MCSCF ENERGY IS      -55.7525324404 AFTER  14 ITERATIONS

 -MCCI- BASED ON OPTIMIZED ORBITALS
 ----------------------------------

 PLEASE NOTE: IF THE ACTIVE ORBITALS ARE CANONICALIZED BELOW,
 THE FOLLOWING CI EXPANSION COEFFICIENTS AND THE DENSITY DO NOT
 CORRESPOND TO THE PRINTED ORBITALS.  THE PRINTED EXPANSIONS MATCH
 THE ORBITALS USED DURING THE LAST ITERATION.  IF YOU WISH TO SEE
 CI EXPANSIONS BASED ON THE CANONICAL (OR NATURAL) ORBITALS, YOU
 MUST RUN A CI CALCULATION WITH THAT ORBITAL CHOICE READ IN $VEC.

 Averaged energy =     -55.752532440

 State #    1  Energy =     -55.893370986  S =  0.500

      Det      Coef    Occupancy (Ignoring core)
      ---      ----    --------- --------- -----
        1    0.946607  11110001110000
        2    0.052655  11101001110000
        5   -0.062068  01111001110000
        8   -0.124128  10110101110000
       17    0.131966  11010011110000
       71   -0.110697  11110001011000
      386    0.091662  11110001010010
      393    0.068773  10110101010010
      701   -0.108650  11110001100001
      717    0.051393  11010011100001

 State #    2  Energy =     -55.737443645  S =  0.500

      Det      Coef    Occupancy (Ignoring core)
      ---      ----    --------- --------- -----
        1    0.090099  11110001110000
       36    0.376193  11110001101000
       71    0.887752  11110001011000
       75   -0.053392  01111001011000
       78   -0.063282  10110101011000
       87    0.090961  11010011011000
      316    0.050737  11110000011100
      806    0.092872  11110001001001
      822   -0.050251  11010011001001

 State #    3  Energy =     -55.626782690  S =  0.500

      Det      Coef    Occupancy (Ignoring core)
      ---      ----    --------- --------- -----
        1   -0.063808  11110001110000
       36    0.893682  11110001101000
       43   -0.071226  10110101101000
       52    0.061099  11010011101000
       71   -0.370893  11110001011000
      281    0.063101  11110000101100
      456    0.084778  11110001001010
      463    0.067281  10110101001010

 DENSITY MATRIX OVER ACTIVE MO-S

             1           2           3           4           5

    1    1.9787014
    2    0.0092176   1.6358193
    3    0.0022476   0.0002166   1.6359402
    4    0.0029839   0.0011765  -0.0001819   1.6554473
    5    0.0967864  -0.0125388  -0.0013655   0.0373199   0.0252628
    6   -0.0024724  -0.1327485  -0.0124130   0.0175785   0.0022440
    7   -0.0055285  -0.0094022  -0.1499036   0.0038102  -0.0007534

             6           7

    6    0.0354515
    7   -0.0001794   0.0333775

 FORMING THE "STANDARD FOCK OPERATOR" IN DIRECT AO INTEGRAL MODE...
 ONLY THE    1 CORE AND   21 VIRTUAL ORBITALS WILL BE CANONICALIZED

          ----------------------
          MCSCF NATURAL ORBITALS
          ----------------------

                      1          2          3          4          5
                  -15.9867     1.9838     1.6566     1.6507     1.6457
                     A          A          A          A          A   
    1  N  1  S    1.001291   0.008493  -0.010857  -0.001621  -0.001293
    2  N  1  S   -0.001790   0.438083  -0.174876  -0.062687  -0.031984
    3  N  1  S   -0.006347   0.293456  -0.276907  -0.086164  -0.047750
    4  N  1  X   -0.000022   0.022741  -0.077238   0.185185   0.479095
    5  N  1  Y   -0.000083   0.009740  -0.086720   0.436658  -0.206548
    6  N  1  Z    0.001161   0.095752   0.585540   0.094751   0.015697
    7  N  1  X    0.000040  -0.002774  -0.052826   0.067318   0.238866
    8  N  1  Y    0.000005   0.000070  -0.042962   0.154945  -0.100766
    9  N  1  Z   -0.000460   0.007771   0.380929   0.047159  -0.003060
   10  N  1 XX   -0.000130  -0.001457  -0.012959   0.002114   0.011680
   11  N  1 YY    0.000327   0.000499  -0.010913  -0.006581  -0.012505
   12  N  1 ZZ   -0.000197   0.000958   0.023871   0.004466   0.000825
   13  N  1 XY    0.000202   0.001391   0.000803  -0.005363   0.003739
   14  N  1 XZ    0.000096   0.001104  -0.001201   0.010006   0.023585
   15  N  1 YZ    0.000034   0.001283  -0.003222   0.021147  -0.009607
   16  H  2  S   -0.001893   0.186071   0.073712   0.260837  -0.276641
   17  H  2  S    0.000435   0.001467   0.023257   0.033135  -0.058996
   18  H  2  X   -0.000283   0.008930   0.003016   0.020874   0.007959
   19  H  2  Y    0.000911  -0.033377  -0.013326  -0.020739   0.026831
   20  H  2  Z    0.000448  -0.008796   0.020985  -0.008823   0.013517
   21  H  3  S   -0.002091   0.180919   0.163716  -0.351190  -0.024832
   22  H  3  S    0.000599   0.000212   0.031313  -0.039262  -0.007696
   23  H  3  X   -0.000458   0.015601   0.007759  -0.013154   0.018119
   24  H  3  Y   -0.000990   0.033259   0.018986  -0.030171  -0.008104
   25  H  3  Z    0.000407  -0.005021   0.016603   0.018607   0.001767
   26  H  4  S   -0.001945   0.203640   0.078289   0.182920   0.338692
   27  H  4  S    0.000345   0.006227   0.020397   0.022914   0.070206
   28  H  4  X    0.000920  -0.034715  -0.016666  -0.017585  -0.024741
   29  H  4  Y    0.000133  -0.006124  -0.002896   0.017738  -0.013048
   30  H  4  Z    0.000483  -0.013054   0.020441  -0.006084  -0.018215

                      6          7          8
                    0.0252     0.0195     0.0184
                     A          A          A   
    1  N  1  S   -0.063981   0.202541  -0.141922
    2  N  1  S   -0.201148   0.664534  -0.431370
    3  N  1  S    0.005937   0.172726  -0.019395
    4  N  1  X    0.781768   0.312834   0.177103
    5  N  1  Y   -0.273136   0.358757   0.828574
    6  N  1  Z   -0.079820   0.620983  -0.256672
    7  N  1  X    0.000566   0.051091   0.009599
    8  N  1  Y    0.000093   0.053672   0.063752
    9  N  1  Z    0.019690  -0.077436   0.052436
   10  N  1 XX   -0.032819   0.021161  -0.005266
   11  N  1 YY    0.033886  -0.013311   0.007405
   12  N  1 ZZ   -0.001067  -0.007850  -0.002139
   13  N  1 XY   -0.001363  -0.032217  -0.014918
   14  N  1 XZ   -0.020935  -0.032720  -0.001659
   15  N  1 YZ    0.010911  -0.034178  -0.041020
   16  H  2  S    0.620931  -0.537963  -0.261145
   17  H  2  S    0.131527  -0.069396  -0.072633
   18  H  2  X    0.000264  -0.040423  -0.017302
   19  H  2  Y   -0.060266   0.060994   0.007041
   20  H  2  Z   -0.008917  -0.019276  -0.001695
   21  H  3  S    0.237425  -0.140449   0.858508
   22  H  3  S    0.036484   0.010855   0.140335
   23  H  3  X   -0.003685  -0.015896   0.040368
   24  H  3  Y    0.027292  -0.029788   0.081116
   25  H  3  Z   -0.002793  -0.005859   0.012780
   26  H  4  S   -0.577651  -0.650303   0.064794
   27  H  4  S   -0.140170  -0.091772   0.001998
   28  H  4  X    0.036094   0.079276  -0.017018
   29  H  4  Y    0.014540  -0.012783  -0.031783
   30  H  4  Z    0.015974  -0.009604  -0.001116

          ------------------------
          MCSCF OPTIMIZED ORBITALS
          ------------------------

                      1          2          3          4          5
                  -15.9867     0.0000     0.0000     0.0000     0.0000
                     A          A          A          A          A   
    1  N  1  S    1.001291  -0.003571   0.004355   0.004558  -0.017006
    2  N  1  S   -0.001790   0.401856  -0.011893  -0.004279  -0.196863
    3  N  1  S   -0.006347   0.290844  -0.047311  -0.019114  -0.287387
    4  N  1  X   -0.000022   0.006448   0.446534  -0.033887  -0.022048
    5  N  1  Y   -0.000083   0.001340  -0.006297   0.401087  -0.016104
    6  N  1  Z    0.001161   0.053107  -0.000509  -0.002590   0.579745
    7  N  1  X    0.000040  -0.010492   0.246695  -0.037594  -0.034092
    8  N  1  Y    0.000005  -0.001927  -0.024783   0.179736  -0.019337
    9  N  1  Z   -0.000460   0.006972  -0.021891  -0.010791   0.385360
   10  N  1 XX   -0.000130  -0.002942   0.014804  -0.002419  -0.012924
   11  N  1 YY    0.000327   0.002067  -0.015381   0.001700  -0.011459
   12  N  1 ZZ   -0.000197   0.000876   0.000577   0.000719   0.024383
   13  N  1 XY    0.000202   0.002604   0.002273  -0.004260   0.000321
   14  N  1 XZ    0.000096   0.001690   0.027797  -0.000433   0.001469
   15  N  1 YZ    0.000034   0.002020   0.001609   0.028112   0.000234
   16  H  2  S   -0.001893   0.210838  -0.170326   0.396052   0.124039
   17  H  2  S    0.000435   0.004835  -0.047773   0.063126   0.028552
   18  H  2  X   -0.000283   0.009824   0.017097   0.017487   0.007273
   19  H  2  Y    0.000911  -0.036490   0.018999  -0.032382  -0.017970
   20  H  2  Z    0.000448  -0.008358   0.007286  -0.016086   0.019642
   21  H  3  S   -0.002091   0.209883  -0.220426  -0.383438   0.121497
   22  H  3  S    0.000599   0.003087  -0.033454  -0.046973   0.026273
   23  H  3  X   -0.000458   0.016772   0.009854  -0.023357   0.006987
   24  H  3  Y   -0.000990   0.036775  -0.024709  -0.030808   0.015842
   25  H  3  Z    0.000407  -0.005168   0.007527   0.012483   0.019698
   26  H  4  S   -0.001945   0.216875   0.432638   0.007909   0.125001
   27  H  4  S    0.000345   0.006952   0.083081  -0.013459   0.025838
   28  H  4  X    0.000920  -0.037142  -0.032618  -0.003094  -0.021681
   29  H  4  Y    0.000133  -0.006014  -0.004103   0.025117  -0.000402
   30  H  4  Z    0.000483  -0.012211  -0.022237   0.000278   0.018712

                      6          7          8          9         10
                    0.0000     0.0000     0.0000     0.1488     0.1983
                     A          A          A          A          A   
    1  N  1  S    0.250436  -0.032306  -0.036731  -0.148404  -0.006732
    2  N  1  S    0.823638  -0.089376  -0.093946  -0.228096  -0.017532
    3  N  1  S    0.169833   0.053440   0.035508   1.488485  -0.020139
    4  N  1  X    0.056899   0.897639  -0.025272  -0.027745  -0.027340
    5  N  1  Y    0.038732   0.081199   0.980575  -0.011283  -0.112333
    6  N  1  Z    0.691401   0.046413  -0.000050  -0.218254  -0.024639
    7  N  1  X    0.038580   0.039335   0.022588   0.111007   0.310062
    8  N  1  Y    0.021906   0.033042   0.089910   0.079395   0.678651
    9  N  1  Z   -0.085044   0.001658   0.012340   0.501543   0.073719
   10  N  1 XX    0.026776  -0.023559   0.013817  -0.016814   0.033330
   11  N  1 YY   -0.021393   0.027753  -0.009817   0.063078  -0.045847
   12  N  1 ZZ   -0.005382  -0.004194  -0.004000  -0.046263   0.012517
   13  N  1 XY   -0.022494  -0.015036  -0.023354   0.037484  -0.046861
   14  N  1 XZ   -0.024807  -0.027549  -0.004299   0.035708   0.050425
   15  N  1 YZ   -0.016106  -0.011046  -0.048403   0.022039   0.097051
   16  H  2  S   -0.480713   0.321386  -0.589659   0.301284   0.203520
   17  H  2  S   -0.056685   0.076222  -0.127999  -0.908439  -0.813824
   18  H  2  X   -0.028824  -0.015408  -0.026564   0.013024  -0.025242
   19  H  2  Y    0.060964  -0.032963   0.044456   0.099258   0.038378
   20  H  2  Z   -0.014921  -0.014365  -0.005980   0.033597   0.067114
   21  H  3  S   -0.502117   0.377091   0.589810   0.318883  -0.531078
   22  H  3  S   -0.052744   0.070265   0.109451  -0.848380   1.883211
   23  H  3  X   -0.028913   0.002837   0.029732  -0.046118   0.035550
   24  H  3  Y   -0.062215   0.034634   0.049207  -0.098136   0.095284
   25  H  3  Z   -0.009759  -0.000536   0.011532  -0.004743  -0.078613
   26  H  4  S   -0.489601  -0.680693   0.059949   0.211121   0.266371
   27  H  4  S   -0.056223  -0.150135   0.021937  -0.759257  -0.971341
   28  H  4  X    0.069045   0.050806  -0.003104   0.084914   0.041990
   29  H  4  Y   -0.001697   0.000871  -0.035044   0.056088  -0.014015
   30  H  4  Z   -0.011194   0.009327  -0.009979   0.050303   0.055085

                     11         12         13         14         15
                    0.2105     0.5413     0.5745     0.6334     0.8052
                     A          A          A          A          A   
    1  N  1  S    0.018199   0.055122   0.001910   0.071439  -0.270729
    2  N  1  S    0.034989   0.042863  -0.076387   0.260388  -0.616567
    3  N  1  S   -0.128159  -0.529999  -0.374085   0.097842   1.132197
    4  N  1  X    0.000240  -0.539200   0.281060  -0.135335  -0.017258
    5  N  1  Y   -0.038046  -0.030557  -0.385570  -0.306675  -0.078767
    6  N  1  Z    0.028370   0.398066   0.347396  -0.442442   0.206072
    7  N  1  X   -0.369263   1.380055  -0.780869   0.722713   0.088124
    8  N  1  Y    0.327261   0.243907   1.302175   1.454645   0.415257
    9  N  1  Z   -0.079787  -0.568620  -0.600819   0.827936  -0.030780
   10  N  1 XX   -0.071487   0.015403   0.002885  -0.003881   0.050084
   11  N  1 YY    0.073297   0.004406   0.025689  -0.034888   0.003367
   12  N  1 ZZ   -0.001810  -0.019808  -0.028574   0.038769  -0.053450
   13  N  1 XY   -0.042855   0.020641   0.051334   0.000882  -0.136890
   14  N  1 XZ   -0.065000   0.033612  -0.001804  -0.027011  -0.007987
   15  N  1 YZ    0.044228   0.005211   0.012628  -0.037003  -0.093964
   16  H  2  S    0.540825   0.313898  -0.261305  -0.716408  -0.055981
   17  H  2  S   -1.780426   0.447299  -0.805903  -0.255371  -0.341484
   18  H  2  X   -0.020510   0.073115   0.099685  -0.028640  -0.435890
   19  H  2  Y    0.067170  -0.019682   0.137814   0.118295   0.146367
   20  H  2  Z    0.036157  -0.078967   0.014895  -0.023782  -0.171497
   21  H  3  S    0.015492   0.543033   0.594809   0.257181   0.028703
   22  H  3  S    0.045024   0.539037   0.301931   0.767865  -0.106910
   23  H  3  X    0.048711   0.048141  -0.065811   0.047779   0.133321
   24  H  3  Y   -0.001451   0.065085   0.097934   0.175821   0.003435
   25  H  3  Z   -0.012683  -0.070025  -0.042954   0.096924   0.234661
   26  H  4  S   -0.545142  -0.158279   0.483390  -0.642782   0.013410
   27  H  4  S    1.844832  -0.814096   0.530587  -0.256464  -0.210986
   28  H  4  X   -0.080607   0.087236  -0.058147   0.091059   0.236830
   29  H  4  Y   -0.016881   0.093594   0.079254  -0.019456  -0.416872
   30  H  4  Z   -0.042424   0.047541  -0.083143  -0.000943  -0.055327

                     16         17         18         19         20
                    0.9685     1.0199     1.3150     1.4331     1.5085
                     A          A          A          A          A   
    1  N  1  S   -0.505674  -0.136119   0.035269  -0.373190  -0.458085
    2  N  1  S   -1.072128  -0.286835   0.072815  -0.779420  -0.938022
    3  N  1  S    2.154582   0.699592  -0.127712   1.377269   1.847070
    4  N  1  X   -0.049734  -0.060380   0.044143   0.015808   0.031395
    5  N  1  Y   -0.039758   0.036172  -0.186510   0.022233  -0.058656
    6  N  1  Z    0.153742   0.044323   0.009601  -0.027716  -0.014041
    7  N  1  X    0.231082   0.372436   0.017694  -0.453558   0.529652
    8  N  1  Y    0.159774  -0.207640   0.773058  -0.574595   0.490154
    9  N  1  Z   -0.069272   0.205143  -0.017582   0.527562   0.835385
   10  N  1 XX   -0.137808   0.167808  -0.011680   0.101897   0.055272
   11  N  1 YY   -0.087191  -0.113885  -0.001966   0.099334   0.091809
   12  N  1 ZZ    0.225000  -0.053923   0.013646  -0.201231  -0.147082
   13  N  1 XY    0.040825   0.081783  -0.062023  -0.021991   0.028436
   14  N  1 XZ   -0.023182  -0.242755  -0.030546   0.024083  -0.084217
   15  N  1 YZ   -0.002488   0.102197   0.025821   0.014519   0.004047
   16  H  2  S   -0.364455   0.007916  -0.344358  -0.219819  -0.650361
   17  H  2  S   -0.272678   0.023773  -0.106760  -0.026922  -0.119540
   18  H  2  X    0.131713  -0.171191  -0.457477   0.325552  -0.033031
   19  H  2  Y   -0.043590  -0.102121  -0.441501   0.098881  -0.036440
   20  H  2  Z    0.356064   0.291118   0.346189  -0.356652  -0.309167
   21  H  3  S   -0.226195  -0.129414   0.362686  -0.670265  -0.252453
   22  H  3  S   -0.290061  -0.113252   0.175423  -0.298558  -0.013981
   23  H  3  X    0.005363  -0.473383   0.466993   0.471801  -0.283072
   24  H  3  Y    0.018085   0.124600  -0.384680  -0.036279  -0.063016
   25  H  3  Z    0.283609   0.026427  -0.276972   0.117720  -0.821690
   26  H  4  S   -0.415227  -0.223802   0.037217  -0.184395  -0.701415
   27  H  4  S   -0.297588  -0.202735  -0.015000  -0.034063  -0.319182
   28  H  4  X   -0.140475   0.286604   0.094449   0.132656   0.009358
   29  H  4  Y    0.097065   0.162278   0.251417   0.501146  -0.166288
   30  H  4  Z    0.341961  -0.439773  -0.010193  -0.464800   0.234840

                     21         22         23         24         25
                    1.6157     1.8640     1.8963     2.0241     2.1516
                     A          A          A          A          A   
    1  N  1  S   -0.087941   0.044381  -0.043812   0.097977  -0.086354
    2  N  1  S   -0.180613   0.095029  -0.067650   0.323752  -0.177937
    3  N  1  S    0.305041  -0.263600   0.321527   1.622884   0.261301
    4  N  1  X   -0.243813   0.367888  -0.082563   0.092628  -0.093563
    5  N  1  Y    0.052212   0.390777   0.473350   0.008969  -0.134116
    6  N  1  Z   -0.021881   0.049777   0.034380   0.347888  -0.021745
    7  N  1  X   -0.293420  -0.150349   0.145846  -0.173444  -0.007549
    8  N  1  Y    0.639101   0.168376  -0.027748   0.008364  -0.062645
    9  N  1  Z    0.124853  -0.077910   0.152197   0.649573   0.396811
   10  N  1 XX    0.094848  -0.270242   0.059953   0.002680  -0.714173
   11  N  1 YY    0.002070   0.137420  -0.112240  -0.228838  -0.056343
   12  N  1 ZZ   -0.096918   0.132822   0.052287   0.226158   0.770515
   13  N  1 XY    0.000218   0.160947   0.256043  -0.101368   0.443963
   14  N  1 XZ    0.182895  -0.083956   0.042626  -0.202157   0.327082
   15  N  1 YZ   -0.119320  -0.116633  -0.127740   0.028691   0.221406
   16  H  2  S   -0.240642   0.027426  -0.036147  -0.419852  -0.072872
   17  H  2  S   -0.351944   0.032819  -0.450636  -0.299110   0.054561
   18  H  2  X    0.372479   0.209230  -0.655691   0.221778  -0.247466
   19  H  2  Y    0.215036  -0.023038   0.743358   0.814352  -0.072007
   20  H  2  Z    0.596277   0.298146   0.163352   0.000897  -0.413445
   21  H  3  S    0.117969   0.031927  -0.091974  -0.437808  -0.160367
   22  H  3  S    0.020927   0.396629   0.142746  -0.342499  -0.144286
   23  H  3  X    0.223191   0.376318   0.215285  -0.125581  -0.110886
   24  H  3  Y   -0.244572   0.598891   0.266524  -0.858959  -0.202805
   25  H  3  Z   -0.243739  -0.310347  -0.302281  -0.124618  -0.077991
   26  H  4  S   -0.143345   0.161684  -0.114879  -0.381670  -0.095253
   27  H  4  S    0.259615  -0.339233   0.176869  -0.200839   0.067456
   28  H  4  X   -0.170712   0.750016  -0.381041   0.653315   0.129149
   29  H  4  Y   -0.573845  -0.197483   0.370144   0.205592  -0.179394
   30  H  4  Z   -0.498949   0.145636   0.023809   0.210758  -0.602055

                     26         27         28         29
                    2.3247     2.5849     2.7328     2.9528
                     A          A          A          A   
    1  N  1  S    0.047470  -0.039548  -0.059155   0.025114
    2  N  1  S    0.063114   0.066363  -0.128936   0.095347
    3  N  1  S   -0.622371   2.096626  -0.179090   0.532333
    4  N  1  X   -0.057373   0.188664   0.058230  -0.538801
    5  N  1  Y   -0.041487   0.010269   0.617424  -0.033487
    6  N  1  Z   -0.073453   0.318469  -0.040712   0.057228
    7  N  1  X   -0.405251   0.587185   0.173366  -0.883964
    8  N  1  Y    0.247269   0.304994   1.414139  -0.070470
    9  N  1  Z   -0.284405   0.477189   0.044312  -0.011254
   10  N  1 XX    0.337629   0.156774  -0.096419  -0.999039
   11  N  1 YY   -0.270413   0.553444  -0.048733   1.331215
   12  N  1 ZZ   -0.067215  -0.710218   0.145152  -0.332177
   13  N  1 XY    0.682844   0.554037  -0.770925  -0.063163
   14  N  1 XZ   -0.619218   0.693451   0.104572  -0.759951
   15  N  1 YZ    0.491624   0.426863   1.150798   0.025516
   16  H  2  S    0.073282  -0.684596  -1.009945  -0.840268
   17  H  2  S   -0.034173  -0.129938  -0.409700  -0.284947
   18  H  2  X    0.069690  -0.346885  -0.097431  -0.191221
   19  H  2  Y   -0.030540   0.265141   0.737746   0.709646
   20  H  2  Z   -0.234017   0.320354   0.221894   0.441188
   21  H  3  S    0.177088  -0.516851   1.261895  -0.845830
   22  H  3  S    0.041802  -0.093844   0.484868  -0.260491
   23  H  3  X    0.628377  -0.222411   0.310376  -0.314471
   24  H  3  Y   -0.158447  -0.320574   0.895328  -0.563118
   25  H  3  Z    0.178510   0.483564  -0.241006   0.342981
   26  H  4  S    0.337169  -1.128927  -0.051141   1.067393
   27  H  4  S    0.214060  -0.418662   0.011416   0.379579
   28  H  4  X   -0.261590   0.734021  -0.039703  -0.815345
   29  H  4  Y   -0.537887  -0.037584  -0.109389  -0.171741
   30  H  4  Z    0.162568   0.506861  -0.079695  -0.448887
 .....DONE WITH MCSCF ITERATIONS.....
 CPU     0: STEP CPU TIME=     8.93 TOTAL CPU TIME=          9.9 (      0.2 MIN)
 TOTAL WALL CLOCK TIME=          9.9 SECONDS, CPU UTILIZATION IS   100.00%

     ----------------------------------------------------------------
     PROPERTY VALUES FOR THE MCSCF SELF-CONSISTENT FIELD WAVEFUNCTION
     ----------------------------------------------------------------

          -----------------
          ENERGY COMPONENTS
          -----------------

         WAVEFUNCTION NORMALIZATION =       1.0000000000

                ONE ELECTRON ENERGY =     -94.6668316583
                TWO ELECTRON ENERGY =      27.2926948363
           NUCLEAR REPULSION ENERGY =      11.6216043816
                                      ------------------
                       TOTAL ENERGY =     -55.7525324404

 ELECTRON-ELECTRON POTENTIAL ENERGY =      27.2926948363
  NUCLEUS-ELECTRON POTENTIAL ENERGY =    -150.5460172666
   NUCLEUS-NUCLEUS POTENTIAL ENERGY =      11.6216043816
                                      ------------------
             TOTAL POTENTIAL ENERGY =    -111.6317180487
               TOTAL KINETIC ENERGY =      55.8791856083
                 VIRIAL RATIO (V/T) =       1.9977334464

          ---------------------------------------
          MULLIKEN AND LOWDIN POPULATION ANALYSES
          ---------------------------------------

     ATOMIC MULLIKEN POPULATION IN EACH MOLECULAR ORBITAL

                      1          2          3          4          5

                  2.000000   1.983822   1.656596   1.650728   1.645692

    1             2.000961   1.311246   1.534326   0.920614   1.068880
    2            -0.000286   0.215048   0.020753   0.219298   0.234124
    3            -0.000352   0.200939   0.075869   0.400396   0.009952
    4            -0.000322   0.256589   0.025647   0.110421   0.332736

                      6          7          8

                  0.025249   0.019500   0.018413

    1             0.012282   0.010516   0.009711
    2             0.006611   0.003674   0.000654
    3             0.000957   0.000166   0.008021
    4             0.005399   0.005144   0.000027
 WARNING! MCSCF POPULATIONS SHOWN ABOVE ARE FOR THE NATURAL ORBITALS.
 IGNORE THE ABOVE DATA FOR MCSCF FUNCTIONS WHICH ARE NOT OF -FORS- TYPE.
 THE FOLLOWING POPULATIONS ARE CORRECT FOR ANY MCSCF WAVEFUNCTION.

               ----- POPULATIONS IN EACH AO -----
                             MULLIKEN      LOWDIN
              1  N  1  S      2.00267     1.89560
              2  N  1  S      0.82556     0.57618
              3  N  1  S      0.63497     0.39292
              4  N  1  X      0.71086     0.64460
              5  N  1  Y      0.67015     0.58908
              6  N  1  Z      0.88380     0.82638
              7  N  1  X      0.34129     0.41715
              8  N  1  Y      0.26214     0.38065
              9  N  1  Z      0.51869     0.55534
             10  N  1 XX      0.00055     0.15820
             11  N  1 YY      0.00422     0.18265
             12  N  1 ZZ      0.00109     0.14198
             13  N  1 XY      0.00623     0.00522
             14  N  1 XZ      0.00633     0.01113
             15  N  1 YZ      0.00000     0.01235
             16  H  2  S      0.60333     0.46768
             17  H  2  S      0.03940     0.14376
             18  H  2  X      0.01049     0.02494
             19  H  2  Y      0.03229     0.05360
             20  H  2  Z      0.01437     0.03607
             21  H  3  S      0.60967     0.47437
             22  H  3  S      0.02841     0.14215
             23  H  3  X      0.01270     0.02617
             24  H  3  Y      0.03240     0.05615
             25  H  3  Z      0.01278     0.03544
             26  H  4  S      0.63169     0.48914
             27  H  4  S      0.04479     0.14236
             28  H  4  X      0.03172     0.05473
             29  H  4  Y      0.01031     0.02240
             30  H  4  Z      0.01713     0.04161

          ----- MULLIKEN ATOMIC OVERLAP POPULATIONS -----
          (OFF-DIAGONAL ELEMENTS NEED TO BE MULTIPLIED BY 2)

             1           2           3           4

    1    5.9464106
    2    0.2996453   0.4138315
    3    0.3192261  -0.0058805   0.3877260
    4    0.3032535  -0.0077206  -0.0051229   0.4452300

          TOTAL MULLIKEN AND LOWDIN ATOMIC POPULATIONS
       ATOM         MULL.POP.    CHARGE          LOW.POP.     CHARGE
    1 N             6.868535    0.131465         6.789427    0.210573
    2 H             0.699876    0.300124         0.726048    0.273952
    3 H             0.695949    0.304051         0.734290    0.265710
    4 H             0.735640    0.264360         0.750235    0.249765

          MULLIKEN SPHERICAL HARMONIC POPULATIONS
       ATOM           S       P       D      F      G      H      I    TOTAL
    1 N             3.46    3.39    0.02   0.00   0.00   0.00   0.00    6.87
    2 H             0.64    0.06    0.00   0.00   0.00   0.00   0.00    0.70
    3 H             0.64    0.06    0.00   0.00   0.00   0.00   0.00    0.70
    4 H             0.68    0.06    0.00   0.00   0.00   0.00   0.00    0.74

          ---------------------
          ELECTROSTATIC MOMENTS
          ---------------------

 POINT   1           X           Y           Z (BOHR)    CHARGE
                 0.000002    0.000001   -0.177185        1.00 (A.U.)
         DX          DY          DZ         /D/  (DEBYE)
     0.317750    0.218522    2.152038    2.186318
 ...... END OF PROPERTY EVALUATION ......
 CPU     0: STEP CPU TIME=     0.00 TOTAL CPU TIME=          9.9 (      0.2 MIN)
 TOTAL WALL CLOCK TIME=          9.9 SECONDS, CPU UTILIZATION IS    99.90%

     -------------------------------------------------
     GMC-PT/GMC-QDPT or general MCSCF input parameters
     -------------------------------------------------
 # of frozen core orbs. =         0 ->         0
 # of doubly occ. orbs. =         1
 # of active      orbs. =         7
 # of virtual     orbs. =        21
 # of active electrons  =         7
 # of states in CI      =         3
 Highest state in CI    =         3
 kstate =  1 1 1
 avecoe =  0.333 0.333 0.333
 State symmetry           = A           
 Assigned symmetry number = 1

 <<<Act. MO sym.: 1111111

 <<<Division of 1-ext.:  0
 <<<Division of 2-ext.:  0

     ------------------------
     Orbital canonicalization
     ------------------------

 MOs are canonicalized for core, virtual, and invariant-active orbital spaces.
 This is a part of the GMC-QDPT calculation.
 SCHWARZ INEQUALITY OVERHEAD:       465 INTEGRALS, T=        0.00
 DIRECT TRANSFORMATION SKIPS AO INTEGRAL STORAGE ON DISK.

 Averaged energy =     -55.752532440

 State #    1  Energy =     -55.893370986  S =  0.500
 State #    2  Energy =     -55.737443645  S =  0.500
 State #    3  Energy =     -55.626782690  S =  0.500

 Orbital energies for filled orbital space
  -15.986670
 Orbital energies for active orbital space
   -1.528756  -0.872644  -0.989434  -0.754873   0.389128
    0.277692   0.418654
 Orbital energies for external orbital space
    0.148798   0.198295   0.210452   0.541309   0.574472
    0.633422   0.805229   0.968538   1.019873   1.315036
    1.433077   1.508520   1.615690   1.863966   1.896290
    2.024149   2.151640   2.324679   2.584864   2.732781
    2.952825

 Zero values mean non-canonical orbitals.
 ... done with orbital canonicalization ...
 CPU     0: STEP CPU TIME=     0.59 TOTAL CPU TIME=         10.5 (      0.2 MIN)
 TOTAL WALL CLOCK TIME=         10.5 SECONDS, CPU UTILIZATION IS    99.90%

     --------------------------------------------
     PARTIAL TWO ELECTRON INTEGRAL TRANSFORMATION
     --------------------------------------------

 NUMBER OF CORE MOLECULAR ORBITALS     =    0
 NUMBER OF OCCUPIED MOLECULAR ORBITALS =    8
 TOTAL NUMBER OF MOLECULAR ORBITALS    =   29
 TOTAL NUMBER OF ATOMIC ORBITALS       =   30
 THRESHOLD FOR KEEPING TRANSFORMED 2E- INTEGRALS = 1.000E-09
 AO INTEGRALS WILL BE CALCULATED IN DIRECT MODE...
 DIRECT TRANSFORMATION SKIPS AO INTEGRAL STORAGE ON DISK.
 SCHWARZ INEQUALITY OVERHEAD:       465 INTEGRALS, T=        0.00

 PLAN A: REQUIREMENTS FOR FULLY IN-MEMORY TRANSFORMATION:
 # OF WORDS AVAILABLE =            100000000
 # OF WORDS NEEDED    =               221798

 PARALLEL ONLY WORKS WITH THE SEGMENTED ALGORITHM.
 ADJUSTING MEMORY TO USE SEGMENTED ALGORITHM.


 PLAN B: REQUIREMENTS FOR THE SEGMENTED TRANSFORMATION:
       MINIMUM=         124148 WORDS FOR 1 MOLECULAR ORBITAL PER PASS
       MAXIMUM=         221798 WORDS FOR ALL MOLECULAR ORBITALS IN 1 PASS
              (          13950 EXTRA WORDS INCLUDES 1 EXTRA ORBITAL/PASS)
 THIS RUN USES=         221798 WORDS,
 DISTRIBUTING   1 PASSES EACH CONTAINING     8 ORBITALS OVER   1 PROCESSORS.

 CHOOSING SEGMENTED PARTIAL TRANSFORMATION...
 DIRECT TRANSFORMATION SKIPS AO INTEGRAL STORAGE ON DISK.
 PASS #   1 TOOK        0.05 SECONDS.
 TOTAL NUMBER OF TRANSFORMED 2E- INTEGRALS KEPT =        29226
 ... END OF INTEGRAL TRANSFORMATION ...
 CPU     0: STEP CPU TIME=     0.05 TOTAL CPU TIME=         10.6 (      0.2 MIN)
 TOTAL WALL CLOCK TIME=         10.6 SECONDS, CPU UTILIZATION IS   100.00%

     --------     ------------------------------------------
     GMC-QDPT     Program written by H.Nakano (Kyushu Univ.)
     --------     ------------------------------------------

 *** Reference space

 Reference type: ORMAS (= Occupation restricted multiple active space)
 # of orbitals          =  7
 # of minimum electrons =  7
 # of maximum electrons =  7
 State symmetry    =    1 (input)
 2*Sz              =    1 (input)
 Spin multiplicity =    2 (input)
 Dimension of reference space =      1225  (from      3432 walks)

 Dimension of reference space =      1225  (from      1225 walks)

 <<<Ionized spaces for Ref-CI:
      0:         1225 /   -1-0:         1960 /  0-1-0:         2891

 ***                    ***
 *** Reference space CI ***
 ***                    ***

 Converged after   31 iterations

 Reference wavefunctions:

 State #    1  Energy =     -55.893370986  S =  0.500

      Det      Coef    Occupancy (Ignoring core)
      ---      ----    --------- --------- -----
        1    0.978812  11110001110000
      393    0.074973  10110101010010
      717    0.063645  11010011100001

 State #    2  Energy =     -55.737443645  S =  0.500

      Det      Coef    Occupancy (Ignoring core)
      ---      ----    --------- --------- -----
       71    0.983787  11110001011000
      822   -0.063382  11010011001001

 State #    3  Energy =     -55.626782690  S =  0.500

      Det      Coef    Occupancy (Ignoring core)
      ---      ----    --------- --------- -----
       36    0.981090  11110001101000
      463    0.075192  10110101001010

 Davidson method: CPU/Wall time =           0.42 /           0.43 sec.

 Oscillator strength (invalid if E(1)/=E(GS)):
 -----------------------------------------
   State                        f
 -----------------------------------------
     2     F(REF-CI)=        0.0004939675
     3     F(REF-CI)=        0.0013363291
 -----------------------------------------

 Dipole moment matrix elements, x, y, z, in A.U.

 Dimension of ionized spaces for PT:
 (N-2) space:         1715 /  (N-1) space:         2842 /  N space:         2891
 (N+1) space:         2842 /  (N+2) space:         1715

 <<<Ionized spaces for internal:
         0:         1225 /      -1-0:         1960 /     0-1-0:         2891
  -1-0-1-0:         2842 / 0-1-0-1-0:         3381

 Diagonal elements of averaged one-particle density matrix:
       2       3       4       5       6       7       8
  0.9940  0.9873  0.9891  0.9930  0.0108  0.0149  0.0109
  0.9897  0.6583  0.6615  0.6635  0.0088  0.0105  0.0077

 Orbital energies:
 -------- Doubly-occupied orbitals (highest several orbs.) -------
             1
 -1.598667D+01
 -------- Active orbitals ----------------------------------------
             2            3            4            5            6
 -1.528756D+00-8.726443D-01-9.894342D-01-7.548728D-01 3.891283D-01
             7            8
  2.776921D-01 4.186539D-01
 -------- External orbitals (lowest several orbs.) ---------------
             9           10           11           12           13
  1.487984D-01 1.982955D-01 2.104522D-01 5.413092D-01 5.744718D-01
            14           15           16           17           18
  6.334221D-01 8.052293D-01 9.685383D-01 1.019873D+00 1.315036D+00

 *** Quasi-degeneracy checking

 === Det (|Ci| > 1.0D-01 and dE < 5.0D-03)

 # of small denominators (single excitations)
 State       dEmin  dE < 5.0D-03  dE < 5.0D-04  dE < 5.0D-05  dE < 5.0D-06
 ----- ----------- ------------- ------------- ------------- -------------
     1    5.00D-03             0             0             0             0
     2    5.00D-03             0             0             0             0
     3    5.00D-03             0             0             0             0

 # of small denominators (double excitations)
 State       dEmin  dE < 5.0D-03  dE < 5.0D-04  dE < 5.0D-05  dE < 5.0D-06
 ----- ----------- ------------- ------------- ------------- -------------
     1    5.00D-03             0             0             0             0
     2    5.00D-03             0             0             0             0
     3    5.00D-03             0             0             0             0

 *** Zeroth-Order Setup (Granovsky's zeroth-order vectors)
 Zeroth-order effective Hamiltonian
  (= Sum_i e(i)*<I|a+(i)a(i)|J> ):
                   1            2            3
     1 -7.435165D+00
     2  5.665127D-03-7.339357D+00
     3 -2.128801D-03-1.448854D-03-7.214711D+00

 Zeroth-order vectors:
 State #    1
       MC st            1           2           3
       Coeff   -9.982D-01   5.867D-02  -9.239D-03
 State #    2
       MC st            2           1           3
       Coeff   -9.982D-01  -5.855D-02  -1.263D-02
 State #    3
       MC st            3           2           1
       Coeff    9.999D-01  -1.207D-02  -9.964D-03

 *** GMC-QDPT computation

 (Integral reading:  CPU/Wall time =           0.00 /           0.00 sec.)

 One-external:
   0 -ionized terms: CPU/Wall time =           0.03 /           0.03 sec.
 (-1)-ionized terms: CPU/Wall time =           0.08 /           0.09 sec.
 (+1)-ionized terms: CPU/Wall time =           0.03 /           0.02 sec.
 (+1)-ionized terms: CPU/Wall time =           0.00 /           0.01 sec.
 (+2)-ionized terms: CPU/Wall time =           0.01 /           0.00 sec.

 Internal:
 # of macro loops for internal contribution =         1 (input)
 Loop:    1
 Dimension of internal CISD space     =         0  (after screening)
 Space construction: CPU/Wall time =           0.01 /           0.02 sec.
 Internal terms:     CPU/Wall time =           0.00 /           0.00 sec.

 Two-external:
   0 -ionized terms: CPU/Wall time =           0.06 /           0.06 sec.
 (-1)-ionized terms: CPU/Wall time =           1.00 /           0.99 sec.
 (-2)-ionized terms: CPU/Wall time =           0.17 /           0.17 sec.

 Total time:         CPU/Wall time =           1.39 /           1.39 sec.

 ***                  ***
 *** GMC-QDPT Results ***
 ***                  ***

 Diagonal elements of effective Hamiltonian:
 Heff(  1) =   -55.99069941
 Heff(  2) =   -55.84671727
 Heff(  3) =   -55.73785317

 Off-diagonal elements of effective Hamiltonian:
                   1            2
     2 -8.098183D-03
     3 -2.226325D-03-1.368262D-03

 ******** GMC-QDPT energies ********
 ----------------------------------------------------------------------------
   State                        1st order                           2nd order
 ----------------------------------------------------------------------------
     1     E(REF-CI)=      -55.8933709859   E(GMC-QDPT2)=      -55.9911743317
     2     E(REF-CI)=      -55.7374436450   E(GMC-QDPT2)=      -55.8462774317
     3     E(REF-CI)=      -55.6267826905   E(GMC-QDPT2)=      -55.7378180848
 ----------------------------------------------------------------------------

 Excitation energies (invalid if E(1)/=E(GS)):
 ----------------------------------------------------------------------------
   State                        1st order                           2nd order
 ----------------------------------------------------------------------------

     TZ Sorted GMC-PT ENERGIES:
         1      -55.9911743317
         2      -55.8462774317
         3      -55.7378180848
     2     E(REF-CI)=        4.2430012 eV   E(GMC-QDPT2)=        3.9428475 eV
     3     E(REF-CI)=        7.2542407 eV   E(GMC-QDPT2)=        6.8941782 eV
 ----------------------------------------------------------------------------

 Main characters of perturbed GMC-QDPT states:

 State #    1  Energy =     -55.991174332  S =  0.500

      Det      Coef    Occupancy (Ignoring core)
      ---      ----    --------- --------- -----
        1    0.978881  11110001110000
      393    0.074956  10110101010010
      717    0.063634  11010011100001

 State #    2  Energy =     -55.846277432  S =  0.500

      Det      Coef    Occupancy (Ignoring core)
      ---      ----    --------- --------- -----
       71    0.983854  11110001011000
      822   -0.063383  11010011001001

 State #    3  Energy =     -55.737818085  S =  0.500

      Det      Coef    Occupancy (Ignoring core)
      ---      ----    --------- --------- -----
       36    0.981098  11110001101000
      463    0.075194  10110101001010

 <<<Max |V/de| = 2.197D-02  Thresh = 1.000D+00

 Oscillator strength (invalid if E(1)/=E(GS)):
 ----------------------------------------------------------------------------
   State                        1st order                           2nd order
 ----------------------------------------------------------------------------
     2     F(REF-CI)=        0.0004939675     F(GMC-PT2)=        0.0004754690
     3     F(REF-CI)=        0.0013363291     F(GMC-PT2)=        0.0012917960
 ----------------------------------------------------------------------------

 Dipole moment matrix elements, x, y, z, in A.U.
States    1    1        0.1577049469        0.1154260430        0.7565971602
States    1    2        0.0325650619       -0.0031611011        0.0620618172
States    1    3        0.0198152138        0.0705920661       -0.0476677835
States    2    1        0.0325650619       -0.0031611011        0.0620618172
States    2    2        0.0564914318       -0.0689511872        0.2623140083
States    2    3        0.1118532758       -0.1807479367        0.0013310780
States    3    1        0.0198152138        0.0705920661       -0.0476677835
States    3    2        0.1118532758       -0.1807479367        0.0013310780
States    3    3        0.3531688013        0.3238878303        0.2532620129

 Oscillator strength (valid only when positive): 
 ----------------------------------------------------------------------------
  States                        1st order                           2nd order
 ----------------------------------------------------------------------------
  1  1     F(REF-CI)=        0.0000000000     F(GMC-PT2)=        0.0000000000
  1  2     F(REF-CI)=       -0.0004939675     F(GMC-PT2)=       -0.0004754690
  1  3     F(REF-CI)=       -0.0013363291     F(GMC-PT2)=       -0.0012917960
  2  1     F(REF-CI)=        0.0004939675     F(GMC-PT2)=        0.0004754690
  2  2     F(REF-CI)=        0.0000000000     F(GMC-PT2)=        0.0000000000
  2  3     F(REF-CI)=       -0.0033414019     F(GMC-PT2)=       -0.0032669939
  3  1     F(REF-CI)=        0.0013363291     F(GMC-PT2)=        0.0012917960
  3  2     F(REF-CI)=        0.0033414019     F(GMC-PT2)=        0.0032669939
  3  3     F(REF-CI)=        0.0000000000     F(GMC-PT2)=        0.0000000000
 CPU     0: STEP CPU TIME=     1.88 TOTAL CPU TIME=         12.4 (      0.2 MIN)
 TOTAL WALL CLOCK TIME=         12.4 SECONDS, CPU UTILIZATION IS    99.92%

     !!! DIABATIZATION FOR REF CI STATES !!!

 *******************************************************
          $DMO GROUP FOUND IN THE INPUT.
        DIABATIZATION OF ADIABATIC STATES BEGINS.
     PROGRAMMED BY TAO ZENG (CARLETON UNIVERSITY).
               Email: toby.zeng@carleton.ca
     See T. Zeng, J. Chem. Phys. 2017, 146, 144103
 *******************************************************

 *************************************************************************
     STEP 1: TRANSFORMATION OF ADIABATIC STATES TO THE DMO REPRESENTATION
         See Atchity and Ruedenberg, J. Chem. Phys. 1999, 111, 2910
 *************************************************************************

Read in Diabatic Molecualr Orbitals:

                      1          2          3          4          5

    1  N  1  S    0.008609   0.000000   0.000000  -0.013219   0.279491
    2  N  1  S    0.442914  -0.000000   0.000000  -0.184329   0.867803
    3  N  1  S    0.276913   0.000000  -0.000000  -0.288315   0.144236
    4  N  1  X   -0.000000   0.493155  -0.024636  -0.000000  -0.000000
    5  N  1  Y    0.000000   0.024636   0.493155  -0.000000   0.000000
    6  N  1  Z    0.090197   0.000000   0.000000   0.593421   0.705309
    7  N  1  X   -0.000000   0.210628  -0.010522   0.000000   0.000000
    8  N  1  Y    0.000000   0.010522   0.210628  -0.000000  -0.000000
    9  N  1  Z   -0.004381   0.000000   0.000000   0.381592  -0.106092
   10  N  1 XX   -0.000457   0.010719  -0.000535  -0.012387   0.006153
   11  N  1 YY   -0.000457  -0.010719   0.000535  -0.012387   0.006153
   12  N  1 ZZ    0.000914  -0.000000   0.000000   0.024773  -0.012306
   13  N  1 XY    0.000000  -0.000618  -0.012377  -0.000000   0.000000
   14  N  1 XZ   -0.000000   0.026529  -0.001325  -0.000000   0.000000
   15  N  1 YZ    0.000000   0.001325   0.026529  -0.000000   0.000000
   16  H  2  S    0.194462  -0.176074   0.343485   0.112865  -0.523343
   17  H  2  S    0.003574  -0.023812   0.046452   0.024014  -0.054445
   18  H  2  X    0.018760   0.009101   0.022834   0.009336  -0.039151
   19  H  2  Y   -0.032493   0.022287  -0.020044  -0.016171   0.067811
   20  H  2  Z   -0.009251   0.008464  -0.016511   0.018769  -0.010566
   21  H  3  S    0.194462  -0.209430  -0.324227   0.112865  -0.523343
   22  H  3  S    0.003574  -0.028322  -0.043847   0.024014  -0.054445
   23  H  3  X    0.018760   0.006781  -0.023627   0.009336  -0.039151
   24  H  3  Y    0.032493  -0.024174  -0.017723   0.016171  -0.067811
   25  H  3  Z   -0.009251   0.010067   0.015585   0.018769  -0.010566
   26  H  4  S    0.194462   0.385503  -0.019258   0.112865  -0.523343
   27  H  4  S    0.003574   0.052134  -0.002604   0.024014  -0.054445
   28  H  4  X   -0.037519  -0.032295   0.001613  -0.018672   0.078302
   29  H  4  Y    0.000000   0.001067   0.021353  -0.000000   0.000000
   30  H  4  Z   -0.009251  -0.018530   0.000926   0.018769  -0.010566

                      6          7

    1  N  1  S    0.000000  -0.000000
    2  N  1  S    0.000000  -0.000000
    3  N  1  S   -0.000000   0.000000
    4  N  1  X   -0.930415  -0.002083
    5  N  1  Y   -0.002083   0.930415
    6  N  1  Z   -0.000000   0.000000
    7  N  1  X   -0.046866  -0.000105
    8  N  1  Y   -0.000105   0.046866
    9  N  1  Z   -0.000000   0.000000
   10  N  1 XX    0.001538   0.000003
   11  N  1 YY   -0.001538  -0.000003
   12  N  1 ZZ   -0.000000   0.000000
   13  N  1 XY   -0.000004   0.001776
   14  N  1 XZ    0.039985   0.000090
   15  N  1 YZ    0.000090  -0.039985
   16  H  2  S   -0.362630  -0.631354
   17  H  2  S   -0.065964  -0.114846
   18  H  2  X    0.002763  -0.037520
   19  H  2  Y    0.037435   0.040736
   20  H  2  Z    0.001882   0.003276
   21  H  3  S   -0.365454   0.629724
   22  H  3  S   -0.066477   0.114549
   23  H  3  X    0.002595   0.037532
   24  H  3  Y   -0.037617   0.040567
   25  H  3  Z    0.001896  -0.003268
   26  H  4  S    0.728084   0.001630
   27  H  4  S    0.132441   0.000297
   28  H  4  X   -0.062317  -0.000140
   29  H  4  Y    0.000055  -0.024345
   30  H  4  Z   -0.003778  -0.000008

NUMBER OF SUB ACTIVE SPACES:   1
ROTATE ACTIVE MOS TO DMOS IN EACH SUB-SPACE

SPACE  1:

OVERLAP BETWEEN ORTHONORMAL AND PRE-ORTHONORMAL REF. DMOS

             1           2           3           4           5

    1    0.9936134   0.0153794   0.0052724  -0.0022534   0.0000278
    2    0.0153794   0.9576814   0.0303370   0.0211001  -0.0388196
    3    0.0052724   0.0303370   1.0196975   0.0108911  -0.0261328
    4   -0.0022534   0.0211001   0.0108911   0.9983329  -0.0030134
    5    0.0000278  -0.0388196  -0.0261328  -0.0030134   1.0417438
    6   -0.0025535  -0.0309217   0.0274870   0.0223980   0.0056862
    7    0.0023904  -0.0239077  -0.0233758  -0.0173567   0.0196792

             6           7

    1   -0.0025535   0.0023904
    2   -0.0309217  -0.0239077
    3    0.0274870  -0.0233758
    4    0.0223980  -0.0173567
    5    0.0056862   0.0196792
    6    1.0306394   0.0081765
    7    0.0081765   1.0002471
REFERENCE DMOS AFTER ORTHONORMALIZATION:

                      1          2          3          4          5

    1  N  1  S    0.008437   0.010678   0.006577  -0.012774   0.268920
    2  N  1  S    0.444810   0.029620   0.019678  -0.182316   0.834450
    3  N  1  S    0.277933   0.007342   0.004605  -0.288242   0.138124
    4  N  1  X   -0.009779   0.487955  -0.013843   0.010095   0.022406
    5  N  1  Y   -0.005479   0.032264   0.504707   0.010685  -0.003802
    6  N  1  Z    0.091833   0.012000   0.010596   0.596625   0.679620
    7  N  1  X   -0.003438   0.219757  -0.015449  -0.003512   0.007909
    8  N  1  Y   -0.001335   0.005738   0.207870  -0.001346   0.004478
    9  N  1  Z   -0.003357  -0.012354  -0.005895   0.382565  -0.101454
   10  N  1 XX   -0.000663   0.011823  -0.000636  -0.012681   0.006285
   11  N  1 YY   -0.000329  -0.010798   0.001150  -0.012149   0.005517
   12  N  1 ZZ    0.000992  -0.001025  -0.000515   0.024830  -0.011802
   13  N  1 XY    0.000065  -0.000233  -0.012116   0.000155  -0.000342
   14  N  1 XZ   -0.000336   0.029165  -0.003194  -0.001466   0.000779
   15  N  1 YZ   -0.000036  -0.000330   0.025175  -0.000943   0.001363
   16  H  2  S    0.198621  -0.246692   0.325087   0.111119  -0.489490
   17  H  2  S    0.004044  -0.033799   0.044192   0.023656  -0.049859
   18  H  2  X    0.018792   0.006100   0.020199   0.008248  -0.036157
   19  H  2  Y   -0.033098   0.029569  -0.018635  -0.016654   0.064737
   20  H  2  Z   -0.009318   0.008851  -0.016845   0.018760  -0.010261
   21  H  3  S    0.198808  -0.232538  -0.302951   0.139153  -0.528227
   22  H  3  S    0.003900  -0.030535  -0.039450   0.028440  -0.056123
   23  H  3  X    0.018842   0.006793  -0.023779   0.009984  -0.038632
   24  H  3  Y    0.033080  -0.028539  -0.016668   0.018408  -0.067102
   25  H  3  Z   -0.009483   0.009411   0.014530   0.018324  -0.009341
   26  H  4  S    0.191846   0.403236  -0.064561   0.088250  -0.492929
   27  H  4  S    0.003150   0.056420  -0.009244   0.019922  -0.051078
   28  H  4  X   -0.037493  -0.031981   0.006433  -0.016606   0.074460
   29  H  4  Y   -0.000052  -0.000086   0.020435  -0.000627   0.000961
   30  H  4  Z   -0.008972  -0.020253   0.001204   0.019270  -0.010789

                      6          7

    1  N  1  S   -0.001000  -0.005116
    2  N  1  S    0.000979  -0.019484
    3  N  1  S    0.006353  -0.008152
    4  N  1  X   -0.888243   0.016275
    5  N  1  Y   -0.022222   0.943206
    6  N  1  Z   -0.016390  -0.002569
    7  N  1  X   -0.038482   0.004893
    8  N  1  Y   -0.005883   0.051789
    9  N  1  Z   -0.008042   0.008275
   10  N  1 XX    0.002104  -0.000088
   11  N  1 YY   -0.001610  -0.000540
   12  N  1 ZZ   -0.000494   0.000628
   13  N  1 XY    0.000299   0.001493
   14  N  1 XZ    0.039781   0.000347
   15  N  1 YZ   -0.000269  -0.039436
   16  H  2  S   -0.362260  -0.615452
   17  H  2  S   -0.065530  -0.112675
   18  H  2  X    0.002679  -0.036105
   19  H  2  Y    0.037317   0.039208
   20  H  2  Z    0.002138   0.003626
   21  H  3  S   -0.358119   0.632190
   22  H  3  S   -0.065576   0.114993
   23  H  3  X    0.003098   0.037992
   24  H  3  Y   -0.037186   0.041350
   25  H  3  Z    0.001382  -0.002189
   26  H  4  S    0.721420   0.014633
   27  H  4  S    0.130286   0.001707
   28  H  4  X   -0.061723  -0.001913
   29  H  4  Y   -0.000297  -0.023890
   30  H  4  Z   -0.004688   0.000142

 -------------------------------------------
       MAXIMIZING MORMO OVERLAP TERM        
 -------------------------------------------
   SWEEP    VALUE       PROGRESS
     0     6.15826
     1     6.98491     0.82664992
     2     6.98669     0.00178237
     3     6.98669     0.00000001
     4     6.98669     0.00000000
 THE ROTATION IS DONE
FLIPPING SIGN FOR ORBITAL   7
ACTIVE ORBITALS AFTER MORMO:

                      1          2          3          4          5

    1  N  1  S    0.007921   0.014949   0.007979  -0.012596   0.251787
    2  N  1  S    0.438425   0.033762   0.015125  -0.184976   0.812435
    3  N  1  S    0.296468  -0.024961  -0.001189  -0.283823   0.162060
    4  N  1  X   -0.003530   0.471587  -0.007867   0.018340   0.013092
    5  N  1  Y   -0.004988   0.038255   0.502349   0.011602  -0.007431
    6  N  1  Z    0.088276   0.021045   0.014615   0.596760   0.672679
    7  N  1  X   -0.013151   0.249920  -0.037021  -0.026171   0.027437
    8  N  1  Y   -0.002454  -0.016544   0.190418  -0.014563   0.014229
    9  N  1  Z    0.006272  -0.035204  -0.016992   0.382434  -0.092450
   10  N  1 XX   -0.001980   0.016172  -0.001202  -0.012437   0.026665
   11  N  1 YY    0.001139  -0.015645   0.001577  -0.011574  -0.020937
   12  N  1 ZZ    0.000840  -0.000527  -0.000376   0.024010  -0.005728
   13  N  1 XY    0.001786  -0.000090  -0.007974  -0.001218  -0.021329
   14  N  1 XZ    0.000311   0.025591  -0.003379   0.000456  -0.025205
   15  N  1 YZ    0.001405  -0.000739   0.022029  -0.001220  -0.015158
   16  H  2  S    0.191173  -0.199621   0.333519   0.109447  -0.484644
   17  H  2  S    0.003066  -0.052562   0.051540   0.026595  -0.054851
   18  H  2  X    0.008400   0.014509   0.012705   0.005983  -0.029345
   19  H  2  Y   -0.033960   0.022045  -0.027295  -0.016284   0.062335
   20  H  2  Z   -0.008781   0.005089  -0.018112   0.018715  -0.014166
   21  H  3  S    0.188502  -0.219310  -0.318853   0.123621  -0.520660
   22  H  3  S    0.000744  -0.031541  -0.034193   0.028329  -0.055839
   23  H  3  X    0.015308   0.009252  -0.021257   0.006841  -0.030550
   24  H  3  Y    0.034167  -0.025354  -0.025821   0.015351  -0.064527
   25  H  3  Z   -0.005718   0.007028   0.012763   0.019984  -0.010998
   26  H  4  S    0.191996   0.391329  -0.039048   0.099464  -0.504084
   27  H  4  S    0.004096   0.076071  -0.021041   0.021525  -0.056941
   28  H  4  X   -0.033865  -0.027926   0.001712  -0.018816   0.071283
   29  H  4  Y   -0.006000  -0.005087   0.021443  -0.000928  -0.000832
   30  H  4  Z   -0.012208  -0.023467  -0.000584   0.018126  -0.009888

                      6          7

    1  N  1  S    0.024161  -0.031042
    2  N  1  S    0.056512  -0.067454
    3  N  1  S   -0.067507   0.053389
    4  N  1  X   -0.887498   0.008405
    5  N  1  Y   -0.013723   0.936254
    6  N  1  Z   -0.044041   0.010641
    7  N  1  X   -0.034699   0.021088
    8  N  1  Y   -0.023258   0.073879
    9  N  1  Z    0.012246   0.003751
   10  N  1 XX    0.023538   0.013301
   11  N  1 YY   -0.028433  -0.008368
   12  N  1 ZZ    0.004895  -0.004933
   13  N  1 XY    0.014115  -0.024191
   14  N  1 XZ    0.028548  -0.007331
   15  N  1 YZ    0.009746  -0.052032
   16  H  2  S   -0.329211  -0.620410
   17  H  2  S   -0.079875  -0.130338
   18  H  2  X    0.015816  -0.030525
   19  H  2  Y    0.032841   0.047222
   20  H  2  Z    0.014604  -0.006084
   21  H  3  S   -0.348221   0.635371
   22  H  3  S   -0.064500   0.116098
   23  H  3  X   -0.000941   0.030789
   24  H  3  Y   -0.031773   0.052619
   25  H  3  Z    0.002693   0.009117
   26  H  4  S    0.707799  -0.006738
   27  H  4  S    0.154654   0.010620
   28  H  4  X   -0.053903   0.003276
   29  H  4  Y   -0.001966  -0.037265
   30  H  4  Z   -0.009523  -0.009411

Actually Used Diabatic Molecualr Orbitals:

                      1          2          3          4          5

    1  N  1  S    0.007921   0.014949   0.007979  -0.012596   0.251787
    2  N  1  S    0.438425   0.033762   0.015125  -0.184976   0.812435
    3  N  1  S    0.296468  -0.024961  -0.001189  -0.283823   0.162060
    4  N  1  X   -0.003530   0.471587  -0.007867   0.018340   0.013092
    5  N  1  Y   -0.004988   0.038255   0.502349   0.011602  -0.007431
    6  N  1  Z    0.088276   0.021045   0.014615   0.596760   0.672679
    7  N  1  X   -0.013151   0.249920  -0.037021  -0.026171   0.027437
    8  N  1  Y   -0.002454  -0.016544   0.190418  -0.014563   0.014229
    9  N  1  Z    0.006272  -0.035204  -0.016992   0.382434  -0.092450
   10  N  1 XX   -0.001980   0.016172  -0.001202  -0.012437   0.026665
   11  N  1 YY    0.001139  -0.015645   0.001577  -0.011574  -0.020937
   12  N  1 ZZ    0.000840  -0.000527  -0.000376   0.024010  -0.005728
   13  N  1 XY    0.001786  -0.000090  -0.007974  -0.001218  -0.021329
   14  N  1 XZ    0.000311   0.025591  -0.003379   0.000456  -0.025205
   15  N  1 YZ    0.001405  -0.000739   0.022029  -0.001220  -0.015158
   16  H  2  S    0.191173  -0.199621   0.333519   0.109447  -0.484644
   17  H  2  S    0.003066  -0.052562   0.051540   0.026595  -0.054851
   18  H  2  X    0.008400   0.014509   0.012705   0.005983  -0.029345
   19  H  2  Y   -0.033960   0.022045  -0.027295  -0.016284   0.062335
   20  H  2  Z   -0.008781   0.005089  -0.018112   0.018715  -0.014166
   21  H  3  S    0.188502  -0.219310  -0.318853   0.123621  -0.520660
   22  H  3  S    0.000744  -0.031541  -0.034193   0.028329  -0.055839
[...]
       42   -0.022743    0.022743  22020+0
      180   -0.022070    0.022070  -+2+200
      751    0.021319   -0.021319  2+20002
       99    0.020072   -0.020072  20-20++

 State #    3  Energy =     -55.752478706

      Det      Coef        Coefp    Occupancy (Ignoring core)
      ---      ----        ----    --------- --------- -----
       36   -0.910781   -0.910781  22+2000
       71    0.364507   -0.364507  2+22000
      463    0.068753   -0.068753  20+2020
      121    0.041639   -0.041639  +22-00+
      472    0.034771    0.034771  2+020-+
      249    0.034746   -0.034746  20+2200
        1    0.034394   -0.034394  222+000
      112   -0.032120   -0.032120  +2-20+0
      285    0.030577   -0.030577  02+2200
      253    0.028668    0.028668  20+2-+0
      460   -0.027530   -0.027530  -++2+-0
      288   -0.026288   -0.026288  +-+2-+0
      716    0.024735    0.024735  22+0002
      771   -0.023669   -0.023669  +22+00-
      142    0.023241    0.023241  22+0200
      297   -0.022931    0.022931  +202-0+
      459   -0.022615    0.022615  20+2+-0
      113    0.021998   -0.021998  +-220+0
       86   -0.021706   -0.021706  2+2-00+
      148   -0.021586   -0.021586  2-++-+0
      457   -0.021537    0.021537  2++-+-0
       52   -0.020465    0.020465  220200+
       77    0.020435   -0.020435  2+-20+0
      145   -0.020300   -0.020300  -2++200
      250    0.020075    0.020075  -++2200
      356    0.020013    0.020013  22+0020

 ---------------------------------------
    -DIABATIC STATES IN PROTOTYPES-     
 ---------------------------------------

     STATE:    1
 Group Ref#    Coefficients
     1    1    0.986743
     2    2    0.001320
     3    3   -0.000469

WEIGHT OF LISTED PROTOTYPES:   97.37%

     STATE:    2
 Group Ref#    Coefficients
     1    1    0.001320
     2    2    0.987166
     3    3   -0.000208

WEIGHT OF LISTED PROTOTYPES:   97.45%

     STATE:    3
 Group Ref#    Coefficients
     1    1   -0.000469
     2    2   -0.000208
     3    3    0.984565

WEIGHT OF LISTED PROTOTYPES:   96.94%

 --------------------------------------------------
 IN DIRECT MAX. DIABATIZATION FOR GMC-QDPT

 DIRECT MAXIMIZATION (DM) WITHOUT TRUNCATING ADIABATS
 EXPANSIONS INTO THE REFERENCE CONFIGURATION SPACE
 --------------------------------------------------

 -------------------------------------------
 - DM DIABT PT HAMILTONIAN MATRIX ELEMENTS -
 -------------------------------------------
                                            
 --- DIABATIC ENERGIES (DIAGONAL ELEMENT) ---       HARTREE            EV
 STATE #  1'S GMC-PT-LEVEL DIABATIC ENERGY=     -55.987232518       0.000000000
 STATE #  2'S GMC-PT-LEVEL DIABATIC ENERGY=     -55.835558621       4.127256953
 STATE #  3'S GMC-PT-LEVEL DIABATIC ENERGY=     -55.752478710       6.387976489

 --- DIABATIC COUPLINGS (OFF DIAGONAL ELEMENTS)---  HATREE            EV
 STATE #  1 &  2'S GMC-PT-LEVEL COUPLING  =      -0.023422212      -0.637350842
 STATE #  1 &  3'S GMC-PT-LEVEL COUPLING  =      -0.015049261      -0.409511251
 STATE #  2 &  3'S GMC-PT-LEVEL COUPLING  =       0.034834979       0.947908072

 ---------------------------------------
     - ROTATION TO DIABATIC STATES -    
 ---------------------------------------
 ROWS=ADIABATIC, COLUMNS=DIABATIC STATES

             1           2           3

    1   -0.9893300  -0.1395017  -0.0420165
    2   -0.1150632   0.9250474  -0.3620052
    3    0.0893676  -0.3533080  -0.9312287

 ---------------------------------------
          - DIABATIC STATES -           
 ---------------------------------------

 State #    1  Energy =     -55.987232518

      Det      Coef        Coefp    Occupancy (Ignoring core)
      ---      ----        ----    --------- --------- -----
        1    0.969223   -0.969223  222+000
        8   -0.088367    0.088367  2-2+0+0
      393   -0.075572   -0.075572  202+020
      717   -0.066203   -0.066203  220+002
      386    0.058821   -0.058821  2+2+0-0
        4   -0.054743    0.054743  2-2++00
      176    0.053048   -0.053048  2+2+-00
      708    0.039617   -0.039617  2-++0+-
      402    0.037954   -0.037954  2+-+0-+
        6    0.035239   -0.035239  22200+0
      215   -0.035129   -0.035129  022+200
        7    0.034048    0.034048  22-+0+0
      218    0.033639   -0.033639  +-2+-+0
      390    0.033334   -0.033334  -+2++-0
      227   -0.032723   -0.032723  +2-+-0+
      705   -0.032634   -0.032634  -2+++0-
      351   -0.030862   -0.030862  22++0-0
        3   -0.030823   -0.030823  22-++00
      141    0.030307    0.030307  22++-00
       76    0.029546    0.029546  2+2-0+0
      212    0.028417    0.028417  +220200
      113   -0.027546    0.027546  +-220+0
       51   -0.026340    0.026340  22+-00+
        2    0.025922   -0.025922  2220+00
      143   -0.024545   -0.024545  220+200
       17    0.024248    0.024248  22-+00+
      424   -0.024050   -0.024050  +-2++-0
       18   -0.023838    0.023838  2-2+00+
      122    0.023805    0.023805  +2-200+
      736    0.023283   -0.023283  2+2+00-
      184   -0.023020   -0.023020  -+2+-+0
      387   -0.022831    0.022831  2+20+-0
      702    0.021792    0.021792  22+0+0-
      773    0.021322   -0.021322  +2-++0-
      159    0.020909   -0.020909  -2++-0+
      106   -0.020748   -0.020748  +222000
      742   -0.020289   -0.020289  2+-+0+-
      179   -0.020199   -0.020199  202+200
       16   -0.020189    0.020189  222000+

 State #    2  Energy =     -55.835558621

      Det      Coef        Coefp    Occupancy (Ignoring core)
      ---      ----        ----    --------- --------- -----
       71   -0.971839    0.971839  2+22000
       74    0.081182   -0.081182  2022+00
      822    0.064588   -0.064588  2+02002
       76    0.063139    0.063139  2+2-0+0
      386   -0.051460    0.051460  2+2+0-0
       36    0.046453    0.046453  22+2000
      813    0.042166   -0.042166  20+20+-
      246    0.038369    0.038369  2++2-00
      106    0.037529    0.037529  +222000
      323   -0.035466    0.035466  +022-+0
      111    0.034680   -0.034680  +22-0+0
       77    0.034598   -0.034598  2+-20+0
      320    0.034497    0.034497  0+22200
      810   -0.032972   -0.032972  -++2+0-
      113    0.032071   -0.032071  +-220+0
      456   -0.031415   -0.031415  2++20-0
      332   -0.031196    0.031196  ++-2-0+
       78    0.030622   -0.030622  20220+0
       73   -0.030095    0.030095  2+-2+00
      180   -0.029174    0.029174  -+2+200
      317    0.028890   -0.028890  ++2-200
       38   -0.028431    0.028431  2202+00
      177    0.027237   -0.027237  2+20200
      183   -0.027215    0.027215  202+-+0
       99   -0.026201    0.026201  20-20++
      248    0.025242   -0.025242  2+02200
      736    0.024597   -0.024597  2+2+00-
        6    0.024408   -0.024408  22200+0
       81    0.023315    0.023315  202-++0
       86   -0.022900   -0.022900  2+2-00+
      526   -0.022893   -0.022893  ++220-0
       88    0.022750   -0.022750  202200+
      807   -0.022698    0.022698  2++-+0-
      192   -0.022214    0.022214  2+-+-0+
      391    0.022117   -0.022117  2+20020
      529    0.022061    0.022061  +022+-0
       51    0.021938   -0.021938  22+-00+
      751    0.021360   -0.021360  2+20002
      534    0.020674    0.020674  0+22020
      878    0.020518    0.020518  ++-2+0-

 State #    3  Energy =     -55.752478710

      Det      Coef        Coefp    Occupancy (Ignoring core)
      ---      ----        ----    --------- --------- -----
       36   -0.972164   -0.972164  22+2000
      463    0.077307   -0.077307  20+2020
      456   -0.059950   -0.059950  2++20-0
      246   -0.059160   -0.059160  2++2-00
       71   -0.047084    0.047084  2+22000
       43    0.044661    0.044661  2-+20+0
      472   -0.043196   -0.043196  2+020-+
      121   -0.041909    0.041909  +22-00+
       52    0.037287   -0.037287  220200+
      285    0.035333   -0.035333  02+2200
      112   -0.034899   -0.034899  +2-20+0
      460   -0.034747   -0.034747  -++2+-0
      288   -0.033280   -0.033280  +-+2-+0
       38    0.033199   -0.033199  2202+00
      351   -0.032705   -0.032705  22++0-0
      297    0.032388   -0.032388  +202-0+
       39    0.031250    0.031250  2-+2+00
      282    0.028950    0.028950  +2+-200
      145   -0.028917   -0.028917  -2++200
       42   -0.028389    0.028389  22020+0
       53    0.027965    0.027965  2-+200+
       73    0.027910   -0.027910  2+-2+00
      142    0.027311    0.027311  22+0200
       16   -0.026496    0.026496  222000+
       64    0.026415   -0.026415  2-020++
      806   -0.026151   -0.026151  2++200-
       51   -0.025865    0.025865  22+-00+
      457   -0.025597    0.025597  2++-+-0
      148   -0.025237   -0.025237  2-++-+0
      701    0.024152    0.024152  22++00-
      254    0.024102   -0.024102  -++2-+0
      157    0.023533   -0.023533  220+-0+
      716    0.023474    0.023474  22+0002
      494    0.023011   -0.023011  +-+2+-0
      249    0.022733   -0.022733  20+2200
      771    0.022731    0.022731  +22+00-
      356    0.020961    0.020961  22+0020
       86    0.020753    0.020753  2+2-00+
       44    0.020491   -0.020491  -2+20+0
      123    0.020061   -0.020061  +-2200+

 ---------------------------------------
      - DIABATIC STATES IN CMO -        
 ---------------------------------------

 State #    1  Energy =     -55.987232518

      Det      Coef        Coefp    Occupancy (Ignoring core)
      ---      ----        ----    --------- --------- -----
        1    0.965322   -0.965322  222+000
       71    0.135823   -0.135823  2+22000
       36    0.090668    0.090668  22+2000
      393   -0.074945   -0.074945  202+020
      717   -0.064094   -0.064094  220+002
       17   -0.041653   -0.041653  22-+00+
        8   -0.040191    0.040191  2-2+0+0
      402   -0.035029    0.035029  2+-+0-+
      215   -0.032938   -0.032938  022+200
      708   -0.032036    0.032036  2-++0+-
      179   -0.031049   -0.031049  202+200
      390    0.030400   -0.030400  -+2++-0
      218    0.027878   -0.027878  +-2+-+0
       76    0.027524    0.027524  2+2-0+0
      106   -0.027453   -0.027453  +222000
      113   -0.025965    0.025965  +-220+0
      705    0.025426    0.025426  -2+++0-
      227    0.025250    0.025250  +2-+-0+
        2    0.025185   -0.025185  2220+00
       51    0.024076   -0.024076  22+-00+
      357   -0.023548   -0.023548  220+020
      122   -0.022802   -0.022802  +2-200+
      387   -0.022517    0.022517  2+20+-0
      388   -0.021712   -0.021712  2+-++-0
      212    0.020883    0.020883  +220200

 State #    2  Energy =     -55.835558621

      Det      Coef        Coefp    Occupancy (Ignoring core)
      ---      ----        ----    --------- --------- -----
       71   -0.904032    0.904032  2+22000
       36   -0.353373   -0.353373  22+2000
        1    0.160668   -0.160668  222+000
      822    0.060488   -0.060488  2+02002
      813   -0.036436    0.036436  20+20+-
      113    0.032526   -0.032526  +-220+0
      320    0.030676    0.030676  0+22200
      463    0.029630   -0.029630  20+2020
      183   -0.027101    0.027101  202+-+0
      177    0.027004   -0.027004  2+20200
        6    0.026478   -0.026478  22200+0
      323   -0.026338    0.026338  +022-+0
      810    0.025383    0.025383  -++2+0-
      111    0.025325   -0.025325  +22-0+0
      462    0.025080   -0.025080  2+02020
       74    0.024423   -0.024423  2022+00
      332    0.022995   -0.022995  ++-2-0+
       42   -0.022743    0.022743  22020+0
      180   -0.022070    0.022070  -+2+200
      751    0.021319   -0.021319  2+20002
       99    0.020072   -0.020072  20-20++

 State #    3  Energy =     -55.752478710

      Det      Coef        Coefp    Occupancy (Ignoring core)
      ---      ----        ----    --------- --------- -----
       36   -0.910781   -0.910781  22+2000
       71    0.364507   -0.364507  2+22000
      463    0.068753   -0.068753  20+2020
      121    0.041639   -0.041639  +22-00+
      472    0.034771    0.034771  2+020-+
      249    0.034746   -0.034746  20+2200
        1    0.034394   -0.034394  222+000
      112   -0.032120   -0.032120  +2-20+0
      285    0.030577   -0.030577  02+2200
      253    0.028668    0.028668  20+2-+0
      460   -0.027530   -0.027530  -++2+-0
      288   -0.026288   -0.026288  +-+2-+0
      716    0.024735    0.024735  22+0002
      771   -0.023669   -0.023669  +22+00-
      142    0.023241    0.023241  22+0200
      297   -0.022931    0.022931  +202-0+
      459   -0.022615    0.022615  20+2+-0
      113    0.021998   -0.021998  +-220+0
       86   -0.021706   -0.021706  2+2-00+
      148   -0.021586   -0.021586  2-++-+0
      457   -0.021537    0.021537  2++-+-0
       52   -0.020465    0.020465  220200+
       77    0.020435   -0.020435  2+-20+0
      145   -0.020300   -0.020300  -2++200
      250    0.020075    0.020075  -++2200
      356    0.020013    0.020013  22+0020

 ---------------------------------------
    -DIABATIC STATES IN PROTOTYPES-     
 ---------------------------------------

     STATE:    1
 Group Ref#    Coefficients
     1    1    0.986743
     2    2    0.001320
     3    3   -0.000468

WEIGHT OF LISTED PROTOTYPES:   97.37%

     STATE:    2
 Group Ref#    Coefficients
     1    1    0.001320
     2    2    0.987166
     3    3   -0.000207

WEIGHT OF LISTED PROTOTYPES:   97.45%

     STATE:    3
 Group Ref#    Coefficients
     1    1   -0.000469
     2    2   -0.000208
     3    3    0.984565

WEIGHT OF LISTED PROTOTYPES:   96.94%

     DIRECT MAX. DIABATIZATION FINISHED    
 CPU     0: STEP CPU TIME=     0.25 TOTAL CPU TIME=         12.7 (      0.2 MIN)
 TOTAL WALL CLOCK TIME=         12.7 SECONDS, CPU UTILIZATION IS   100.00%

DIABATS FOR SPIN-ORBIT CALCULATION ARE READY

TRANSITION DIPOLES BETWEEN ADIABATS (in A.U.):

STATE PAIR      X         Y         Z
    1    1  0.157705  0.115426  0.756597
    2    1  0.032565 -0.003161  0.062062
    2    2  0.056491 -0.068951  0.262314
    3    1  0.019815  0.070592 -0.047668
    3    2  0.111853 -0.180748  0.001331
    3    3  0.353169  0.323888  0.253262


TRANSITION DIPOLES BETWEEN DIABATS (in A.U.):

STATE PAIR      X         Y         Z
    1    1  0.159536  0.105165  0.768564
    2    1 -0.004206  0.017389 -0.003201
    2    2  0.015930  0.109594  0.249217
    3    1  0.017885  0.025075  0.000190
    3    2  0.019402  0.273095 -0.007235
    3    3  0.391900  0.155604  0.254392

TRANSITION DIPOLES BETWEEN DIRECT MAX. DIABATS (in A.U.):

STATE PAIR      X         Y         Z
    1    1  0.159536  0.105165  0.768564
    2    1 -0.004206  0.017389 -0.003201
    2    2  0.015930  0.109595  0.249217
    3    1  0.017885  0.025075  0.000189
    3    2  0.019403  0.273095 -0.007235
    3    3  0.391900  0.155603  0.254392
 No $TRANST Group Found.
 Quit without doing spin-orbit coupling
 ..... DONE WITH MP2 ENERGY .....
 CPU     0: STEP CPU TIME=     0.00 TOTAL CPU TIME=         12.7 (      0.2 MIN)
 TOTAL WALL CLOCK TIME=         12.7 SECONDS, CPU UTILIZATION IS    99.92%
            100000000  WORDS OF DYNAMIC MEMORY USED
 EXECUTION OF GAMESS TERMINATED NORMALLY Wed Nov 16 19:39:32 2022
 DDI: 715512 bytes (0.7 MB / 0 MWords) used by master data server.

 ----------------------------------------
 CPU timing information for all processes
 ========================================
 0: 12.318 + 0.372 = 12.691
 ----------------------------------------
Note: The following floating-point exceptions are signalling: IEEE_DENORMAL
 ddikick.x: exited gracefully.
unset echo
----- accounting info -----
Files used on the master node io002 were:
-rw-r--r-- 1 bsonghao nooijen   20742 Nov 16 19:39 /scratch/bsonghao/nh3_diabatization_2d_at_mode_7_8_dist0.2_0.3.F05
-rw-r--r-- 1 bsonghao nooijen  363520 Nov 16 19:39 /scratch/bsonghao/nh3_diabatization_2d_at_mode_7_8_dist0.2_0.3.F09
-rw-r--r-- 1 bsonghao nooijen 1995920 Nov 16 19:39 /scratch/bsonghao/nh3_diabatization_2d_at_mode_7_8_dist0.2_0.3.F10
-rw-r--r-- 1 bsonghao nooijen  131264 Nov 16 19:39 /scratch/bsonghao/nh3_diabatization_2d_at_mode_7_8_dist0.2_0.3.F13
-rw-r--r-- 1 bsonghao nooijen  180312 Nov 16 19:39 /scratch/bsonghao/nh3_diabatization_2d_at_mode_7_8_dist0.2_0.3.F15
-rw-r--r-- 1 bsonghao nooijen       0 Nov 16 19:39 /scratch/bsonghao/nh3_diabatization_2d_at_mode_7_8_dist0.2_0.3.F16
-rw-r--r-- 1 bsonghao nooijen    9808 Nov 16 19:39 /scratch/bsonghao/nh3_diabatization_2d_at_mode_7_8_dist0.2_0.3.F70
-rw-r--r-- 1 bsonghao nooijen    9808 Nov 16 19:39 /scratch/bsonghao/nh3_diabatization_2d_at_mode_7_8_dist0.2_0.3.F71
-rw-r--r-- 1 bsonghao nooijen   19608 Nov 16 19:39 /scratch/bsonghao/nh3_diabatization_2d_at_mode_7_8_dist0.2_0.3.F72
-rw-r--r-- 1 bsonghao nooijen   19608 Nov 16 19:39 /scratch/bsonghao/nh3_diabatization_2d_at_mode_7_8_dist0.2_0.3.F73
-rw-r--r-- 1 bsonghao nooijen 1920824 Nov 16 19:39 /scratch/bsonghao/nh3_diabatization_2d_at_mode_7_8_dist0.2_0.3.F74
-rw-r--r-- 1 bsonghao nooijen       0 Nov 16 19:39 /scratch/bsonghao/nh3_diabatization_2d_at_mode_7_8_dist0.2_0.3.F75
-rw-r--r-- 1 bsonghao nooijen   58848 Nov 16 19:39 /scratch/bsonghao/nh3_diabatization_2d_at_mode_7_8_dist0.2_0.3.F76
-rw-r--r-- 1 bsonghao nooijen       0 Nov 16 19:39 /scratch/bsonghao/nh3_diabatization_2d_at_mode_7_8_dist0.2_0.3.F77
-rw-r--r-- 1 bsonghao nooijen    1864 Nov 16 19:39 /scratch/bsonghao/nh3_diabatization_2d_at_mode_7_8_dist0.2_0.3.F78
-rw-r--r-- 1 bsonghao nooijen   39208 Nov 16 19:39 /scratch/bsonghao/nh3_diabatization_2d_at_mode_7_8_dist0.2_0.3.F79
-rw-r--r-- 1 bsonghao nooijen     104 Nov 16 19:39 /scratch/bsonghao/nh3_diabatization_2d_at_mode_7_8_dist0.2_0.3.F80
-rw-r--r-- 1 bsonghao nooijen   13472 Nov 16 19:39 /scratch/bsonghao/nh3_diabatization_2d_at_mode_7_8_dist0.2_0.3.F81
-rw-r--r-- 1 bsonghao nooijen      16 Nov 16 19:39 /scratch/bsonghao/nh3_diabatization_2d_at_mode_7_8_dist0.2_0.3.F82
-rw-r--r-- 1 bsonghao nooijen   19216 Nov 16 19:39 /scratch/bsonghao/nh3_diabatization_2d_at_mode_7_8_dist0.2_0.3.F83
-rw-r--r-- 1 bsonghao nooijen   29712 Nov 16 19:39 /scratch/bsonghao/nh3_diabatization_2d_at_mode_7_8_dist0.2_0.3.F84
-rw-r--r-- 1 bsonghao nooijen  401576 Nov 16 19:39 /scratch/bsonghao/nh3_diabatization_2d_at_mode_7_8_dist0.2_0.3.F85
-rw-r--r-- 1 bsonghao nooijen  903672 Nov 16 19:39 /scratch/bsonghao/nh3_diabatization_2d_at_mode_7_8_dist0.2_0.3.F86
-rw-r--r-- 1 bsonghao nooijen     656 Nov 16 19:39 /scratch/bsonghao/nh3_diabatization_2d_at_mode_7_8_dist0.2_0.3.F87
-rw-r--r-- 1 bsonghao nooijen   29616 Nov 16 19:39 /scratch/bsonghao/nh3_diabatization_2d_at_mode_7_8_dist0.2_0.3.F88
-rw-r--r-- 1 bsonghao nooijen     240 Nov 16 19:39 /scratch/bsonghao/nh3_diabatization_2d_at_mode_7_8_dist0.2_0.3.F89
-rw-r--r-- 1 bsonghao nooijen       0 Nov 16 19:39 /scratch/bsonghao/nh3_diabatization_2d_at_mode_7_8_dist0.2_0.3.F90
-rw-r--r-- 1 bsonghao nooijen   13760 Nov 16 19:39 /scratch/bsonghao/nh3_diabatization_2d_at_mode_7_8_dist0.2_0.3.F91
-rw-r--r-- 1 bsonghao nooijen   22776 Nov 16 19:39 /scratch/bsonghao/nh3_diabatization_2d_at_mode_7_8_dist0.2_0.3.F92
-rw-r--r-- 1 bsonghao nooijen   23168 Nov 16 19:39 /scratch/bsonghao/nh3_diabatization_2d_at_mode_7_8_dist0.2_0.3.F93
-rw-r--r-- 1 bsonghao nooijen   22776 Nov 16 19:39 /scratch/bsonghao/nh3_diabatization_2d_at_mode_7_8_dist0.2_0.3.F94
-rw-r--r-- 1 bsonghao nooijen   13760 Nov 16 19:39 /scratch/bsonghao/nh3_diabatization_2d_at_mode_7_8_dist0.2_0.3.F95
-rw-r--r-- 1 bsonghao nooijen   29440 Nov 16 19:39 /scratch/bsonghao/nh3_diabatization_2d_at_mode_7_8_dist0.2_0.3.F96
-rw-r--r-- 1 bsonghao nooijen    1184 Nov 16 19:39 /scratch/bsonghao/nh3_diabatization_2d_at_mode_7_8_dist0.2_0.3.F97
-rw-r--r-- 1 bsonghao nooijen    9808 Nov 16 19:39 /scratch/bsonghao/nh3_diabatization_2d_at_mode_7_8_dist0.2_0.3.F98
-rw-r--r-- 1 bsonghao nooijen   30264 Nov 16 19:39 /scratch/bsonghao/nh3_diabatization_2d_at_mode_7_8_dist0.2_0.3.F99
ls: No match.
ls: No match.
ls: No match.
Wed 16 Nov 2022 07:39:36 PM EST
0.283u 0.045s 0:16.06 1.9%	0+0k 48+224io 0pf+0w
