----- GAMESS execution script 'rungms' -----
This job is running on host io002
under operating system Linux at Wed 16 Nov 2022 07:59:21 PM EST
Available scratch disk space (Kbyte units) at beginning of the job is
Filesystem       1K-blocks       Used   Available Use% Mounted on
/dev/sdc1      15378471580 3278917120 11318349060  23% /scratch
GAMESS temporary binary files will be written to /scratch/bsonghao
GAMESS supplementary output files will be written to /home/bsonghao/.gamess_ascii_files/267638
Copying input file nh3_diabatization_2d_at_mode_7_8_dist0.5_-0.4.inp to your run's scratch directory...
cp nh3_diabatization_2d_at_mode_7_8_dist0.5_-0.4.inp /scratch/bsonghao/nh3_diabatization_2d_at_mode_7_8_dist0.5_-0.4.F05
unset echo
/home/bjb2chen/gamess/ddikick.x /home/bjb2chen/gamess/gamess.00.x nh3_diabatization_2d_at_mode_7_8_dist0.5_-0.4 -ddi 1 1 io002 -scr /scratch/bsonghao

 Distributed Data Interface kickoff program.
 Initiating 1 compute processes on 1 nodes to run the following command:
 /home/bjb2chen/gamess/gamess.00.x nh3_diabatization_2d_at_mode_7_8_dist0.5_-0.4 

          ******************************************************
          *         GAMESS VERSION = 02 AUG 2018 (R2)         *
          *             FROM IOWA STATE UNIVERSITY             *
          * M.W.SCHMIDT, K.K.BALDRIDGE, J.A.BOATZ, S.T.ELBERT, *
          *   M.S.GORDON, J.H.JENSEN, S.KOSEKI, N.MATSUNAGA,   *
          *          K.A.NGUYEN, S.J.SU, T.L.WINDUS,           *
          *       TOGETHER WITH M.DUPUIS, J.A.MONTGOMERY       *
          *         J.COMPUT.CHEM.  14, 1347-1363(1993)        *
          **************** 64 BIT LINUX VERSION ****************

  SINCE 1993, STUDENTS AND POSTDOCS WORKING AT IOWA STATE UNIVERSITY
  AND ALSO IN THEIR VARIOUS JOBS AFTER LEAVING ISU HAVE MADE IMPORTANT
  CONTRIBUTIONS TO THE CODE:
     IVANA ADAMOVIC, CHRISTINE AIKENS, YURI ALEXEEV, POOJA ARORA,
     ANDREY ASADCHEV, ROB BELL, PRADIPTA BANDYOPADHYAY, JONATHAN BENTZ,
     BRETT BODE, KURT BRORSEN, CALEB CARLIN, GALINA CHABAN, WEI CHEN,
     CHEOL HO CHOI, PAUL DAY, ALBERT DEFUSCO, NUWAN DESILVA, TIM DUDLEY,
     DMITRI FEDOROV, ALEX FINDLATER, GRAHAM FLETCHER, MARK FREITAG,
     KURT GLAESEMANN, ANASTASIA GUININA,
     DAN KEMP, GRANT MERRILL, NORIYUKI MINEZAWA, JONATHAN MULLIN,
     TAKESHI NAGATA, SEAN NEDD, HEATHER NETZLOFF, BOSILJKA NJEGIC, RYAN OLSON,
     MIKE PAK, BUU PHAM,
     SPENCER PRUITT, LUKE ROSKOP, JIM SHOEMAKER, LYUDMILA SLIPCHENKO,
     TONY SMITH, SAROM SOK LEANG, JIE SONG, TETSUYA TAKETSUGU, SIMON WEBB,
     PENG XU, SOOHAENG YOO, FEDERICO ZAHARIEV

  ADDITIONAL CODE HAS BEEN PROVIDED BY COLLABORATORS IN OTHER GROUPS:
     IOWA STATE UNIVERSITY:
          JOE IVANIC, AARON WEST, LAIMUTIS BYTAUTAS, KLAUS RUEDENBERG
     UNIVERSITY OF TOKYO: KIMIHIKO HIRAO, TAKAHITO NAKAJIMA,
          TAKAO TSUNEDA, MUNEAKI KAMIYA, SUSUMU YANAGISAWA,
          KIYOSHI YAGI, MAHITO CHIBA, SEIKEN TOKURA, NAOAKI KAWAKAMI
     UNIVERSITY OF AARHUS: FRANK JENSEN
     UNIVERSITY OF IOWA: VISVALDAS KAIRYS, HUI LI
     NATIONAL INST. OF STANDARDS AND TECHNOLOGY: WALT STEVENS, DAVID GARMER
     UNIVERSITY OF PISA: BENEDETTA MENNUCCI, JACOPO TOMASI
     UNIVERSITY OF MEMPHIS: HENRY KURTZ, PRAKASHAN KORAMBATH
     UNIVERSITY OF ALBERTA: TOBY ZENG, MARIUSZ KLOBUKOWSKI
     UNIVERSITY OF NEW ENGLAND: MARK SPACKMAN
     MIE UNIVERSITY: HIROAKI UMEDA
     NAT. INST. OF ADVANCED INDUSTRIAL SCIENCE AND TECHNOLOGY: KAZUO KITAURA
     MICHIGAN STATE UNIVERSITY:
          KAROL KOWALSKI, MARTA WLOCH, JEFFREY GOUR, JESSE LUTZ,
          WEI LI, JUN SHEN, J. EMILIANO DEUSTUA, PIOTR PIECUCH
     UNIVERSITY OF MINNESOTA:
          YINAN SHU
     UNIVERSITY OF SILESIA: MONIKA MUSIAL, STANISLAW KUCHARSKI
     FACULTES UNIVERSITAIRES NOTRE-DAME DE LA PAIX:
          OLIVIER QUINET, BENOIT CHAMPAGNE
     UNIVERSITY OF CALIFORNIA - SANTA BARBARA: BERNARD KIRTMAN
     INSTITUTE FOR MOLECULAR SCIENCE:
          KAZUYA ISHIMURA, MICHIO KATOUDA, AND SHIGERU NAGASE
     UNIVERSITY OF NOTRE DAME: ANNA POMOGAEVA, DAN CHIPMAN
     KYUSHU UNIVERSITY:
          HARUYUKI NAKANO,
          FENG LONG GU, JACEK KORCHOWIEC, MARCIN MAKOWSKI, AND YURIKO AOKI,
          HIROTOSHI MORI AND EISAKU MIYOSHI
     PENNSYLVANIA STATE UNIVERSITY:
          TZVETELIN IORDANOV, CHET SWALINA, JONATHAN SKONE,
          SHARON HAMMES-SCHIFFER
     WASEDA UNIVERSITY:
          MASATO KOBAYASHI, TOMOKO AKAMA, TSUGUKI TOUMA,
          TAKESHI YOSHIKAWA, YASUHIRO IKABATA, JUNJI SEINO,
          YUYA NAKAJIMA, HIROMI NAKAI
     NANJING UNIVERSITY: SHUHUA LI
     UNIVERSITY OF NEBRASKA:
          PEIFENG SU, DEJUN SI, NANDUN THELLAMUREGE, YALI WANG, HUI LI
     UNIVERSITY OF ZURICH: ROBERTO PEVERATI, KIM BALDRIDGE
     N. COPERNICUS UNIVERSITY AND JACKSON STATE UNIVERSITY:
          MARIA BARYSZ
     UNIVERSITY OF COPENHAGEN: Jimmy Kromann, CASPER STEINMANN
     TOKYO INSTITUTE OF TECHNOLOGY: HIROYA NAKATA
     NAGOYA UNIVERSITY: YOSHIO NISHIMOTO, STEPHAN IRLE
     MOSCOW STATE UNIVERSITY: VLADIMIR MIRONOV

 EXECUTION OF GAMESS BEGUN Wed Nov 16 19:59:22 2022

            ECHO OF THE FIRST FEW INPUT CARDS -
 INPUT CARD> $system kdiag=3 mwords=100 memddi=1000 parall=.t. $end                         
 INPUT CARD> $contrl runtyp=energy ispher=1 $end                                            
 INPUT CARD> $contrl icut=9 itol=20 inttyp=rysquad qmttol=1.0d-05 nosym=1 $end              
 INPUT CARD> $scf    npunch=2 conv=1.0d-06 dirscf=.t.      $end                             
 INPUT CARD> $contrl scftyp=mcscf  mult=2 maxit=200 icharg=1 mplevl=2 $end                  
 INPUT CARD> $guess  guess=moread norb=29 purify=.t. $end                                   
 INPUT CARD> $basis  gbasis=ccd $end                                                        
 INPUT CARD> $mcscf  cistep=gmcci fullnr=.t. finci=mos                                      
 INPUT CARD>         acurcy=1.d-6 maxit=100 $end                                            
 INPUT CARD> $trans  dirtrf=.t. $end                                                        
 INPUT CARD> $mrmp   mrpt=gmcpt rdvecs=.f. $end                                             
 INPUT CARD> $gmcpt  nmofzc=0 nmodoc=1 nmoact=7 nelact=7 stsym(1)=A                         
 INPUT CARD>         reftyp=ormas nspace=1 mstart(1)=2 mine(1)=7 maxe(1)=7                  
 INPUT CARD>         kstate(1)=1,1,1                                                        
 INPUT CARD>         wstate(1)=1,1,1                                                        
 INPUT CARD>         iwgt=0 thrwgt=-1.0 krot=.f. kszdoe=.f. knospn=.f.                      
 INPUT CARD>         thrde=-1.0 edshft=0.02 $end                                            
 INPUT CARD> $data                                                                          
 INPUT CARD> NH3+ 3 states calculation at NH3 structure.                                    
 INPUT CARD> c1                                                                             
 INPUT CARD>N 7.0 0.024915672 -0.031144515 -0.1693804682                                    
 INPUT CARD>H 1.0 -0.477916545 0.6870614718000001 0.4235576661                              
 INPUT CARD>H 1.0 -0.860043122 -0.6191766258 0.19495029910000003                            
 INPUT CARD>H 1.0 0.991749708 0.364878712 0.15086941110000002                               
 INPUT CARD>$end                                                                            
 INPUT CARD>--- OPTIMIZED RHF      MO-S --- GENERATED AT Mon Nov 14 16:47:08 2022           
 INPUT CARD>E=      -56.3825050291, E(NUC)=   11.8429239490                                 
 INPUT CARD> $VEC                                                                           
 INPUT CARD> 1  1-1.00134066E+00-2.25158504E-03 3.44925845E-03 0.00000000E+00 0.00000000E+00
 INPUT CARD> 1  2-2.13170927E-03 0.00000000E+00 0.00000000E+00 6.57129898E-04-6.87950443E-05
 INPUT CARD> 1  3-6.87950443E-05 1.37590089E-04 0.00000000E+00 0.00000000E+00 0.00000000E+00
 INPUT CARD> 1  4 3.25502815E-04-4.84772356E-04 3.62525460E-04-6.27912517E-04-3.45956485E-04
 INPUT CARD> 1  5 3.25502815E-04-4.84772356E-04 3.62525460E-04 6.27912517E-04-3.45956485E-04
 INPUT CARD> 1  6 3.25502815E-04-4.84772356E-04-7.25050921E-04 0.00000000E+00-3.45956485E-04
 INPUT CARD> 2  1 1.31286642E-02-4.05911371E-01-2.82090992E-01 0.00000000E+00 0.00000000E+00
 INPUT CARD> 2  2-7.71489043E-02 0.00000000E+00 0.00000000E+00 9.73717494E-03 6.62450916E-04
 INPUT CARD> 2  3 6.62450916E-04-1.32490183E-03 0.00000000E+00 0.00000000E+00 0.00000000E+00
 INPUT CARD> 2  4-1.96090317E-01-1.96656153E-02-1.74855877E-02 3.02859263E-02 8.68214399E-03
 INPUT CARD> 2  5-1.96090317E-01-1.96656153E-02-1.74855877E-02-3.02859263E-02 8.68214399E-03
 INPUT CARD> 2  6-1.96090317E-01-1.96656153E-02 3.49711754E-02 0.00000000E+00 8.68214399E-03
 INPUT CARD> 3  1 0.00000000E+00 0.00000000E+00 0.00000000E+00 4.48608762E-01 0.00000000E+00
 INPUT CARD> 3  2 0.00000000E+00 2.18692520E-01 0.00000000E+00 0.00000000E+00 1.30198027E-02
 INPUT CARD> 3  3-1.30198027E-02 0.00000000E+00 0.00000000E+00 2.71832968E-02 0.00000000E+00
 INPUT CARD> 3  4-1.85332726E-01-7.03958951E-02 8.47929477E-03 1.95242443E-02 8.32835058E-03
 INPUT CARD> 3  5-1.85332726E-01-7.03958951E-02 8.47929477E-03-1.95242443E-02 8.32835058E-03
 INPUT CARD> 3  6 3.70665453E-01 1.40791790E-01-2.53376884E-02 0.00000000E+00-1.66567012E-02
 INPUT CARD> 4  1 0.00000000E+00 0.00000000E+00 0.00000000E+00 0.00000000E+00 4.48608762E-01
 INPUT CARD> 4  2 0.00000000E+00 0.00000000E+00 2.18692520E-01 0.00000000E+00 0.00000000E+00
 INPUT CARD> 4  3 0.00000000E+00 0.00000000E+00-1.50339731E-02 0.00000000E+00 2.71832968E-02
 INPUT CARD> 4  4 3.21005698E-01 1.21929267E-01 1.95242443E-02-1.40653607E-02-1.44251263E-02
  100000000 WORDS OF MEMORY AVAILABLE

     BASIS OPTIONS
     -------------
     GBASIS=CCD          IGAUSS=       0      POLAR=NONE    
     NDFUNC=       0     NFFUNC=       0     DIFFSP=       F
     NPFUNC=       0      DIFFS=       F     BASNAM=        


     RUN TITLE
     ---------
  NH3+ 3 states calculation at NH3 structure.                                    

 THE POINT GROUP OF THE MOLECULE IS C1      
 THE ORDER OF THE PRINCIPAL AXIS IS     0

 ATOM      ATOMIC                      COORDINATES (BOHR)
           CHARGE         X                   Y                   Z
 N           7.0     0.0470837929       -0.0588545994       -0.3200826726
 H           1.0    -0.9031313150        1.2983579184        0.8004079289
 H           1.0    -1.6252458382       -1.1700741608        0.3684026465
 H           1.0     1.8741351965        0.6895207844        0.2851018469

          INTERNUCLEAR DISTANCES (ANGS.)
          ------------------------------

                1 N          2 H          3 H          4 H     

   1 N       0.0000000    1.0584119 *  1.1232412 *  1.0927774 *
   2 H       1.0584119 *  0.0000000    1.3800507 *  1.5290780 *
   3 H       1.1232412 *  1.3800507 *  0.0000000    2.0974853 *
   4 H       1.0927774 *  1.5290780 *  2.0974853 *  0.0000000  

  * ... LESS THAN  3.000


     ATOMIC BASIS SET
     ----------------
 THE CONTRACTED PRIMITIVE FUNCTIONS HAVE BEEN UNNORMALIZED
 THE CONTRACTED BASIS FUNCTIONS ARE NOW NORMALIZED TO UNITY

  SHELL TYPE  PRIMITIVE        EXPONENT          CONTRACTION COEFFICIENT(S)

 N         

      1   S       1          9046.0000000    0.000699617413
      1   S       2          1357.0000000    0.005386054630
      1   S       3           309.3000000    0.027391021189
      1   S       4            87.7300000    0.103150591982
      1   S       5            28.5600000    0.278570663317
      1   S       6            10.2100000    0.448294849454
      1   S       7             3.8380000    0.278085928395
      1   S       8             0.7466000    0.015431561233

      2   S       9          9046.0000000   -0.000304990096
      2   S      10          1357.0000000   -0.002408026379
      2   S      11           309.3000000   -0.011944448725
      2   S      12            87.7300000   -0.048925992909
      2   S      13            28.5600000   -0.134472724725
      2   S      14            10.2100000   -0.315112577700
      2   S      15             3.8380000   -0.242857832550
      2   S      16             0.7466000    1.094382206854

      3   S      17             0.2248000    1.000000000000

      4   P      18            13.5500000    0.058905676772
      4   P      19             2.9170000    0.320461106714
      4   P      20             0.7973000    0.753042061792

      5   P      21             0.2185000    1.000000000000

      6   D      22             0.8170000    1.000000000000

 H         

      7   S      23            13.0100000    0.033498726390
      7   S      24             1.9620000    0.234800801174
      7   S      25             0.4446000    0.813682957883

      8   S      26             0.1220000    1.000000000000

      9   P      27             0.7270000    1.000000000000

 H         

     10   S      28            13.0100000    0.033498726390
     10   S      29             1.9620000    0.234800801174
     10   S      30             0.4446000    0.813682957883

     11   S      31             0.1220000    1.000000000000

     12   P      32             0.7270000    1.000000000000

 H         

     13   S      33            13.0100000    0.033498726390
     13   S      34             1.9620000    0.234800801174
     13   S      35             0.4446000    0.813682957883

     14   S      36             0.1220000    1.000000000000

     15   P      37             0.7270000    1.000000000000

 TOTAL NUMBER OF BASIS SET SHELLS             =   15
 NUMBER OF CARTESIAN GAUSSIAN BASIS FUNCTIONS =   30
 NOTE: THIS RUN WILL RESTRICT THE MO VARIATION SPACE TO SPHERICAL HARMONICS.
 THE NUMBER OF ORBITALS KEPT IN THE VARIATIONAL SPACE WILL BE PRINTED LATER.
 NUMBER OF ELECTRONS                          =    9
 CHARGE OF MOLECULE                           =    1
 SPIN MULTIPLICITY                            =    2
 NUMBER OF OCCUPIED ORBITALS (ALPHA)          =    5
 NUMBER OF OCCUPIED ORBITALS (BETA )          =    4
 TOTAL NUMBER OF ATOMS                        =    4
 THE NUCLEAR REPULSION ENERGY IS       11.1691881685

     $CONTRL OPTIONS
     ---------------
 SCFTYP=MCSCF        RUNTYP=ENERGY       EXETYP=RUN     
 MPLEVL=       2     CITYP =NONE         CCTYP =NONE         VBTYP =NONE    
 DFTTYP=NONE         TDDFT =NONE    
 MULT  =       2     ICHARG=       1     NZVAR =       0     COORD =UNIQUE  
 PP    =NONE         RELWFN=NONE         LOCAL =NONE         NUMGRD=       F
 ISPHER=       1     NOSYM =       1     MAXIT =     200     UNITS =ANGS    
 PLTORB=       F     MOLPLT=       F     AIMPAC=       F     FRIEND=        
 NPRINT=       7     IREST =       0     GEOM  =INPUT   
 NORMF =       0     NORMP =       0     ITOL  =      20     ICUT  =       9
 INTTYP=RYSQUAD      GRDTYP=BEST         QMTTOL= 1.0E-05

     $SYSTEM OPTIONS
     ---------------
  REPLICATED MEMORY=   100000000 WORDS (ON EVERY NODE).
 DISTRIBUTED MEMDDI=        1000 MILLION WORDS IN AGGREGATE,
 MEMDDI DISTRIBUTED OVER   1 PROCESSORS IS  1000000000 WORDS/PROCESSOR.
 TOTAL MEMORY REQUESTED ON EACH PROCESSOR=  1100000000 WORDS.
 TIMLIM=      525600.00 MINUTES, OR     365.0 DAYS.
 PARALL= T  BALTYP=  DLB     KDIAG=    3  COREFL= F
 MXSEQ2=     300 MXSEQ3=     150  mem10=         0

          ----------------
          PROPERTIES INPUT
          ----------------

     MOMENTS            FIELD           POTENTIAL          DENSITY
 IEMOM =       1   IEFLD =       0   IEPOT =       0   IEDEN =       0
 WHERE =COMASS     WHERE =NUCLEI     WHERE =NUCLEI     WHERE =NUCLEI  
 OUTPUT=BOTH       OUTPUT=BOTH       OUTPUT=BOTH       OUTPUT=BOTH    
 IEMINT=       0   IEFINT=       0                     IEDINT=       0
                                                       MORB  =       0

     -------------------------------
     INTEGRAL TRANSFORMATION OPTIONS
     -------------------------------
     NWORD  =            0
     CUTOFF = 1.0E-09     MPTRAN =       0
     DIRTRF =       T     AOINTS =DUP     

          ----------------------
          MCSCF INPUT PARAMETERS
          ----------------------
 CONVERGER SELECTION: FOCAS = F  SOSCF = F  FULLNR = T  QUD = F  JACOBI = F
 SECULAR EQUATION METHOD CISTEP = GMCCI   
 --- GENERAL INPUT OPTIONS:
 MAXIT =     100  MICIT =       1  ACURCY= 1.000E-06
 DAMP  =   0.000  CANONC=       T  ENGTOL= 1.000E-10
 EKT   =       F  NPUNCH=       2  NWORD =         0
 REGENERATE CI AFTER CONVERGENCE = NONE    
 DIABATIZATION AFTER CONVERGENCE =        F
 --- INPUT FOR FULLNR CONVERGER:
 METHOD=DM2       FORS  =       F  DROPC =       T
 LINSER=       F  FCORE =       F  NORB  =      30

          ----------------------
          INTEGRAL INPUT OPTIONS
          ----------------------
 NOPK  =       1 NORDER=       0 SCHWRZ=       T

 ------------------------------------------
 MULTIREFERENCE PERTURBATION THEORY CONTROL
 ------------------------------------------
 MRPT=GMCPT    READ CONVERGED MCSCF VECTORS= F


     ------------------------------------------
     THE POINT GROUP IS C1 , NAXIS= 1, ORDER= 1
     ------------------------------------------

 -- VARIATIONAL SPACE WILL BE RESTRICTED TO PURE SPHERICAL HARMONICS ONLY --
 AFTER EXCLUDING CONTAMINANT COMBINATIONS FROM THE CARTESIAN GAUSSIAN BASIS
 SET, THE NUMBER OF SPHERICAL HARMONICS KEPT IN THE VARIATION SPACE IS   29

     DIMENSIONS OF THE SYMMETRY SUBSPACES ARE
 A   =   29

 ..... DONE SETTING UP THE RUN .....
 CPU     0: STEP CPU TIME=     0.03 TOTAL CPU TIME=          0.0 (      0.0 MIN)
 TOTAL WALL CLOCK TIME=          0.1 SECONDS, CPU UTILIZATION IS    60.00%

          ********************
          1 ELECTRON INTEGRALS
          ********************
 TIME TO DO   DIPOLE INTEGRALS=      0.00
 ...... END OF ONE-ELECTRON INTEGRALS ......
 CPU     0: STEP CPU TIME=     0.00 TOTAL CPU TIME=          0.0 (      0.0 MIN)
 TOTAL WALL CLOCK TIME=          0.1 SECONDS, CPU UTILIZATION IS    60.00%

          -------------
          GUESS OPTIONS
          -------------
          GUESS =MOREAD            NORB  =      29          NORDER=       0
          MIX   =       F          PRTMO =       F          PUNMO =       F
          TOLZ  = 1.0E-08          TOLE  = 1.0E-05
          SYMDEN=       F          PURIFY=       T

 INITIAL GUESS ORBITALS GENERATED BY MOREAD   ROUTINE.

 STATISTICS FOR GENERATION OF SYMMETRY ORBITAL -Q- MATRIX
 NUMBER OF CARTESIAN ATOMIC ORBITALS=         30
 NUMBER OF SPHERICAL CONTAMINANTS DROPPED=     1
 NUMBER OF LINEARLY DEPENDENT MOS DROPPED=     0
 TOTAL NUMBER OF MOS IN VARIATION SPACE=      29
 ORBITAL PURIFICATION WILL OCCUR

 SYMMETRIES FOR INITIAL GUESS ORBITALS FOLLOW.   BOTH SET(S).
     5 ORBITALS ARE OCCUPIED (    1 CORE ORBITALS).
     1=A        2=A        3=A        4=A        5=A        6=A        7=A   
     8=A        9=A       10=A       11=A       12=A       13=A       14=A   
    15=A       16=A       17=A       18=A       19=A       20=A       21=A   
    22=A       23=A       24=A       25=A       26=A       27=A       28=A   
    29=A   
 ...... END OF INITIAL ORBITAL SELECTION ......
 CPU     0: STEP CPU TIME=     0.02 TOTAL CPU TIME=          0.0 (      0.0 MIN)
 TOTAL WALL CLOCK TIME=          0.1 SECONDS, CPU UTILIZATION IS   100.00%

                    ----------------------
                    AO INTEGRAL TECHNOLOGY
                    ----------------------
     S,P,L SHELL ROTATED AXIS INTEGRALS, REPROGRAMMED BY
        KAZUYA ISHIMURA (IMS) AND JOSE SIERRA (SYNSTAR).
     S,P,D,L SHELL ROTATED AXIS INTEGRALS PROGRAMMED BY
        KAZUYA ISHIMURA (INSTITUTE FOR MOLECULAR SCIENCE).
     S,P,D,F,G SHELL TO TOTAL QUARTET ANGULAR MOMENTUM SUM 5,
        ERIC PROGRAM BY GRAHAM FLETCHER (ELORET AND NASA ADVANCED
        SUPERCOMPUTING DIVISION, AMES RESEARCH CENTER).
     S,P,D,F,G,L SHELL GENERAL RYS QUADRATURE PROGRAMMED BY
        MICHEL DUPUIS (PACIFIC NORTHWEST NATIONAL LABORATORY).

          --------------------
          2 ELECTRON INTEGRALS
          --------------------

 DIRECT SCF METHOD SKIPS INTEGRAL STORAGE ON DISK.
 DIRECT TRANSFORMATION SKIPS AO INTEGRAL STORAGE ON DISK.
  ...... END OF TWO-ELECTRON INTEGRALS .....
 STEP CPU TIME =     0.02 TOTAL CPU TIME =          0.1 (      0.0 MIN)
 TOTAL WALL CLOCK TIME=          0.1 SECONDS, CPU UTILIZATION IS    87.50%
 DDI: Creating Array [0] - 900 x 36 = 32400 words.
 DDI: Creating Array [1] - 21 x 288 = 6048 words.
 DDI: Creating Array [2] - 36 x 36 = 1296 words.
 DDI: Creating Array [3] - 465 x 36 = 16740 words.

          -----------------
          MCSCF CALCULATION
          -----------------

 ----- NUCLEAR ENERGY ----- =        11.1691881685

     -------------------------------------------------
     GMC-PT/GMC-QDPT or general MCSCF input parameters
     -------------------------------------------------
 # of frozen core orbs. =         0 ->         0
 # of doubly occ. orbs. =         1
 # of active      orbs. =         7
 # of virtual     orbs. =        21
 # of active electrons  =         7
 # of states in CI      =         3
 Highest state in CI    =         3
 kstate =  1 1 1
 avecoe =  0.333 0.333 0.333
 State symmetry           = A           
 Assigned symmetry number = 1

 <<<Act. MO sym.: 1111111

 <<<Division of 1-ext.:  0
 <<<Division of 2-ext.:  0

 *** Reference space

 Reference type: ORMAS (= Occupation restricted multiple active space)
 # of orbitals          =  7
 # of minimum electrons =  7
 # of maximum electrons =  7
 State symmetry    =    1 (input)
 2*Sz              =    1 (input)
 Spin multiplicity =    2 (input)
 Dimension of reference space =      1225  (from      3432 walks)

 Dimension of reference space =      1225  (from      1225 walks)

 <<<Ionized spaces for Ref-CI:
      0:         1225 /   -1-0:         1960 /  0-1-0:         2891

 EVALUATING EXCHANGE INTEGRALS FOR DIRECT INTEGRAL TRANSFORMATION
 SCHWARZ INEQUALITY OVERHEAD:       465 INTEGRALS, T=        0.00

     --------------------------------------------
     PARTIAL TWO ELECTRON INTEGRAL TRANSFORMATION
     --------------------------------------------

 NUMBER OF CORE MOLECULAR ORBITALS     =    1
 NUMBER OF OCCUPIED MOLECULAR ORBITALS =    8
 TOTAL NUMBER OF MOLECULAR ORBITALS    =   29
 TOTAL NUMBER OF ATOMIC ORBITALS       =   30
 THRESHOLD FOR KEEPING TRANSFORMED 2E- INTEGRALS = 1.000E-09

 -------------------------------     ------------------------------
 DISTRIBUTED DATA TRANSFORMATION     PROGRAM WRITTEN BY G. FLETCHER
 -------------------------------     ------------------------------

 THE DISTRIBUTED MEMORY REQUIRED FOR THIS STEP IS MEMDDI=         1 MWORDS
 CREATING DISTRIBUTED STORAGE FOR [VIR OCC|VIR OCC] INTEGRALS
 CREATING DISTRIBUTED STORAGE FOR [VIR OCC|OCC OCC] INTEGRALS
 CREATING DISTRIBUTED STORAGE FOR [OCC OCC|OCC OCC] INTEGRALS
 CREATING DISTRIBUTED STORAGE FOR [VIR VIR|OCC OCC] INTEGRALS
 FOR    1 PROCESSORS, THE REPLICATED MEMORY NEEDED IS       73700 WORDS.
 SCHWARZ INEQUALITY OVERHEAD:       465 INTEGRALS, T=        0.00

      DIRECT 4-INDEX TRANSFORMATION 
      SCHWARZ INEQUALITY TEST SKIPPED          0 INTEGRAL BLOCKS
 ----- FROZEN CORE ENERGY =       -47.6426733140
 ... END OF INTEGRAL TRANSFORMATION ...
 CPU     0: STEP CPU TIME=     0.21 TOTAL CPU TIME=          0.3 (      0.0 MIN)
 TOTAL WALL CLOCK TIME=          0.3 SECONDS, CPU UTILIZATION IS    93.33%

     --------------------------------     -----------------------------
     MCHF NEWTON-RAPHSON OPTIMIZATION     CODE WRITTEN BY MICHEL DUPUIS
     --------------------------------     -----------------------------
     PARALLEL VERSION WRITTEN BY G. FLETCHER (ELORET)
     NASA ADVANCED SUPERCOMPUTING DIVISION, AMES RESEARCH CENTER

 NUMBER OF INDEPENDENT ORBITAL ROTATION PARAMETERS =   175
 ..... DONE SOLVING NEWTON-RAPHSON EQUATIONS .....
 CPU     0: STEP CPU TIME=     0.87 TOTAL CPU TIME=          1.1 (      0.0 MIN)
 TOTAL WALL CLOCK TIME=          1.2 SECONDS, CPU UTILIZATION IS    98.29%
 ..... DONE WITH NTN-RPH ORBITAL ROTATIONS ..... 
 CPU     0: STEP CPU TIME=     0.00 TOTAL CPU TIME=          1.1 (      0.0 MIN)
 TOTAL WALL CLOCK TIME=          1.2 SECONDS, CPU UTILIZATION IS    98.29%
 MAXIMUM MEMORY USED BY NTN-RPH CODE WAS     57645 WORDS.

 ITER     TOTAL ENERGY      DEL(E)  LAGRANGIAN ASYMMETRY   SQCDF  MICIT   DAMP
   1      -55.622028982 -0.622028982  0.112971   12    5 1.130E-01  1   0.0000
   2      -55.674196543 -0.052167561  0.020099   12    5 4.607E-01  1   0.0000
   3      -55.709717966 -0.035521423  0.013571   11    6 2.206E-01  1   0.0207
   4      -55.725395719 -0.015677753  0.004699   11    6 4.053E-02  1   0.0053
   5      -55.727382046 -0.001986327  0.000913   14    5 9.394E-04  1   0.0000
   6      -55.727436243 -0.000054197  0.000363   14    5 6.272E-05  1   0.0000
   7      -55.727441464 -0.000005221  0.000152   14    5 1.140E-05  1   0.0000
   8      -55.727442460 -0.000000996  0.000069   14    5 2.608E-06  1   0.0000
   9      -55.727442685 -0.000000225  0.000032   14    5 6.689E-07  1   0.0000
  10      -55.727442740 -0.000000056  0.000015   14    5 1.851E-07  1   0.0000
  11      -55.727442755 -0.000000015  0.000007   22    5 5.383E-08  1   0.0000
  12      -55.727442760 -0.000000004  0.000004   22    5 1.622E-08  1   0.0000
  13      -55.727442761 -0.000000001  0.000002   22    5 5.014E-09  1   0.0000
  14      -55.727442761 -0.000000000  0.000001   22    5 1.577E-09  1   0.0000
  15      -55.727442761 -0.000000000  0.000001   22    5 4.970E-10  1   0.0000

          --------------------
          LAGRANGIAN CONVERGED
          --------------------

 FINAL MCSCF ENERGY IS      -55.7274427612 AFTER  15 ITERATIONS

 -MCCI- BASED ON OPTIMIZED ORBITALS
 ----------------------------------

 PLEASE NOTE: IF THE ACTIVE ORBITALS ARE CANONICALIZED BELOW,
 THE FOLLOWING CI EXPANSION COEFFICIENTS AND THE DENSITY DO NOT
 CORRESPOND TO THE PRINTED ORBITALS.  THE PRINTED EXPANSIONS MATCH
 THE ORBITALS USED DURING THE LAST ITERATION.  IF YOU WISH TO SEE
 CI EXPANSIONS BASED ON THE CANONICAL (OR NATURAL) ORBITALS, YOU
 MUST RUN A CI CALCULATION WITH THAT ORBITAL CHOICE READ IN $VEC.

 Averaged energy =     -55.727442761

 State #    1  Energy =     -55.866968557  S =  0.500

      Det      Coef    Occupancy (Ignoring core)
      ---      ----    --------- --------- -----
        1    0.898002  11110001110000
        2    0.056993  11101001110000
        5   -0.070076  01111001110000
        8   -0.129083  10110101110000
       17    0.139737  11010011110000
       36    0.263093  11110001101000
       71    0.132092  11110001011000
      211    0.051708  11110000110100
      386    0.103880  11110001010010
      701   -0.094685  11110001100001
      717    0.071264  11010011100001

 State #    2  Energy =     -55.720686789  S =  0.500

      Det      Coef    Occupancy (Ignoring core)
      ---      ----    --------- --------- -----
        1   -0.283445  11110001110000
       36    0.865503  11110001101000
       38    0.052318  11011001101000
       40   -0.062219  01111001101000
       43   -0.094885  10110101101000
       52    0.091444  11010011101000
       71    0.282809  11110001011000
      106   -0.050086  11110000111000
      281    0.053490  11110000101100
      456    0.085401  11110001001010
      463    0.052297  10110101001010
      701    0.072287  11110001100001

 State #    3  Energy =     -55.594672938  S =  0.500

      Det      Coef    Occupancy (Ignoring core)
      ---      ----    --------- --------- -----
       36    0.312823  11110001101000
       71   -0.906867  11110001011000
       78    0.062910  10110101011000
       87   -0.087445  11010011011000
      316   -0.073739  11110000011100
      806   -0.109272  11110001001001
      822    0.074283  11010011001001

 DENSITY MATRIX OVER ACTIVE MO-S

             1           2           3           4           5

    1    1.9744577
    2   -0.0125279   1.6326853
    3    0.0239806   0.0038308   1.6239749
    4   -0.0016459  -0.0036079   0.0080547   1.6502894
    5    0.1082140   0.0291859  -0.0562831   0.0419277   0.0336931
    6   -0.0010212  -0.1506379   0.0116016  -0.0340119  -0.0053202
    7    0.0105268   0.0093443  -0.1634965   0.0656435   0.0126931

             6           7

    6    0.0362909
    7   -0.0070584   0.0486087

 FORMING THE "STANDARD FOCK OPERATOR" IN DIRECT AO INTEGRAL MODE...
 ONLY THE    1 CORE AND   21 VIRTUAL ORBITALS WILL BE CANONICALIZED

          ----------------------
          MCSCF NATURAL ORBITALS
          ----------------------

                      1          2          3          4          5
                  -15.9799     1.9820     1.6549     1.6473     1.6415
                     A          A          A          A          A   
    1  N  1  S    1.001108   0.009649  -0.009013   0.001121  -0.003605
    2  N  1  S   -0.001993   0.435808  -0.167454   0.043074  -0.090003
    3  N  1  S   -0.006354   0.319852  -0.266928   0.059457  -0.135850
    4  N  1  X    0.000002  -0.028941   0.090712   0.451927  -0.150031
    5  N  1  Y    0.000097   0.045001  -0.070960   0.131968   0.503127
    6  N  1  Z    0.001077   0.089487   0.586796  -0.047755   0.023878
    7  N  1  X   -0.000002  -0.002315   0.065990   0.177784  -0.084339
    8  N  1  Y    0.000024   0.000601  -0.071434   0.047144   0.266959
    9  N  1  Z   -0.000493   0.012515   0.389493  -0.019700  -0.022770
   10  N  1 XX    0.000230   0.001510  -0.010908   0.002984  -0.008712
   11  N  1 YY   -0.000088  -0.001741  -0.012365  -0.000651   0.007182
   12  N  1 ZZ   -0.000142   0.000231   0.023273  -0.002333   0.001530
   13  N  1 XY    0.000186   0.001521   0.001329   0.004175  -0.016394
   14  N  1 XZ   -0.000093  -0.002066   0.000302   0.019173  -0.007613
   15  N  1 YZ    0.000157   0.001846   0.002497   0.004104   0.022938
   16  H  2  S   -0.001881   0.217333   0.111460  -0.112092   0.358070
   17  H  2  S    0.000279   0.009083   0.024780  -0.018512   0.095011
   18  H  2  X   -0.000501   0.019119   0.012084   0.015530   0.017525
   19  H  2  Y    0.000720  -0.027430  -0.018087   0.019380  -0.014902
   20  H  2  Z    0.000551  -0.017970   0.018613   0.005051  -0.022786
   21  H  3  S   -0.001565   0.163438   0.079897  -0.297012  -0.203639
   22  H  3  S    0.000455  -0.001041   0.028874  -0.043482  -0.062697
   23  H  3  X   -0.000657   0.023863   0.009805  -0.023254  -0.025582
   24  H  3  Y   -0.000501   0.019109   0.005278  -0.027682   0.005383
   25  H  3  Z    0.000341  -0.005256   0.021508   0.008412   0.007691
   26  H  4  S   -0.001687   0.164622   0.126260   0.346728  -0.048798
   27  H  4  S    0.000542  -0.000473   0.034136   0.051479  -0.026623
   28  H  4  X    0.000856  -0.030932  -0.014131  -0.035731  -0.007686
   29  H  4  Y    0.000289  -0.008942  -0.007135  -0.014010   0.019827
   30  H  4  Z    0.000322  -0.004029   0.019623  -0.013124   0.002849

                      6          7          8
                    0.0325     0.0218     0.0199
                     A          A          A   
    1  N  1  S   -0.125960  -0.164162   0.065899
    2  N  1  S   -0.416822  -0.568733   0.208714
    3  N  1  S    0.019184  -0.194131   0.024895
    4  N  1  X   -0.250802   0.404157   0.773183
    5  N  1  Y    0.603834  -0.281853   0.476495
    6  N  1  Z   -0.158169  -0.627608   0.157314
    7  N  1  X    0.016521   0.070107   0.060502
    8  N  1  Y   -0.042356  -0.053379   0.046119
    9  N  1  Z    0.061491   0.074849  -0.037970
   10  N  1 XX    0.037475   0.019283   0.031882
   11  N  1 YY   -0.033133  -0.021173  -0.034926
   12  N  1 ZZ   -0.004342   0.001890   0.003044
   13  N  1 XY    0.060332   0.001406  -0.031477
   14  N  1 XZ   -0.003609  -0.040415  -0.039905
   15  N  1 YZ   -0.003618   0.034530  -0.036569
   16  H  2  S   -0.426829   0.723327  -0.118889
   17  H  2  S   -0.147898   0.131270  -0.026617
   18  H  2  X   -0.010269   0.022126  -0.048551
   19  H  2  Y    0.005303  -0.065855  -0.012048
   20  H  2  Z    0.022301   0.001086   0.000816
   21  H  3  S    0.561511   0.363391   0.448054
   22  H  3  S    0.133821   0.044714   0.122143
   23  H  3  X    0.056830   0.027535   0.026628
   24  H  3  Y    0.016372   0.042944   0.032368
   25  H  3  Z   -0.001137   0.027297   0.012855
   26  H  4  S    0.452535   0.147037  -0.677009
   27  H  4  S    0.092201  -0.005317  -0.144179
   28  H  4  X   -0.034949  -0.028087   0.070092
   29  H  4  Y   -0.032242  -0.003181   0.015172
   30  H  4  Z   -0.002317   0.013452  -0.025061

          ------------------------
          MCSCF OPTIMIZED ORBITALS
          ------------------------

                      1          2          3          4          5
                  -15.9799     0.0000     0.0000     0.0000     0.0000
                     A          A          A          A          A   
    1  N  1  S    1.001108  -0.002269  -0.006467   0.007881  -0.016386
    2  N  1  S   -0.001993   0.399337   0.009206  -0.013019  -0.197247
    3  N  1  S   -0.006354   0.319583   0.054665  -0.095453  -0.276066
    4  N  1  X    0.000002  -0.009382   0.395864  -0.041550   0.024125
    5  N  1  Y    0.000097   0.017529   0.000642   0.441600  -0.026000
    6  N  1  Z    0.001077   0.051433  -0.003842   0.009490   0.578733
    7  N  1  X   -0.000002   0.008990   0.190831  -0.046192   0.045667
    8  N  1  Y    0.000024  -0.019068  -0.024669   0.273272  -0.063023
    9  N  1  Z   -0.000493   0.019122   0.027076  -0.041513   0.390889
   10  N  1 XX    0.000230   0.003809   0.002245  -0.012116  -0.009785
   11  N  1 YY   -0.000088  -0.003815  -0.001406   0.011436  -0.013376
   12  N  1 ZZ   -0.000142   0.000007  -0.000839   0.000679   0.023161
   13  N  1 XY    0.000186   0.004870   0.012843  -0.020158   0.003409
   14  N  1 XZ   -0.000093  -0.002799   0.024303  -0.001740  -0.001814
   15  N  1 YZ    0.000157   0.002360   0.001190   0.024780   0.003453
   16  H  2  S   -0.001881   0.213646  -0.207420   0.381474   0.120197
   17  H  2  S    0.000279   0.004573  -0.043669   0.104255   0.024057
   18  H  2  X   -0.000501   0.019448   0.014767   0.023873   0.011434
   19  H  2  Y    0.000720  -0.028792   0.023783  -0.011585  -0.020314
   20  H  2  Z    0.000551  -0.015697   0.013108  -0.024756   0.017886
   21  H  3  S   -0.001565   0.199494  -0.260423  -0.327208   0.122145
   22  H  3  S    0.000455   0.006959  -0.030727  -0.088715   0.035395
   23  H  3  X   -0.000657   0.027682  -0.017011  -0.035474   0.013323
   24  H  3  Y   -0.000501   0.020360  -0.030922  -0.002609   0.008766
   25  H  3  Z    0.000341  -0.004491   0.006951   0.008302   0.020906
   26  H  4  S   -0.001687   0.200995   0.424162   0.011787   0.120499
   27  H  4  S    0.000542   0.006195   0.074763  -0.020253   0.033574
   28  H  4  X    0.000856  -0.034083  -0.039823  -0.015562  -0.013680
   29  H  4  Y    0.000289  -0.011674  -0.020847   0.018527  -0.006569
   30  H  4  Z    0.000322  -0.003619  -0.009616   0.000055   0.020843

                      6          7          8          9         10
                    0.0000     0.0000     0.0000     0.1555     0.2077
                     A          A          A          A          A   
    1  N  1  S    0.213158   0.032285  -0.022136  -0.140102   0.003295
    2  N  1  S    0.746404   0.089472  -0.070207  -0.213922  -0.001506
    3  N  1  S    0.179798  -0.058744   0.089425   1.374553  -0.082503
    4  N  1  X   -0.053517   0.947522  -0.010123   0.030146   0.150155
    5  N  1  Y    0.058134   0.116260   0.857803  -0.041203   0.085098
    6  N  1  Z    0.667429  -0.043833   0.117389  -0.217639   0.003933
    7  N  1  X   -0.047701   0.094024   0.009833  -0.133741  -0.797988
    8  N  1  Y    0.062612   0.027030   0.033025   0.155787  -0.340479
    9  N  1  Z   -0.087919  -0.012185  -0.009932   0.472794   0.013234
   10  N  1 XX   -0.026246   0.023781   0.038501   0.060161  -0.024215
   11  N  1 YY    0.024651  -0.028926  -0.034687  -0.016531   0.013734
   12  N  1 ZZ    0.001594   0.005145  -0.003814  -0.043630   0.010481
   13  N  1 XY   -0.034448  -0.044255   0.034223   0.043265  -0.020130
   14  N  1 XZ    0.028012  -0.047115  -0.007710  -0.042917  -0.094043
   15  N  1 YZ   -0.036999  -0.017511  -0.028050   0.053724  -0.033522
   16  H  2  S   -0.459440   0.288296  -0.614100   0.210651   0.126447
   17  H  2  S   -0.055575   0.068942  -0.169302  -0.747771  -0.424510
   18  H  2  X   -0.024452  -0.029239  -0.035528  -0.073275  -0.009769
   19  H  2  Y    0.050544  -0.035756   0.020316   0.052991   0.008781
   20  H  2  Z   -0.010207  -0.004009   0.015557   0.072595   0.021071
   21  H  3  S   -0.449414   0.338658   0.514408   0.376132   0.333844
   22  H  3  S   -0.068605   0.081059   0.141739  -0.916010  -1.204040
   23  H  3  X   -0.040957   0.015269   0.046427  -0.074594  -0.061568
   24  H  3  Y   -0.036506   0.037128   0.013517  -0.025006  -0.032321
   25  H  3  Z   -0.020091   0.023152  -0.004208   0.026696   0.070712
   26  H  4  S   -0.462642  -0.632957   0.027386   0.334738  -0.502475
   27  H  4  S   -0.066264  -0.148804   0.011938  -0.804153   1.788715
   28  H  4  X    0.053405   0.057323   0.010038   0.082525  -0.090323
   29  H  4  Y    0.018963   0.019789  -0.017078   0.025068  -0.045137
   30  H  4  Z   -0.015991  -0.016452  -0.018156   0.002790  -0.072153

                     11         12         13         14         15
                    0.2283     0.5348     0.6262     0.6939     0.7561
                     A          A          A          A          A   
    1  N  1  S    0.033669   0.080731   0.075222   0.019150  -0.153978
    2  N  1  S    0.072970   0.119374   0.300039   0.042746  -0.370770
    3  N  1  S   -0.183918  -0.409908   0.255246  -0.054801   0.505963
    4  N  1  X    0.034187   0.312585   0.097575  -0.404325  -0.043372
    5  N  1  Y    0.012216  -0.562816  -0.209348  -0.258168  -0.018152
    6  N  1  Z    0.050068   0.409282  -0.567922   0.000757   0.177351
    7  N  1  X    0.018233  -0.637677  -0.510664   1.718478   0.153855
    8  N  1  Y   -0.432405   1.029420   0.815650   0.951460  -0.047407
    9  N  1  Z   -0.178265  -0.441636   1.082422  -0.055758  -0.226116
   10  N  1 XX    0.039108   0.007300  -0.072309  -0.029288  -0.128367
   11  N  1 YY   -0.024620   0.010094   0.028718   0.018864   0.148904
   12  N  1 ZZ   -0.014488  -0.017394   0.043591   0.010424  -0.020537
   13  N  1 XY    0.083690  -0.018177  -0.000092   0.026336   0.106837
   14  N  1 XZ    0.023585  -0.013447   0.029742  -0.089914   0.020158
   15  N  1 YZ   -0.075775   0.021565  -0.030064  -0.053446   0.051302
   16  H  2  S   -0.621795  -0.127427  -0.794002   0.024888   0.171677
   17  H  2  S    2.156123  -0.733452  -0.535692   0.001122  -0.024642
   18  H  2  X    0.047629  -0.072966   0.057102  -0.065649   0.390571
   19  H  2  Y   -0.075521   0.057973   0.127650  -0.108547   0.281761
   20  H  2  Z   -0.063412   0.051822   0.063592   0.024390   0.032950
   21  H  3  S    0.459072   0.267957  -0.275544   0.675150   0.237696
   22  H  3  S   -1.476055   0.441398   0.377989   0.606399  -0.165101
   23  H  3  X   -0.030955   0.002937   0.037631   0.218270   0.108503
   24  H  3  Y   -0.028243   0.044498  -0.106214   0.104079  -0.390409
   25  H  3  Z    0.006998  -0.065814   0.006144   0.165704  -0.125888
   26  H  4  S    0.231251   0.326320  -0.351937  -0.685061  -0.123739
   27  H  4  S   -0.635160   0.417983   0.388130  -0.583032  -0.194134
   28  H  4  X   -0.009831  -0.035074  -0.072726   0.180227  -0.171213
   29  H  4  Y    0.015034  -0.006454   0.057134   0.131399   0.287796
   30  H  4  Z   -0.007339  -0.057909   0.075254  -0.160224   0.126322

                     16         17         18         19         20
                    0.9922     1.0310     1.1879     1.3778     1.4025
                     A          A          A          A          A   
    1  N  1  S   -0.581345  -0.283957   0.005611  -0.306386  -0.306380
    2  N  1  S   -1.233616  -0.599090   0.013022  -0.653443  -0.641415
    3  N  1  S    2.422162   1.342841  -0.035900   1.049649   1.221398
    4  N  1  X    0.067066  -0.028618  -0.266047   0.046263  -0.052696
    5  N  1  Y   -0.061824  -0.042784  -0.166204  -0.048477   0.080929
    6  N  1  Z    0.155156   0.063227  -0.013586  -0.051723  -0.017527
    7  N  1  X   -0.322314   0.035963   1.044792   0.267346  -0.222678
    8  N  1  Y    0.398378   0.384395   0.499481  -0.253840   0.388182
    9  N  1  Z    0.059668   0.482761  -0.055022   0.444650   0.636484
   10  N  1 XX   -0.074102   0.047767   0.100356   0.053102   0.065684
   11  N  1 YY   -0.132030   0.114170  -0.114231   0.149808  -0.055039
   12  N  1 ZZ    0.206132  -0.161936   0.013875  -0.202910  -0.010645
   13  N  1 XY   -0.005077  -0.141959  -0.060695  -0.019508   0.049221
   14  N  1 XZ    0.037012   0.070348   0.071894  -0.014192   0.029277
   15  N  1 YZ   -0.067224  -0.180666   0.078696   0.034847  -0.086945
   16  H  2  S   -0.524875  -0.295618   0.038212  -0.254761  -0.395378
   17  H  2  S   -0.372850  -0.237924   0.028619  -0.015512  -0.348840
   18  H  2  X   -0.023112  -0.286485   0.194390  -0.132683  -0.043925
   19  H  2  Y   -0.128319   0.400425   0.031133  -0.026698   0.072626
   20  H  2  Z    0.291960  -0.463159   0.004027  -0.374241   0.459416
   21  H  3  S   -0.356352  -0.070503   0.573586  -0.219902  -0.357353
   22  H  3  S   -0.271912  -0.097621   0.203116  -0.093063   0.067915
   23  H  3  X   -0.045831   0.026527  -0.439826  -0.340163   0.069780
   24  H  3  Y    0.043160  -0.245194   0.205847   0.463832  -0.031685
   25  H  3  Z    0.336900   0.007282  -0.385025  -0.185722  -0.613997
   26  H  4  S   -0.269768  -0.265681  -0.543541  -0.306714  -0.341291
   27  H  4  S   -0.296755  -0.223978  -0.241806  -0.157175   0.011730
   28  H  4  X    0.054719   0.258961  -0.069856  -0.231710   0.053183
   29  H  4  Y   -0.022941  -0.284462  -0.374353   0.639908  -0.186193
   30  H  4  Z    0.288782  -0.011516   0.415627  -0.104452  -0.620700

                     21         22         23         24         25
                    1.6660     1.7616     1.8821     1.9357     2.1327
                     A          A          A          A          A   
    1  N  1  S    0.056643   0.060246  -0.161702   0.156634   0.064765
    2  N  1  S    0.081585   0.219785  -0.386918   0.353202   0.122403
    3  N  1  S   -0.509304   0.835065  -0.083164  -0.031381  -0.278121
    4  N  1  X    0.032360   0.088830   0.512110   0.217262  -0.055102
    5  N  1  Y    0.122142   0.067659  -0.069168   0.372138   0.038722
    6  N  1  Z   -0.012121   0.135630  -0.206618   0.147407   0.013490
    7  N  1  X    0.792285   0.339702   0.064412   0.152281  -0.035095
    8  N  1  Y    0.423567   0.138006   0.263477  -0.143707   0.092541
    9  N  1  Z   -0.215923   0.296944   0.001732  -0.052662  -0.393362
   10  N  1 XX   -0.029004  -0.143876  -0.005838  -0.146518  -0.020383
   11  N  1 YY   -0.000343   0.051276   0.143535   0.048660   0.846627
   12  N  1 ZZ    0.029347   0.092600  -0.137697   0.097858  -0.826244
   13  N  1 XY    0.100017  -0.109499  -0.018832   0.150006  -0.193381
   14  N  1 XZ   -0.069025  -0.013910  -0.236138  -0.039340   0.225300
   15  N  1 YZ   -0.067369  -0.133023   0.099882  -0.218753  -0.233107
   16  H  2  S    0.221389  -0.154030  -0.117445   0.078511   0.092713
   17  H  2  S   -0.164917   0.192397   0.322398  -0.279497  -0.063083
   18  H  2  X   -0.689731  -0.283453   0.546799   0.067805   0.044249
   19  H  2  Y   -0.183750  -0.271986  -0.502833   0.762624  -0.312944
   20  H  2  Z    0.037626   0.175374  -0.344795   0.238060   0.623652
   21  H  3  S    0.325400   0.014877   0.030722   0.069817   0.118397
   22  H  3  S    0.452773  -0.286794   0.212025   0.326300   0.031051
   23  H  3  X    0.549366  -0.524369   0.511190   0.112319  -0.015691
   24  H  3  Y   -0.022642  -0.460269   0.182252   0.744703   0.143921
   25  H  3  Z   -0.462542  -0.346200  -0.359478  -0.076967   0.217331
   26  H  4  S   -0.250988  -0.205068  -0.038340  -0.017257   0.115039
   27  H  4  S   -0.029868  -0.496995  -0.307189  -0.174606   0.085469
   28  H  4  X   -0.317212   0.732275   0.494607   0.499562  -0.109638
   29  H  4  Y    0.047507   0.454625  -0.171055   0.163677  -0.166895
   30  H  4  Z    0.579166   0.146307   0.214736   0.274916   0.184569

                     26         27         28         29
                    2.2508     2.5608     2.6109     3.1067
                     A          A          A          A   
    1  N  1  S    0.057345  -0.028811  -0.170059  -0.078304
    2  N  1  S    0.109517  -0.013795  -0.177974  -0.068725
    3  N  1  S   -0.236786   0.692115   2.375692   0.938941
    4  N  1  X    0.060428   0.310153  -0.239410   0.232978
    5  N  1  Y    0.063488   0.258098   0.210257  -0.268404
    6  N  1  Z    0.010556   0.093722   0.316544   0.017248
    7  N  1  X   -0.006835   1.041971  -0.787046   0.348724
    8  N  1  Y   -0.120532   0.835534   0.544565  -0.370332
    9  N  1  Z   -0.198782   0.212143   0.741117   0.009315
   10  N  1 XX    0.820259   0.237492   0.385410   0.937711
   11  N  1 YY   -0.592205  -0.111086   0.086339  -0.379281
   12  N  1 ZZ   -0.228054  -0.126405  -0.471749  -0.558431
   13  N  1 XY   -0.662482  -0.094200   0.074004   1.262821
   14  N  1 XZ   -0.064193   0.880662  -0.860542   0.285728
   15  N  1 YZ   -0.302472   0.830551   0.701262  -0.435457
   16  H  2  S    0.097410  -0.360765  -1.396326   0.795424
   17  H  2  S    0.011736  -0.168641  -0.549866   0.218156
   18  H  2  X    0.391938  -0.353062  -0.454719   0.354422
   19  H  2  Y    0.166419   0.078243   0.719498  -0.539519
   20  H  2  Z    0.224811   0.154392   0.580030  -0.443114
   21  H  3  S    0.081966   0.668089  -0.805098  -0.801216
   22  H  3  S    0.089378   0.368239  -0.162937  -0.227217
   23  H  3  X    0.318179   0.584526  -0.347428  -0.625430
   24  H  3  Y   -0.115524   0.228252  -0.379213  -0.455247
   25  H  3  Z   -0.026266   0.007922   0.223029   0.396026
   26  H  4  S    0.053276  -1.037084  -0.357036  -0.944534
   27  H  4  S   -0.039279  -0.422711   0.012616  -0.270511
   28  H  4  X   -0.093738   0.767000   0.235606   0.764125
   29  H  4  Y    0.497042   0.315930  -0.090871   0.292147
   30  H  4  Z    0.189089   0.024682   0.212536   0.405982
 .....DONE WITH MCSCF ITERATIONS.....
 CPU     0: STEP CPU TIME=    11.25 TOTAL CPU TIME=         12.4 (      0.2 MIN)
 TOTAL WALL CLOCK TIME=         12.4 SECONDS, CPU UTILIZATION IS    99.84%

     ----------------------------------------------------------------
     PROPERTY VALUES FOR THE MCSCF SELF-CONSISTENT FIELD WAVEFUNCTION
     ----------------------------------------------------------------

          -----------------
          ENERGY COMPONENTS
          -----------------

         WAVEFUNCTION NORMALIZATION =       1.0000000000

                ONE ELECTRON ENERGY =     -93.9128728010
                TWO ELECTRON ENERGY =      27.0162418714
           NUCLEAR REPULSION ENERGY =      11.1691881685
                                      ------------------
                       TOTAL ENERGY =     -55.7274427612

 ELECTRON-ELECTRON POTENTIAL ENERGY =      27.0162418714
  NUCLEUS-ELECTRON POTENTIAL ENERGY =    -149.6256569146
   NUCLEUS-NUCLEUS POTENTIAL ENERGY =      11.1691881685
                                      ------------------
             TOTAL POTENTIAL ENERGY =    -111.4402268748
               TOTAL KINETIC ENERGY =      55.7127841135
                 VIRIAL RATIO (V/T) =       2.0002631110

          ---------------------------------------
          MULLIKEN AND LOWDIN POPULATION ANALYSES
          ---------------------------------------

     ATOMIC MULLIKEN POPULATION IN EACH MOLECULAR ORBITAL

                      1          2          3          4          5

                  2.000000   1.982032   1.654899   1.647280   1.641542

    1             2.000687   1.351341   1.537654   0.900828   1.126734
    2            -0.000310   0.291044   0.046719   0.048366   0.357741
    3            -0.000171   0.169309   0.022371   0.295730   0.140676
    4            -0.000206   0.170337   0.048155   0.402357   0.016391

                      6          7          8

                  0.032523   0.021825   0.019900

    1             0.014046   0.011768   0.010924
    2             0.004031   0.007558   0.000252
    3             0.008786   0.002211   0.002594
    4             0.005659   0.000287   0.006131
 WARNING! MCSCF POPULATIONS SHOWN ABOVE ARE FOR THE NATURAL ORBITALS.
 IGNORE THE ABOVE DATA FOR MCSCF FUNCTIONS WHICH ARE NOT OF -FORS- TYPE.
 THE FOLLOWING POPULATIONS ARE CORRECT FOR ANY MCSCF WAVEFUNCTION.

               ----- POPULATIONS IN EACH AO -----
                             MULLIKEN      LOWDIN
              1  N  1  S      2.00233     1.90284
              2  N  1  S      0.82143     0.57786
              3  N  1  S      0.69113     0.41248
              4  N  1  X      0.65236     0.57429
              5  N  1  Y      0.71831     0.65707
              6  N  1  Z      0.86840     0.81596
              7  N  1  X      0.28366     0.39907
              8  N  1  Y      0.37168     0.44808
              9  N  1  Z      0.52711     0.56619
             10  N  1 XX      0.00065     0.18089
             11  N  1 YY      0.00155     0.15613
             12  N  1 ZZ      0.00473     0.14423
             13  N  1 XY      0.00526     0.01213
             14  N  1 XZ      0.00538     0.01057
             15  N  1 YZ      0.00000     0.01026
             16  H  2  S      0.63939     0.49419
             17  H  2  S      0.05496     0.14732
             18  H  2  X      0.01705     0.03108
             19  H  2  Y      0.02384     0.04581
             20  H  2  Z      0.02016     0.04463
             21  H  3  S      0.54237     0.42267
             22  H  3  S      0.04544     0.15083
             23  H  3  X      0.02499     0.04311
             24  H  3  Y      0.01731     0.03302
             25  H  3  Z      0.01140     0.02794
             26  H  4  S      0.55534     0.43454
             27  H  4  S      0.03868     0.14964
             28  H  4  X      0.03215     0.05244
             29  H  4  Y      0.01183     0.02615
             30  H  4  Z      0.01111     0.02859

          ----- MULLIKEN ATOMIC OVERLAP POPULATIONS -----
          (OFF-DIAGONAL ELEMENTS NEED TO BE MULTIPLIED BY 2)

             1           2           3           4

    1    6.1037324
    2    0.2841077   0.4863413
    3    0.2754841  -0.0087018   0.3804366
    4    0.2906586  -0.0063465  -0.0057138   0.3705126

          TOTAL MULLIKEN AND LOWDIN ATOMIC POPULATIONS
       ATOM         MULL.POP.    CHARGE          LOW.POP.     CHARGE
    1 N             6.953983    0.046017         6.868035    0.131965
    2 H             0.755401    0.244599         0.763045    0.236955
    3 H             0.641505    0.358495         0.677567    0.322433
    4 H             0.649111    0.350889         0.691353    0.308647

          MULLIKEN SPHERICAL HARMONIC POPULATIONS
       ATOM           S       P       D      F      G      H      I    TOTAL
    1 N             3.51    3.42    0.02   0.00   0.00   0.00   0.00    6.95
    2 H             0.69    0.06    0.00   0.00   0.00   0.00   0.00    0.76
    3 H             0.59    0.05    0.00   0.00   0.00   0.00   0.00    0.64
    4 H             0.59    0.06    0.00   0.00   0.00   0.00   0.00    0.65

          ---------------------
          ELECTROSTATIC MOMENTS
          ---------------------

 POINT   1           X           Y           Z (BOHR)    CHARGE
                -0.000003    0.000003   -0.177185        1.00 (A.U.)
         DX          DY          DZ         /D/  (DEBYE)
    -0.479886    0.589659    2.123945    2.255910
 ...... END OF PROPERTY EVALUATION ......
 CPU     0: STEP CPU TIME=     0.01 TOTAL CPU TIME=         12.4 (      0.2 MIN)
 TOTAL WALL CLOCK TIME=         12.4 SECONDS, CPU UTILIZATION IS    99.84%

     -------------------------------------------------
     GMC-PT/GMC-QDPT or general MCSCF input parameters
     -------------------------------------------------
 # of frozen core orbs. =         0 ->         0
 # of doubly occ. orbs. =         1
 # of active      orbs. =         7
 # of virtual     orbs. =        21
 # of active electrons  =         7
 # of states in CI      =         3
 Highest state in CI    =         3
 kstate =  1 1 1
 avecoe =  0.333 0.333 0.333
 State symmetry           = A           
 Assigned symmetry number = 1

 <<<Act. MO sym.: 1111111

 <<<Division of 1-ext.:  0
 <<<Division of 2-ext.:  0

     ------------------------
     Orbital canonicalization
     ------------------------

 MOs are canonicalized for core, virtual, and invariant-active orbital spaces.
 This is a part of the GMC-QDPT calculation.
 SCHWARZ INEQUALITY OVERHEAD:       465 INTEGRALS, T=        0.00
 DIRECT TRANSFORMATION SKIPS AO INTEGRAL STORAGE ON DISK.

 Averaged energy =     -55.727442761

 State #    1  Energy =     -55.866968557  S =  0.500
 State #    2  Energy =     -55.720686789  S =  0.500
 State #    3  Energy =     -55.594672938  S =  0.500

 Orbital energies for filled orbital space
  -15.979941
 Orbital energies for active orbital space
   -1.501076  -0.962980  -0.841201  -0.726738   0.349137
    0.384755   0.154088
 Orbital energies for external orbital space
    0.155510   0.207742   0.228313   0.534829   0.626217
    0.693874   0.756144   0.992218   1.030994   1.187872
    1.377804   1.402538   1.666044   1.761642   1.882094
    1.935726   2.132688   2.250791   2.560849   2.610929
    3.106669

 Zero values mean non-canonical orbitals.
 ... done with orbital canonicalization ...
 CPU     0: STEP CPU TIME=     0.72 TOTAL CPU TIME=         13.1 (      0.2 MIN)
 TOTAL WALL CLOCK TIME=         13.1 SECONDS, CPU UTILIZATION IS    99.85%

     --------------------------------------------
     PARTIAL TWO ELECTRON INTEGRAL TRANSFORMATION
     --------------------------------------------

 NUMBER OF CORE MOLECULAR ORBITALS     =    0
 NUMBER OF OCCUPIED MOLECULAR ORBITALS =    8
 TOTAL NUMBER OF MOLECULAR ORBITALS    =   29
 TOTAL NUMBER OF ATOMIC ORBITALS       =   30
 THRESHOLD FOR KEEPING TRANSFORMED 2E- INTEGRALS = 1.000E-09
 AO INTEGRALS WILL BE CALCULATED IN DIRECT MODE...
 DIRECT TRANSFORMATION SKIPS AO INTEGRAL STORAGE ON DISK.
 SCHWARZ INEQUALITY OVERHEAD:       465 INTEGRALS, T=        0.00

 PLAN A: REQUIREMENTS FOR FULLY IN-MEMORY TRANSFORMATION:
 # OF WORDS AVAILABLE =            100000000
 # OF WORDS NEEDED    =               221798

 PARALLEL ONLY WORKS WITH THE SEGMENTED ALGORITHM.
 ADJUSTING MEMORY TO USE SEGMENTED ALGORITHM.


 PLAN B: REQUIREMENTS FOR THE SEGMENTED TRANSFORMATION:
       MINIMUM=         124148 WORDS FOR 1 MOLECULAR ORBITAL PER PASS
       MAXIMUM=         221798 WORDS FOR ALL MOLECULAR ORBITALS IN 1 PASS
              (          13950 EXTRA WORDS INCLUDES 1 EXTRA ORBITAL/PASS)
 THIS RUN USES=         221798 WORDS,
 DISTRIBUTING   1 PASSES EACH CONTAINING     8 ORBITALS OVER   1 PROCESSORS.

 CHOOSING SEGMENTED PARTIAL TRANSFORMATION...
 DIRECT TRANSFORMATION SKIPS AO INTEGRAL STORAGE ON DISK.
 PASS #   1 TOOK        0.04 SECONDS.
 TOTAL NUMBER OF TRANSFORMED 2E- INTEGRALS KEPT =        29226
 ... END OF INTEGRAL TRANSFORMATION ...
 CPU     0: STEP CPU TIME=     0.04 TOTAL CPU TIME=         13.2 (      0.2 MIN)
 TOTAL WALL CLOCK TIME=         13.2 SECONDS, CPU UTILIZATION IS    99.85%

     --------     ------------------------------------------
     GMC-QDPT     Program written by H.Nakano (Kyushu Univ.)
     --------     ------------------------------------------

 *** Reference space

 Reference type: ORMAS (= Occupation restricted multiple active space)
 # of orbitals          =  7
 # of minimum electrons =  7
 # of maximum electrons =  7
 State symmetry    =    1 (input)
 2*Sz              =    1 (input)
 Spin multiplicity =    2 (input)
 Dimension of reference space =      1225  (from      3432 walks)

 Dimension of reference space =      1225  (from      1225 walks)

 <<<Ionized spaces for Ref-CI:
      0:         1225 /   -1-0:         1960 /  0-1-0:         2891

 ***                    ***
 *** Reference space CI ***
 ***                    ***

 Converged after   49 iterations

 Reference wavefunctions:

 State #    1  Energy =     -55.866968557  S =  0.500

      Det      Coef    Occupancy (Ignoring core)
      ---      ----    --------- --------- -----
        1   -0.973738  11110001110000
       36    0.075043  11110001101000
      143   -0.050609  11011001100100
      393   -0.056748  10110101010010
      717   -0.058524  11010011100001

 State #    2  Energy =     -55.720686789  S =  0.500

      Det      Coef    Occupancy (Ignoring core)
      ---      ----    --------- --------- -----
        1    0.079234  11110001110000
       36    0.977390  11110001101000
      463    0.058345  10110101001010

 State #    3  Energy =     -55.594672938  S =  0.500

      Det      Coef    Occupancy (Ignoring core)
      ---      ----    --------- --------- -----
       71   -0.977648  11110001011000
      248    0.052238  11011001001100
      822    0.060051  11010011001001

 Davidson method: CPU/Wall time =           0.58 /           0.57 sec.

 Oscillator strength (invalid if E(1)/=E(GS)):
 -----------------------------------------
   State                        f
 -----------------------------------------
     2     F(REF-CI)=        0.0028555429
     3     F(REF-CI)=        0.0031932213
 -----------------------------------------

 Dipole moment matrix elements, x, y, z, in A.U.

 Dimension of ionized spaces for PT:
 (N-2) space:         1715 /  (N-1) space:         2842 /  N space:         2891
 (N+1) space:         2842 /  (N+2) space:         1715

 <<<Ionized spaces for internal:
         0:         1225 /      -1-0:         1960 /     0-1-0:         2891
  -1-0-1-0:         2842 / 0-1-0-1-0:         3381

 Diagonal elements of averaged one-particle density matrix:
       2       3       4       5       6       7       8
  0.9933  0.9867  0.9853  0.9915  0.0123  0.0118  0.0191
  0.9886  0.6604  0.6575  0.6620  0.0098  0.0084  0.0134

 Orbital energies:
 -------- Doubly-occupied orbitals (highest several orbs.) -------
             1
 -1.597994D+01
 -------- Active orbitals ----------------------------------------
             2            3            4            5            6
 -1.501076D+00-9.629801D-01-8.412014D-01-7.267375D-01 3.491366D-01
             7            8
  3.847550D-01 1.540885D-01
 -------- External orbitals (lowest several orbs.) ---------------
             9           10           11           12           13
  1.555101D-01 2.077421D-01 2.283125D-01 5.348294D-01 6.262174D-01
            14           15           16           17           18
  6.938737D-01 7.561439D-01 9.922175D-01 1.030994D+00 1.187872D+00

 *** Quasi-degeneracy checking

 === Det (|Ci| > 1.0D-01 and dE < 5.0D-03)

 # of small denominators (single excitations)
 State       dEmin  dE < 5.0D-03  dE < 5.0D-04  dE < 5.0D-05  dE < 5.0D-06
 ----- ----------- ------------- ------------- ------------- -------------
     1    5.00D-03             0             0             0             0
     2    5.00D-03             0             0             0             0
     3    5.00D-03             0             0             0             0

 # of small denominators (double excitations)
 State       dEmin  dE < 5.0D-03  dE < 5.0D-04  dE < 5.0D-05  dE < 5.0D-06
 ----- ----------- ------------- ------------- ------------- -------------
     1    5.00D-03             0             0             0             0
     2    5.00D-03             0             0             0             0
     3    5.00D-03             0             0             0             0

 *** Zeroth-Order Setup (Granovsky's zeroth-order vectors)
 Zeroth-order effective Hamiltonian
  (= Sum_i e(i)*<I|a+(i)a(i)|J> ):
                   1            2            3
     1 -7.230383D+00
     2  1.577435D-02-7.134886D+00
     3 -8.263935D-04-2.865683D-03-7.007470D+00

 Zeroth-order vectors:
 State #    1
       MC st            1           2           3
       Coeff    9.873D-01  -1.588D-01   1.600D-03
 State #    2
       MC st            2           1           3
       Coeff   -9.870D-01  -1.587D-01  -2.369D-02
 State #    3
       MC st            3           2           1
       Coeff    9.997D-01  -2.313D-02  -5.342D-03

 *** GMC-QDPT computation

 (Integral reading:  CPU/Wall time =           0.00 /           0.00 sec.)

 One-external:
   0 -ionized terms: CPU/Wall time =           0.03 /           0.03 sec.
 (-1)-ionized terms: CPU/Wall time =           0.09 /           0.09 sec.
 (+1)-ionized terms: CPU/Wall time =           0.02 /           0.02 sec.
 (+1)-ionized terms: CPU/Wall time =           0.01 /           0.00 sec.
 (+2)-ionized terms: CPU/Wall time =           0.00 /           0.00 sec.

 Internal:
 # of macro loops for internal contribution =         1 (input)
 Loop:    1
 Dimension of internal CISD space     =         0  (after screening)
 Space construction: CPU/Wall time =           0.02 /           0.02 sec.
 Internal terms:     CPU/Wall time =           0.00 /           0.00 sec.

 Two-external:
   0 -ionized terms: CPU/Wall time =           0.06 /           0.06 sec.
 (-1)-ionized terms: CPU/Wall time =           1.00 /           1.00 sec.
 (-2)-ionized terms: CPU/Wall time =           0.17 /           0.17 sec.

 Total time:         CPU/Wall time =           1.40 /           1.39 sec.

 ***                  ***
 *** GMC-QDPT Results ***
 ***                  ***

 Diagonal elements of effective Hamiltonian:
 Heff(  1) =   -55.96225831
 Heff(  2) =   -55.83186272
 Heff(  3) =   -55.70562696

 Off-diagonal elements of effective Hamiltonian:
                   1            2
     2  2.036155D-02
     3  6.937869D-04-2.926669D-03

 ******** GMC-QDPT energies ********
 ----------------------------------------------------------------------------
   State                        1st order                           2nd order
 ----------------------------------------------------------------------------
     1     E(REF-CI)=      -55.8669685565   E(GMC-QDPT2)=      -55.9653687388
     2     E(REF-CI)=      -55.7206867887   E(GMC-QDPT2)=      -55.8288202980
     3     E(REF-CI)=      -55.5946729384   E(GMC-QDPT2)=      -55.7055589470
 ----------------------------------------------------------------------------

 Excitation energies (invalid if E(1)/=E(GS)):
 ----------------------------------------------------------------------------
   State                        1st order                           2nd order
 ----------------------------------------------------------------------------

     TZ Sorted GMC-PT ENERGIES:
         1      -55.9653687388
         2      -55.8288202980
         3      -55.7055589470
     2     E(REF-CI)=        3.9805317 eV   E(GMC-QDPT2)=        3.7156742 eV
     3     E(REF-CI)=        7.4095450 eV   E(GMC-QDPT2)=        7.0697882 eV
 ----------------------------------------------------------------------------

 Main characters of perturbed GMC-QDPT states:

 State #    1  Energy =     -55.965368739  S =  0.500

      Det      Coef    Occupancy (Ignoring core)
      ---      ----    --------- --------- -----
        1   -0.974340  11110001110000
       36    0.067246  11110001101000
      143   -0.050714  11011001100100
      393   -0.056759  10110101010010
      717   -0.058368  11010011100001

 State #    2  Energy =     -55.828820298  S =  0.500

      Det      Coef    Occupancy (Ignoring core)
      ---      ----    --------- --------- -----
        1    0.071453  11110001110000
       36    0.977967  11110001101000
      463    0.058375  10110101001010

 State #    3  Energy =     -55.705558947  S =  0.500

      Det      Coef    Occupancy (Ignoring core)
      ---      ----    --------- --------- -----
       71   -0.977656  11110001011000
      248    0.052229  11011001001100
      822    0.060054  11010011001001

 <<<Max |V/de| = 2.534D-02  Thresh = 1.000D+00

 Oscillator strength (invalid if E(1)/=E(GS)):
 ----------------------------------------------------------------------------
   State                        1st order                           2nd order
 ----------------------------------------------------------------------------
     2     F(REF-CI)=        0.0028555429     F(GMC-PT2)=        0.0027577105
     3     F(REF-CI)=        0.0031932213     F(GMC-PT2)=        0.0031433738
 ----------------------------------------------------------------------------

 Dipole moment matrix elements, x, y, z, in A.U.
States    1    1       -0.1947216623        0.2329996505        0.6865886716
States    1    2       -0.0121268787       -0.0034997652        0.1735927742
States    1    3       -0.1194952125       -0.0550175154       -0.0290188334
States    2    1       -0.0121268787       -0.0034997652        0.1735927742
States    2    2       -0.1150005715        0.2841803921        0.3248562869
States    2    3        0.1986174444        0.1516178728        0.0015176830
States    3    1       -0.1194952125       -0.0550175154       -0.0290188334
States    3    2        0.1986174444        0.1516178728        0.0015176830
States    3    3       -0.3803680141        0.3574446892        0.2938704820

 Oscillator strength (valid only when positive): 
 ----------------------------------------------------------------------------
  States                        1st order                           2nd order
 ----------------------------------------------------------------------------
  1  1     F(REF-CI)=        0.0000000000     F(GMC-PT2)=        0.0000000000
  1  2     F(REF-CI)=       -0.0028555429     F(GMC-PT2)=       -0.0027577105
  1  3     F(REF-CI)=       -0.0031932213     F(GMC-PT2)=       -0.0031433738
  2  1     F(REF-CI)=        0.0028555429     F(GMC-PT2)=        0.0027577105
  2  2     F(REF-CI)=        0.0000000000     F(GMC-PT2)=        0.0000000000
  2  3     F(REF-CI)=       -0.0052918000     F(GMC-PT2)=       -0.0051308911
  3  1     F(REF-CI)=        0.0031932213     F(GMC-PT2)=        0.0031433738
  3  2     F(REF-CI)=        0.0052918000     F(GMC-PT2)=        0.0051308911
  3  3     F(REF-CI)=        0.0000000000     F(GMC-PT2)=        0.0000000000
 CPU     0: STEP CPU TIME=     2.04 TOTAL CPU TIME=         15.2 (      0.3 MIN)
 TOTAL WALL CLOCK TIME=         15.2 SECONDS, CPU UTILIZATION IS    99.87%

     !!! DIABATIZATION FOR REF CI STATES !!!

 *******************************************************
          $DMO GROUP FOUND IN THE INPUT.
        DIABATIZATION OF ADIABATIC STATES BEGINS.
     PROGRAMMED BY TAO ZENG (CARLETON UNIVERSITY).
               Email: toby.zeng@carleton.ca
     See T. Zeng, J. Chem. Phys. 2017, 146, 144103
 *******************************************************

 *************************************************************************
     STEP 1: TRANSFORMATION OF ADIABATIC STATES TO THE DMO REPRESENTATION
         See Atchity and Ruedenberg, J. Chem. Phys. 1999, 111, 2910
 *************************************************************************

Read in Diabatic Molecualr Orbitals:

                      1          2          3          4          5

    1  N  1  S    0.008609   0.000000   0.000000  -0.013219   0.279491
    2  N  1  S    0.442914  -0.000000   0.000000  -0.184329   0.867803
    3  N  1  S    0.276913   0.000000  -0.000000  -0.288315   0.144236
    4  N  1  X   -0.000000   0.493155  -0.024636  -0.000000  -0.000000
    5  N  1  Y    0.000000   0.024636   0.493155  -0.000000   0.000000
    6  N  1  Z    0.090197   0.000000   0.000000   0.593421   0.705309
    7  N  1  X   -0.000000   0.210628  -0.010522   0.000000   0.000000
    8  N  1  Y    0.000000   0.010522   0.210628  -0.000000  -0.000000
    9  N  1  Z   -0.004381   0.000000   0.000000   0.381592  -0.106092
   10  N  1 XX   -0.000457   0.010719  -0.000535  -0.012387   0.006153
   11  N  1 YY   -0.000457  -0.010719   0.000535  -0.012387   0.006153
   12  N  1 ZZ    0.000914  -0.000000   0.000000   0.024773  -0.012306
   13  N  1 XY    0.000000  -0.000618  -0.012377  -0.000000   0.000000
   14  N  1 XZ   -0.000000   0.026529  -0.001325  -0.000000   0.000000
   15  N  1 YZ    0.000000   0.001325   0.026529  -0.000000   0.000000
   16  H  2  S    0.194462  -0.176074   0.343485   0.112865  -0.523343
   17  H  2  S    0.003574  -0.023812   0.046452   0.024014  -0.054445
   18  H  2  X    0.018760   0.009101   0.022834   0.009336  -0.039151
   19  H  2  Y   -0.032493   0.022287  -0.020044  -0.016171   0.067811
   20  H  2  Z   -0.009251   0.008464  -0.016511   0.018769  -0.010566
   21  H  3  S    0.194462  -0.209430  -0.324227   0.112865  -0.523343
   22  H  3  S    0.003574  -0.028322  -0.043847   0.024014  -0.054445
   23  H  3  X    0.018760   0.006781  -0.023627   0.009336  -0.039151
   24  H  3  Y    0.032493  -0.024174  -0.017723   0.016171  -0.067811
   25  H  3  Z   -0.009251   0.010067   0.015585   0.018769  -0.010566
   26  H  4  S    0.194462   0.385503  -0.019258   0.112865  -0.523343
   27  H  4  S    0.003574   0.052134  -0.002604   0.024014  -0.054445
   28  H  4  X   -0.037519  -0.032295   0.001613  -0.018672   0.078302
   29  H  4  Y    0.000000   0.001067   0.021353  -0.000000   0.000000
   30  H  4  Z   -0.009251  -0.018530   0.000926   0.018769  -0.010566

                      6          7

    1  N  1  S    0.000000  -0.000000
    2  N  1  S    0.000000  -0.000000
    3  N  1  S   -0.000000   0.000000
    4  N  1  X   -0.930415  -0.002083
    5  N  1  Y   -0.002083   0.930415
    6  N  1  Z   -0.000000   0.000000
    7  N  1  X   -0.046866  -0.000105
    8  N  1  Y   -0.000105   0.046866
    9  N  1  Z   -0.000000   0.000000
   10  N  1 XX    0.001538   0.000003
   11  N  1 YY   -0.001538  -0.000003
   12  N  1 ZZ   -0.000000   0.000000
   13  N  1 XY   -0.000004   0.001776
   14  N  1 XZ    0.039985   0.000090
   15  N  1 YZ    0.000090  -0.039985
   16  H  2  S   -0.362630  -0.631354
   17  H  2  S   -0.065964  -0.114846
   18  H  2  X    0.002763  -0.037520
   19  H  2  Y    0.037435   0.040736
   20  H  2  Z    0.001882   0.003276
   21  H  3  S   -0.365454   0.629724
   22  H  3  S   -0.066477   0.114549
   23  H  3  X    0.002595   0.037532
   24  H  3  Y   -0.037617   0.040567
   25  H  3  Z    0.001896  -0.003268
   26  H  4  S    0.728084   0.001630
   27  H  4  S    0.132441   0.000297
   28  H  4  X   -0.062317  -0.000140
   29  H  4  Y    0.000055  -0.024345
   30  H  4  Z   -0.003778  -0.000008

NUMBER OF SUB ACTIVE SPACES:   1
ROTATE ACTIVE MOS TO DMOS IN EACH SUB-SPACE

SPACE  1:

OVERLAP BETWEEN ORTHONORMAL AND PRE-ORTHONORMAL REF. DMOS

             1           2           3           4           5

    1    0.9784835  -0.0179151   0.0322015  -0.0070520   0.0060756
    2   -0.0179151   1.0152051   0.0394870  -0.0239644   0.0404118
    3    0.0322015   0.0394870   0.9237603   0.0363397  -0.0500371
    4   -0.0070520  -0.0239644   0.0363397   0.9957872  -0.0100996
    5    0.0060756   0.0404118  -0.0500371  -0.0100996   1.1053850
    6    0.0009372   0.0292820   0.0365468  -0.0284421  -0.0065311
    7   -0.0001625  -0.0290325   0.0436148  -0.0317360  -0.0453802

             6           7

    1    0.0009372  -0.0001625
    2    0.0292820  -0.0290325
    3    0.0365468   0.0436148
    4   -0.0284421  -0.0317360
    5   -0.0065311  -0.0453802
    6    1.0406542   0.0188963
    7    0.0188963   1.0650423
REFERENCE DMOS AFTER ORTHONORMALIZATION:

                      1          2          3          4          5

    1  N  1  S    0.006489  -0.010556   0.013935  -0.011081   0.254126
    2  N  1  S    0.444895  -0.028054   0.033892  -0.175112   0.784650
    3  N  1  S    0.279719  -0.007135   0.009176  -0.287098   0.126811
    4  N  1  X    0.010849   0.514214  -0.015170  -0.012326  -0.023903
    5  N  1  Y   -0.015943   0.028160   0.496822   0.009327   0.056621
    6  N  1  Z    0.092168  -0.009303   0.005475   0.604698   0.645625
    7  N  1  X    0.004630   0.210417  -0.019532   0.004511  -0.008567
    8  N  1  Y   -0.007571   0.001998   0.227799  -0.007335   0.011604
    9  N  1  Z   -0.000180   0.013573  -0.021547   0.383931  -0.093530
   10  N  1 XX   -0.000393   0.010052  -0.000286  -0.012108   0.005088
   11  N  1 YY   -0.000864  -0.011159   0.001995  -0.012786   0.005923
   12  N  1 ZZ    0.001257   0.001107  -0.001709   0.024894  -0.011012
   13  N  1 XY    0.000455   0.000012  -0.013588   0.000577  -0.000519
   14  N  1 XZ    0.000583   0.025297  -0.004169   0.001848  -0.000864
   15  N  1 YZ   -0.001053  -0.001061   0.030735  -0.002406  -0.000185
   16  H  2  S    0.186459  -0.172627   0.387691   0.061652  -0.477789
   17  H  2  S    0.001840  -0.024583   0.055644   0.015658  -0.050645
   18  H  2  X    0.018845   0.008886   0.023100   0.007387  -0.036252
   19  H  2  Y   -0.032658   0.019603  -0.020927  -0.012281   0.061654
   20  H  2  Z   -0.008421   0.009881  -0.019651   0.019849  -0.010392
   21  H  3  S    0.213521  -0.138627  -0.397216   0.130424  -0.463987
   22  H  3  S    0.005628  -0.018301  -0.053124   0.026859  -0.046666
   23  H  3  X    0.020700   0.010888  -0.030950   0.011763  -0.035747
   24  H  3  Y    0.034210  -0.017395  -0.023912   0.016493  -0.060515
   25  H  3  Z   -0.009604   0.009793   0.015671   0.018289  -0.009115
   26  H  4  S    0.212691   0.389989  -0.103845   0.142470  -0.488689
   27  H  4  S    0.005451   0.051007  -0.014037   0.028959  -0.050824
   28  H  4  X   -0.039905  -0.034579   0.011630  -0.021192   0.072382
   29  H  4  Y   -0.000831  -0.000630   0.024389  -0.001683   0.000132
   30  H  4  Z   -0.009624  -0.017620   0.001029   0.018143  -0.008678

                      6          7

    1  N  1  S    0.000919   0.009624
    2  N  1  S   -0.001138   0.026150
    3  N  1  S   -0.007360  -0.003549
    4  N  1  X   -0.908998   0.027426
    5  N  1  Y   -0.035185   0.857329
    6  N  1  Z    0.019753   0.044714
    7  N  1  X   -0.050333   0.007100
    8  N  1  Y   -0.008916   0.035162
    9  N  1  Z    0.010126   0.008528
   10  N  1 XX    0.000904   0.000129
   11  N  1 YY   -0.001536  -0.000491
   12  N  1 ZZ    0.000632   0.000362
   13  N  1 XY    0.000445   0.002211
   14  N  1 XZ    0.037897   0.000290
   15  N  1 YZ   -0.000323  -0.038905
   16  H  2  S   -0.347341  -0.625709
   17  H  2  S   -0.062519  -0.111363
   18  H  2  X    0.002229  -0.037293
   19  H  2  Y    0.035487   0.041266
   20  H  2  Z    0.002628   0.004251
   21  H  3  S   -0.343652   0.594000
   22  H  3  S   -0.063046   0.109162
   23  H  3  X    0.002707   0.035586
   24  H  3  Y   -0.035452   0.037142
   25  H  3  Z    0.001508  -0.003315
   26  H  4  S    0.693175  -0.012429
   27  H  4  S    0.126816  -0.001308
   28  H  4  X   -0.059442   0.001951
   29  H  4  Y   -0.000397  -0.023911
   30  H  4  Z   -0.002715  -0.000313

 -------------------------------------------
       MAXIMIZING MORMO OVERLAP TERM        
 -------------------------------------------
   SWEEP    VALUE       PROGRESS
     0     5.13639
     1     6.92431     1.78792138
     2     6.96116     0.03685095
     3     6.96116     0.00000248
     4     6.96116     0.00000000
     5     6.96116     0.00000000
 THE ROTATION IS DONE
FLIPPING SIGN FOR ORBITAL   7
ACTIVE ORBITALS AFTER MORMO:

                      1          2          3          4          5

    1  N  1  S    0.005192  -0.015329   0.023700  -0.012279   0.212581
    2  N  1  S    0.424810  -0.035684   0.059988  -0.188525   0.735141
    3  N  1  S    0.325592   0.027849  -0.064215  -0.272828   0.180036
    4  N  1  X    0.002306   0.500213  -0.000908  -0.024702  -0.007542
    5  N  1  Y    0.001639   0.042026   0.454928   0.032814   0.030903
    6  N  1  Z    0.082370  -0.023390   0.028044   0.602193   0.647126
    7  N  1  X    0.013357   0.203534  -0.046394   0.034213  -0.033958
    8  N  1  Y   -0.027097  -0.024736   0.279640  -0.047916   0.046001
    9  N  1  Z    0.022896   0.040766  -0.063699   0.384334  -0.093315
   10  N  1 XX    0.003105   0.007312  -0.011878  -0.010039  -0.024597
   11  N  1 YY   -0.003478  -0.007497   0.011852  -0.012754   0.023491
   12  N  1 ZZ    0.000372   0.000185   0.000026   0.022792   0.001106
   13  N  1 XY    0.004204   0.010937  -0.024268   0.004543  -0.033711
   14  N  1 XZ   -0.001464   0.017119  -0.002285  -0.000366   0.028213
   15  N  1 YZ    0.000283   0.000228   0.021209   0.002674  -0.038960
   16  H  2  S    0.185451  -0.172478   0.362647   0.085097  -0.496104
   17  H  2  S   -0.000397  -0.038375   0.101834   0.016994  -0.063192
   18  H  2  X    0.018174   0.011382   0.020683   0.010434  -0.026867
   19  H  2  Y   -0.026584   0.017629  -0.009955  -0.017302   0.052953
   20  H  2  Z   -0.014828   0.014442  -0.026681   0.017258  -0.007779
   21  H  3  S    0.189679  -0.178063  -0.334353   0.113090  -0.441748
   22  H  3  S    0.007043  -0.011762  -0.089336   0.034418  -0.063235
   23  H  3  X    0.027045  -0.011411  -0.036664   0.012512  -0.040358
   24  H  3  Y    0.018727  -0.024227  -0.002788   0.007496  -0.037817
   25  H  3  Z   -0.004962   0.011042   0.007026   0.019448  -0.019912
   26  H  4  S    0.189861   0.375966  -0.048134   0.119233  -0.466174
   27  H  4  S    0.005535   0.062468  -0.032920   0.034843  -0.065545
   28  H  4  X   -0.032265  -0.035400  -0.009633  -0.013010   0.055225
   29  H  4  Y   -0.011890  -0.020087   0.020483  -0.006139   0.017726
   30  H  4  Z   -0.004109  -0.010516  -0.002851   0.020325  -0.017117

                      6          7

    1  N  1  S   -0.028616  -0.019040
    2  N  1  S   -0.067532  -0.053056
    3  N  1  S    0.081738   0.098903
    4  N  1  X   -0.898885   0.031456
    5  N  1  Y   -0.036614   0.858263
    6  N  1  Z    0.042618   0.086613
    7  N  1  X   -0.076258   0.005770
    8  N  1  Y   -0.011339   0.035746
    9  N  1  Z   -0.004661  -0.030131
   10  N  1 XX   -0.021459   0.040352
   11  N  1 YY    0.027743  -0.035790
   12  N  1 ZZ   -0.006284  -0.004562
   13  N  1 XY    0.045714   0.030821
   14  N  1 XZ    0.049375  -0.011590
   15  N  1 YZ    0.015820  -0.029497
   16  H  2  S   -0.344988  -0.593233
   17  H  2  S   -0.081592  -0.164616
   18  H  2  X    0.028411  -0.038555
   19  H  2  Y    0.040575   0.017920
   20  H  2  Z    0.004339   0.013993
   21  H  3  S   -0.358233   0.543270
   22  H  3  S   -0.081094   0.146814
   23  H  3  X   -0.016804   0.047792
   24  H  3  Y   -0.040414   0.016830
   25  H  3  Z   -0.023322  -0.004156
   26  H  4  S    0.661719  -0.035672
   27  H  4  S    0.152678  -0.002048
   28  H  4  X   -0.059621   0.015963
   29  H  4  Y   -0.021558  -0.014801
   30  H  4  Z    0.012861  -0.019721

Actually Used Diabatic Molecualr Orbitals:

                      1          2          3          4          5

    1  N  1  S    0.005192  -0.015329   0.023700  -0.012279   0.212581
    2  N  1  S    0.424810  -0.035684   0.059988  -0.188525   0.735141
    3  N  1  S    0.325592   0.027849  -0.064215  -0.272828   0.180036
    4  N  1  X    0.002306   0.500213  -0.000908  -0.024702  -0.007542
    5  N  1  Y    0.001639   0.042026   0.454928   0.032814   0.030903
    6  N  1  Z    0.082370  -0.023390   0.028044   0.602193   0.647126
    7  N  1  X    0.013357   0.203534  -0.046394   0.034213  -0.033958
    8  N  1  Y   -0.027097  -0.024736   0.279640  -0.047916   0.046001
    9  N  1  Z    0.022896   0.040766  -0.063699   0.384334  -0.093315
   10  N  1 XX    0.003105   0.007312  -0.011878  -0.010039  -0.024597
   11  N  1 YY   -0.003478  -0.007497   0.011852  -0.012754   0.023491
   12  N  1 ZZ    0.000372   0.000185   0.000026   0.022792   0.001106
   13  N  1 XY    0.004204   0.010937  -0.024268   0.004543  -0.033711
   14  N  1 XZ   -0.001464   0.017119  -0.002285  -0.000366   0.028213
[...]
      848    0.020759   -0.020759  +-+20+-
      250   -0.020732   -0.020732  -++2200
      249    0.020557   -0.020557  20+2200
      859    0.020469   -0.020469  02+2002
       48   -0.020193    0.020193  2-02++0
      716    0.020088    0.020088  22+0002

 ---------------------------------------
    -DIABATIC STATES IN PROTOTYPES-     
 ---------------------------------------

     STATE:    1
 Group Ref#    Coefficients
     1    1    0.963169
     2    2   -0.001515
     3    3    0.005521

WEIGHT OF LISTED PROTOTYPES:   92.77%

     STATE:    2
 Group Ref#    Coefficients
     1    1   -0.001515
     2    2    0.955638
     3    3   -0.003550

WEIGHT OF LISTED PROTOTYPES:   91.33%

     STATE:    3
 Group Ref#    Coefficients
     1    1    0.005521
     2    2   -0.003550
     3    3    0.960255

WEIGHT OF LISTED PROTOTYPES:   92.21%

 --------------------------------------------------
 IN DIRECT MAX. DIABATIZATION FOR GMC-QDPT

 DIRECT MAXIMIZATION (DM) WITHOUT TRUNCATING ADIABATS
 EXPANSIONS INTO THE REFERENCE CONFIGURATION SPACE
 --------------------------------------------------

 -------------------------------------------
 - DM DIABT PT HAMILTONIAN MATRIX ELEMENTS -
 -------------------------------------------
                                            
 --- DIABATIC ENERGIES (DIAGONAL ELEMENT) ---       HARTREE            EV
 STATE #  1'S GMC-PT-LEVEL DIABATIC ENERGY=     -55.946910629       0.000000000
 STATE #  2'S GMC-PT-LEVEL DIABATIC ENERGY=     -55.727561130       5.968803884
 STATE #  3'S GMC-PT-LEVEL DIABATIC ENERGY=     -55.825276224       3.309840737

 --- DIABATIC COUPLINGS (OFF DIAGONAL ELEMENTS)---  HATREE            EV
 STATE #  1 &  2'S GMC-PT-LEVEL COUPLING  =       0.029968075       0.815472845
 STATE #  1 &  3'S GMC-PT-LEVEL COUPLING  =      -0.037262642      -1.013968140
 STATE #  2 &  3'S GMC-PT-LEVEL COUPLING  =       0.050271023       1.367944215

 ---------------------------------------
     - ROTATION TO DIABATIC STATES -    
 ---------------------------------------
 ROWS=ADIABATIC, COLUMNS=DIABATIC STATES

             1           2           3

    1    0.9315772  -0.1837119   0.3137099
    2    0.3589248   0.3276614  -0.8739628
    3   -0.0577668  -0.9267621  -0.3711806

 ---------------------------------------
          - DIABATIC STATES -           
 ---------------------------------------

 State #    1  Energy =     -55.946910629

      Det      Coef        Coefp    Occupancy (Ignoring core)
      ---      ----        ----    --------- --------- -----
        1    0.943186   -0.943186  222+000
       17    0.127122    0.127122  22-+00+
      701   -0.095042   -0.095042  22++00-
        3   -0.095032   -0.095032  22-++00
      141    0.090947    0.090947  22++-00
      717   -0.074165   -0.074165  220+002
       16   -0.069864    0.069864  222000+
      393   -0.068490   -0.068490  202+020
        4    0.065650   -0.065650  2-2++00
      176   -0.063422    0.063422  2+2+-00
        7    0.057465    0.057465  22-+0+0
      351   -0.054917   -0.054917  22++0-0
        6   -0.050758    0.050758  22200+0
      402    0.041544   -0.041544  2+-+0-+
      736    0.040285   -0.040285  2+2+00-
       18   -0.039978    0.039978  2-2+00+
      708    0.038635   -0.038635  2-++0+-
      215   -0.036721   -0.036721  022+200
      390    0.034423   -0.034423  -+2++-0
      218    0.033848   -0.033848  +-2+-+0
      705   -0.032638   -0.032638  -2+++0-
      227   -0.032579   -0.032579  +2-+-0+
       51   -0.032081    0.032081  22+-00+
        5    0.030783    0.030783  -22++00
      212    0.029704    0.029704  +220200
      122    0.028274    0.028274  +2-200+
       76    0.027744    0.027744  2+2-0+0
        2    0.027116   -0.027116  2220+00
      179   -0.025568   -0.025568  202+200
      773    0.025236   -0.025236  +2-++0-
        8   -0.025195    0.025195  2-2+0+0
      702    0.024421    0.024421  22+0+0-
     1051   -0.024175   -0.024175  2+++0--
      113   -0.023310    0.023310  +-220+0
      387   -0.023288    0.023288  2+20+-0
      159    0.023137   -0.023137  -2++-0+
      424   -0.022753   -0.022753  +-2++-0
      192    0.021953   -0.021953  2+-+-0+
      184   -0.021814   -0.021814  -+2+-+0
       29   -0.020925   -0.020925  2--+0++
      704    0.020919   -0.020919  2-+++0-
       20   -0.020589   -0.020589  22-0+0+

 State #    2  Energy =     -55.727561130

      Det      Coef        Coefp    Occupancy (Ignoring core)
      ---      ----        ----    --------- --------- -----
       71   -0.942715    0.942715  2+22000
      246    0.099012    0.099012  2++2-00
       73   -0.097997    0.097997  2+-2+00
      806   -0.091885   -0.091885  2++200-
      736    0.082262   -0.082262  2+2+00-
       87    0.081125   -0.081125  2+-200+
      822    0.078457   -0.078457  2+02002
       86   -0.077697   -0.077697  2+2-00+
       77    0.066359   -0.066359  2+-20+0
      456   -0.062529   -0.062529  2++20-0
      386    0.049185   -0.049185  2+2+0-0
      106   -0.047388   -0.047388  +222000
      813    0.045758   -0.045758  20+20+-
       36    0.045190    0.045190  22+2000
       76   -0.040221   -0.040221  2+2-0+0
       78   -0.039433    0.039433  20220+0
      122    0.038189    0.038189  +2-200+
      320    0.037303    0.037303  0+22200
       74   -0.036899    0.036899  2022+00
      111    0.036687   -0.036687  +22-0+0
      332   -0.035344    0.035344  ++-2-0+
      810   -0.035243   -0.035243  -++2+0-
       38   -0.034892    0.034892  2202+00
      316    0.032945    0.032945  ++22-00
      323   -0.032518    0.032518  +022-+0
       99   -0.031900    0.031900  20-20++
      317    0.031656   -0.031656  ++2-200
      180   -0.031232    0.031232  -+2+200
      177    0.030636   -0.030636  2+20200
       88    0.030310   -0.030310  202200+
      807   -0.028925    0.028925  2++-+0-
        6    0.028510   -0.028510  22200+0
      192   -0.028174    0.028174  2+-+-0+
       90    0.027778    0.027778  2+--+0+
       51    0.026636   -0.026636  22+-00+
      264    0.025744   -0.025744  -++2-0+
      878    0.025140    0.025140  ++-2+0-
      183   -0.024517    0.024517  202+-+0
      911    0.023762    0.023762  2+++-0-
      391    0.022083   -0.022083  2+20020
      108   -0.020840   -0.020840  +2-2+00
      841   -0.020803    0.020803  +2+200-
      248    0.020742   -0.020742  2+02200

 State #    3  Energy =     -55.825276224

      Det      Coef        Coefp    Occupancy (Ignoring core)
      ---      ----        ----    --------- --------- -----
       36   -0.943532   -0.943532  22+2000
       38    0.100162   -0.100162  2202+00
       39   -0.098495   -0.098495  2-+2+00
       51   -0.082939    0.082939  22+-00+
      701    0.080339    0.080339  22++00-
       41   -0.078230    0.078230  22+-0+0
      246    0.077240    0.077240  2++2-00
       52   -0.075771    0.075771  220200+
      106    0.071002    0.071002  +222000
      351    0.069730    0.069730  22++0-0
      463    0.066993   -0.066993  20+2020
       53    0.056258    0.056258  2-+200+
      806   -0.051555   -0.051555  2++200-
       42   -0.048240    0.048240  22020+0
       71   -0.045829    0.045829  2+22000
      472   -0.045815   -0.045815  2+020-+
      285    0.036110   -0.036110  02+2200
      460   -0.035261   -0.035261  -++2+-0
      288   -0.034917   -0.034917  +-+2-+0
      297    0.034670   -0.034670  +202-0+
      123    0.034421   -0.034421  +-2200+
       64    0.032059   -0.032059  2-020++
      145   -0.031590   -0.031590  -2++200
      282    0.031027    0.031027  +2+-200
      142    0.030544    0.030544  22+0200
       55   -0.030295   -0.030295  220-+0+
      157    0.029962   -0.029962  220+-0+
       40   -0.027229    0.027229  -2+2+00
      121   -0.026825    0.026825  +22-00+
      249    0.025092   -0.025092  20+2200
      457   -0.024639    0.024639  2++-+-0
       16   -0.024131    0.024131  222000+
      148   -0.023782   -0.023782  2-++-+0
      494    0.023291   -0.023291  +-+2+-0
      367    0.022286   -0.022286  220+0-+
      843   -0.021952   -0.021952  +202+0-
      254    0.021414   -0.021414  -++2-+0
       73    0.021256   -0.021256  2+-2+00
      859    0.020858   -0.020858  02+2002
      262   -0.020741   -0.020741  2+02-0+
      109   -0.020550    0.020550  +-22+00
       88    0.020262   -0.020262  202200+

 ---------------------------------------
      - DIABATIC STATES IN CMO -        
 ---------------------------------------

 State #    1  Energy =     -55.946910629

      Det      Coef        Coefp    Occupancy (Ignoring core)
      ---      ----        ----    --------- --------- -----
        1    0.882075   -0.882075  222+000
       36    0.412785    0.412785  22+2000
       71   -0.061793    0.061793  2+22000
      717   -0.061455   -0.061455  220+002
      393   -0.052642   -0.052642  202+020
      143   -0.042592   -0.042592  220+200
      753   -0.040031   -0.040031  202+002
        8   -0.037964    0.037964  2-2+0+0
      708   -0.037293    0.037293  2-++0+-
      716   -0.036280   -0.036280  22+0002
      703    0.034714    0.034714  220++0-
        3    0.033863    0.033863  22-++00
      106   -0.031099   -0.031099  +222000
       16    0.030865   -0.030865  222000+
      215   -0.027728   -0.027728  022+200
      719    0.027703    0.027703  -2++002
      157   -0.026288    0.026288  220+-0+
      463   -0.025579    0.025579  20+2020
      402   -0.024294    0.024294  2+-+0-+
      401    0.024100    0.024100  2+200-+
      122   -0.023662   -0.023662  +2-200+
      213    0.022938   -0.022938  +2-+200
      778   -0.022733   -0.022733  +-2+0+-
       76    0.022691    0.022691  2+2-0+0
      368    0.022418    0.022418  2-++0-+
      741   -0.022238    0.022238  2+200+-
      108    0.021546    0.021546  +2-2+00
      404   -0.021501   -0.021501  -+2+0-+
      704   -0.020938    0.020938  2-+++0-
       37   -0.020905    0.020905  22+-+00
      113   -0.020567    0.020567  +-220+0
      786    0.020417    0.020417  +220002
      145   -0.020353   -0.020353  -2++200

 State #    2  Energy =     -55.727561130

      Det      Coef        Coefp    Occupancy (Ignoring core)
      ---      ----        ----    --------- --------- -----
       71   -0.910828    0.910828  2+22000
       36    0.294039    0.294039  22+2000
        1   -0.201629    0.201629  222+000
      822    0.057277   -0.057277  2+02002
      248    0.043768   -0.043768  2+02200
      123   -0.038572    0.038572  +-2200+
       18    0.035244   -0.035244  2-2+00+
      751    0.034434   -0.034434  2+20002
      111    0.030086   -0.030086  +22-0+0
      122   -0.030066   -0.030066  +2-200+
      808   -0.029787    0.029787  2+02+0-
       86   -0.029783   -0.029783  2+2-00+
      262    0.028691    0.028691  2+02-0+
      320    0.028382    0.028382  0+22200
      463   -0.028293    0.028293  20+2020
      752   -0.023905   -0.023905  2+-+002
      318    0.023526    0.023526  ++-2200
      743    0.023426    0.023426  202+0+-
      821    0.023278   -0.023278  2++-002
      472   -0.023238   -0.023238  2+020-+
      894    0.022696    0.022696  0+22002
      107    0.022525   -0.022525  +22-+00
      813   -0.022473    0.022473  20+20+-
      892   -0.022254   -0.022254  ++-2002
      824    0.021838    0.021838  -++2002
      754   -0.021441    0.021441  -+2+002
       78   -0.021198    0.021198  20220+0
       89    0.020665    0.020665  -+2200+
      177    0.020580   -0.020580  2+20200
      891    0.020427   -0.020427  ++2-002
      391    0.020172   -0.020172  2+20020
      108    0.020074    0.020074  +2-2+00

 State #    3  Energy =     -55.825276224

      Det      Coef        Coefp    Occupancy (Ignoring core)
      ---      ----        ----    --------- --------- -----
       36   -0.839238   -0.839238  22+2000
        1    0.368420   -0.368420  222+000
       71   -0.350141    0.350141  2+22000
      463    0.045681   -0.045681  20+2020
      823    0.040539   -0.040539  20+2002
      122    0.035432    0.035432  +2-200+
      248    0.031907   -0.031907  2+02200
      262    0.030064    0.030064  2+02-0+
      123   -0.029258    0.029258  +-2200+
       16    0.028098   -0.028098  222000+
      143   -0.027382   -0.027382  220+200
      285    0.026981   -0.026981  02+2200
      157   -0.026389    0.026389  220+-0+
       88   -0.024270    0.024270  202200+
      471    0.023657    0.023657  2++-0-+
      142    0.023561    0.023561  22+0200
      111    0.023282   -0.023282  +22-0+0
      393   -0.022694   -0.022694  202+020
      253   -0.021084   -0.021084  20+2-+0
      811   -0.020850    0.020850  2++-0+-
      848    0.020759   -0.020759  +-+20+-
      250   -0.020732   -0.020732  -++2200
      249    0.020557   -0.020557  20+2200
      859    0.020469   -0.020469  02+2002
       48   -0.020193    0.020193  2-02++0
      716    0.020087    0.020087  22+0002

 ---------------------------------------
    -DIABATIC STATES IN PROTOTYPES-     
 ---------------------------------------

     STATE:    1
 Group Ref#    Coefficients
     1    1    0.963169
     2    2   -0.001509
     3    3    0.005512

WEIGHT OF LISTED PROTOTYPES:   92.77%

     STATE:    2
 Group Ref#    Coefficients
     1    1   -0.001521
     2    2    0.955638
     3    3   -0.003559

WEIGHT OF LISTED PROTOTYPES:   91.33%

     STATE:    3
 Group Ref#    Coefficients
     1    1    0.005529
     2    2   -0.003541
     3    3    0.960255

WEIGHT OF LISTED PROTOTYPES:   92.21%

     DIRECT MAX. DIABATIZATION FINISHED    
 CPU     0: STEP CPU TIME=     0.25 TOTAL CPU TIME=         15.5 (      0.3 MIN)
 TOTAL WALL CLOCK TIME=         15.5 SECONDS, CPU UTILIZATION IS    99.94%

DIABATS FOR SPIN-ORBIT CALCULATION ARE READY

TRANSITION DIPOLES BETWEEN ADIABATS (in A.U.):

STATE PAIR      X         Y         Z
    1    1 -0.194722  0.233000  0.686589
    2    1 -0.012127 -0.003500  0.173593
    2    2 -0.115001  0.284180  0.324856
    3    1 -0.119495 -0.055018 -0.029019
    3    2  0.198617  0.151618  0.001518
    3    3 -0.380368  0.357445  0.293870


TRANSITION DIPOLES BETWEEN DIABATS (in A.U.):

STATE PAIR      X         Y         Z
    1    1 -0.188556  0.237302  0.757825
    2    1  0.028609  0.005457  0.002190
    2    2 -0.505466  0.234987  0.278750
    3    1  0.006572 -0.003454 -0.006306
    3    2  0.073428  0.143840  0.021711
    3    3  0.003932  0.402336  0.268741

TRANSITION DIPOLES BETWEEN DIRECT MAX. DIABATS (in A.U.):

STATE PAIR      X         Y         Z
    1    1 -0.188556  0.237302  0.757825
    2    1  0.028606  0.005456  0.002187
    2    2 -0.505468  0.234984  0.278749
    3    1  0.006571 -0.003455 -0.006302
    3    2  0.073424  0.143838  0.021712
    3    3  0.003933  0.402338  0.268741
 No $TRANST Group Found.
 Quit without doing spin-orbit coupling
 ..... DONE WITH MP2 ENERGY .....
 CPU     0: STEP CPU TIME=     0.00 TOTAL CPU TIME=         15.5 (      0.3 MIN)
 TOTAL WALL CLOCK TIME=         15.5 SECONDS, CPU UTILIZATION IS    99.87%
            100000000  WORDS OF DYNAMIC MEMORY USED
 EXECUTION OF GAMESS TERMINATED NORMALLY Wed Nov 16 19:59:37 2022
 DDI: 715512 bytes (0.7 MB / 0 MWords) used by master data server.

 ----------------------------------------
 CPU timing information for all processes
 ========================================
 0: 15.88 + 0.384 = 15.472
 ----------------------------------------
Note: The following floating-point exceptions are signalling: IEEE_DENORMAL
 ddikick.x: exited gracefully.
unset echo
----- accounting info -----
Files used on the master node io002 were:
-rw-r--r-- 1 bsonghao nooijen   20699 Nov 16 19:59 /scratch/bsonghao/nh3_diabatization_2d_at_mode_7_8_dist0.5_-0.4.F05
-rw-r--r-- 1 bsonghao nooijen  363520 Nov 16 19:59 /scratch/bsonghao/nh3_diabatization_2d_at_mode_7_8_dist0.5_-0.4.F09
-rw-r--r-- 1 bsonghao nooijen 1995920 Nov 16 19:59 /scratch/bsonghao/nh3_diabatization_2d_at_mode_7_8_dist0.5_-0.4.F10
-rw-r--r-- 1 bsonghao nooijen  131264 Nov 16 19:59 /scratch/bsonghao/nh3_diabatization_2d_at_mode_7_8_dist0.5_-0.4.F13
-rw-r--r-- 1 bsonghao nooijen  180312 Nov 16 19:59 /scratch/bsonghao/nh3_diabatization_2d_at_mode_7_8_dist0.5_-0.4.F15
-rw-r--r-- 1 bsonghao nooijen       0 Nov 16 19:59 /scratch/bsonghao/nh3_diabatization_2d_at_mode_7_8_dist0.5_-0.4.F16
-rw-r--r-- 1 bsonghao nooijen    9808 Nov 16 19:59 /scratch/bsonghao/nh3_diabatization_2d_at_mode_7_8_dist0.5_-0.4.F70
-rw-r--r-- 1 bsonghao nooijen    9808 Nov 16 19:59 /scratch/bsonghao/nh3_diabatization_2d_at_mode_7_8_dist0.5_-0.4.F71
-rw-r--r-- 1 bsonghao nooijen   19608 Nov 16 19:59 /scratch/bsonghao/nh3_diabatization_2d_at_mode_7_8_dist0.5_-0.4.F72
-rw-r--r-- 1 bsonghao nooijen   19608 Nov 16 19:59 /scratch/bsonghao/nh3_diabatization_2d_at_mode_7_8_dist0.5_-0.4.F73
-rw-r--r-- 1 bsonghao nooijen 1920824 Nov 16 19:59 /scratch/bsonghao/nh3_diabatization_2d_at_mode_7_8_dist0.5_-0.4.F74
-rw-r--r-- 1 bsonghao nooijen       0 Nov 16 19:59 /scratch/bsonghao/nh3_diabatization_2d_at_mode_7_8_dist0.5_-0.4.F75
-rw-r--r-- 1 bsonghao nooijen   58848 Nov 16 19:59 /scratch/bsonghao/nh3_diabatization_2d_at_mode_7_8_dist0.5_-0.4.F76
-rw-r--r-- 1 bsonghao nooijen       0 Nov 16 19:59 /scratch/bsonghao/nh3_diabatization_2d_at_mode_7_8_dist0.5_-0.4.F77
-rw-r--r-- 1 bsonghao nooijen    1864 Nov 16 19:59 /scratch/bsonghao/nh3_diabatization_2d_at_mode_7_8_dist0.5_-0.4.F78
-rw-r--r-- 1 bsonghao nooijen   39208 Nov 16 19:59 /scratch/bsonghao/nh3_diabatization_2d_at_mode_7_8_dist0.5_-0.4.F79
-rw-r--r-- 1 bsonghao nooijen     104 Nov 16 19:59 /scratch/bsonghao/nh3_diabatization_2d_at_mode_7_8_dist0.5_-0.4.F80
-rw-r--r-- 1 bsonghao nooijen   13472 Nov 16 19:59 /scratch/bsonghao/nh3_diabatization_2d_at_mode_7_8_dist0.5_-0.4.F81
-rw-r--r-- 1 bsonghao nooijen      16 Nov 16 19:59 /scratch/bsonghao/nh3_diabatization_2d_at_mode_7_8_dist0.5_-0.4.F82
-rw-r--r-- 1 bsonghao nooijen   19216 Nov 16 19:59 /scratch/bsonghao/nh3_diabatization_2d_at_mode_7_8_dist0.5_-0.4.F83
-rw-r--r-- 1 bsonghao nooijen   29712 Nov 16 19:59 /scratch/bsonghao/nh3_diabatization_2d_at_mode_7_8_dist0.5_-0.4.F84
-rw-r--r-- 1 bsonghao nooijen  401576 Nov 16 19:59 /scratch/bsonghao/nh3_diabatization_2d_at_mode_7_8_dist0.5_-0.4.F85
-rw-r--r-- 1 bsonghao nooijen  903672 Nov 16 19:59 /scratch/bsonghao/nh3_diabatization_2d_at_mode_7_8_dist0.5_-0.4.F86
-rw-r--r-- 1 bsonghao nooijen     656 Nov 16 19:59 /scratch/bsonghao/nh3_diabatization_2d_at_mode_7_8_dist0.5_-0.4.F87
-rw-r--r-- 1 bsonghao nooijen   36880 Nov 16 19:59 /scratch/bsonghao/nh3_diabatization_2d_at_mode_7_8_dist0.5_-0.4.F88
-rw-r--r-- 1 bsonghao nooijen     240 Nov 16 19:59 /scratch/bsonghao/nh3_diabatization_2d_at_mode_7_8_dist0.5_-0.4.F89
-rw-r--r-- 1 bsonghao nooijen       0 Nov 16 19:59 /scratch/bsonghao/nh3_diabatization_2d_at_mode_7_8_dist0.5_-0.4.F90
-rw-r--r-- 1 bsonghao nooijen   13760 Nov 16 19:59 /scratch/bsonghao/nh3_diabatization_2d_at_mode_7_8_dist0.5_-0.4.F91
-rw-r--r-- 1 bsonghao nooijen   22776 Nov 16 19:59 /scratch/bsonghao/nh3_diabatization_2d_at_mode_7_8_dist0.5_-0.4.F92
-rw-r--r-- 1 bsonghao nooijen   23168 Nov 16 19:59 /scratch/bsonghao/nh3_diabatization_2d_at_mode_7_8_dist0.5_-0.4.F93
-rw-r--r-- 1 bsonghao nooijen   22776 Nov 16 19:59 /scratch/bsonghao/nh3_diabatization_2d_at_mode_7_8_dist0.5_-0.4.F94
-rw-r--r-- 1 bsonghao nooijen   13760 Nov 16 19:59 /scratch/bsonghao/nh3_diabatization_2d_at_mode_7_8_dist0.5_-0.4.F95
-rw-r--r-- 1 bsonghao nooijen   29440 Nov 16 19:59 /scratch/bsonghao/nh3_diabatization_2d_at_mode_7_8_dist0.5_-0.4.F96
-rw-r--r-- 1 bsonghao nooijen    1184 Nov 16 19:59 /scratch/bsonghao/nh3_diabatization_2d_at_mode_7_8_dist0.5_-0.4.F97
-rw-r--r-- 1 bsonghao nooijen    9808 Nov 16 19:59 /scratch/bsonghao/nh3_diabatization_2d_at_mode_7_8_dist0.5_-0.4.F98
-rw-r--r-- 1 bsonghao nooijen   30264 Nov 16 19:59 /scratch/bsonghao/nh3_diabatization_2d_at_mode_7_8_dist0.5_-0.4.F99
ls: No match.
ls: No match.
ls: No match.
Wed 16 Nov 2022 07:59:40 PM EST
0.297u 0.034s 0:18.85 1.6%	0+0k 48+224io 0pf+0w
