----- GAMESS execution script 'rungms' -----
This job is running on host io002
under operating system Linux at Wed 16 Nov 2022 07:42:33 PM EST
Available scratch disk space (Kbyte units) at beginning of the job is
Filesystem       1K-blocks       Used   Available Use% Mounted on
/dev/sdc1      15378471580 3278917120 11318349060  23% /scratch
GAMESS temporary binary files will be written to /scratch/bsonghao
GAMESS supplementary output files will be written to /home/bsonghao/.gamess_ascii_files/267638
Copying input file nh3_diabatization_2d_at_mode_7_8_dist0.3_-0.7.inp to your run's scratch directory...
cp nh3_diabatization_2d_at_mode_7_8_dist0.3_-0.7.inp /scratch/bsonghao/nh3_diabatization_2d_at_mode_7_8_dist0.3_-0.7.F05
unset echo
/home/bjb2chen/gamess/ddikick.x /home/bjb2chen/gamess/gamess.00.x nh3_diabatization_2d_at_mode_7_8_dist0.3_-0.7 -ddi 1 1 io002 -scr /scratch/bsonghao

 Distributed Data Interface kickoff program.
 Initiating 1 compute processes on 1 nodes to run the following command:
 /home/bjb2chen/gamess/gamess.00.x nh3_diabatization_2d_at_mode_7_8_dist0.3_-0.7 

          ******************************************************
          *         GAMESS VERSION = 02 AUG 2018 (R2)         *
          *             FROM IOWA STATE UNIVERSITY             *
          * M.W.SCHMIDT, K.K.BALDRIDGE, J.A.BOATZ, S.T.ELBERT, *
          *   M.S.GORDON, J.H.JENSEN, S.KOSEKI, N.MATSUNAGA,   *
          *          K.A.NGUYEN, S.J.SU, T.L.WINDUS,           *
          *       TOGETHER WITH M.DUPUIS, J.A.MONTGOMERY       *
          *         J.COMPUT.CHEM.  14, 1347-1363(1993)        *
          **************** 64 BIT LINUX VERSION ****************

  SINCE 1993, STUDENTS AND POSTDOCS WORKING AT IOWA STATE UNIVERSITY
  AND ALSO IN THEIR VARIOUS JOBS AFTER LEAVING ISU HAVE MADE IMPORTANT
  CONTRIBUTIONS TO THE CODE:
     IVANA ADAMOVIC, CHRISTINE AIKENS, YURI ALEXEEV, POOJA ARORA,
     ANDREY ASADCHEV, ROB BELL, PRADIPTA BANDYOPADHYAY, JONATHAN BENTZ,
     BRETT BODE, KURT BRORSEN, CALEB CARLIN, GALINA CHABAN, WEI CHEN,
     CHEOL HO CHOI, PAUL DAY, ALBERT DEFUSCO, NUWAN DESILVA, TIM DUDLEY,
     DMITRI FEDOROV, ALEX FINDLATER, GRAHAM FLETCHER, MARK FREITAG,
     KURT GLAESEMANN, ANASTASIA GUININA,
     DAN KEMP, GRANT MERRILL, NORIYUKI MINEZAWA, JONATHAN MULLIN,
     TAKESHI NAGATA, SEAN NEDD, HEATHER NETZLOFF, BOSILJKA NJEGIC, RYAN OLSON,
     MIKE PAK, BUU PHAM,
     SPENCER PRUITT, LUKE ROSKOP, JIM SHOEMAKER, LYUDMILA SLIPCHENKO,
     TONY SMITH, SAROM SOK LEANG, JIE SONG, TETSUYA TAKETSUGU, SIMON WEBB,
     PENG XU, SOOHAENG YOO, FEDERICO ZAHARIEV

  ADDITIONAL CODE HAS BEEN PROVIDED BY COLLABORATORS IN OTHER GROUPS:
     IOWA STATE UNIVERSITY:
          JOE IVANIC, AARON WEST, LAIMUTIS BYTAUTAS, KLAUS RUEDENBERG
     UNIVERSITY OF TOKYO: KIMIHIKO HIRAO, TAKAHITO NAKAJIMA,
          TAKAO TSUNEDA, MUNEAKI KAMIYA, SUSUMU YANAGISAWA,
          KIYOSHI YAGI, MAHITO CHIBA, SEIKEN TOKURA, NAOAKI KAWAKAMI
     UNIVERSITY OF AARHUS: FRANK JENSEN
     UNIVERSITY OF IOWA: VISVALDAS KAIRYS, HUI LI
     NATIONAL INST. OF STANDARDS AND TECHNOLOGY: WALT STEVENS, DAVID GARMER
     UNIVERSITY OF PISA: BENEDETTA MENNUCCI, JACOPO TOMASI
     UNIVERSITY OF MEMPHIS: HENRY KURTZ, PRAKASHAN KORAMBATH
     UNIVERSITY OF ALBERTA: TOBY ZENG, MARIUSZ KLOBUKOWSKI
     UNIVERSITY OF NEW ENGLAND: MARK SPACKMAN
     MIE UNIVERSITY: HIROAKI UMEDA
     NAT. INST. OF ADVANCED INDUSTRIAL SCIENCE AND TECHNOLOGY: KAZUO KITAURA
     MICHIGAN STATE UNIVERSITY:
          KAROL KOWALSKI, MARTA WLOCH, JEFFREY GOUR, JESSE LUTZ,
          WEI LI, JUN SHEN, J. EMILIANO DEUSTUA, PIOTR PIECUCH
     UNIVERSITY OF MINNESOTA:
          YINAN SHU
     UNIVERSITY OF SILESIA: MONIKA MUSIAL, STANISLAW KUCHARSKI
     FACULTES UNIVERSITAIRES NOTRE-DAME DE LA PAIX:
          OLIVIER QUINET, BENOIT CHAMPAGNE
     UNIVERSITY OF CALIFORNIA - SANTA BARBARA: BERNARD KIRTMAN
     INSTITUTE FOR MOLECULAR SCIENCE:
          KAZUYA ISHIMURA, MICHIO KATOUDA, AND SHIGERU NAGASE
     UNIVERSITY OF NOTRE DAME: ANNA POMOGAEVA, DAN CHIPMAN
     KYUSHU UNIVERSITY:
          HARUYUKI NAKANO,
          FENG LONG GU, JACEK KORCHOWIEC, MARCIN MAKOWSKI, AND YURIKO AOKI,
          HIROTOSHI MORI AND EISAKU MIYOSHI
     PENNSYLVANIA STATE UNIVERSITY:
          TZVETELIN IORDANOV, CHET SWALINA, JONATHAN SKONE,
          SHARON HAMMES-SCHIFFER
     WASEDA UNIVERSITY:
          MASATO KOBAYASHI, TOMOKO AKAMA, TSUGUKI TOUMA,
          TAKESHI YOSHIKAWA, YASUHIRO IKABATA, JUNJI SEINO,
          YUYA NAKAJIMA, HIROMI NAKAI
     NANJING UNIVERSITY: SHUHUA LI
     UNIVERSITY OF NEBRASKA:
          PEIFENG SU, DEJUN SI, NANDUN THELLAMUREGE, YALI WANG, HUI LI
     UNIVERSITY OF ZURICH: ROBERTO PEVERATI, KIM BALDRIDGE
     N. COPERNICUS UNIVERSITY AND JACKSON STATE UNIVERSITY:
          MARIA BARYSZ
     UNIVERSITY OF COPENHAGEN: Jimmy Kromann, CASPER STEINMANN
     TOKYO INSTITUTE OF TECHNOLOGY: HIROYA NAKATA
     NAGOYA UNIVERSITY: YOSHIO NISHIMOTO, STEPHAN IRLE
     MOSCOW STATE UNIVERSITY: VLADIMIR MIRONOV

 EXECUTION OF GAMESS BEGUN Wed Nov 16 19:42:34 2022

            ECHO OF THE FIRST FEW INPUT CARDS -
 INPUT CARD> $system kdiag=3 mwords=100 memddi=1000 parall=.t. $end                         
 INPUT CARD> $contrl runtyp=energy ispher=1 $end                                            
 INPUT CARD> $contrl icut=9 itol=20 inttyp=rysquad qmttol=1.0d-05 nosym=1 $end              
 INPUT CARD> $scf    npunch=2 conv=1.0d-06 dirscf=.t.      $end                             
 INPUT CARD> $contrl scftyp=mcscf  mult=2 maxit=200 icharg=1 mplevl=2 $end                  
 INPUT CARD> $guess  guess=moread norb=29 purify=.t. $end                                   
 INPUT CARD> $basis  gbasis=ccd $end                                                        
 INPUT CARD> $mcscf  cistep=gmcci fullnr=.t. finci=mos                                      
 INPUT CARD>         acurcy=1.d-6 maxit=100 $end                                            
 INPUT CARD> $trans  dirtrf=.t. $end                                                        
 INPUT CARD> $mrmp   mrpt=gmcpt rdvecs=.f. $end                                             
 INPUT CARD> $gmcpt  nmofzc=0 nmodoc=1 nmoact=7 nelact=7 stsym(1)=A                         
 INPUT CARD>         reftyp=ormas nspace=1 mstart(1)=2 mine(1)=7 maxe(1)=7                  
 INPUT CARD>         kstate(1)=1,1,1                                                        
 INPUT CARD>         wstate(1)=1,1,1                                                        
 INPUT CARD>         iwgt=0 thrwgt=-1.0 krot=.f. kszdoe=.f. knospn=.f.                      
 INPUT CARD>         thrde=-1.0 edshft=0.02 $end                                            
 INPUT CARD> $data                                                                          
 INPUT CARD> NH3+ 3 states calculation at NH3 structure.                                    
 INPUT CARD> c1                                                                             
 INPUT CARD>N 7.0 0.04360242600000001 -0.018686709000000003 -0.1693803062                   
 INPUT CARD>H 1.0 -0.707081654 0.5588465868000001 0.41743150110000005                       
 INPUT CARD>H 1.0 -0.936357591 -0.5181156838000001 0.2802670901                             
 INPUT CARD>H 1.0 1.037571834 0.21892721800000003 0.0716763041                              
 INPUT CARD>$end                                                                            
 INPUT CARD>--- OPTIMIZED RHF      MO-S --- GENERATED AT Mon Nov 14 16:47:08 2022           
 INPUT CARD>E=      -56.3825050291, E(NUC)=   11.8429239490                                 
 INPUT CARD> $VEC                                                                           
 INPUT CARD> 1  1-1.00134066E+00-2.25158504E-03 3.44925845E-03 0.00000000E+00 0.00000000E+00
 INPUT CARD> 1  2-2.13170927E-03 0.00000000E+00 0.00000000E+00 6.57129898E-04-6.87950443E-05
 INPUT CARD> 1  3-6.87950443E-05 1.37590089E-04 0.00000000E+00 0.00000000E+00 0.00000000E+00
 INPUT CARD> 1  4 3.25502815E-04-4.84772356E-04 3.62525460E-04-6.27912517E-04-3.45956485E-04
 INPUT CARD> 1  5 3.25502815E-04-4.84772356E-04 3.62525460E-04 6.27912517E-04-3.45956485E-04
 INPUT CARD> 1  6 3.25502815E-04-4.84772356E-04-7.25050921E-04 0.00000000E+00-3.45956485E-04
 INPUT CARD> 2  1 1.31286642E-02-4.05911371E-01-2.82090992E-01 0.00000000E+00 0.00000000E+00
 INPUT CARD> 2  2-7.71489043E-02 0.00000000E+00 0.00000000E+00 9.73717494E-03 6.62450916E-04
 INPUT CARD> 2  3 6.62450916E-04-1.32490183E-03 0.00000000E+00 0.00000000E+00 0.00000000E+00
 INPUT CARD> 2  4-1.96090317E-01-1.96656153E-02-1.74855877E-02 3.02859263E-02 8.68214399E-03
 INPUT CARD> 2  5-1.96090317E-01-1.96656153E-02-1.74855877E-02-3.02859263E-02 8.68214399E-03
 INPUT CARD> 2  6-1.96090317E-01-1.96656153E-02 3.49711754E-02 0.00000000E+00 8.68214399E-03
 INPUT CARD> 3  1 0.00000000E+00 0.00000000E+00 0.00000000E+00 4.48608762E-01 0.00000000E+00
 INPUT CARD> 3  2 0.00000000E+00 2.18692520E-01 0.00000000E+00 0.00000000E+00 1.30198027E-02
 INPUT CARD> 3  3-1.30198027E-02 0.00000000E+00 0.00000000E+00 2.71832968E-02 0.00000000E+00
 INPUT CARD> 3  4-1.85332726E-01-7.03958951E-02 8.47929477E-03 1.95242443E-02 8.32835058E-03
 INPUT CARD> 3  5-1.85332726E-01-7.03958951E-02 8.47929477E-03-1.95242443E-02 8.32835058E-03
 INPUT CARD> 3  6 3.70665453E-01 1.40791790E-01-2.53376884E-02 0.00000000E+00-1.66567012E-02
 INPUT CARD> 4  1 0.00000000E+00 0.00000000E+00 0.00000000E+00 0.00000000E+00 4.48608762E-01
 INPUT CARD> 4  2 0.00000000E+00 0.00000000E+00 2.18692520E-01 0.00000000E+00 0.00000000E+00
 INPUT CARD> 4  3 0.00000000E+00 0.00000000E+00-1.50339731E-02 0.00000000E+00 2.71832968E-02
 INPUT CARD> 4  4 3.21005698E-01 1.21929267E-01 1.95242443E-02-1.40653607E-02-1.44251263E-02
  100000000 WORDS OF MEMORY AVAILABLE

     BASIS OPTIONS
     -------------
     GBASIS=CCD          IGAUSS=       0      POLAR=NONE    
     NDFUNC=       0     NFFUNC=       0     DIFFSP=       F
     NPFUNC=       0      DIFFS=       F     BASNAM=        


     RUN TITLE
     ---------
  NH3+ 3 states calculation at NH3 structure.                                    

 THE POINT GROUP OF THE MOLECULE IS C1      
 THE ORDER OF THE PRINCIPAL AXIS IS     0

 ATOM      ATOMIC                      COORDINATES (BOHR)
           CHARGE         X                   Y                   Z
 N           7.0     0.0823966375       -0.0353127596       -0.3200823664
 H           1.0    -1.3361905770        1.0560669182        0.7888311557
 H           1.0    -1.7694592735       -0.9790966723        0.5296280037
 H           1.0     1.9607264588        0.4137124533        0.1354485746

          INTERNUCLEAR DISTANCES (ANGS.)
          ------------------------------

                1 N          2 H          3 H          4 H     

   1 N       0.0000000    1.1141900 *  1.1882482 *  1.0500209 *
   2 H       1.1141900 *  0.0000000    1.1096077 *  1.8107754 *
   3 H       1.1882482 *  1.1096077 *  0.0000000    2.1173426 *
   4 H       1.0500209 *  1.8107754 *  2.1173426 *  0.0000000  

  * ... LESS THAN  3.000


     ATOMIC BASIS SET
     ----------------
 THE CONTRACTED PRIMITIVE FUNCTIONS HAVE BEEN UNNORMALIZED
 THE CONTRACTED BASIS FUNCTIONS ARE NOW NORMALIZED TO UNITY

  SHELL TYPE  PRIMITIVE        EXPONENT          CONTRACTION COEFFICIENT(S)

 N         

      1   S       1          9046.0000000    0.000699617413
      1   S       2          1357.0000000    0.005386054630
      1   S       3           309.3000000    0.027391021189
      1   S       4            87.7300000    0.103150591982
      1   S       5            28.5600000    0.278570663317
      1   S       6            10.2100000    0.448294849454
      1   S       7             3.8380000    0.278085928395
      1   S       8             0.7466000    0.015431561233

      2   S       9          9046.0000000   -0.000304990096
      2   S      10          1357.0000000   -0.002408026379
      2   S      11           309.3000000   -0.011944448725
      2   S      12            87.7300000   -0.048925992909
      2   S      13            28.5600000   -0.134472724725
      2   S      14            10.2100000   -0.315112577700
      2   S      15             3.8380000   -0.242857832550
      2   S      16             0.7466000    1.094382206854

      3   S      17             0.2248000    1.000000000000

      4   P      18            13.5500000    0.058905676772
      4   P      19             2.9170000    0.320461106714
      4   P      20             0.7973000    0.753042061792

      5   P      21             0.2185000    1.000000000000

      6   D      22             0.8170000    1.000000000000

 H         

      7   S      23            13.0100000    0.033498726390
      7   S      24             1.9620000    0.234800801174
      7   S      25             0.4446000    0.813682957883

      8   S      26             0.1220000    1.000000000000

      9   P      27             0.7270000    1.000000000000

 H         

     10   S      28            13.0100000    0.033498726390
     10   S      29             1.9620000    0.234800801174
     10   S      30             0.4446000    0.813682957883

     11   S      31             0.1220000    1.000000000000

     12   P      32             0.7270000    1.000000000000

 H         

     13   S      33            13.0100000    0.033498726390
     13   S      34             1.9620000    0.234800801174
     13   S      35             0.4446000    0.813682957883

     14   S      36             0.1220000    1.000000000000

     15   P      37             0.7270000    1.000000000000

 TOTAL NUMBER OF BASIS SET SHELLS             =   15
 NUMBER OF CARTESIAN GAUSSIAN BASIS FUNCTIONS =   30
 NOTE: THIS RUN WILL RESTRICT THE MO VARIATION SPACE TO SPHERICAL HARMONICS.
 THE NUMBER OF ORBITALS KEPT IN THE VARIATIONAL SPACE WILL BE PRINTED LATER.
 NUMBER OF ELECTRONS                          =    9
 CHARGE OF MOLECULE                           =    1
 SPIN MULTIPLICITY                            =    2
 NUMBER OF OCCUPIED ORBITALS (ALPHA)          =    5
 NUMBER OF OCCUPIED ORBITALS (BETA )          =    4
 TOTAL NUMBER OF ATOMS                        =    4
 THE NUCLEAR REPULSION ENERGY IS       10.9888467770

     $CONTRL OPTIONS
     ---------------
 SCFTYP=MCSCF        RUNTYP=ENERGY       EXETYP=RUN     
 MPLEVL=       2     CITYP =NONE         CCTYP =NONE         VBTYP =NONE    
 DFTTYP=NONE         TDDFT =NONE    
 MULT  =       2     ICHARG=       1     NZVAR =       0     COORD =UNIQUE  
 PP    =NONE         RELWFN=NONE         LOCAL =NONE         NUMGRD=       F
 ISPHER=       1     NOSYM =       1     MAXIT =     200     UNITS =ANGS    
 PLTORB=       F     MOLPLT=       F     AIMPAC=       F     FRIEND=        
 NPRINT=       7     IREST =       0     GEOM  =INPUT   
 NORMF =       0     NORMP =       0     ITOL  =      20     ICUT  =       9
 INTTYP=RYSQUAD      GRDTYP=BEST         QMTTOL= 1.0E-05

     $SYSTEM OPTIONS
     ---------------
  REPLICATED MEMORY=   100000000 WORDS (ON EVERY NODE).
 DISTRIBUTED MEMDDI=        1000 MILLION WORDS IN AGGREGATE,
 MEMDDI DISTRIBUTED OVER   1 PROCESSORS IS  1000000000 WORDS/PROCESSOR.
 TOTAL MEMORY REQUESTED ON EACH PROCESSOR=  1100000000 WORDS.
 TIMLIM=      525600.00 MINUTES, OR     365.0 DAYS.
 PARALL= T  BALTYP=  DLB     KDIAG=    3  COREFL= F
 MXSEQ2=     300 MXSEQ3=     150  mem10=         0

          ----------------
          PROPERTIES INPUT
          ----------------

     MOMENTS            FIELD           POTENTIAL          DENSITY
 IEMOM =       1   IEFLD =       0   IEPOT =       0   IEDEN =       0
 WHERE =COMASS     WHERE =NUCLEI     WHERE =NUCLEI     WHERE =NUCLEI  
 OUTPUT=BOTH       OUTPUT=BOTH       OUTPUT=BOTH       OUTPUT=BOTH    
 IEMINT=       0   IEFINT=       0                     IEDINT=       0
                                                       MORB  =       0

     -------------------------------
     INTEGRAL TRANSFORMATION OPTIONS
     -------------------------------
     NWORD  =            0
     CUTOFF = 1.0E-09     MPTRAN =       0
     DIRTRF =       T     AOINTS =DUP     

          ----------------------
          MCSCF INPUT PARAMETERS
          ----------------------
 CONVERGER SELECTION: FOCAS = F  SOSCF = F  FULLNR = T  QUD = F  JACOBI = F
 SECULAR EQUATION METHOD CISTEP = GMCCI   
 --- GENERAL INPUT OPTIONS:
 MAXIT =     100  MICIT =       1  ACURCY= 1.000E-06
 DAMP  =   0.000  CANONC=       T  ENGTOL= 1.000E-10
 EKT   =       F  NPUNCH=       2  NWORD =         0
 REGENERATE CI AFTER CONVERGENCE = NONE    
 DIABATIZATION AFTER CONVERGENCE =        F
 --- INPUT FOR FULLNR CONVERGER:
 METHOD=DM2       FORS  =       F  DROPC =       T
 LINSER=       F  FCORE =       F  NORB  =      30

          ----------------------
          INTEGRAL INPUT OPTIONS
          ----------------------
 NOPK  =       1 NORDER=       0 SCHWRZ=       T

 ------------------------------------------
 MULTIREFERENCE PERTURBATION THEORY CONTROL
 ------------------------------------------
 MRPT=GMCPT    READ CONVERGED MCSCF VECTORS= F


     ------------------------------------------
     THE POINT GROUP IS C1 , NAXIS= 1, ORDER= 1
     ------------------------------------------

 -- VARIATIONAL SPACE WILL BE RESTRICTED TO PURE SPHERICAL HARMONICS ONLY --
 AFTER EXCLUDING CONTAMINANT COMBINATIONS FROM THE CARTESIAN GAUSSIAN BASIS
 SET, THE NUMBER OF SPHERICAL HARMONICS KEPT IN THE VARIATION SPACE IS   29

     DIMENSIONS OF THE SYMMETRY SUBSPACES ARE
 A   =   29

 ..... DONE SETTING UP THE RUN .....
 CPU     0: STEP CPU TIME=     0.03 TOTAL CPU TIME=          0.0 (      0.0 MIN)
 TOTAL WALL CLOCK TIME=          0.1 SECONDS, CPU UTILIZATION IS    60.00%

          ********************
          1 ELECTRON INTEGRALS
          ********************
 TIME TO DO   DIPOLE INTEGRALS=      0.00
 ...... END OF ONE-ELECTRON INTEGRALS ......
 CPU     0: STEP CPU TIME=     0.00 TOTAL CPU TIME=          0.0 (      0.0 MIN)
 TOTAL WALL CLOCK TIME=          0.1 SECONDS, CPU UTILIZATION IS    60.00%

          -------------
          GUESS OPTIONS
          -------------
          GUESS =MOREAD            NORB  =      29          NORDER=       0
          MIX   =       F          PRTMO =       F          PUNMO =       F
          TOLZ  = 1.0E-08          TOLE  = 1.0E-05
          SYMDEN=       F          PURIFY=       T

 INITIAL GUESS ORBITALS GENERATED BY MOREAD   ROUTINE.

 STATISTICS FOR GENERATION OF SYMMETRY ORBITAL -Q- MATRIX
 NUMBER OF CARTESIAN ATOMIC ORBITALS=         30
 NUMBER OF SPHERICAL CONTAMINANTS DROPPED=     1
 NUMBER OF LINEARLY DEPENDENT MOS DROPPED=     0
 TOTAL NUMBER OF MOS IN VARIATION SPACE=      29
 ORBITAL PURIFICATION WILL OCCUR

 SYMMETRIES FOR INITIAL GUESS ORBITALS FOLLOW.   BOTH SET(S).
     5 ORBITALS ARE OCCUPIED (    1 CORE ORBITALS).
     1=A        2=A        3=A        4=A        5=A        6=A        7=A   
     8=A        9=A       10=A       11=A       12=A       13=A       14=A   
    15=A       16=A       17=A       18=A       19=A       20=A       21=A   
    22=A       23=A       24=A       25=A       26=A       27=A       28=A   
    29=A   
 ...... END OF INITIAL ORBITAL SELECTION ......
 CPU     0: STEP CPU TIME=     0.02 TOTAL CPU TIME=          0.0 (      0.0 MIN)
 TOTAL WALL CLOCK TIME=          0.1 SECONDS, CPU UTILIZATION IS    83.33%

                    ----------------------
                    AO INTEGRAL TECHNOLOGY
                    ----------------------
     S,P,L SHELL ROTATED AXIS INTEGRALS, REPROGRAMMED BY
        KAZUYA ISHIMURA (IMS) AND JOSE SIERRA (SYNSTAR).
     S,P,D,L SHELL ROTATED AXIS INTEGRALS PROGRAMMED BY
        KAZUYA ISHIMURA (INSTITUTE FOR MOLECULAR SCIENCE).
     S,P,D,F,G SHELL TO TOTAL QUARTET ANGULAR MOMENTUM SUM 5,
        ERIC PROGRAM BY GRAHAM FLETCHER (ELORET AND NASA ADVANCED
        SUPERCOMPUTING DIVISION, AMES RESEARCH CENTER).
     S,P,D,F,G,L SHELL GENERAL RYS QUADRATURE PROGRAMMED BY
        MICHEL DUPUIS (PACIFIC NORTHWEST NATIONAL LABORATORY).

          --------------------
          2 ELECTRON INTEGRALS
          --------------------

 DIRECT SCF METHOD SKIPS INTEGRAL STORAGE ON DISK.
 DIRECT TRANSFORMATION SKIPS AO INTEGRAL STORAGE ON DISK.
  ...... END OF TWO-ELECTRON INTEGRALS .....
 STEP CPU TIME =     0.02 TOTAL CPU TIME =          0.1 (      0.0 MIN)
 TOTAL WALL CLOCK TIME=          0.1 SECONDS, CPU UTILIZATION IS    87.50%
 DDI: Creating Array [0] - 900 x 36 = 32400 words.
 DDI: Creating Array [1] - 21 x 288 = 6048 words.
 DDI: Creating Array [2] - 36 x 36 = 1296 words.
 DDI: Creating Array [3] - 465 x 36 = 16740 words.

          -----------------
          MCSCF CALCULATION
          -----------------

 ----- NUCLEAR ENERGY ----- =        10.9888467770

     -------------------------------------------------
     GMC-PT/GMC-QDPT or general MCSCF input parameters
     -------------------------------------------------
 # of frozen core orbs. =         0 ->         0
 # of doubly occ. orbs. =         1
 # of active      orbs. =         7
 # of virtual     orbs. =        21
 # of active electrons  =         7
 # of states in CI      =         3
 Highest state in CI    =         3
 kstate =  1 1 1
 avecoe =  0.333 0.333 0.333
 State symmetry           = A           
 Assigned symmetry number = 1

 <<<Act. MO sym.: 1111111

 <<<Division of 1-ext.:  0
 <<<Division of 2-ext.:  0

 *** Reference space

 Reference type: ORMAS (= Occupation restricted multiple active space)
 # of orbitals          =  7
 # of minimum electrons =  7
 # of maximum electrons =  7
 State symmetry    =    1 (input)
 2*Sz              =    1 (input)
 Spin multiplicity =    2 (input)
 Dimension of reference space =      1225  (from      3432 walks)

 Dimension of reference space =      1225  (from      1225 walks)

 <<<Ionized spaces for Ref-CI:
      0:         1225 /   -1-0:         1960 /  0-1-0:         2891

 EVALUATING EXCHANGE INTEGRALS FOR DIRECT INTEGRAL TRANSFORMATION
 SCHWARZ INEQUALITY OVERHEAD:       465 INTEGRALS, T=        0.00

     --------------------------------------------
     PARTIAL TWO ELECTRON INTEGRAL TRANSFORMATION
     --------------------------------------------

 NUMBER OF CORE MOLECULAR ORBITALS     =    1
 NUMBER OF OCCUPIED MOLECULAR ORBITALS =    8
 TOTAL NUMBER OF MOLECULAR ORBITALS    =   29
 TOTAL NUMBER OF ATOMIC ORBITALS       =   30
 THRESHOLD FOR KEEPING TRANSFORMED 2E- INTEGRALS = 1.000E-09

 -------------------------------     ------------------------------
 DISTRIBUTED DATA TRANSFORMATION     PROGRAM WRITTEN BY G. FLETCHER
 -------------------------------     ------------------------------

 THE DISTRIBUTED MEMORY REQUIRED FOR THIS STEP IS MEMDDI=         1 MWORDS
 CREATING DISTRIBUTED STORAGE FOR [VIR OCC|VIR OCC] INTEGRALS
 CREATING DISTRIBUTED STORAGE FOR [VIR OCC|OCC OCC] INTEGRALS
 CREATING DISTRIBUTED STORAGE FOR [OCC OCC|OCC OCC] INTEGRALS
 CREATING DISTRIBUTED STORAGE FOR [VIR VIR|OCC OCC] INTEGRALS
 FOR    1 PROCESSORS, THE REPLICATED MEMORY NEEDED IS       73700 WORDS.
 SCHWARZ INEQUALITY OVERHEAD:       465 INTEGRALS, T=        0.00

      DIRECT 4-INDEX TRANSFORMATION 
      SCHWARZ INEQUALITY TEST SKIPPED          0 INTEGRAL BLOCKS
 ----- FROZEN CORE ENERGY =       -47.5804403989
 ... END OF INTEGRAL TRANSFORMATION ...
 CPU     0: STEP CPU TIME=     0.22 TOTAL CPU TIME=          0.3 (      0.0 MIN)
 TOTAL WALL CLOCK TIME=          0.3 SECONDS, CPU UTILIZATION IS    96.67%

     --------------------------------     -----------------------------
     MCHF NEWTON-RAPHSON OPTIMIZATION     CODE WRITTEN BY MICHEL DUPUIS
     --------------------------------     -----------------------------
     PARALLEL VERSION WRITTEN BY G. FLETCHER (ELORET)
     NASA ADVANCED SUPERCOMPUTING DIVISION, AMES RESEARCH CENTER

 NUMBER OF INDEPENDENT ORBITAL ROTATION PARAMETERS =   175
 ..... DONE SOLVING NEWTON-RAPHSON EQUATIONS .....
 CPU     0: STEP CPU TIME=     0.76 TOTAL CPU TIME=          1.0 (      0.0 MIN)
 TOTAL WALL CLOCK TIME=          1.1 SECONDS, CPU UTILIZATION IS    98.13%
 ..... DONE WITH NTN-RPH ORBITAL ROTATIONS ..... 
 CPU     0: STEP CPU TIME=     0.00 TOTAL CPU TIME=          1.0 (      0.0 MIN)
 TOTAL WALL CLOCK TIME=          1.1 SECONDS, CPU UTILIZATION IS    98.13%
 MAXIMUM MEMORY USED BY NTN-RPH CODE WAS     57645 WORDS.

 ITER     TOTAL ENERGY      DEL(E)  LAGRANGIAN ASYMMETRY   SQCDF  MICIT   DAMP
   1      -55.572462637 -0.572462637  0.152802   10    4 9.636E-02  1   0.0000
   2      -55.635430816 -0.062968179  0.020008   12    5 4.589E-01  1   0.0000
   3      -55.672415479 -0.036984663  0.014318   11    6 2.395E-01  1   0.0176
   4      -55.689694691 -0.017279212  0.005113    9    7 5.253E-02  1   0.0064
   5      -55.692265541 -0.002570850  0.000856   22    5 1.664E-03  1   0.0000
   6      -55.692354253 -0.000088712  0.000396   22    5 1.571E-04  1   0.0000
   7      -55.692364822 -0.000010569  0.000191   22    5 3.299E-05  1   0.0000
   8      -55.692367131 -0.000002309  0.000098   22    5 8.425E-06  1   0.0000
   9      -55.692367721 -0.000000590  0.000052   22    5 2.415E-06  1   0.0000
  10      -55.692367887 -0.000000166  0.000029   22    5 7.525E-07  1   0.0000
  11      -55.692367938 -0.000000050  0.000016   22    5 2.490E-07  1   0.0000
  12      -55.692367954 -0.000000016  0.000009   22    5 8.654E-08  1   0.0000
  13      -55.692367959 -0.000000005  0.000005   22    5 3.103E-08  1   0.0000
  14      -55.692367961 -0.000000002  0.000003   22    5 1.144E-08  1   0.0000
  15      -55.692367962 -0.000000001  0.000002   22    5 4.140E-09  1   0.0000
  16      -55.692367962 -0.000000000  0.000002   13    3 1.694E-09  1   0.0000
  17      -55.692367962 -0.000000000  0.000001   22    5 6.409E-10  1   0.0000

          --------------------
          LAGRANGIAN CONVERGED
          --------------------

 FINAL MCSCF ENERGY IS      -55.6923679624 AFTER  17 ITERATIONS

 -MCCI- BASED ON OPTIMIZED ORBITALS
 ----------------------------------

 PLEASE NOTE: IF THE ACTIVE ORBITALS ARE CANONICALIZED BELOW,
 THE FOLLOWING CI EXPANSION COEFFICIENTS AND THE DENSITY DO NOT
 CORRESPOND TO THE PRINTED ORBITALS.  THE PRINTED EXPANSIONS MATCH
 THE ORBITALS USED DURING THE LAST ITERATION.  IF YOU WISH TO SEE
 CI EXPANSIONS BASED ON THE CANONICAL (OR NATURAL) ORBITALS, YOU
 MUST RUN A CI CALCULATION WITH THAT ORBITAL CHOICE READ IN $VEC.

 Averaged energy =     -55.692367962

 State #    1  Energy =     -55.826705663  S =  0.500

      Det      Coef    Occupancy (Ignoring core)
      ---      ----    --------- --------- -----
        1   -0.898185  11110001110000
        5    0.071828  01111001110000
        8    0.127988  10110101110000
       17   -0.142621  11010011110000
       36   -0.254287  11110001101000
       71   -0.134782  11110001011000
      211   -0.053066  11110000110100
      386   -0.104466  11110001010010
      701    0.098736  11110001100001
      717   -0.072215  11010011100001

 State #    2  Energy =     -55.733746192  S =  0.500

      Det      Coef    Occupancy (Ignoring core)
      ---      ----    --------- --------- -----
        1    0.254252  11110001110000
       36   -0.917148  11110001101000
       38   -0.050080  11011001101000
       39   -0.054834  10111001101000
       40    0.071995  01111001101000
       43    0.102203  10110101101000
       52   -0.117499  11010011101000
      281   -0.053510  11110000101100
      456   -0.092831  11110001001010
      701   -0.057906  11110001100001

 State #    3  Energy =     -55.516652032  S =  0.500

      Det      Coef    Occupancy (Ignoring core)
      ---      ----    --------- --------- -----
        1   -0.122485  11110001110000
       36   -0.068733  11110001101000
       71    0.944747  11110001011000
       78   -0.064429  10110101011000
       87    0.089357  11010011011000
      122   -0.054332  11010010111000
      316    0.082336  11110000011100
      806    0.108960  11110001001001
      822   -0.081966  11010011001001

 DENSITY MATRIX OVER ACTIVE MO-S

             1           2           3           4           5

    1    1.9719536
    2   -0.0121132   1.6343069
    3    0.0189475   0.0025099   1.6155729
    4   -0.0002712  -0.0009332   0.0057862   1.6497935
    5    0.1107561   0.0498440  -0.0583919  -0.0119162   0.0405352
    6    0.0079765  -0.1523282   0.0196224  -0.0442332  -0.0023389
    7    0.0124474  -0.0000286  -0.1726662   0.0477283   0.0108480

             6           7

    6    0.0359318
    7   -0.0052075   0.0519061

 FORMING THE "STANDARD FOCK OPERATOR" IN DIRECT AO INTEGRAL MODE...
 ONLY THE    1 CORE AND   21 VIRTUAL ORBITALS WILL BE CANONICALIZED

          ----------------------
          MCSCF NATURAL ORBITALS
          ----------------------

                      1          2          3          4          5
                  -15.9827     1.9793     1.6544     1.6482     1.6362
                     A          A          A          A          A   
    1  N  1  S    1.001062   0.008880  -0.007942   0.004980  -0.002316
    2  N  1  S   -0.001932   0.433228  -0.113522   0.159370  -0.037956
    3  N  1  S   -0.006303   0.336471  -0.200935   0.220464  -0.060217
    4  N  1  X    0.000175  -0.028299   0.310407   0.343279   0.000262
    5  N  1  Y    0.000143   0.031904  -0.023257  -0.018629   0.553858
    6  N  1  Z    0.001151   0.082438   0.496596  -0.299912  -0.028843
    7  N  1  X    0.000093  -0.008477   0.147029   0.097330  -0.010841
    8  N  1  Y   -0.000020   0.002681  -0.035992  -0.013613   0.326698
    9  N  1  Z   -0.000596   0.017805   0.342041  -0.177982  -0.038787
   10  N  1 XX    0.000425   0.004347  -0.007234   0.008234  -0.004384
   11  N  1 YY   -0.000233  -0.003796  -0.011620   0.004572   0.005709
   12  N  1 ZZ   -0.000192  -0.000552   0.018854  -0.012805  -0.001325
   13  N  1 XY    0.000084   0.001524   0.003620   0.005819  -0.012109
   14  N  1 XZ   -0.000038  -0.003397   0.009970   0.017055  -0.000097
   15  N  1 YZ    0.000085   0.000813   0.002129  -0.003545   0.023639
   16  H  2  S   -0.001598   0.205491   0.002696  -0.289755   0.255040
   17  H  2  S    0.000276   0.008509   0.017364  -0.052263   0.111359
   18  H  2  X   -0.000603   0.024800   0.010170  -0.007525   0.021770
   19  H  2  Y    0.000530  -0.022309  -0.004658   0.029798   0.000168
   20  H  2  Z    0.000495  -0.016060   0.022734   0.004285  -0.018673
   21  H  3  S   -0.001291   0.164756  -0.031761  -0.241320  -0.269172
   22  H  3  S    0.000292  -0.000609   0.013168  -0.033816  -0.113526
   23  H  3  X   -0.000576   0.024240  -0.000020  -0.018274  -0.030695
   24  H  3  Y   -0.000343   0.014813  -0.004806  -0.024886   0.000600
   25  H  3  Z    0.000350  -0.007014   0.023600  -0.002952   0.008589
   26  H  4  S   -0.001845   0.166244   0.280077   0.247342   0.046480
   27  H  4  S    0.000671  -0.001152   0.046751   0.022347  -0.004960
   28  H  4  X    0.000980  -0.032124  -0.029179  -0.026217  -0.012604
   29  H  4  Y    0.000219  -0.004940  -0.010319  -0.010371   0.017611
   30  H  4  Z    0.000296  -0.002260   0.011724  -0.018901  -0.002178

                      6          7          8
                    0.0349     0.0280     0.0190
                     A          A          A   
    1  N  1  S   -0.123123  -0.087757   0.139139
    2  N  1  S   -0.442829  -0.350315   0.413745
    3  N  1  S   -0.083450  -0.216363  -0.020944
    4  N  1  X    0.078752   0.402723   0.816365
    5  N  1  Y    0.552721  -0.477011   0.267063
    6  N  1  Z   -0.327552  -0.493673   0.179786
    7  N  1  X    0.046345   0.107480   0.093322
    8  N  1  Y   -0.083490   0.020152   0.016011
    9  N  1  Z    0.037322  -0.003501  -0.089322
   10  N  1 XX    0.048360   0.017567  -0.007590
   11  N  1 YY   -0.044300  -0.019274  -0.013371
   12  N  1 ZZ   -0.004060   0.001706   0.020961
   13  N  1 XY    0.050649  -0.028839  -0.026851
   14  N  1 XZ   -0.022529  -0.036436  -0.032251
   15  N  1 YZ   -0.004665   0.019059  -0.025573
   16  H  2  S   -0.200755   0.798545   0.004313
   17  H  2  S   -0.150657   0.209400  -0.020608
   18  H  2  X   -0.022756   0.023421  -0.035888
   19  H  2  Y   -0.025041  -0.052141  -0.013921
   20  H  2  Z    0.026600  -0.004563   0.004895
   21  H  3  S    0.719711   0.061228   0.288113
   22  H  3  S    0.223310  -0.069938   0.098840
   23  H  3  X    0.063434  -0.012940   0.008888
   24  H  3  Y    0.023646   0.038460   0.022868
   25  H  3  Z    0.007312   0.029777   0.007339
   26  H  4  S    0.315220   0.093989  -0.808307
   27  H  4  S    0.044646  -0.014622  -0.153734
   28  H  4  X   -0.028653  -0.021583   0.079533
   29  H  4  Y   -0.017283   0.000729   0.016165
   30  H  4  Z   -0.001646   0.002550  -0.028216

          ------------------------
          MCSCF OPTIMIZED ORBITALS
          ------------------------

                      1          2          3          4          5
                  -15.9827     0.0000     0.0000     0.0000     0.0000
                     A          A          A          A          A   
    1  N  1  S    1.001062  -0.001173  -0.015371   0.006530  -0.010862
    2  N  1  S   -0.001932   0.398766   0.011094  -0.002305  -0.184162
    3  N  1  S   -0.006303   0.328362   0.063190  -0.064876  -0.280227
    4  N  1  X    0.000175  -0.004422   0.372490  -0.021178   0.047861
    5  N  1  Y    0.000143   0.013756   0.001925   0.469848  -0.012523
    6  N  1  Z    0.001151   0.050100  -0.003862   0.012475   0.587443
    7  N  1  X    0.000093   0.002053   0.150555  -0.019392   0.066448
    8  N  1  Y   -0.000020  -0.013490  -0.010108   0.334055  -0.039167
    9  N  1  Z   -0.000596   0.023250   0.042718  -0.026506   0.387038
   10  N  1 XX    0.000425   0.007407   0.003947  -0.009178  -0.009971
   11  N  1 YY   -0.000233  -0.006577  -0.001284   0.008960  -0.012352
   12  N  1 ZZ   -0.000192  -0.000830  -0.002663   0.000218   0.022323
   13  N  1 XY    0.000084   0.003601   0.009731  -0.019031   0.002666
   14  N  1 XZ   -0.000038  -0.004744   0.022750  -0.000853   0.000461
   15  N  1 YZ    0.000085   0.000663   0.002086   0.025110   0.002415
   16  H  2  S   -0.001598   0.208909  -0.239966   0.342423   0.118300
   17  H  2  S    0.000276   0.004779  -0.029337   0.140357   0.028975
   18  H  2  X   -0.000603   0.024182   0.002868   0.026741   0.011052
   19  H  2  Y    0.000530  -0.024438   0.024389  -0.002931  -0.018512
   20  H  2  Z    0.000495  -0.013873   0.015034  -0.022526   0.018082
   21  H  3  S   -0.001291   0.197864  -0.257388  -0.313338   0.121096
   22  H  3  S    0.000292   0.008992  -0.033865  -0.136518   0.038747
   23  H  3  X   -0.000576   0.027016  -0.017702  -0.035150   0.012534
   24  H  3  Y   -0.000343   0.016227  -0.025874   0.002475   0.008179
   25  H  3  Z    0.000350  -0.005624   0.010240   0.009012   0.020038
   26  H  4  S   -0.001845   0.201322   0.438432   0.004577   0.113868
   27  H  4  S    0.000671   0.003511   0.059348  -0.011924   0.031092
   28  H  4  X    0.000980  -0.035663  -0.045520  -0.009703  -0.010709
   29  H  4  Y    0.000219  -0.006927  -0.014651   0.019912  -0.004351
   30  H  4  Z    0.000296  -0.002116  -0.006822  -0.000319   0.020550

                      6          7          8          9         10
                    0.0000     0.0000     0.0000     0.1191     0.1990
                     A          A          A          A          A   
    1  N  1  S    0.180637   0.096453  -0.007817  -0.093377   0.032624
    2  N  1  S    0.677445   0.254357  -0.027005  -0.132938   0.035782
    3  N  1  S    0.226785  -0.099025   0.065161   1.058121  -0.451338
    4  N  1  X   -0.097632   0.947904  -0.016474   0.037903   0.144197
    5  N  1  Y    0.028170   0.085810   0.826900  -0.022721   0.061849
    6  N  1  Z    0.610973   0.006112   0.080091  -0.125410   0.041538
    7  N  1  X   -0.075253   0.142571  -0.015391  -0.227467  -0.764955
    8  N  1  Y    0.031848   0.014734  -0.034787   0.069622  -0.172330
    9  N  1  Z   -0.045919  -0.069907  -0.003530   0.307539  -0.035809
   10  N  1 XX   -0.045367  -0.000056   0.023472   0.082423  -0.067108
   11  N  1 YY    0.038396  -0.020571  -0.023249  -0.046611   0.029445
   12  N  1 ZZ    0.006971   0.020627  -0.000223  -0.035811   0.037663
   13  N  1 XY   -0.019312  -0.033440   0.048433   0.008440  -0.037887
   14  N  1 XZ    0.032037  -0.041317  -0.001604  -0.059387  -0.085613
   15  N  1 YZ   -0.018263  -0.017496  -0.018297   0.023507  -0.015426
   16  H  2  S   -0.437466   0.257377  -0.615741   0.369874   0.171455
   17  H  2  S   -0.059834   0.048215  -0.234838  -0.906741  -0.570998
   18  H  2  X   -0.011000  -0.025733  -0.037281  -0.104532  -0.007204
   19  H  2  Y    0.048938  -0.029892   0.010725  -0.013136   0.002956
   20  H  2  Z   -0.012578   0.005643   0.021243   0.051601   0.043682
   21  H  3  S   -0.423595   0.285740   0.533160   0.428062   0.182891
   22  H  3  S   -0.066359   0.071328   0.218806  -0.880897  -0.623236
   23  H  3  X   -0.028019   0.003785   0.053840  -0.067469  -0.030939
   24  H  3  Y   -0.036350   0.033094  -0.001014   0.029582  -0.000030
   25  H  3  Z   -0.024224   0.018904  -0.010919   0.040162   0.063166
   26  H  4  S   -0.472957  -0.679373   0.000888   0.283190  -0.549529
   27  H  4  S   -0.059346  -0.142595   0.007310  -0.480943   1.941365
   28  H  4  X    0.053013   0.062505   0.008473   0.066111  -0.127329
   29  H  4  Y    0.013768   0.013487  -0.007722  -0.003606  -0.036940
   30  H  4  Z   -0.008979  -0.025758  -0.009611  -0.025917  -0.066992

                     11         12         13         14         15
                    0.2599     0.5272     0.5795     0.6732     0.8634
                     A          A          A          A          A   
    1  N  1  S    0.013637  -0.105742  -0.024603   0.034960  -0.561549
    2  N  1  S    0.032420  -0.140799   0.039839   0.053770  -1.261041
    3  N  1  S   -0.086204   0.735594   0.499301  -0.112523   2.125636
    4  N  1  X    0.038108  -0.233376   0.129292  -0.394073   0.108129
    5  N  1  Y    0.038279   0.413326  -0.502187  -0.267364  -0.004256
    6  N  1  Z    0.012355  -0.591664  -0.411089   0.160110   0.285626
    7  N  1  X   -0.119916   0.571750  -0.529914   1.736162  -0.132843
    8  N  1  Y   -0.465687  -0.595461   1.151485   0.653505   0.032878
    9  N  1  Z   -0.079486   0.782079   0.822819  -0.425137  -0.156932
   10  N  1 XX    0.013159  -0.026592  -0.045492  -0.026017  -0.074642
   11  N  1 YY   -0.005570   0.003223   0.028923  -0.000650   0.071070
   12  N  1 ZZ   -0.007589   0.023369   0.016570   0.026667   0.003571
   13  N  1 XY    0.084139   0.009364   0.025335   0.049163   0.063840
   14  N  1 XZ    0.009057  -0.005536  -0.001482  -0.078835   0.006292
   15  N  1 YZ   -0.057958  -0.001792  -0.004085  -0.035338   0.046419
   16  H  2  S   -0.629844  -0.002147  -0.632360   0.201919   0.021367
   17  H  2  S    2.173450   0.343492  -0.887047   0.087941  -0.300337
   18  H  2  X    0.019359   0.089767  -0.062183   0.110750   0.126083
   19  H  2  Y   -0.096971   0.016401   0.096217  -0.172138   0.242164
   20  H  2  Z   -0.032818   0.059282   0.117788   0.080939   0.167605
   21  H  3  S    0.590198  -0.239888  -0.007211   0.609652   0.007400
   22  H  3  S   -2.049267  -0.321117   0.509054   0.529801  -0.368795
   23  H  3  X   -0.029007   0.030095   0.011132   0.235929   0.029532
   24  H  3  Y   -0.091674  -0.070289  -0.110304   0.064058  -0.302694
   25  H  3  Z   -0.001379   0.119615   0.018529   0.136429   0.048109
   26  H  4  S    0.087610  -0.497824  -0.225517  -0.566941  -0.152507
   27  H  4  S   -0.148193  -0.348221   0.243923  -0.619141  -0.479442
   28  H  4  X   -0.025371   0.067582  -0.038754   0.162054   0.050092
   29  H  4  Y    0.029767   0.024343   0.089998   0.106455   0.160038
   30  H  4  Z    0.000631   0.031035   0.047854  -0.152338   0.135388

                     16         17         18         19         20
                    1.0550     1.0857     1.2213     1.3036     1.4336
                     A          A          A          A          A   
    1  N  1  S    0.126256  -0.337133  -0.010144  -0.235351  -0.359751
    2  N  1  S    0.251762  -0.702741  -0.017708  -0.503068  -0.772584
    3  N  1  S   -0.504255   1.481968   0.054948   0.878787   1.171185
    4  N  1  X   -0.109615  -0.117876  -0.203694   0.020004   0.084233
    5  N  1  Y   -0.040949  -0.121640  -0.054079   0.077237   0.003811
    6  N  1  Z   -0.066778   0.028590  -0.027396  -0.004459  -0.082992
    7  N  1  X    0.711052   0.572734   1.061549   0.203906  -0.332143
    8  N  1  Y    0.069029   0.551795  -0.021569  -0.216898   0.303277
    9  N  1  Z    0.218596   0.225213  -0.084093   0.354868   0.620147
   10  N  1 XX    0.050717   0.058874   0.000701  -0.013185   0.123326
   11  N  1 YY    0.221968  -0.069408  -0.003834   0.139838  -0.130722
   12  N  1 ZZ   -0.272686   0.010533   0.003133  -0.126654   0.007396
   13  N  1 XY   -0.034317  -0.192123   0.081304   0.034513   0.024158
   14  N  1 XZ   -0.034621   0.076729   0.046805  -0.027358  -0.013794
   15  N  1 YZ   -0.017161  -0.180909   0.268133  -0.118906  -0.088433
   16  H  2  S    0.295358  -0.338539   0.181990  -0.117440  -0.477497
   17  H  2  S    0.071861  -0.208259   0.112383  -0.073922  -0.235496
   18  H  2  X    0.038199  -0.233081   0.122268  -0.562708   0.071616
   19  H  2  Y    0.382793  -0.021915  -0.098434  -0.071484  -0.129576
   20  H  2  Z   -0.460314  -0.319549   0.066495  -0.366704   0.291459
   21  H  3  S    0.453493   0.136528   0.383324  -0.335745  -0.429912
   22  H  3  S    0.081877   0.045010   0.064610   0.028852   0.131980
   23  H  3  X    0.009950  -0.236113  -0.469292   0.117234  -0.012097
   24  H  3  Y   -0.269564   0.143007   0.245717   0.237434   0.219061
   25  H  3  Z   -0.370232   0.127317  -0.523433  -0.007924  -0.564060
   26  H  4  S   -0.240460  -0.542171  -0.502422  -0.259273  -0.232690
   27  H  4  S   -0.095304  -0.418230  -0.244628  -0.147436  -0.062077
   28  H  4  X    0.074717   0.144590  -0.203020  -0.136306   0.074939
   29  H  4  Y   -0.073053  -0.470645   0.238368   0.610487  -0.262905
   30  H  4  Z   -0.233168   0.279550   0.372489  -0.120856  -0.628304

                     21         22         23         24         25
                    1.6000     1.7320     1.8681     1.9712     2.1179
                     A          A          A          A          A   
    1  N  1  S    0.132536   0.082183   0.108537   0.006615   0.048109
    2  N  1  S    0.250783   0.287763   0.239827  -0.004782   0.103439
    3  N  1  S   -0.655812   0.793556   0.206462  -0.173818   0.012150
    4  N  1  X   -0.155245  -0.318867   0.543342   0.035896   0.063805
    5  N  1  Y    0.120572   0.130003   0.121187   0.045009   0.127396
    6  N  1  Z    0.016430   0.243473  -0.006660  -0.006712   0.043719
    7  N  1  X    0.680091  -0.152034   0.342098  -0.134205   0.026806
    8  N  1  Y    0.402323  -0.032692   0.069546   0.157815  -0.066268
    9  N  1  Z   -0.330510   0.282493   0.030919  -0.251357   0.063429
   10  N  1 XX    0.008009  -0.130903  -0.207428  -0.059628  -0.136975
   11  N  1 YY   -0.108477   0.097682   0.136341   0.855660  -0.113154
   12  N  1 ZZ    0.100468   0.033221   0.071087  -0.796032   0.250128
   13  N  1 XY    0.128776  -0.002431  -0.025244   0.032481   0.427635
   14  N  1 XZ   -0.013650   0.146637  -0.186170   0.118975  -0.021207
   15  N  1 YZ   -0.189426  -0.240259  -0.190573   0.007986   0.104380
   16  H  2  S    0.439051  -0.030046   0.004418  -0.108198  -0.334170
   17  H  2  S   -0.290554  -0.320298   0.194623  -0.144856  -0.350211
   18  H  2  X   -0.448563  -0.568694   0.073408   0.119940   0.133618
   19  H  2  Y    0.074148   0.261223  -0.205061  -0.078379   1.062445
   20  H  2  Z    0.277177   0.547149  -0.058546   0.416258  -0.117180
   21  H  3  S    0.241452  -0.068905   0.008464   0.078916   0.346033
   22  H  3  S    0.501630  -0.301091   0.108682   0.180645   0.335363
   23  H  3  X    0.606940  -0.665803   0.094692   0.155181   0.116601
   24  H  3  Y   -0.147865  -0.152167   0.084431   0.399053   1.008482
   25  H  3  Z   -0.436009   0.067420  -0.439992   0.142610   0.188918
   26  H  4  S   -0.210280  -0.058638  -0.110254   0.083340  -0.064372
   27  H  4  S    0.032649  -0.044792  -0.505546   0.093558   0.000693
   28  H  4  X   -0.258665   0.298984   0.974796  -0.065170   0.192980
   29  H  4  Y   -0.303248   0.090291   0.197235  -0.301122  -0.152056
   30  H  4  Z    0.444403  -0.291860   0.412140   0.179432  -0.014328

                     26         27         28         29
                    2.2322     2.5298     2.6557     2.9983
                     A          A          A          A   
    1  N  1  S   -0.102233   0.068182  -0.141817  -0.066028
    2  N  1  S   -0.165744   0.168139  -0.144295  -0.020000
    3  N  1  S    0.773820   0.474850   1.775238   1.391026
    4  N  1  X   -0.000684   0.330231  -0.201570   0.356906
    5  N  1  Y    0.009919   0.185570   0.178561  -0.093411
    6  N  1  Z    0.042846   0.093145   0.248017   0.102778
    7  N  1  X   -0.063209   1.012214  -0.862634   0.532209
    8  N  1  Y    0.494762   0.489158   0.328758  -0.121424
    9  N  1  Z    0.395332   0.053241   0.520177   0.138474
   10  N  1 XX   -0.363206   0.497913   0.648594   1.078982
   11  N  1 YY    0.219989  -0.316636  -0.259000  -0.466349
   12  N  1 ZZ    0.143217  -0.181277  -0.389594  -0.612633
   13  N  1 XY    0.411688  -0.475872  -0.398193   1.030447
   14  N  1 XZ   -0.048765   0.818842  -0.998240   0.188730
   15  N  1 YZ    0.766812   0.502315   0.402030  -0.244852
   16  H  2  S   -0.245149  -0.212746  -1.247642   0.497702
   17  H  2  S   -0.150163  -0.169101  -0.501623   0.122123
   18  H  2  X   -0.674307  -0.230485  -0.662953   0.270350
   19  H  2  Y   -0.364367   0.207656   0.637146  -0.353528
   20  H  2  Z   -0.176797   0.230206   0.621949  -0.245740
   21  H  3  S   -0.251199   0.663257  -0.447340  -0.713007
   22  H  3  S   -0.015304   0.383537  -0.076062  -0.188581
   23  H  3  X    0.019347   0.671332  -0.236332  -0.607477
   24  H  3  Y   -0.353935   0.227618  -0.040653  -0.457981
   25  H  3  Z    0.012418  -0.116713   0.184000   0.388984
   26  H  4  S   -0.202618  -0.958156  -0.144481  -1.253707
   27  H  4  S   -0.108063  -0.413858   0.030240  -0.361367
   28  H  4  X    0.316906   0.772604   0.135614   0.961358
   29  H  4  Y   -0.519236   0.370658   0.065804   0.128071
   30  H  4  Z   -0.212815  -0.041060   0.266127   0.380027
 .....DONE WITH MCSCF ITERATIONS.....
 CPU     0: STEP CPU TIME=    10.84 TOTAL CPU TIME=         11.9 (      0.2 MIN)
 TOTAL WALL CLOCK TIME=         11.9 SECONDS, CPU UTILIZATION IS    99.83%

     ----------------------------------------------------------------
     PROPERTY VALUES FOR THE MCSCF SELF-CONSISTENT FIELD WAVEFUNCTION
     ----------------------------------------------------------------

          -----------------
          ENERGY COMPONENTS
          -----------------

         WAVEFUNCTION NORMALIZATION =       1.0000000000

                ONE ELECTRON ENERGY =     -93.5209752708
                TWO ELECTRON ENERGY =      26.8397605314
           NUCLEAR REPULSION ENERGY =      10.9888467770
                                      ------------------
                       TOTAL ENERGY =     -55.6923679624

 ELECTRON-ELECTRON POTENTIAL ENERGY =      26.8397605314
  NUCLEUS-ELECTRON POTENTIAL ENERGY =    -149.1790846270
   NUCLEUS-NUCLEUS POTENTIAL ENERGY =      10.9888467770
                                      ------------------
             TOTAL POTENTIAL ENERGY =    -111.3504773186
               TOTAL KINETIC ENERGY =      55.6581093562
                 VIRIAL RATIO (V/T) =       2.0006155187

          ---------------------------------------
          MULLIKEN AND LOWDIN POPULATION ANALYSES
          ---------------------------------------

     ATOMIC MULLIKEN POPULATION IN EACH MOLECULAR ORBITAL

                      1          2          3          4          5

                  2.000000   1.979307   1.654358   1.648201   1.636248

    1             2.000588   1.367308   1.397630   0.958877   1.210598
    2            -0.000212   0.266116   0.009384   0.265066   0.178288
    3            -0.000111   0.175218   0.012834   0.199461   0.232277
    4            -0.000265   0.170666   0.234510   0.224797   0.015085

                      6          7          8

                  0.034905   0.028013   0.018968

    1             0.015129   0.014425   0.010123
    2             0.000742   0.013277   0.000057
    3             0.016126   0.000209   0.000944
    4             0.002909   0.000102   0.007844
 WARNING! MCSCF POPULATIONS SHOWN ABOVE ARE FOR THE NATURAL ORBITALS.
 IGNORE THE ABOVE DATA FOR MCSCF FUNCTIONS WHICH ARE NOT OF -FORS- TYPE.
 THE FOLLOWING POPULATIONS ARE CORRECT FOR ANY MCSCF WAVEFUNCTION.

               ----- POPULATIONS IN EACH AO -----
                             MULLIKEN      LOWDIN
              1  N  1  S      2.00222     1.90440
              2  N  1  S      0.81741     0.58014
              3  N  1  S      0.71435     0.41726
              4  N  1  X      0.61440     0.53294
              5  N  1  Y      0.76519     0.71030
              6  N  1  Z      0.84086     0.79294
              7  N  1  X      0.23545     0.37467
              8  N  1  Y      0.44684     0.49796
              9  N  1  Z      0.52268     0.56122
             10  N  1 XX      0.00046     0.19015
             11  N  1 YY      0.00172     0.15092
             12  N  1 ZZ      0.00345     0.14428
             13  N  1 XY      0.00569     0.00902
             14  N  1 XZ      0.00395     0.01268
             15  N  1 YZ      0.00000     0.00552
             16  H  2  S      0.61358     0.46567
             17  H  2  S      0.06110     0.15264
             18  H  2  X      0.01886     0.03415
             19  H  2  Y      0.02123     0.05280
             20  H  2  Z      0.01794     0.03716
             21  H  3  S      0.52548     0.39980
             22  H  3  S      0.06034     0.15379
             23  H  3  X      0.02392     0.03834
             24  H  3  Y      0.01560     0.04477
             25  H  3  Z      0.01162     0.02621
             26  H  4  S      0.57137     0.44571
             27  H  4  S      0.02862     0.14806
             28  H  4  X      0.03547     0.06200
             29  H  4  Y      0.00993     0.02574
             30  H  4  Z      0.01025     0.02878

          ----- MULLIKEN ATOMIC OVERLAP POPULATIONS -----
          (OFF-DIAGONAL ELEMENTS NEED TO BE MULTIPLIED BY 2)

             1           2           3           4

    1    6.1858718
    2    0.2513012   0.4925800
    3    0.2341510  -0.0070313   0.4151159
    4    0.3033526  -0.0041336  -0.0052771   0.3617069

          TOTAL MULLIKEN AND LOWDIN ATOMIC POPULATIONS
       ATOM         MULL.POP.    CHARGE          LOW.POP.     CHARGE
    1 N             6.974677    0.025323         6.884377    0.115623
    2 H             0.732716    0.267284         0.742426    0.257574
    3 H             0.636958    0.363042         0.662903    0.337097
    4 H             0.655649    0.344351         0.710294    0.289706

          MULLIKEN SPHERICAL HARMONIC POPULATIONS
       ATOM           S       P       D      F      G      H      I    TOTAL
    1 N             3.53    3.43    0.02   0.00   0.00   0.00   0.00    6.97
    2 H             0.67    0.06    0.00   0.00   0.00   0.00   0.00    0.73
    3 H             0.59    0.05    0.00   0.00   0.00   0.00   0.00    0.64
    4 H             0.60    0.06    0.00   0.00   0.00   0.00   0.00    0.66

          ---------------------
          ELECTROSTATIC MOMENTS
          ---------------------

 POINT   1           X           Y           Z (BOHR)    CHARGE
                -0.000004    0.000002   -0.177185        1.00 (A.U.)
         DX          DY          DZ         /D/  (DEBYE)
    -0.871172    0.373739    2.170453    2.368436
 ...... END OF PROPERTY EVALUATION ......
 CPU     0: STEP CPU TIME=     0.01 TOTAL CPU TIME=         11.9 (      0.2 MIN)
 TOTAL WALL CLOCK TIME=         11.9 SECONDS, CPU UTILIZATION IS    99.83%

     -------------------------------------------------
     GMC-PT/GMC-QDPT or general MCSCF input parameters
     -------------------------------------------------
 # of frozen core orbs. =         0 ->         0
 # of doubly occ. orbs. =         1
 # of active      orbs. =         7
 # of virtual     orbs. =        21
 # of active electrons  =         7
 # of states in CI      =         3
 Highest state in CI    =         3
 kstate =  1 1 1
 avecoe =  0.333 0.333 0.333
 State symmetry           = A           
 Assigned symmetry number = 1

 <<<Act. MO sym.: 1111111

 <<<Division of 1-ext.:  0
 <<<Division of 2-ext.:  0

     ------------------------
     Orbital canonicalization
     ------------------------

 MOs are canonicalized for core, virtual, and invariant-active orbital spaces.
 This is a part of the GMC-QDPT calculation.
 SCHWARZ INEQUALITY OVERHEAD:       465 INTEGRALS, T=        0.00
 DIRECT TRANSFORMATION SKIPS AO INTEGRAL STORAGE ON DISK.

 Averaged energy =     -55.692367962

 State #    1  Energy =     -55.826705663  S =  0.500
 State #    2  Energy =     -55.733746192  S =  0.500
 State #    3  Energy =     -55.516652032  S =  0.500

 Orbital energies for filled orbital space
  -15.982681
 Orbital energies for active orbital space
   -1.490174  -1.003831  -0.784290  -0.723582   0.117556
    0.399754   0.234194
 Orbital energies for external orbital space
    0.119109   0.199018   0.259869   0.527192   0.579458
    0.673177   0.863363   1.054977   1.085664   1.221272
    1.303649   1.433602   1.599956   1.732034   1.868108
    1.971242   2.117882   2.232164   2.529841   2.655743
    2.998300

 Zero values mean non-canonical orbitals.
 ... done with orbital canonicalization ...
 CPU     0: STEP CPU TIME=     0.60 TOTAL CPU TIME=         12.5 (      0.2 MIN)
 TOTAL WALL CLOCK TIME=         12.5 SECONDS, CPU UTILIZATION IS    99.92%

     --------------------------------------------
     PARTIAL TWO ELECTRON INTEGRAL TRANSFORMATION
     --------------------------------------------

 NUMBER OF CORE MOLECULAR ORBITALS     =    0
 NUMBER OF OCCUPIED MOLECULAR ORBITALS =    8
 TOTAL NUMBER OF MOLECULAR ORBITALS    =   29
 TOTAL NUMBER OF ATOMIC ORBITALS       =   30
 THRESHOLD FOR KEEPING TRANSFORMED 2E- INTEGRALS = 1.000E-09
 AO INTEGRALS WILL BE CALCULATED IN DIRECT MODE...
 DIRECT TRANSFORMATION SKIPS AO INTEGRAL STORAGE ON DISK.
 SCHWARZ INEQUALITY OVERHEAD:       465 INTEGRALS, T=        0.00

 PLAN A: REQUIREMENTS FOR FULLY IN-MEMORY TRANSFORMATION:
 # OF WORDS AVAILABLE =            100000000
 # OF WORDS NEEDED    =               221798

 PARALLEL ONLY WORKS WITH THE SEGMENTED ALGORITHM.
 ADJUSTING MEMORY TO USE SEGMENTED ALGORITHM.


 PLAN B: REQUIREMENTS FOR THE SEGMENTED TRANSFORMATION:
       MINIMUM=         124148 WORDS FOR 1 MOLECULAR ORBITAL PER PASS
       MAXIMUM=         221798 WORDS FOR ALL MOLECULAR ORBITALS IN 1 PASS
              (          13950 EXTRA WORDS INCLUDES 1 EXTRA ORBITAL/PASS)
 THIS RUN USES=         221798 WORDS,
 DISTRIBUTING   1 PASSES EACH CONTAINING     8 ORBITALS OVER   1 PROCESSORS.

 CHOOSING SEGMENTED PARTIAL TRANSFORMATION...
 DIRECT TRANSFORMATION SKIPS AO INTEGRAL STORAGE ON DISK.
 PASS #   1 TOOK        0.04 SECONDS.
 TOTAL NUMBER OF TRANSFORMED 2E- INTEGRALS KEPT =        29226
 ... END OF INTEGRAL TRANSFORMATION ...
 CPU     0: STEP CPU TIME=     0.04 TOTAL CPU TIME=         12.5 (      0.2 MIN)
 TOTAL WALL CLOCK TIME=         12.6 SECONDS, CPU UTILIZATION IS    99.84%

     --------     ------------------------------------------
     GMC-QDPT     Program written by H.Nakano (Kyushu Univ.)
     --------     ------------------------------------------

 *** Reference space

 Reference type: ORMAS (= Occupation restricted multiple active space)
 # of orbitals          =  7
 # of minimum electrons =  7
 # of maximum electrons =  7
 State symmetry    =    1 (input)
 2*Sz              =    1 (input)
 Spin multiplicity =    2 (input)
 Dimension of reference space =      1225  (from      3432 walks)

 Dimension of reference space =      1225  (from      1225 walks)

 <<<Ionized spaces for Ref-CI:
      0:         1225 /   -1-0:         1960 /  0-1-0:         2891

 ***                    ***
 *** Reference space CI ***
 ***                    ***

 Converged after   28 iterations

 Reference wavefunctions:

 State #    1  Energy =     -55.826705663  S =  0.500

      Det      Coef    Occupancy (Ignoring core)
      ---      ----    --------- --------- -----
        1   -0.965397  11110001110000
       36    0.137152  11110001101000
      393   -0.053565  10110101010010
      717   -0.073990  11010011100001

 State #    2  Energy =     -55.733746192  S =  0.500

      Det      Coef    Occupancy (Ignoring core)
      ---      ----    --------- --------- -----
        1    0.141686  11110001110000
       36    0.969933  11110001101000
      463    0.054303  10110101001010

 State #    3  Energy =     -55.516652032  S =  0.500

      Det      Coef    Occupancy (Ignoring core)
      ---      ----    --------- --------- -----
       71    0.972202  11110001011000
      122   -0.050060  11010010111000
      822   -0.075887  11010011001001

 Davidson method: CPU/Wall time =           0.41 /           0.42 sec.

 Oscillator strength (invalid if E(1)/=E(GS)):
 -----------------------------------------
   State                        f
 -----------------------------------------
     2     F(REF-CI)=        0.0012568865
     3     F(REF-CI)=        0.0058242639
 -----------------------------------------

 Dipole moment matrix elements, x, y, z, in A.U.

 Dimension of ionized spaces for PT:
 (N-2) space:         1715 /  (N-1) space:         2842 /  N space:         2891
 (N+1) space:         2842 /  (N+2) space:         1715

 <<<Ionized spaces for internal:
         0:         1225 /      -1-0:         1960 /     0-1-0:         2891
  -1-0-1-0:         2842 / 0-1-0-1-0:         3381

 Diagonal elements of averaged one-particle density matrix:
       2       3       4       5       6       7       8
  0.9924  0.9863  0.9836  0.9897  0.0202  0.0112  0.0166
  0.9867  0.6627  0.6557  0.6606  0.0143  0.0080  0.0120

 Orbital energies:
 -------- Doubly-occupied orbitals (highest several orbs.) -------
             1
 -1.598268D+01
 -------- Active orbitals ----------------------------------------
             2            3            4            5            6
 -1.490174D+00-1.003831D+00-7.842901D-01-7.235819D-01 1.175561D-01
             7            8
  3.997537D-01 2.341940D-01
 -------- External orbitals (lowest several orbs.) ---------------
             9           10           11           12           13
  1.191092D-01 1.990185D-01 2.598685D-01 5.271918D-01 5.794580D-01
            14           15           16           17           18
  6.731765D-01 8.633632D-01 1.054977D+00 1.085664D+00 1.221272D+00

 *** Quasi-degeneracy checking

 === Det (|Ci| > 1.0D-01 and dE < 5.0D-03)

 # of small denominators (single excitations)
 State       dEmin  dE < 5.0D-03  dE < 5.0D-04  dE < 5.0D-05  dE < 5.0D-06
 ----- ----------- ------------- ------------- ------------- -------------
     1    5.00D-03             0             0             0             0
     2    5.00D-03             0             0             0             0
     3    5.00D-03             0             0             0             0

 # of small denominators (double excitations)
 State       dEmin  dE < 5.0D-03  dE < 5.0D-04  dE < 5.0D-05  dE < 5.0D-06
 ----- ----------- ------------- ------------- ------------- -------------
     1    5.00D-03             0             0             0             0
     2    5.00D-03             0             0             0             0
     3    5.00D-03             0             0             0             0

 *** Zeroth-Order Setup (Granovsky's zeroth-order vectors)
 Zeroth-order effective Hamiltonian
  (= Sum_i e(i)*<I|a+(i)a(i)|J> ):
                   1            2            3
     1 -7.170698D+00
     2  1.452829D-02-7.131528D+00
     3 -5.926680D-04 5.654247D-03-6.895802D+00

 Zeroth-order vectors:
 State #    1
       MC st            1           2           3
       Coeff    9.492D-01  -3.146D-01   8.370D-03
 State #    2
       MC st            2           1           3
       Coeff   -9.489D-01  -3.147D-01   2.242D-02
 State #    3
       MC st            3           2           1
       Coeff    9.997D-01   2.391D-02  -8.912D-04

 *** GMC-QDPT computation

 (Integral reading:  CPU/Wall time =           0.00 /           0.00 sec.)

 One-external:
   0 -ionized terms: CPU/Wall time =           0.03 /           0.03 sec.
 (-1)-ionized terms: CPU/Wall time =           0.09 /           0.09 sec.
 (+1)-ionized terms: CPU/Wall time =           0.02 /           0.02 sec.
 (+1)-ionized terms: CPU/Wall time =           0.01 /           0.01 sec.
 (+2)-ionized terms: CPU/Wall time =           0.00 /           0.00 sec.

 Internal:
 # of macro loops for internal contribution =         1 (input)
 Loop:    1
 Dimension of internal CISD space     =         0  (after screening)
 Space construction: CPU/Wall time =           0.02 /           0.02 sec.
 Internal terms:     CPU/Wall time =           0.00 /           0.00 sec.

 Two-external:
   0 -ionized terms: CPU/Wall time =           0.06 /           0.06 sec.
 (-1)-ionized terms: CPU/Wall time =           1.00 /           1.00 sec.
 (-2)-ionized terms: CPU/Wall time =           0.17 /           0.17 sec.

 Total time:         CPU/Wall time =           1.40 /           1.40 sec.

 ***                  ***
 *** GMC-QDPT Results ***
 ***                  ***

 Diagonal elements of effective Hamiltonian:
 Heff(  1) =   -55.91806218
 Heff(  2) =   -55.84861279
 Heff(  3) =   -55.62824123

 Off-diagonal elements of effective Hamiltonian:
                   1            2
     2  2.470301D-02
     3  2.465267D-03 4.420542D-03

 ******** GMC-QDPT energies ********
 ----------------------------------------------------------------------------
   State                        1st order                           2nd order
 ----------------------------------------------------------------------------
     1     E(REF-CI)=      -55.8267056629   E(GMC-QDPT2)=      -55.9259559256
     2     E(REF-CI)=      -55.7337461924   E(GMC-QDPT2)=      -55.8408381879
     3     E(REF-CI)=      -55.5166520321   E(GMC-QDPT2)=      -55.6281220842
 ----------------------------------------------------------------------------

 Excitation energies (invalid if E(1)/=E(GS)):
 ----------------------------------------------------------------------------
   State                        1st order                           2nd order
 ----------------------------------------------------------------------------

     TZ Sorted GMC-PT ENERGIES:
         1      -55.9259559256
         2      -55.8408381879
         3      -55.6281220842
     2     E(REF-CI)=        2.5295573 eV   E(GMC-QDPT2)=        2.3161728 eV
     3     E(REF-CI)=        8.4369934 eV   E(GMC-QDPT2)=        8.1044758 eV
 ----------------------------------------------------------------------------

 Main characters of perturbed GMC-QDPT states:

 State #    1  Energy =     -55.925955926  S =  0.500

      Det      Coef    Occupancy (Ignoring core)
      ---      ----    --------- --------- -----
        1   -0.966899  11110001110000
       36    0.126310  11110001101000
      393   -0.053605  10110101010010
      717   -0.074125  11010011100001

 State #    2  Energy =     -55.840838188  S =  0.500

      Det      Coef    Occupancy (Ignoring core)
      ---      ----    --------- --------- -----
        1    0.130870  11110001110000
       36    0.971416  11110001101000
      463    0.054377  10110101001010

 State #    3  Energy =     -55.628122084  S =  0.500

      Det      Coef    Occupancy (Ignoring core)
      ---      ----    --------- --------- -----
       71    0.972190  11110001011000
      122   -0.050097  11010010111000
      822   -0.075860  11010011001001

 <<<Max |V/de| = 2.938D-02  Thresh = 1.000D+00

 Oscillator strength (invalid if E(1)/=E(GS)):
 ----------------------------------------------------------------------------
   State                        1st order                           2nd order
 ----------------------------------------------------------------------------
     2     F(REF-CI)=        0.0012568865     F(GMC-PT2)=        0.0012141366
     3     F(REF-CI)=        0.0058242639     F(GMC-PT2)=        0.0056900411
 ----------------------------------------------------------------------------

 Dipole moment matrix elements, x, y, z, in A.U.
States    1    1       -0.3478434576        0.1087284862        0.6690195499
States    1    2       -0.0335234801        0.0205245530        0.1408943635
States    1    3        0.1464562910        0.0248424474        0.0811820965
States    2    1       -0.0335234801        0.0205245530        0.1408943635
States    2    2       -0.1955685424        0.2577430544        0.3263331695
States    2    3       -0.0274502175       -0.0991174260        0.0016315720
States    3    1        0.1464562910        0.0248424474        0.0811820965
States    3    2       -0.0274502175       -0.0991174260        0.0016315720
States    3    3       -0.6272259247        0.1346980164        0.2549275431

 Oscillator strength (valid only when positive): 
 ----------------------------------------------------------------------------
  States                        1st order                           2nd order
 ----------------------------------------------------------------------------
  1  1     F(REF-CI)=        0.0000000000     F(GMC-PT2)=        0.0000000000
  1  2     F(REF-CI)=       -0.0012568865     F(GMC-PT2)=       -0.0012141366
  1  3     F(REF-CI)=       -0.0058242639     F(GMC-PT2)=       -0.0056900411
  2  1     F(REF-CI)=        0.0012568865     F(GMC-PT2)=        0.0012141366
  2  2     F(REF-CI)=        0.0000000000     F(GMC-PT2)=        0.0000000000
  2  3     F(REF-CI)=       -0.0015569046     F(GMC-PT2)=       -0.0015004201
  3  1     F(REF-CI)=        0.0058242639     F(GMC-PT2)=        0.0056900411
  3  2     F(REF-CI)=        0.0015569046     F(GMC-PT2)=        0.0015004201
  3  3     F(REF-CI)=        0.0000000000     F(GMC-PT2)=        0.0000000000
 CPU     0: STEP CPU TIME=     1.88 TOTAL CPU TIME=         14.4 (      0.2 MIN)
 TOTAL WALL CLOCK TIME=         14.4 SECONDS, CPU UTILIZATION IS    99.86%

     !!! DIABATIZATION FOR REF CI STATES !!!

 *******************************************************
          $DMO GROUP FOUND IN THE INPUT.
        DIABATIZATION OF ADIABATIC STATES BEGINS.
     PROGRAMMED BY TAO ZENG (CARLETON UNIVERSITY).
               Email: toby.zeng@carleton.ca
     See T. Zeng, J. Chem. Phys. 2017, 146, 144103
 *******************************************************

 *************************************************************************
     STEP 1: TRANSFORMATION OF ADIABATIC STATES TO THE DMO REPRESENTATION
         See Atchity and Ruedenberg, J. Chem. Phys. 1999, 111, 2910
 *************************************************************************

Read in Diabatic Molecualr Orbitals:

                      1          2          3          4          5

    1  N  1  S    0.008609   0.000000   0.000000  -0.013219   0.279491
    2  N  1  S    0.442914  -0.000000   0.000000  -0.184329   0.867803
    3  N  1  S    0.276913   0.000000  -0.000000  -0.288315   0.144236
    4  N  1  X   -0.000000   0.493155  -0.024636  -0.000000  -0.000000
    5  N  1  Y    0.000000   0.024636   0.493155  -0.000000   0.000000
    6  N  1  Z    0.090197   0.000000   0.000000   0.593421   0.705309
    7  N  1  X   -0.000000   0.210628  -0.010522   0.000000   0.000000
    8  N  1  Y    0.000000   0.010522   0.210628  -0.000000  -0.000000
    9  N  1  Z   -0.004381   0.000000   0.000000   0.381592  -0.106092
   10  N  1 XX   -0.000457   0.010719  -0.000535  -0.012387   0.006153
   11  N  1 YY   -0.000457  -0.010719   0.000535  -0.012387   0.006153
   12  N  1 ZZ    0.000914  -0.000000   0.000000   0.024773  -0.012306
   13  N  1 XY    0.000000  -0.000618  -0.012377  -0.000000   0.000000
   14  N  1 XZ   -0.000000   0.026529  -0.001325  -0.000000   0.000000
   15  N  1 YZ    0.000000   0.001325   0.026529  -0.000000   0.000000
   16  H  2  S    0.194462  -0.176074   0.343485   0.112865  -0.523343
   17  H  2  S    0.003574  -0.023812   0.046452   0.024014  -0.054445
   18  H  2  X    0.018760   0.009101   0.022834   0.009336  -0.039151
   19  H  2  Y   -0.032493   0.022287  -0.020044  -0.016171   0.067811
   20  H  2  Z   -0.009251   0.008464  -0.016511   0.018769  -0.010566
   21  H  3  S    0.194462  -0.209430  -0.324227   0.112865  -0.523343
   22  H  3  S    0.003574  -0.028322  -0.043847   0.024014  -0.054445
   23  H  3  X    0.018760   0.006781  -0.023627   0.009336  -0.039151
   24  H  3  Y    0.032493  -0.024174  -0.017723   0.016171  -0.067811
   25  H  3  Z   -0.009251   0.010067   0.015585   0.018769  -0.010566
   26  H  4  S    0.194462   0.385503  -0.019258   0.112865  -0.523343
   27  H  4  S    0.003574   0.052134  -0.002604   0.024014  -0.054445
   28  H  4  X   -0.037519  -0.032295   0.001613  -0.018672   0.078302
   29  H  4  Y    0.000000   0.001067   0.021353  -0.000000   0.000000
   30  H  4  Z   -0.009251  -0.018530   0.000926   0.018769  -0.010566

                      6          7

    1  N  1  S    0.000000  -0.000000
    2  N  1  S    0.000000  -0.000000
    3  N  1  S   -0.000000   0.000000
    4  N  1  X   -0.930415  -0.002083
    5  N  1  Y   -0.002083   0.930415
    6  N  1  Z   -0.000000   0.000000
    7  N  1  X   -0.046866  -0.000105
    8  N  1  Y   -0.000105   0.046866
    9  N  1  Z   -0.000000   0.000000
   10  N  1 XX    0.001538   0.000003
   11  N  1 YY   -0.001538  -0.000003
   12  N  1 ZZ   -0.000000   0.000000
   13  N  1 XY   -0.000004   0.001776
   14  N  1 XZ    0.039985   0.000090
   15  N  1 YZ    0.000090  -0.039985
   16  H  2  S   -0.362630  -0.631354
   17  H  2  S   -0.065964  -0.114846
   18  H  2  X    0.002763  -0.037520
   19  H  2  Y    0.037435   0.040736
   20  H  2  Z    0.001882   0.003276
   21  H  3  S   -0.365454   0.629724
   22  H  3  S   -0.066477   0.114549
   23  H  3  X    0.002595   0.037532
   24  H  3  Y   -0.037617   0.040567
   25  H  3  Z    0.001896  -0.003268
   26  H  4  S    0.728084   0.001630
   27  H  4  S    0.132441   0.000297
   28  H  4  X   -0.062317  -0.000140
   29  H  4  Y    0.000055  -0.024345
   30  H  4  Z   -0.003778  -0.000008

NUMBER OF SUB ACTIVE SPACES:   1
ROTATE ACTIVE MOS TO DMOS IN EACH SUB-SPACE

SPACE  1:

OVERLAP BETWEEN ORTHONORMAL AND PRE-ORTHONORMAL REF. DMOS

             1           2           3           4           5

    1    0.9743554  -0.0183572   0.0229261  -0.0091546  -0.0012147
    2   -0.0183572   1.0434310   0.0121750  -0.0377323   0.0782141
    3    0.0229261   0.0121750   0.8638380   0.0244407  -0.0278062
    4   -0.0091546  -0.0377323   0.0244407   0.9932458  -0.0112549
    5   -0.0012147   0.0782141  -0.0278062  -0.0112549   1.1608550
    6    0.0012522   0.0614223   0.0246815  -0.0576634   0.0652946
    7   -0.0020520  -0.0002992   0.0981450  -0.0168455  -0.0425126

             6           7

    1    0.0012522  -0.0020520
    2    0.0614223  -0.0002992
    3    0.0246815   0.0981450
    4   -0.0576634  -0.0168455
    5    0.0652946  -0.0425126
    6    1.0490160   0.0116371
    7    0.0116371   1.0597887
REFERENCE DMOS AFTER ORTHONORMALIZATION:

                      1          2          3          4          5

    1  N  1  S    0.008551  -0.017716   0.007596  -0.012054   0.243209
    2  N  1  S    0.452600  -0.051965   0.016496  -0.177969   0.754291
    3  N  1  S    0.281296  -0.013474   0.005462  -0.288261   0.124121
    4  N  1  X    0.011024   0.524711  -0.009518  -0.032822   0.016222
    5  N  1  Y   -0.009071   0.016534   0.478005   0.001927   0.042411
    6  N  1  Z    0.098763  -0.022298  -0.003422   0.604936   0.616482
    7  N  1  X    0.004331   0.206374  -0.014287   0.004911  -0.011017
    8  N  1  Y   -0.005553   0.006898   0.241946  -0.005710   0.006479
    9  N  1  Z   -0.000286   0.019389  -0.015257   0.385842  -0.090654
   10  N  1 XX   -0.000391   0.009494  -0.000257  -0.012057   0.004540
   11  N  1 YY   -0.000824  -0.011114   0.001425  -0.012981   0.006063
   12  N  1 ZZ    0.001215   0.001619  -0.001168   0.025038  -0.010603
   13  N  1 XY    0.000348  -0.000403  -0.014706   0.000420  -0.000230
   14  N  1 XZ    0.000496   0.023672  -0.003138   0.003097  -0.003737
   15  N  1 YZ   -0.000919   0.000848   0.035421  -0.001575  -0.000707
   16  H  2  S    0.185610  -0.117545   0.461326   0.065422  -0.437335
   17  H  2  S    0.001717  -0.016204   0.066845   0.016066  -0.044986
   18  H  2  X    0.018739   0.011408   0.028742   0.008484  -0.035392
   19  H  2  Y   -0.032453   0.014615  -0.026096  -0.012232   0.056477
   20  H  2  Z   -0.008653   0.009472  -0.020551   0.019848  -0.010063
   21  H  3  S    0.209963  -0.138757  -0.457645   0.109799  -0.411087
   22  H  3  S    0.005292  -0.019045  -0.063778   0.023164  -0.039482
   23  H  3  X    0.020373   0.009926  -0.033833   0.011335  -0.033987
   24  H  3  Y    0.033878  -0.015810  -0.026957   0.014928  -0.054661
   25  H  3  Z   -0.009564   0.010517   0.017792   0.018723  -0.009529
   26  H  4  S    0.208364   0.376670  -0.072982   0.167021  -0.516960
   27  H  4  S    0.004881   0.048067  -0.010072   0.033107  -0.057386
   28  H  4  X   -0.039384  -0.034350   0.007971  -0.023475   0.073340
   29  H  4  Y   -0.000702   0.000686   0.027665  -0.001121  -0.000309
   30  H  4  Z   -0.009667  -0.016640   0.000852   0.017997  -0.007735

                      6          7

    1  N  1  S   -0.015053   0.009038
    2  N  1  S   -0.054922   0.027366
    3  N  1  S   -0.023254   0.000687
    4  N  1  X   -0.920370   0.009320
    5  N  1  Y   -0.025994   0.835662
    6  N  1  Z   -0.004238   0.034894
    7  N  1  X   -0.055490   0.001536
    8  N  1  Y   -0.007152   0.022055
    9  N  1  Z    0.026036   0.003628
   10  N  1 XX   -0.000029   0.000020
   11  N  1 YY   -0.001938  -0.000082
   12  N  1 ZZ    0.001967   0.000062
   13  N  1 XY    0.000369   0.003031
   14  N  1 XZ    0.037209  -0.000127
   15  N  1 YZ   -0.000384  -0.041061
   16  H  2  S   -0.311837  -0.651212
   17  H  2  S   -0.058543  -0.115465
   18  H  2  X    0.004373  -0.039358
   19  H  2  Y    0.030823   0.042528
   20  H  2  Z    0.003397   0.004855
   21  H  3  S   -0.305053   0.625551
   22  H  3  S   -0.058289   0.113422
   23  H  3  X    0.004989   0.037352
   24  H  3  Y   -0.030552   0.039216
   25  H  3  Z    0.002461  -0.004858
   26  H  4  S    0.715026  -0.017127
   27  H  4  S    0.129083  -0.001958
   28  H  4  X   -0.063415   0.002309
   29  H  4  Y   -0.000397  -0.025560
   30  H  4  Z   -0.001164  -0.000122

 -------------------------------------------
       MAXIMIZING MORMO OVERLAP TERM        
 -------------------------------------------
   SWEEP    VALUE       PROGRESS
     0     5.38622
     1     6.90617     1.51994863
     2     6.94526     0.03909344
     3     6.94528     0.00001825
     4     6.94528     0.00000000
     5     6.94528     0.00000000
 THE ROTATION IS DONE
FLIPPING SIGN FOR ORBITAL   7
ACTIVE ORBITALS AFTER MORMO:

                      1          2          3          4          5

    1  N  1  S    0.006790  -0.020853   0.017237  -0.012107   0.186667
    2  N  1  S    0.426772  -0.041372   0.045472  -0.189205   0.681175
    3  N  1  S    0.334811   0.002085  -0.050401  -0.272095   0.213681
    4  N  1  X    0.011129   0.514341  -0.007191  -0.039084   0.032947
    5  N  1  Y    0.004518   0.023297   0.415668   0.019560   0.030651
    6  N  1  Z    0.084209  -0.040506   0.014768   0.603988   0.592123
    7  N  1  X    0.005206   0.179025  -0.022684   0.047034  -0.046817
    8  N  1  Y   -0.020290  -0.003547   0.337621  -0.029575   0.020881
    9  N  1  Z    0.027976   0.054293  -0.041217   0.386236  -0.055442
   10  N  1 XX    0.005619   0.007838  -0.012089  -0.011082  -0.043992
   11  N  1 YY   -0.005582  -0.008541   0.011557  -0.009935   0.035666
   12  N  1 ZZ   -0.000037   0.000703   0.000532   0.021017   0.008325
   13  N  1 XY    0.003074   0.006336  -0.024193   0.004958  -0.020382
   14  N  1 XZ   -0.003314   0.013064  -0.001485   0.003584   0.029904
   15  N  1 YZ   -0.000761   0.002291   0.024947   0.003300  -0.020827
   16  H  2  S    0.182312  -0.140493   0.381768   0.084581  -0.461585
   17  H  2  S   -0.000406  -0.010233   0.154996   0.022048  -0.066065
   18  H  2  X    0.023063   0.001121   0.028138   0.011854  -0.015928
   19  H  2  Y   -0.022362   0.013906  -0.003376  -0.015137   0.049378
   20  H  2  Z   -0.013219   0.017423  -0.025372   0.016806  -0.009060
   21  H  3  S    0.185762  -0.173094  -0.347769   0.099734  -0.407081
   22  H  3  S    0.009730  -0.018044  -0.151144   0.034695  -0.054900
   23  H  3  X    0.026396  -0.014735  -0.038877   0.012134  -0.028439
   24  H  3  Y    0.014538  -0.016608   0.002970   0.005416  -0.036050
   25  H  3  Z   -0.006091   0.016688   0.008423   0.017526  -0.021677
   26  H  4  S    0.185136   0.385273  -0.043441   0.130886  -0.505413
   27  H  4  S    0.001522   0.045224  -0.021111   0.037330  -0.067507
   28  H  4  X   -0.033665  -0.041501  -0.005699  -0.011603   0.056630
   29  H  4  Y   -0.007025  -0.013445   0.021617  -0.003917   0.013151
   30  H  4  Z   -0.002589  -0.008421  -0.001181   0.022070  -0.012481

                      6          7

    1  N  1  S   -0.081208  -0.005316
    2  N  1  S   -0.176952  -0.019831
    3  N  1  S    0.148401   0.060602
    4  N  1  X   -0.884303   0.022494
    5  N  1  Y   -0.029930   0.858759
    6  N  1  Z    0.006940   0.055683
    7  N  1  X   -0.128640  -0.012039
    8  N  1  Y   -0.001880  -0.011231
    9  N  1  Z    0.042997  -0.018558
   10  N  1 XX   -0.001634   0.023733
   11  N  1 YY    0.023279  -0.023777
   12  N  1 ZZ   -0.021644   0.000043
   13  N  1 XY    0.034037   0.045613
   14  N  1 XZ    0.046561  -0.004265
   15  N  1 YZ    0.015754  -0.017163
   16  H  2  S   -0.349765  -0.572677
   17  H  2  S   -0.064790  -0.222036
   18  H  2  X    0.023294  -0.036628
   19  H  2  Y    0.038742   0.008582
   20  H  2  Z   -0.005374   0.019460
   21  H  3  S   -0.349393   0.529560
   22  H  3  S   -0.078082   0.212495
   23  H  3  X   -0.008276   0.051809
   24  H  3  Y   -0.039961   0.001282
   25  H  3  Z   -0.020620  -0.009690
   26  H  4  S    0.687731  -0.028865
   27  H  4  S    0.141803  -0.000460
   28  H  4  X   -0.063274   0.010416
   29  H  4  Y   -0.013799  -0.005745
   30  H  4  Z    0.021539  -0.011139

Actually Used Diabatic Molecualr Orbitals:

                      1          2          3          4          5

    1  N  1  S    0.006790  -0.020853   0.017237  -0.012107   0.186667
    2  N  1  S    0.426772  -0.041372   0.045472  -0.189205   0.681175
    3  N  1  S    0.334811   0.002085  -0.050401  -0.272095   0.213681
    4  N  1  X    0.011129   0.514341  -0.007191  -0.039084   0.032947
    5  N  1  Y    0.004518   0.023297   0.415668   0.019560   0.030651
    6  N  1  Z    0.084209  -0.040506   0.014768   0.603988   0.592123
    7  N  1  X    0.005206   0.179025  -0.022684   0.047034  -0.046817
    8  N  1  Y   -0.020290  -0.003547   0.337621  -0.029575   0.020881
    9  N  1  Z    0.027976   0.054293  -0.041217   0.386236  -0.055442
   10  N  1 XX    0.005619   0.007838  -0.012089  -0.011082  -0.043992
   11  N  1 YY   -0.005582  -0.008541   0.011557  -0.009935   0.035666
   12  N  1 ZZ   -0.000037   0.000703   0.000532   0.021017   0.008325
   13  N  1 XY    0.003074   0.006336  -0.024193   0.004958  -0.020382
   14  N  1 XZ   -0.003314   0.013064  -0.001485   0.003584   0.029904
[...]
 - DM DIABT PT HAMILTONIAN MATRIX ELEMENTS -
 -------------------------------------------
                                            
 --- DIABATIC ENERGIES (DIAGONAL ELEMENT) ---       HARTREE            EV
 STATE #  1'S GMC-PT-LEVEL DIABATIC ENERGY=     -55.908407495       0.000000000
 STATE #  2'S GMC-PT-LEVEL DIABATIC ENERGY=     -55.640032351       7.302859622
 STATE #  3'S GMC-PT-LEVEL DIABATIC ENERGY=     -55.846476352       1.685232243

 --- DIABATIC COUPLINGS (OFF DIAGONAL ELEMENTS)---  HATREE            EV
 STATE #  1 &  2'S GMC-PT-LEVEL COUPLING  =       0.052463818       1.427613198
 STATE #  1 &  3'S GMC-PT-LEVEL COUPLING  =      -0.020144456      -0.548158580
 STATE #  2 &  3'S GMC-PT-LEVEL COUPLING  =       0.025062754       0.681992277

 ---------------------------------------
     - ROTATION TO DIABATIC STATES -    
 ---------------------------------------
 ROWS=ADIABATIC, COLUMNS=DIABATIC STATES

             1           2           3

    1    0.9336176  -0.1975097   0.2989115
    2    0.3118066   0.0370338  -0.9494236
    3    0.1764506   0.9796011   0.0961603

 ---------------------------------------
          - DIABATIC STATES -           
 ---------------------------------------

 State #    1  Energy =     -55.908407495

      Det      Coef        Coefp    Occupancy (Ignoring core)
      ---      ----        ----    --------- --------- -----
        1    0.915147   -0.915147  222+000
       17    0.195038    0.195038  22-+00+
      701   -0.161845   -0.161845  22++00-
        4    0.118490   -0.118490  2-2++00
      176   -0.114181    0.114181  2+2+-00
        6   -0.081331    0.081331  22200+0
        3   -0.067673   -0.067673  22-++00
      141    0.065028    0.065028  22++-00
      393   -0.060137   -0.060137  202+020
      717   -0.058263   -0.058263  220+002
      402    0.050594   -0.050594  2+-+0-+
      708    0.045084   -0.045084  2-++0+-
      192    0.043821   -0.043821  2+-+-0+
       16   -0.043126    0.043126  222000+
      704    0.042127   -0.042127  2-+++0-
        7    0.041726    0.041726  22-+0+0
      351   -0.040980   -0.040980  22++0-0
      386   -0.039975    0.039975  2+2+0-0
      215   -0.039044   -0.039044  022+200
       23   -0.037388   -0.037388  2--++0+
      390    0.035353   -0.035353  -+2++-0
      218    0.034522   -0.034522  +-2+-+0
      227   -0.034072   -0.034072  +2-+-0+
       51   -0.033192    0.033192  22+-00+
      705   -0.033180   -0.033180  -2+++0-
      911   -0.032322   -0.032322  2+++-0-
      706    0.031706    0.031706  22+00+-
      212    0.031366    0.031366  +220200
     1051   -0.030420   -0.030420  2+++0--
      702    0.029821    0.029821  22+0+0-
      122    0.029340    0.029340  +2-200+
       29   -0.026907   -0.026907  2--+0++
        5    0.025794    0.025794  -22++00
      773    0.025592   -0.025592  +2-++0-
      143   -0.025382   -0.025382  220+200
       26   -0.025351   -0.025351  22-00++
      424   -0.024922   -0.024922  +-2++-0
      159    0.024479   -0.024479  -2++-0+
       20   -0.024219   -0.024219  22-0+0+
      184   -0.023112   -0.023112  -+2+-+0
      387   -0.022934    0.022934  2+20+-0
       76    0.022572    0.022572  2+2-0+0
      113   -0.021980    0.021980  +-220+0
      179   -0.021619   -0.021619  202+200

 State #    2  Energy =     -55.640032351

      Det      Coef        Coefp    Occupancy (Ignoring core)
      ---      ----        ----    --------- --------- -----
       71   -0.916899    0.916899  2+22000
      806   -0.162583   -0.162583  2++200-
       87    0.148848   -0.148848  2+-200+
       74   -0.087568    0.087568  2022+00
      386    0.085301   -0.085301  2+2+0-0
       76   -0.083435   -0.083435  2+2-0+0
       78   -0.077527    0.077527  20220+0
       73   -0.071410    0.071410  2+-2+00
      246    0.066457    0.066457  2++2-00
      822    0.065997   -0.065997  2+02002
      106   -0.056175   -0.056175  +222000
      813    0.055803   -0.055803  20+20+-
      122    0.052708    0.052708  +2-200+
       77    0.050313   -0.050313  2+-20+0
      736    0.049355   -0.049355  2+2+00-
      456   -0.048983   -0.048983  2++20-0
       38   -0.047590    0.047590  2202+00
       86   -0.045365   -0.045365  2+2-00+
       72   -0.043206   -0.043206  2+2-+00
       36    0.041907    0.041907  22+2000
      320    0.040410    0.040410  0+22200
      111    0.039752   -0.039752  +22-0+0
       99   -0.039510    0.039510  20-20++
      807   -0.039267    0.039267  2++-+0-
      332   -0.038455    0.038455  ++-2-0+
      810   -0.037538   -0.037538  -++2+0-
      317    0.036786   -0.036786  ++2-200
      192   -0.036202    0.036202  2+-+-0+
      809    0.035951   -0.035951  20+2+0-
      180   -0.034684    0.034684  -+2+200
       90    0.034556    0.034556  2+--+0+
      177    0.034201   -0.034201  2+20200
      248    0.032826   -0.032826  2+02200
      811   -0.032522    0.032522  2++-0+-
      323   -0.032480    0.032480  +022-+0
       51    0.032390   -0.032390  22+-00+
      316    0.031213    0.031213  ++22-00
      402   -0.030221    0.030221  2+-+0-+
      841   -0.030165    0.030165  +2+200-
      264    0.028065   -0.028065  -++2-0+
      911    0.027528    0.027528  2+++-0-
        6    0.027230   -0.027230  22200+0
        4    0.025954   -0.025954  2-2++00
      109   -0.025929    0.025929  +-22+00
      878    0.025794    0.025794  ++-2+0-
       93   -0.024237    0.024237  20-2+0+
       17   -0.023137   -0.023137  22-+00+
       54   -0.022543    0.022543  -2+200+
      183   -0.021926    0.021926  202+-+0
     1051    0.021797    0.021797  2+++0--
        9   -0.020737   -0.020737  -22+0+0
      529    0.020087    0.020087  +022+-0

 State #    3  Energy =     -55.846476352

      Det      Coef        Coefp    Occupancy (Ignoring core)
      ---      ----        ----    --------- --------- -----
       36   -0.916389   -0.916389  22+2000
       52   -0.159510    0.159510  220200+
       39   -0.150339   -0.150339  2-+2+00
      246    0.135225    0.135225  2++2-00
       41   -0.114667    0.114667  22+-0+0
      351    0.108099    0.108099  22++0-0
       38    0.075831   -0.075831  2202+00
      456    0.056598    0.056598  2++20-0
      463    0.056471   -0.056471  20+2020
      472   -0.055716   -0.055716  2+020-+
       43   -0.052439   -0.052439  2-+20+0
       51   -0.048605    0.048605  22+-00+
      701    0.047106    0.047106  22++00-
       71   -0.046327    0.046327  2+22000
      262   -0.046128   -0.046128  2+02-0+
      106    0.045490    0.045490  +222000
       58    0.041807   -0.041807  2-02+0+
      157    0.040303   -0.040303  220+-0+
       64    0.040140   -0.040140  2-020++
      367    0.040050   -0.040050  220+0-+
       37   -0.039413    0.039413  22+-+00
      285    0.038957   -0.038957  02+2200
       55   -0.038626   -0.038626  220-+0+
       42   -0.036278    0.036278  22020+0
      297    0.035800   -0.035800  +202-0+
      460   -0.035380   -0.035380  -++2+-0
      145   -0.034417   -0.034417  -2++200
      142    0.034250    0.034250  22+0200
      288   -0.033927   -0.033927  +-+2-+0
      282    0.033087    0.033087  +2+-200
       61   -0.032189   -0.032189  220-0++
      141    0.030522    0.030522  22++-00
      123    0.028722   -0.028722  +-2200+
       40   -0.027388    0.027388  -2+2+00
      121   -0.026468    0.026468  +22-00+
      843   -0.024962   -0.024962  +202+0-
      494    0.024092   -0.024092  +-+2+-0
      457   -0.022824    0.022824  2++-+-0
      148   -0.022326   -0.022326  2-++-+0
      254    0.022145   -0.022145  -++2-+0
      716    0.022004    0.022004  22+0002
       46    0.021307   -0.021307  2-+-++0
      108    0.021194    0.021194  +2-2+00
      859    0.020104   -0.020104  02+2002

 ---------------------------------------
      - DIABATIC STATES IN CMO -        
 ---------------------------------------

 State #    1  Energy =     -55.908407495

      Det      Coef        Coefp    Occupancy (Ignoring core)
      ---      ----        ----    --------- --------- -----
        1    0.863996   -0.863996  222+000
       36    0.418497    0.418497  22+2000
       71   -0.166227    0.166227  2+22000
      717   -0.065727   -0.065727  220+002
      393   -0.050780   -0.050780  202+020
      142   -0.042722   -0.042722  22+0200
      143   -0.042331   -0.042331  220+200
      106   -0.038334   -0.038334  +222000
        8   -0.032377    0.032377  2-2+0+0
        2    0.032374   -0.032374  2220+00
       17   -0.032329   -0.032329  22-+00+
      179   -0.031752   -0.031752  202+200
      145    0.031623    0.031623  -2++200
      718    0.030523   -0.030523  2-++002
      157    0.030471   -0.030471  220+-0+
      752   -0.030202   -0.030202  2+-+002
      212    0.028984    0.028984  +220200
      215   -0.028850   -0.028850  022+200
      463   -0.026503    0.026503  20+2020
       51    0.026112   -0.026112  22+-00+
      122   -0.026030   -0.026030  +2-200+
      144   -0.024525    0.024525  2-++200
      753   -0.024022   -0.024022  202+002
       38   -0.023915    0.023915  2202+00
      719   -0.023491   -0.023491  -2++002
      390    0.022217   -0.022217  -+2++-0
      148    0.022086    0.022086  2-++-+0
      218    0.021449   -0.021449  +-2+-+0
      387   -0.021326    0.021326  2+20+-0
      703   -0.021045   -0.021045  220++0-
      789   -0.021014   -0.021014  022+002
       18    0.020930   -0.020930  2-2+00+
      708   -0.020876    0.020876  2-++0+-
      702   -0.020473   -0.020473  22+0+0-
      787    0.020420   -0.020420  +2-+002
      249   -0.020255    0.020255  20+2200

 State #    2  Energy =     -55.640032351

      Det      Coef        Coefp    Occupancy (Ignoring core)
      ---      ----        ----    --------- --------- -----
       71   -0.954814    0.954814  2+22000
        1   -0.184230    0.184230  222+000
      822    0.073740   -0.073740  2+02002
      177    0.051158   -0.051158  2+20200
      122   -0.047459   -0.047459  +2-200+
       37   -0.039126    0.039126  22+-+00
      248    0.037966   -0.037966  2+02200
        3    0.037256    0.037256  22-++00
      109   -0.036798    0.036798  +-22+00
      180   -0.035322    0.035322  -+2+200
        4    0.035284   -0.035284  2-2++00
      107    0.033884   -0.033884  +22-+00
      823    0.033724   -0.033724  20+2002
      320    0.033206    0.033206  0+22200
      111    0.032073   -0.032073  +22-0+0
      317    0.031784   -0.031784  ++2-200
      178   -0.027007   -0.027007  2+-+200
      192    0.026852   -0.026852  2+-+-0+
      807    0.026078   -0.026078  2++-+0-
       54    0.025883   -0.025883  -2+200+
      894    0.025600    0.025600  0+22002
       78   -0.024570    0.024570  20220+0
        2   -0.024536    0.024536  2220+00
      179    0.024411    0.024411  202+200
      911   -0.024022   -0.024022  2+++-0-
       72   -0.024009   -0.024009  2+2-+00
      183   -0.023295    0.023295  202+-+0
      247    0.022987   -0.022987  2++-200
      262   -0.022974   -0.022974  2+02-0+
      808    0.022942   -0.022942  2+02+0-
      824   -0.022528   -0.022528  -++2002
       52    0.022162   -0.022162  220200+
      892    0.021863    0.021863  ++-2002
      813   -0.021839    0.021839  20+20+-
      391    0.021761   -0.021761  2+20020
       99    0.021737   -0.021737  20-20++
      841    0.021576   -0.021576  +2+200-
       90   -0.021227   -0.021227  2+--+0+
      318   -0.020635   -0.020635  ++-2200
      250    0.020593    0.020593  -++2200
       75    0.020561    0.020561  -+22+00
      323   -0.020446    0.020446  +022-+0
      108   -0.020377   -0.020377  +2-2+00
      421   -0.020065   -0.020065  +22+0-0

 State #    3  Energy =     -55.846476352

      Det      Coef        Coefp    Occupancy (Ignoring core)
      ---      ----        ----    --------- --------- -----
       36   -0.885796   -0.885796  22+2000
        1    0.414406   -0.414406  222+000
       71   -0.078220    0.078220  2+22000
      463    0.047921   -0.047921  20+2020
      249    0.038835   -0.038835  20+2200
      822    0.038619   -0.038619  2+02002
      142    0.035919    0.035919  22+0200
      717   -0.033448   -0.033448  220+002
      282    0.029253    0.029253  +2+-200
      823    0.028649   -0.028649  20+2002
      285    0.028480   -0.028480  02+2200
       58   -0.025981    0.025981  2-02+0+
      123   -0.025550    0.025550  +-2200+
      108    0.025079    0.025079  +2-2+00
      859    0.024302   -0.024302  02+2002
      457   -0.023997    0.023997  2++-+-0
       55    0.023578    0.023578  220-+0+
      393   -0.023441   -0.023441  202+020
      109   -0.022814    0.022814  +-22+00
       38    0.022199   -0.022199  2202+00
      356    0.021775    0.021775  22+0020
       64   -0.021047    0.021047  2-020++
      288   -0.020799   -0.020799  +-+2-+0
      472    0.020490    0.020490  2+020-+
      145   -0.020294   -0.020294  -2++200

 ---------------------------------------
    -DIABATIC STATES IN PROTOTYPES-     
 ---------------------------------------

     STATE:    1
 Group Ref#    Coefficients
     1    1    0.935371
     2    2    0.004132
     3    3    0.006536

WEIGHT OF LISTED PROTOTYPES:   87.50%

     STATE:    2
 Group Ref#    Coefficients
     1    1    0.004158
     2    2    0.929552
     3    3   -0.000902

WEIGHT OF LISTED PROTOTYPES:   86.41%

     STATE:    3
 Group Ref#    Coefficients
     1    1    0.006537
     2    2   -0.000896
     3    3    0.935138

WEIGHT OF LISTED PROTOTYPES:   87.45%

     DIRECT MAX. DIABATIZATION FINISHED    
 CPU     0: STEP CPU TIME=     0.25 TOTAL CPU TIME=         14.7 (      0.2 MIN)
 TOTAL WALL CLOCK TIME=         14.7 SECONDS, CPU UTILIZATION IS    99.93%

DIABATS FOR SPIN-ORBIT CALCULATION ARE READY

TRANSITION DIPOLES BETWEEN ADIABATS (in A.U.):

STATE PAIR      X         Y         Z
    1    1 -0.347843  0.108728  0.669020
    2    1 -0.033523  0.020525  0.140894
    2    2 -0.195569  0.257743  0.326333
    3    1  0.146456  0.024842  0.081182
    3    2 -0.027450 -0.099117  0.001632
    3    3 -0.627226  0.134698  0.254928


TRANSITION DIPOLES BETWEEN DIABATS (in A.U.):

STATE PAIR      X         Y         Z
    1    1 -0.316020  0.133253  0.731768
    2    1  0.074644 -0.003413 -0.007419
    2    2 -0.673911  0.116749  0.237822
    3    1  0.001420 -0.042778 -0.005990
    3    2  0.027208  0.099918  0.021740
    3    3 -0.180707  0.251167  0.280690

TRANSITION DIPOLES BETWEEN DIRECT MAX. DIABATS (in A.U.):

STATE PAIR      X         Y         Z
    1    1 -0.316022  0.133253  0.731768
    2    1  0.074649 -0.003413 -0.007412
    2    2 -0.673909  0.116749  0.237822
    3    1  0.001420 -0.042780 -0.005990
    3    2  0.027206  0.099917  0.021740
    3    3 -0.180706  0.251168  0.280690
 No $TRANST Group Found.
 Quit without doing spin-orbit coupling
 ..... DONE WITH MP2 ENERGY .....
 CPU     0: STEP CPU TIME=     0.00 TOTAL CPU TIME=         14.7 (      0.2 MIN)
 TOTAL WALL CLOCK TIME=         14.7 SECONDS, CPU UTILIZATION IS    99.86%
            100000000  WORDS OF DYNAMIC MEMORY USED
 EXECUTION OF GAMESS TERMINATED NORMALLY Wed Nov 16 19:42:48 2022
 DDI: 715512 bytes (0.7 MB / 0 MWords) used by master data server.

 ----------------------------------------
 CPU timing information for all processes
 ========================================
 0: 14.325 + 0.356 = 14.681
 ----------------------------------------
Note: The following floating-point exceptions are signalling: IEEE_DENORMAL
 ddikick.x: exited gracefully.
unset echo
----- accounting info -----
Files used on the master node io002 were:
-rw-r--r-- 1 bsonghao nooijen   20723 Nov 16 19:42 /scratch/bsonghao/nh3_diabatization_2d_at_mode_7_8_dist0.3_-0.7.F05
-rw-r--r-- 1 bsonghao nooijen  363520 Nov 16 19:42 /scratch/bsonghao/nh3_diabatization_2d_at_mode_7_8_dist0.3_-0.7.F09
-rw-r--r-- 1 bsonghao nooijen 1995920 Nov 16 19:42 /scratch/bsonghao/nh3_diabatization_2d_at_mode_7_8_dist0.3_-0.7.F10
-rw-r--r-- 1 bsonghao nooijen  131264 Nov 16 19:42 /scratch/bsonghao/nh3_diabatization_2d_at_mode_7_8_dist0.3_-0.7.F13
-rw-r--r-- 1 bsonghao nooijen  180312 Nov 16 19:42 /scratch/bsonghao/nh3_diabatization_2d_at_mode_7_8_dist0.3_-0.7.F15
-rw-r--r-- 1 bsonghao nooijen       0 Nov 16 19:42 /scratch/bsonghao/nh3_diabatization_2d_at_mode_7_8_dist0.3_-0.7.F16
-rw-r--r-- 1 bsonghao nooijen    9808 Nov 16 19:42 /scratch/bsonghao/nh3_diabatization_2d_at_mode_7_8_dist0.3_-0.7.F70
-rw-r--r-- 1 bsonghao nooijen    9808 Nov 16 19:42 /scratch/bsonghao/nh3_diabatization_2d_at_mode_7_8_dist0.3_-0.7.F71
-rw-r--r-- 1 bsonghao nooijen   19608 Nov 16 19:42 /scratch/bsonghao/nh3_diabatization_2d_at_mode_7_8_dist0.3_-0.7.F72
-rw-r--r-- 1 bsonghao nooijen   19608 Nov 16 19:42 /scratch/bsonghao/nh3_diabatization_2d_at_mode_7_8_dist0.3_-0.7.F73
-rw-r--r-- 1 bsonghao nooijen 1920824 Nov 16 19:42 /scratch/bsonghao/nh3_diabatization_2d_at_mode_7_8_dist0.3_-0.7.F74
-rw-r--r-- 1 bsonghao nooijen       0 Nov 16 19:42 /scratch/bsonghao/nh3_diabatization_2d_at_mode_7_8_dist0.3_-0.7.F75
-rw-r--r-- 1 bsonghao nooijen   58848 Nov 16 19:42 /scratch/bsonghao/nh3_diabatization_2d_at_mode_7_8_dist0.3_-0.7.F76
-rw-r--r-- 1 bsonghao nooijen       0 Nov 16 19:42 /scratch/bsonghao/nh3_diabatization_2d_at_mode_7_8_dist0.3_-0.7.F77
-rw-r--r-- 1 bsonghao nooijen    1864 Nov 16 19:42 /scratch/bsonghao/nh3_diabatization_2d_at_mode_7_8_dist0.3_-0.7.F78
-rw-r--r-- 1 bsonghao nooijen   39208 Nov 16 19:42 /scratch/bsonghao/nh3_diabatization_2d_at_mode_7_8_dist0.3_-0.7.F79
-rw-r--r-- 1 bsonghao nooijen     104 Nov 16 19:42 /scratch/bsonghao/nh3_diabatization_2d_at_mode_7_8_dist0.3_-0.7.F80
-rw-r--r-- 1 bsonghao nooijen   13472 Nov 16 19:42 /scratch/bsonghao/nh3_diabatization_2d_at_mode_7_8_dist0.3_-0.7.F81
-rw-r--r-- 1 bsonghao nooijen      16 Nov 16 19:42 /scratch/bsonghao/nh3_diabatization_2d_at_mode_7_8_dist0.3_-0.7.F82
-rw-r--r-- 1 bsonghao nooijen   19216 Nov 16 19:42 /scratch/bsonghao/nh3_diabatization_2d_at_mode_7_8_dist0.3_-0.7.F83
-rw-r--r-- 1 bsonghao nooijen   29712 Nov 16 19:42 /scratch/bsonghao/nh3_diabatization_2d_at_mode_7_8_dist0.3_-0.7.F84
-rw-r--r-- 1 bsonghao nooijen  401576 Nov 16 19:42 /scratch/bsonghao/nh3_diabatization_2d_at_mode_7_8_dist0.3_-0.7.F85
-rw-r--r-- 1 bsonghao nooijen  903672 Nov 16 19:42 /scratch/bsonghao/nh3_diabatization_2d_at_mode_7_8_dist0.3_-0.7.F86
-rw-r--r-- 1 bsonghao nooijen     656 Nov 16 19:42 /scratch/bsonghao/nh3_diabatization_2d_at_mode_7_8_dist0.3_-0.7.F87
-rw-r--r-- 1 bsonghao nooijen   40528 Nov 16 19:42 /scratch/bsonghao/nh3_diabatization_2d_at_mode_7_8_dist0.3_-0.7.F88
-rw-r--r-- 1 bsonghao nooijen     240 Nov 16 19:42 /scratch/bsonghao/nh3_diabatization_2d_at_mode_7_8_dist0.3_-0.7.F89
-rw-r--r-- 1 bsonghao nooijen       0 Nov 16 19:42 /scratch/bsonghao/nh3_diabatization_2d_at_mode_7_8_dist0.3_-0.7.F90
-rw-r--r-- 1 bsonghao nooijen   13760 Nov 16 19:42 /scratch/bsonghao/nh3_diabatization_2d_at_mode_7_8_dist0.3_-0.7.F91
-rw-r--r-- 1 bsonghao nooijen   22776 Nov 16 19:42 /scratch/bsonghao/nh3_diabatization_2d_at_mode_7_8_dist0.3_-0.7.F92
-rw-r--r-- 1 bsonghao nooijen   23168 Nov 16 19:42 /scratch/bsonghao/nh3_diabatization_2d_at_mode_7_8_dist0.3_-0.7.F93
-rw-r--r-- 1 bsonghao nooijen   22776 Nov 16 19:42 /scratch/bsonghao/nh3_diabatization_2d_at_mode_7_8_dist0.3_-0.7.F94
-rw-r--r-- 1 bsonghao nooijen   13760 Nov 16 19:42 /scratch/bsonghao/nh3_diabatization_2d_at_mode_7_8_dist0.3_-0.7.F95
-rw-r--r-- 1 bsonghao nooijen   29440 Nov 16 19:42 /scratch/bsonghao/nh3_diabatization_2d_at_mode_7_8_dist0.3_-0.7.F96
-rw-r--r-- 1 bsonghao nooijen    1184 Nov 16 19:42 /scratch/bsonghao/nh3_diabatization_2d_at_mode_7_8_dist0.3_-0.7.F97
-rw-r--r-- 1 bsonghao nooijen    9808 Nov 16 19:42 /scratch/bsonghao/nh3_diabatization_2d_at_mode_7_8_dist0.3_-0.7.F98
-rw-r--r-- 1 bsonghao nooijen   30264 Nov 16 19:42 /scratch/bsonghao/nh3_diabatization_2d_at_mode_7_8_dist0.3_-0.7.F99
ls: No match.
ls: No match.
ls: No match.
Wed 16 Nov 2022 07:42:51 PM EST
0.295u 0.034s 0:18.04 1.7%	0+0k 48+224io 0pf+0w
