----- GAMESS execution script 'rungms' -----
This job is running on host io002
under operating system Linux at Wed 16 Nov 2022 07:24:23 PM EST
Available scratch disk space (Kbyte units) at beginning of the job is
Filesystem       1K-blocks       Used   Available Use% Mounted on
/dev/sdc1      15378471580 3278917120 11318349060  23% /scratch
GAMESS temporary binary files will be written to /scratch/bsonghao
GAMESS supplementary output files will be written to /home/bsonghao/.gamess_ascii_files/267638
Copying input file nh3_diabatization_2d_at_mode_7_8_dist0.0_0.3.inp to your run's scratch directory...
cp nh3_diabatization_2d_at_mode_7_8_dist0.0_0.3.inp /scratch/bsonghao/nh3_diabatization_2d_at_mode_7_8_dist0.0_0.3.F05
unset echo
/home/bjb2chen/gamess/ddikick.x /home/bjb2chen/gamess/gamess.00.x nh3_diabatization_2d_at_mode_7_8_dist0.0_0.3 -ddi 1 1 io002 -scr /scratch/bsonghao

 Distributed Data Interface kickoff program.
 Initiating 1 compute processes on 1 nodes to run the following command:
 /home/bjb2chen/gamess/gamess.00.x nh3_diabatization_2d_at_mode_7_8_dist0.0_0.3 

          ******************************************************
          *         GAMESS VERSION = 02 AUG 2018 (R2)         *
          *             FROM IOWA STATE UNIVERSITY             *
          * M.W.SCHMIDT, K.K.BALDRIDGE, J.A.BOATZ, S.T.ELBERT, *
          *   M.S.GORDON, J.H.JENSEN, S.KOSEKI, N.MATSUNAGA,   *
          *          K.A.NGUYEN, S.J.SU, T.L.WINDUS,           *
          *       TOGETHER WITH M.DUPUIS, J.A.MONTGOMERY       *
          *         J.COMPUT.CHEM.  14, 1347-1363(1993)        *
          **************** 64 BIT LINUX VERSION ****************

  SINCE 1993, STUDENTS AND POSTDOCS WORKING AT IOWA STATE UNIVERSITY
  AND ALSO IN THEIR VARIOUS JOBS AFTER LEAVING ISU HAVE MADE IMPORTANT
  CONTRIBUTIONS TO THE CODE:
     IVANA ADAMOVIC, CHRISTINE AIKENS, YURI ALEXEEV, POOJA ARORA,
     ANDREY ASADCHEV, ROB BELL, PRADIPTA BANDYOPADHYAY, JONATHAN BENTZ,
     BRETT BODE, KURT BRORSEN, CALEB CARLIN, GALINA CHABAN, WEI CHEN,
     CHEOL HO CHOI, PAUL DAY, ALBERT DEFUSCO, NUWAN DESILVA, TIM DUDLEY,
     DMITRI FEDOROV, ALEX FINDLATER, GRAHAM FLETCHER, MARK FREITAG,
     KURT GLAESEMANN, ANASTASIA GUININA,
     DAN KEMP, GRANT MERRILL, NORIYUKI MINEZAWA, JONATHAN MULLIN,
     TAKESHI NAGATA, SEAN NEDD, HEATHER NETZLOFF, BOSILJKA NJEGIC, RYAN OLSON,
     MIKE PAK, BUU PHAM,
     SPENCER PRUITT, LUKE ROSKOP, JIM SHOEMAKER, LYUDMILA SLIPCHENKO,
     TONY SMITH, SAROM SOK LEANG, JIE SONG, TETSUYA TAKETSUGU, SIMON WEBB,
     PENG XU, SOOHAENG YOO, FEDERICO ZAHARIEV

  ADDITIONAL CODE HAS BEEN PROVIDED BY COLLABORATORS IN OTHER GROUPS:
     IOWA STATE UNIVERSITY:
          JOE IVANIC, AARON WEST, LAIMUTIS BYTAUTAS, KLAUS RUEDENBERG
     UNIVERSITY OF TOKYO: KIMIHIKO HIRAO, TAKAHITO NAKAJIMA,
          TAKAO TSUNEDA, MUNEAKI KAMIYA, SUSUMU YANAGISAWA,
          KIYOSHI YAGI, MAHITO CHIBA, SEIKEN TOKURA, NAOAKI KAWAKAMI
     UNIVERSITY OF AARHUS: FRANK JENSEN
     UNIVERSITY OF IOWA: VISVALDAS KAIRYS, HUI LI
     NATIONAL INST. OF STANDARDS AND TECHNOLOGY: WALT STEVENS, DAVID GARMER
     UNIVERSITY OF PISA: BENEDETTA MENNUCCI, JACOPO TOMASI
     UNIVERSITY OF MEMPHIS: HENRY KURTZ, PRAKASHAN KORAMBATH
     UNIVERSITY OF ALBERTA: TOBY ZENG, MARIUSZ KLOBUKOWSKI
     UNIVERSITY OF NEW ENGLAND: MARK SPACKMAN
     MIE UNIVERSITY: HIROAKI UMEDA
     NAT. INST. OF ADVANCED INDUSTRIAL SCIENCE AND TECHNOLOGY: KAZUO KITAURA
     MICHIGAN STATE UNIVERSITY:
          KAROL KOWALSKI, MARTA WLOCH, JEFFREY GOUR, JESSE LUTZ,
          WEI LI, JUN SHEN, J. EMILIANO DEUSTUA, PIOTR PIECUCH
     UNIVERSITY OF MINNESOTA:
          YINAN SHU
     UNIVERSITY OF SILESIA: MONIKA MUSIAL, STANISLAW KUCHARSKI
     FACULTES UNIVERSITAIRES NOTRE-DAME DE LA PAIX:
          OLIVIER QUINET, BENOIT CHAMPAGNE
     UNIVERSITY OF CALIFORNIA - SANTA BARBARA: BERNARD KIRTMAN
     INSTITUTE FOR MOLECULAR SCIENCE:
          KAZUYA ISHIMURA, MICHIO KATOUDA, AND SHIGERU NAGASE
     UNIVERSITY OF NOTRE DAME: ANNA POMOGAEVA, DAN CHIPMAN
     KYUSHU UNIVERSITY:
          HARUYUKI NAKANO,
          FENG LONG GU, JACEK KORCHOWIEC, MARCIN MAKOWSKI, AND YURIKO AOKI,
          HIROTOSHI MORI AND EISAKU MIYOSHI
     PENNSYLVANIA STATE UNIVERSITY:
          TZVETELIN IORDANOV, CHET SWALINA, JONATHAN SKONE,
          SHARON HAMMES-SCHIFFER
     WASEDA UNIVERSITY:
          MASATO KOBAYASHI, TOMOKO AKAMA, TSUGUKI TOUMA,
          TAKESHI YOSHIKAWA, YASUHIRO IKABATA, JUNJI SEINO,
          YUYA NAKAJIMA, HIROMI NAKAI
     NANJING UNIVERSITY: SHUHUA LI
     UNIVERSITY OF NEBRASKA:
          PEIFENG SU, DEJUN SI, NANDUN THELLAMUREGE, YALI WANG, HUI LI
     UNIVERSITY OF ZURICH: ROBERTO PEVERATI, KIM BALDRIDGE
     N. COPERNICUS UNIVERSITY AND JACKSON STATE UNIVERSITY:
          MARIA BARYSZ
     UNIVERSITY OF COPENHAGEN: Jimmy Kromann, CASPER STEINMANN
     TOKYO INSTITUTE OF TECHNOLOGY: HIROYA NAKATA
     NAGOYA UNIVERSITY: YOSHIO NISHIMOTO, STEPHAN IRLE
     MOSCOW STATE UNIVERSITY: VLADIMIR MIRONOV

 EXECUTION OF GAMESS BEGUN Wed Nov 16 19:24:23 2022

            ECHO OF THE FIRST FEW INPUT CARDS -
 INPUT CARD> $system kdiag=3 mwords=100 memddi=1000 parall=.t. $end                         
 INPUT CARD> $contrl runtyp=energy ispher=1 $end                                            
 INPUT CARD> $contrl icut=9 itol=20 inttyp=rysquad qmttol=1.0d-05 nosym=1 $end              
 INPUT CARD> $scf    npunch=2 conv=1.0d-06 dirscf=.t.      $end                             
 INPUT CARD> $contrl scftyp=mcscf  mult=2 maxit=200 icharg=1 mplevl=2 $end                  
 INPUT CARD> $guess  guess=moread norb=29 purify=.t. $end                                   
 INPUT CARD> $basis  gbasis=ccd $end                                                        
 INPUT CARD> $mcscf  cistep=gmcci fullnr=.t. finci=mos                                      
 INPUT CARD>         acurcy=1.d-6 maxit=100 $end                                            
 INPUT CARD> $trans  dirtrf=.t. $end                                                        
 INPUT CARD> $mrmp   mrpt=gmcpt rdvecs=.f. $end                                             
 INPUT CARD> $gmcpt  nmofzc=0 nmodoc=1 nmoact=7 nelact=7 stsym(1)=A                         
 INPUT CARD>         reftyp=ormas nspace=1 mstart(1)=2 mine(1)=7 maxe(1)=7                  
 INPUT CARD>         kstate(1)=1,1,1                                                        
 INPUT CARD>         wstate(1)=1,1,1                                                        
 INPUT CARD>         iwgt=0 thrwgt=-1.0 krot=.f. kszdoe=.f. knospn=.f.                      
 INPUT CARD>         thrde=-1.0 edshft=0.02 $end                                            
 INPUT CARD> $data                                                                          
 INPUT CARD> NH3+ 3 states calculation at NH3 structure.                                    
 INPUT CARD> c1                                                                             
 INPUT CARD>N 7.0 -0.018686754000000003 -0.0 -0.1693808462                                  
 INPUT CARD>H 1.0 -0.312586975 0.9206075248000001 0.21686491710000003                       
 INPUT CARD>H 1.0 -0.312586981 -0.9206075218 0.2168649111                                   
 INPUT CARD>H 1.0 0.884831414 6.000000000000001e-09 0.3356533371                            
 INPUT CARD>$end                                                                            
 INPUT CARD>--- OPTIMIZED RHF      MO-S --- GENERATED AT Mon Nov 14 16:47:08 2022           
 INPUT CARD>E=      -56.3825050291, E(NUC)=   11.8429239490                                 
 INPUT CARD> $VEC                                                                           
 INPUT CARD> 1  1-1.00134066E+00-2.25158504E-03 3.44925845E-03 0.00000000E+00 0.00000000E+00
 INPUT CARD> 1  2-2.13170927E-03 0.00000000E+00 0.00000000E+00 6.57129898E-04-6.87950443E-05
 INPUT CARD> 1  3-6.87950443E-05 1.37590089E-04 0.00000000E+00 0.00000000E+00 0.00000000E+00
 INPUT CARD> 1  4 3.25502815E-04-4.84772356E-04 3.62525460E-04-6.27912517E-04-3.45956485E-04
 INPUT CARD> 1  5 3.25502815E-04-4.84772356E-04 3.62525460E-04 6.27912517E-04-3.45956485E-04
 INPUT CARD> 1  6 3.25502815E-04-4.84772356E-04-7.25050921E-04 0.00000000E+00-3.45956485E-04
 INPUT CARD> 2  1 1.31286642E-02-4.05911371E-01-2.82090992E-01 0.00000000E+00 0.00000000E+00
 INPUT CARD> 2  2-7.71489043E-02 0.00000000E+00 0.00000000E+00 9.73717494E-03 6.62450916E-04
 INPUT CARD> 2  3 6.62450916E-04-1.32490183E-03 0.00000000E+00 0.00000000E+00 0.00000000E+00
 INPUT CARD> 2  4-1.96090317E-01-1.96656153E-02-1.74855877E-02 3.02859263E-02 8.68214399E-03
 INPUT CARD> 2  5-1.96090317E-01-1.96656153E-02-1.74855877E-02-3.02859263E-02 8.68214399E-03
 INPUT CARD> 2  6-1.96090317E-01-1.96656153E-02 3.49711754E-02 0.00000000E+00 8.68214399E-03
 INPUT CARD> 3  1 0.00000000E+00 0.00000000E+00 0.00000000E+00 4.48608762E-01 0.00000000E+00
 INPUT CARD> 3  2 0.00000000E+00 2.18692520E-01 0.00000000E+00 0.00000000E+00 1.30198027E-02
 INPUT CARD> 3  3-1.30198027E-02 0.00000000E+00 0.00000000E+00 2.71832968E-02 0.00000000E+00
 INPUT CARD> 3  4-1.85332726E-01-7.03958951E-02 8.47929477E-03 1.95242443E-02 8.32835058E-03
 INPUT CARD> 3  5-1.85332726E-01-7.03958951E-02 8.47929477E-03-1.95242443E-02 8.32835058E-03
 INPUT CARD> 3  6 3.70665453E-01 1.40791790E-01-2.53376884E-02 0.00000000E+00-1.66567012E-02
 INPUT CARD> 4  1 0.00000000E+00 0.00000000E+00 0.00000000E+00 0.00000000E+00 4.48608762E-01
 INPUT CARD> 4  2 0.00000000E+00 0.00000000E+00 2.18692520E-01 0.00000000E+00 0.00000000E+00
 INPUT CARD> 4  3 0.00000000E+00 0.00000000E+00-1.50339731E-02 0.00000000E+00 2.71832968E-02
 INPUT CARD> 4  4 3.21005698E-01 1.21929267E-01 1.95242443E-02-1.40653607E-02-1.44251263E-02
  100000000 WORDS OF MEMORY AVAILABLE

     BASIS OPTIONS
     -------------
     GBASIS=CCD          IGAUSS=       0      POLAR=NONE    
     NDFUNC=       0     NFFUNC=       0     DIFFSP=       F
     NPFUNC=       0      DIFFS=       F     BASNAM=        


     RUN TITLE
     ---------
  NH3+ 3 states calculation at NH3 structure.                                    

 THE POINT GROUP OF THE MOLECULE IS C1      
 THE ORDER OF THE PRINCIPAL AXIS IS     0

 ATOM      ATOMIC                      COORDINATES (BOHR)
           CHARGE         X                   Y                   Z
 N           7.0    -0.0353128447       -0.0000000000       -0.3200833869
 H           1.0    -0.5907037301        1.7396959641        0.4098152697
 H           1.0    -0.5907037414       -1.7396959584        0.4098152583
 H           1.0     1.6720889178        0.0000000113        0.6342928340

          INTERNUCLEAR DISTANCES (ANGS.)
          ------------------------------

                1 N          2 H          3 H          4 H     

   1 N       0.0000000    1.0407119 *  1.0407119 *  1.0350868 *
   2 H       1.0407119 *  0.0000000    1.8412150 *  1.5150709 *
   3 H       1.0407119 *  1.8412150 *  0.0000000    1.5150709 *
   4 H       1.0350868 *  1.5150709 *  1.5150709 *  0.0000000  

  * ... LESS THAN  3.000


     ATOMIC BASIS SET
     ----------------
 THE CONTRACTED PRIMITIVE FUNCTIONS HAVE BEEN UNNORMALIZED
 THE CONTRACTED BASIS FUNCTIONS ARE NOW NORMALIZED TO UNITY

  SHELL TYPE  PRIMITIVE        EXPONENT          CONTRACTION COEFFICIENT(S)

 N         

      1   S       1          9046.0000000    0.000699617413
      1   S       2          1357.0000000    0.005386054630
      1   S       3           309.3000000    0.027391021189
      1   S       4            87.7300000    0.103150591982
      1   S       5            28.5600000    0.278570663317
      1   S       6            10.2100000    0.448294849454
      1   S       7             3.8380000    0.278085928395
      1   S       8             0.7466000    0.015431561233

      2   S       9          9046.0000000   -0.000304990096
      2   S      10          1357.0000000   -0.002408026379
      2   S      11           309.3000000   -0.011944448725
      2   S      12            87.7300000   -0.048925992909
      2   S      13            28.5600000   -0.134472724725
      2   S      14            10.2100000   -0.315112577700
      2   S      15             3.8380000   -0.242857832550
      2   S      16             0.7466000    1.094382206854

      3   S      17             0.2248000    1.000000000000

      4   P      18            13.5500000    0.058905676772
      4   P      19             2.9170000    0.320461106714
      4   P      20             0.7973000    0.753042061792

      5   P      21             0.2185000    1.000000000000

      6   D      22             0.8170000    1.000000000000

 H         

      7   S      23            13.0100000    0.033498726390
      7   S      24             1.9620000    0.234800801174
      7   S      25             0.4446000    0.813682957883

      8   S      26             0.1220000    1.000000000000

      9   P      27             0.7270000    1.000000000000

 H         

     10   S      28            13.0100000    0.033498726390
     10   S      29             1.9620000    0.234800801174
     10   S      30             0.4446000    0.813682957883

     11   S      31             0.1220000    1.000000000000

     12   P      32             0.7270000    1.000000000000

 H         

     13   S      33            13.0100000    0.033498726390
     13   S      34             1.9620000    0.234800801174
     13   S      35             0.4446000    0.813682957883

     14   S      36             0.1220000    1.000000000000

     15   P      37             0.7270000    1.000000000000

 TOTAL NUMBER OF BASIS SET SHELLS             =   15
 NUMBER OF CARTESIAN GAUSSIAN BASIS FUNCTIONS =   30
 NOTE: THIS RUN WILL RESTRICT THE MO VARIATION SPACE TO SPHERICAL HARMONICS.
 THE NUMBER OF ORBITALS KEPT IN THE VARIATIONAL SPACE WILL BE PRINTED LATER.
 NUMBER OF ELECTRONS                          =    9
 CHARGE OF MOLECULE                           =    1
 SPIN MULTIPLICITY                            =    2
 NUMBER OF OCCUPIED ORBITALS (ALPHA)          =    5
 NUMBER OF OCCUPIED ORBITALS (BETA )          =    4
 TOTAL NUMBER OF ATOMS                        =    4
 THE NUCLEAR REPULSION ENERGY IS       11.6833010253

     $CONTRL OPTIONS
     ---------------
 SCFTYP=MCSCF        RUNTYP=ENERGY       EXETYP=RUN     
 MPLEVL=       2     CITYP =NONE         CCTYP =NONE         VBTYP =NONE    
 DFTTYP=NONE         TDDFT =NONE    
 MULT  =       2     ICHARG=       1     NZVAR =       0     COORD =UNIQUE  
 PP    =NONE         RELWFN=NONE         LOCAL =NONE         NUMGRD=       F
 ISPHER=       1     NOSYM =       1     MAXIT =     200     UNITS =ANGS    
 PLTORB=       F     MOLPLT=       F     AIMPAC=       F     FRIEND=        
 NPRINT=       7     IREST =       0     GEOM  =INPUT   
 NORMF =       0     NORMP =       0     ITOL  =      20     ICUT  =       9
 INTTYP=RYSQUAD      GRDTYP=BEST         QMTTOL= 1.0E-05

     $SYSTEM OPTIONS
     ---------------
  REPLICATED MEMORY=   100000000 WORDS (ON EVERY NODE).
 DISTRIBUTED MEMDDI=        1000 MILLION WORDS IN AGGREGATE,
 MEMDDI DISTRIBUTED OVER   1 PROCESSORS IS  1000000000 WORDS/PROCESSOR.
 TOTAL MEMORY REQUESTED ON EACH PROCESSOR=  1100000000 WORDS.
 TIMLIM=      525600.00 MINUTES, OR     365.0 DAYS.
 PARALL= T  BALTYP=  DLB     KDIAG=    3  COREFL= F
 MXSEQ2=     300 MXSEQ3=     150  mem10=         0

          ----------------
          PROPERTIES INPUT
          ----------------

     MOMENTS            FIELD           POTENTIAL          DENSITY
 IEMOM =       1   IEFLD =       0   IEPOT =       0   IEDEN =       0
 WHERE =COMASS     WHERE =NUCLEI     WHERE =NUCLEI     WHERE =NUCLEI  
 OUTPUT=BOTH       OUTPUT=BOTH       OUTPUT=BOTH       OUTPUT=BOTH    
 IEMINT=       0   IEFINT=       0                     IEDINT=       0
                                                       MORB  =       0

     -------------------------------
     INTEGRAL TRANSFORMATION OPTIONS
     -------------------------------
     NWORD  =            0
     CUTOFF = 1.0E-09     MPTRAN =       0
     DIRTRF =       T     AOINTS =DUP     

          ----------------------
          MCSCF INPUT PARAMETERS
          ----------------------
 CONVERGER SELECTION: FOCAS = F  SOSCF = F  FULLNR = T  QUD = F  JACOBI = F
 SECULAR EQUATION METHOD CISTEP = GMCCI   
 --- GENERAL INPUT OPTIONS:
 MAXIT =     100  MICIT =       1  ACURCY= 1.000E-06
 DAMP  =   0.000  CANONC=       T  ENGTOL= 1.000E-10
 EKT   =       F  NPUNCH=       2  NWORD =         0
 REGENERATE CI AFTER CONVERGENCE = NONE    
 DIABATIZATION AFTER CONVERGENCE =        F
 --- INPUT FOR FULLNR CONVERGER:
 METHOD=DM2       FORS  =       F  DROPC =       T
 LINSER=       F  FCORE =       F  NORB  =      30

          ----------------------
          INTEGRAL INPUT OPTIONS
          ----------------------
 NOPK  =       1 NORDER=       0 SCHWRZ=       T

 ------------------------------------------
 MULTIREFERENCE PERTURBATION THEORY CONTROL
 ------------------------------------------
 MRPT=GMCPT    READ CONVERGED MCSCF VECTORS= F


     ------------------------------------------
     THE POINT GROUP IS C1 , NAXIS= 1, ORDER= 1
     ------------------------------------------

 -- VARIATIONAL SPACE WILL BE RESTRICTED TO PURE SPHERICAL HARMONICS ONLY --
 AFTER EXCLUDING CONTAMINANT COMBINATIONS FROM THE CARTESIAN GAUSSIAN BASIS
 SET, THE NUMBER OF SPHERICAL HARMONICS KEPT IN THE VARIATION SPACE IS   29

     DIMENSIONS OF THE SYMMETRY SUBSPACES ARE
 A   =   29

 ..... DONE SETTING UP THE RUN .....
 CPU     0: STEP CPU TIME=     0.04 TOTAL CPU TIME=          0.0 (      0.0 MIN)
 TOTAL WALL CLOCK TIME=          0.1 SECONDS, CPU UTILIZATION IS    80.00%

          ********************
          1 ELECTRON INTEGRALS
          ********************
 TIME TO DO   DIPOLE INTEGRALS=      0.00
 ...... END OF ONE-ELECTRON INTEGRALS ......
 CPU     0: STEP CPU TIME=     0.00 TOTAL CPU TIME=          0.0 (      0.0 MIN)
 TOTAL WALL CLOCK TIME=          0.1 SECONDS, CPU UTILIZATION IS    80.00%

          -------------
          GUESS OPTIONS
          -------------
          GUESS =MOREAD            NORB  =      29          NORDER=       0
          MIX   =       F          PRTMO =       F          PUNMO =       F
          TOLZ  = 1.0E-08          TOLE  = 1.0E-05
          SYMDEN=       F          PURIFY=       T

 INITIAL GUESS ORBITALS GENERATED BY MOREAD   ROUTINE.

 STATISTICS FOR GENERATION OF SYMMETRY ORBITAL -Q- MATRIX
 NUMBER OF CARTESIAN ATOMIC ORBITALS=         30
 NUMBER OF SPHERICAL CONTAMINANTS DROPPED=     1
 NUMBER OF LINEARLY DEPENDENT MOS DROPPED=     0
 TOTAL NUMBER OF MOS IN VARIATION SPACE=      29
 ORBITAL PURIFICATION WILL OCCUR

 SYMMETRIES FOR INITIAL GUESS ORBITALS FOLLOW.   BOTH SET(S).
     5 ORBITALS ARE OCCUPIED (    1 CORE ORBITALS).
     1=A        2=A        3=A        4=A        5=A        6=A        7=A   
     8=A        9=A       10=A       11=A       12=A       13=A       14=A   
    15=A       16=A       17=A       18=A       19=A       20=A       21=A   
    22=A       23=A       24=A       25=A       26=A       27=A       28=A   
    29=A   
 ...... END OF INITIAL ORBITAL SELECTION ......
 CPU     0: STEP CPU TIME=     0.01 TOTAL CPU TIME=          0.1 (      0.0 MIN)
 TOTAL WALL CLOCK TIME=          0.1 SECONDS, CPU UTILIZATION IS   100.00%

                    ----------------------
                    AO INTEGRAL TECHNOLOGY
                    ----------------------
     S,P,L SHELL ROTATED AXIS INTEGRALS, REPROGRAMMED BY
        KAZUYA ISHIMURA (IMS) AND JOSE SIERRA (SYNSTAR).
     S,P,D,L SHELL ROTATED AXIS INTEGRALS PROGRAMMED BY
        KAZUYA ISHIMURA (INSTITUTE FOR MOLECULAR SCIENCE).
     S,P,D,F,G SHELL TO TOTAL QUARTET ANGULAR MOMENTUM SUM 5,
        ERIC PROGRAM BY GRAHAM FLETCHER (ELORET AND NASA ADVANCED
        SUPERCOMPUTING DIVISION, AMES RESEARCH CENTER).
     S,P,D,F,G,L SHELL GENERAL RYS QUADRATURE PROGRAMMED BY
        MICHEL DUPUIS (PACIFIC NORTHWEST NATIONAL LABORATORY).

          --------------------
          2 ELECTRON INTEGRALS
          --------------------

 DIRECT SCF METHOD SKIPS INTEGRAL STORAGE ON DISK.
 DIRECT TRANSFORMATION SKIPS AO INTEGRAL STORAGE ON DISK.
  ...... END OF TWO-ELECTRON INTEGRALS .....
 STEP CPU TIME =     0.02 TOTAL CPU TIME =          0.1 (      0.0 MIN)
 TOTAL WALL CLOCK TIME=          0.1 SECONDS, CPU UTILIZATION IS    87.50%
 DDI: Creating Array [0] - 900 x 36 = 32400 words.
 DDI: Creating Array [1] - 21 x 288 = 6048 words.
 DDI: Creating Array [2] - 36 x 36 = 1296 words.
 DDI: Creating Array [3] - 465 x 36 = 16740 words.

          -----------------
          MCSCF CALCULATION
          -----------------

 ----- NUCLEAR ENERGY ----- =        11.6833010253

     -------------------------------------------------
     GMC-PT/GMC-QDPT or general MCSCF input parameters
     -------------------------------------------------
 # of frozen core orbs. =         0 ->         0
 # of doubly occ. orbs. =         1
 # of active      orbs. =         7
 # of virtual     orbs. =        21
 # of active electrons  =         7
 # of states in CI      =         3
 Highest state in CI    =         3
 kstate =  1 1 1
 avecoe =  0.333 0.333 0.333
 State symmetry           = A           
 Assigned symmetry number = 1

 <<<Act. MO sym.: 1111111

 <<<Division of 1-ext.:  0
 <<<Division of 2-ext.:  0

 *** Reference space

 Reference type: ORMAS (= Occupation restricted multiple active space)
 # of orbitals          =  7
 # of minimum electrons =  7
 # of maximum electrons =  7
 State symmetry    =    1 (input)
 2*Sz              =    1 (input)
 Spin multiplicity =    2 (input)
 Dimension of reference space =      1225  (from      3432 walks)

 Dimension of reference space =      1225  (from      1225 walks)

 <<<Ionized spaces for Ref-CI:
      0:         1225 /   -1-0:         1960 /  0-1-0:         2891

 EVALUATING EXCHANGE INTEGRALS FOR DIRECT INTEGRAL TRANSFORMATION
 SCHWARZ INEQUALITY OVERHEAD:       465 INTEGRALS, T=        0.00

     --------------------------------------------
     PARTIAL TWO ELECTRON INTEGRAL TRANSFORMATION
     --------------------------------------------

 NUMBER OF CORE MOLECULAR ORBITALS     =    1
 NUMBER OF OCCUPIED MOLECULAR ORBITALS =    8
 TOTAL NUMBER OF MOLECULAR ORBITALS    =   29
 TOTAL NUMBER OF ATOMIC ORBITALS       =   30
 THRESHOLD FOR KEEPING TRANSFORMED 2E- INTEGRALS = 1.000E-09

 -------------------------------     ------------------------------
 DISTRIBUTED DATA TRANSFORMATION     PROGRAM WRITTEN BY G. FLETCHER
 -------------------------------     ------------------------------

 THE DISTRIBUTED MEMORY REQUIRED FOR THIS STEP IS MEMDDI=         1 MWORDS
 CREATING DISTRIBUTED STORAGE FOR [VIR OCC|VIR OCC] INTEGRALS
 CREATING DISTRIBUTED STORAGE FOR [VIR OCC|OCC OCC] INTEGRALS
 CREATING DISTRIBUTED STORAGE FOR [OCC OCC|OCC OCC] INTEGRALS
 CREATING DISTRIBUTED STORAGE FOR [VIR VIR|OCC OCC] INTEGRALS
 FOR    1 PROCESSORS, THE REPLICATED MEMORY NEEDED IS       73700 WORDS.
 SCHWARZ INEQUALITY OVERHEAD:       465 INTEGRALS, T=        0.00

      DIRECT 4-INDEX TRANSFORMATION 
      SCHWARZ INEQUALITY TEST SKIPPED          0 INTEGRAL BLOCKS
 ----- FROZEN CORE ENERGY =       -47.7885014337
 ... END OF INTEGRAL TRANSFORMATION ...
 CPU     0: STEP CPU TIME=     0.21 TOTAL CPU TIME=          0.3 (      0.0 MIN)
 TOTAL WALL CLOCK TIME=          0.3 SECONDS, CPU UTILIZATION IS    93.33%

     --------------------------------     -----------------------------
     MCHF NEWTON-RAPHSON OPTIMIZATION     CODE WRITTEN BY MICHEL DUPUIS
     --------------------------------     -----------------------------
     PARALLEL VERSION WRITTEN BY G. FLETCHER (ELORET)
     NASA ADVANCED SUPERCOMPUTING DIVISION, AMES RESEARCH CENTER

 NUMBER OF INDEPENDENT ORBITAL ROTATION PARAMETERS =   102
 ..... DONE SOLVING NEWTON-RAPHSON EQUATIONS .....
 CPU     0: STEP CPU TIME=     0.81 TOTAL CPU TIME=          1.1 (      0.0 MIN)
 TOTAL WALL CLOCK TIME=          1.1 SECONDS, CPU UTILIZATION IS    98.20%
 ..... DONE WITH NTN-RPH ORBITAL ROTATIONS ..... 
 CPU     0: STEP CPU TIME=     0.00 TOTAL CPU TIME=          1.1 (      0.0 MIN)
 TOTAL WALL CLOCK TIME=          1.1 SECONDS, CPU UTILIZATION IS    98.20%
 MAXIMUM MEMORY USED BY NTN-RPH CODE WAS     57645 WORDS.

 ITER     TOTAL ENERGY      DEL(E)  LAGRANGIAN ASYMMETRY   SQCDF  MICIT   DAMP
   1      -55.674063124 -0.674063124  0.136180   14    4 1.635E-01  1   0.0000
   2      -55.711729746 -0.037666623  0.024178   12    5 4.519E-01  1   0.0000
   3      -55.744035592 -0.032305845  0.012203   12    5 2.110E-01  1   0.0259
   4      -55.757431047 -0.013395455  0.004124   11    6 3.702E-02  1   0.0045
   5      -55.759038214 -0.001607167  0.000722   12    5 1.027E-03  1   0.0000
   6      -55.759083758 -0.000045544  0.000236   12    5 7.811E-05  1   0.0000
   7      -55.759088029 -0.000004271  0.000105   12    5 1.065E-05  1   0.0000
   8      -55.759088659 -0.000000630  0.000046   12    5 1.661E-06  1   0.0000
   9      -55.759088762 -0.000000103  0.000019   12    5 2.862E-07  1   0.0000
  10      -55.759088781 -0.000000019  0.000008   12    5 5.575E-08  1   0.0000
  11      -55.759088785 -0.000000004  0.000004   22    5 1.255E-08  1   0.0000
  12      -55.759088785 -0.000000001  0.000002   12    7 3.216E-09  1   0.0000
  13      -55.759088786 -0.000000000  0.000001   12    7 8.969E-10  1   0.0000
  14      -55.759088786 -0.000000000  0.000001   22    5 2.752E-10  1   0.0000

          --------------------
          LAGRANGIAN CONVERGED
          --------------------

 FINAL MCSCF ENERGY IS      -55.7590887858 AFTER  14 ITERATIONS

 -MCCI- BASED ON OPTIMIZED ORBITALS
 ----------------------------------

 PLEASE NOTE: IF THE ACTIVE ORBITALS ARE CANONICALIZED BELOW,
 THE FOLLOWING CI EXPANSION COEFFICIENTS AND THE DENSITY DO NOT
 CORRESPOND TO THE PRINTED ORBITALS.  THE PRINTED EXPANSIONS MATCH
 THE ORBITALS USED DURING THE LAST ITERATION.  IF YOU WISH TO SEE
 CI EXPANSIONS BASED ON THE CANONICAL (OR NATURAL) ORBITALS, YOU
 MUST RUN A CI CALCULATION WITH THAT ORBITAL CHOICE READ IN $VEC.

 Averaged energy =     -55.759088786

 State #    1  Energy =     -55.901285401  S =  0.500

      Det      Coef    Occupancy (Ignoring core)
      ---      ----    --------- --------- -----
        1   -0.946659  11110001110000
        2   -0.055827  11101001110000
        5    0.060832  01111001110000
        8    0.123204  10110101110000
       17   -0.132189  11010011110000
       71    0.117715  11110001011000
      386   -0.090642  11110001010010
      393   -0.069346  10110101010010
      701    0.109509  11110001100001
      717   -0.050414  11010011100001

 State #    2  Energy =     -55.727272914  S =  0.500

      Det      Coef    Occupancy (Ignoring core)
      ---      ----    --------- --------- -----
        1   -0.114459  11110001110000
       71   -0.961752  11110001011000
       75    0.055464  01111001011000
       78    0.064549  10110101011000
       87   -0.098182  11010011011000
      316   -0.055934  11110000011100
      806   -0.099563  11110001001001
      822    0.054592  11010011001001

 State #    3  Energy =     -55.648708042  S =  0.500

      Det      Coef    Occupancy (Ignoring core)
      ---      ----    --------- --------- -----
       36    0.970599  11110001101000
       43   -0.077566  10110101101000
       52    0.068279  11010011101000
      281    0.065807  11110000101100
      456    0.094753  11110001001010
      463    0.072712  10110101001010

 DENSITY MATRIX OVER ACTIVE MO-S

             1           2           3           4           5

    1    1.9793430
    2    0.0100503   1.6367548
    3   -0.0000000   0.0000000   1.6363457
    4    0.0032077   0.0013014   0.0000000   1.6554198
    5    0.0952160  -0.0115995  -0.0000000   0.0433195   0.0244670
    6   -0.0016686  -0.1311574  -0.0000000   0.0178319   0.0026392
    7   -0.0000000   0.0000000  -0.1506464   0.0000000  -0.0000000

             6           7

    6    0.0348541
    7   -0.0000000   0.0328156

 FORMING THE "STANDARD FOCK OPERATOR" IN DIRECT AO INTEGRAL MODE...
 ONLY THE    1 CORE AND   21 VIRTUAL ORBITALS WILL BE CANONICALIZED

          ----------------------
          MCSCF NATURAL ORBITALS
          ----------------------

                      1          2          3          4          5
                  -15.9866     1.9843     1.6567     1.6504     1.6472
                     A          A          A          A          A   
    1  N  1  S    1.001314   0.008700  -0.011079   0.000000  -0.001719
    2  N  1  S   -0.001797   0.438901  -0.181071  -0.000000  -0.050467
    3  N  1  S   -0.006372   0.286429  -0.284715  -0.000000  -0.074623
    4  N  1  X   -0.000007   0.024680  -0.064405   0.000000   0.513897
    5  N  1  Y   -0.000000  -0.000000  -0.000000   0.490974  -0.000000
    6  N  1  Z    0.001155   0.097014   0.593379   0.000000   0.035079
    7  N  1  X    0.000058  -0.004209  -0.050473   0.000000   0.243579
    8  N  1  Y   -0.000000  -0.000000  -0.000000   0.185681  -0.000000
    9  N  1  Z   -0.000435   0.005446   0.383424   0.000000   0.003092
   10  N  1 XX   -0.000140  -0.001193  -0.012892   0.000000   0.012904
   11  N  1 YY    0.000324   0.000048  -0.011456  -0.000000  -0.014719
   12  N  1 ZZ   -0.000183   0.001145   0.024348   0.000000   0.001816
   13  N  1 XY   -0.000000  -0.000000   0.000000  -0.006668   0.000000
   14  N  1 XZ    0.000112   0.000920  -0.000310   0.000000   0.026038
   15  N  1 YZ   -0.000000  -0.000000  -0.000000   0.023499  -0.000000
   16  H  2  S   -0.002023   0.184567   0.114096   0.334365  -0.160768
   17  H  2  S    0.000522   0.001037   0.027037   0.042099  -0.030311
   18  H  2  X   -0.000381   0.012757   0.005423   0.017833   0.013841
   19  H  2  Y    0.000961  -0.033899  -0.015899  -0.027457   0.018115
   20  H  2  Z    0.000425  -0.006892   0.019010  -0.015060   0.008508
   21  H  3  S   -0.002023   0.184567   0.114096  -0.334365  -0.160768
   22  H  3  S    0.000522   0.001037   0.027037  -0.042099  -0.030311
   23  H  3  X   -0.000381   0.012757   0.005423  -0.017833   0.013841
   24  H  3  Y   -0.000961   0.033899   0.015899  -0.027457  -0.018115
   25  H  3  Z    0.000425  -0.006892   0.019010   0.015060   0.008508
   26  H  4  S   -0.002018   0.207390   0.092129   0.000000   0.383158
   27  H  4  S    0.000351   0.007119   0.020677   0.000000   0.068313
   28  H  4  X    0.000950  -0.035813  -0.018308  -0.000000  -0.029306
   29  H  4  Y   -0.000000  -0.000000  -0.000000   0.022619  -0.000000
   30  H  4  Z    0.000480  -0.013350   0.019700  -0.000000  -0.019832

                      6          7          8
                    0.0243     0.0188     0.0183
                     A          A          A   
    1  N  1  S   -0.081688   0.000000   0.248103
    2  N  1  S   -0.252136   0.000000   0.790966
    3  N  1  S    0.016263   0.000000   0.161571
    4  N  1  X    0.829432   0.000000   0.249021
    5  N  1  Y   -0.000000   0.951060  -0.000000
    6  N  1  Z   -0.087453   0.000000   0.684230
    7  N  1  X    0.009429   0.000000   0.047290
    8  N  1  Y   -0.000000   0.071891  -0.000000
    9  N  1  Z    0.023832  -0.000000  -0.101723
   10  N  1 XX   -0.031645   0.000000   0.021877
   11  N  1 YY    0.032946  -0.000000  -0.012725
   12  N  1 ZZ   -0.001300  -0.000000  -0.009152
   13  N  1 XY    0.000000  -0.028699   0.000000
   14  N  1 XZ   -0.023257  -0.000000  -0.032670
   15  N  1 YZ    0.000000  -0.052237   0.000000
   16  H  2  S    0.462504  -0.625610  -0.418604
   17  H  2  S    0.082109  -0.120603  -0.039235
   18  H  2  X   -0.000826  -0.030465  -0.030349
   19  H  2  Y   -0.048293   0.050656   0.057014
   20  H  2  Z   -0.005417  -0.007645  -0.014312
   21  H  3  S    0.462504   0.625610  -0.418604
   22  H  3  S    0.082109   0.120603  -0.039235
   23  H  3  X   -0.000826   0.030465  -0.030349
   24  H  3  Y    0.048293   0.050656  -0.057014
   25  H  3  Z   -0.005417   0.007645  -0.014312
   26  H  4  S   -0.591741  -0.000000  -0.652558
   27  H  4  S   -0.133019  -0.000000  -0.087270
   28  H  4  X    0.037046   0.000000   0.083617
   29  H  4  Y    0.000000  -0.036705   0.000000
   30  H  4  Z    0.013901  -0.000000  -0.007705

          ------------------------
          MCSCF OPTIMIZED ORBITALS
          ------------------------

                      1          2          3          4          5
                  -15.9866     0.0000     0.0000     0.0000     0.0000
                     A          A          A          A          A   
    1  N  1  S    1.001314  -0.003684   0.003301   0.000000  -0.018152
    2  N  1  S   -0.001797   0.402366  -0.013802   0.000000  -0.199414
    3  N  1  S   -0.006372   0.285021  -0.050611  -0.000000  -0.287732
    4  N  1  X   -0.000007   0.007272   0.446231  -0.000000  -0.022272
    5  N  1  Y   -0.000000   0.000000   0.000000   0.400666  -0.000000
    6  N  1  Z    0.001155   0.053301  -0.000823  -0.000000   0.578248
    7  N  1  X    0.000058  -0.012645   0.244064  -0.000000  -0.035358
    8  N  1  Y   -0.000000  -0.000000  -0.000000   0.178214  -0.000000
    9  N  1  Z   -0.000435   0.004468  -0.022507   0.000000   0.385446
   10  N  1 XX   -0.000140  -0.002723   0.015961   0.000000  -0.013060
   11  N  1 YY    0.000324   0.001589  -0.016419  -0.000000  -0.011553
   12  N  1 ZZ   -0.000183   0.001134   0.000458  -0.000000   0.024613
   13  N  1 XY   -0.000000  -0.000000  -0.000000  -0.003978  -0.000000
   14  N  1 XZ    0.000112   0.001481   0.028146  -0.000000   0.001795
   15  N  1 YZ   -0.000000  -0.000000  -0.000000   0.028241  -0.000000
   16  H  2  S   -0.002023   0.211675  -0.195057   0.390938   0.123570
   17  H  2  S    0.000522   0.004186  -0.038086   0.053101   0.027254
   18  H  2  X   -0.000381   0.013680   0.014148   0.020581   0.007218
   19  H  2  Y    0.000961  -0.037312   0.021396  -0.032036  -0.017337
   20  H  2  Z    0.000425  -0.006798   0.007616  -0.014286   0.019651
   21  H  3  S   -0.002023   0.211675  -0.195057  -0.390938   0.123570
   22  H  3  S    0.000522   0.004186  -0.038086  -0.053101   0.027254
   23  H  3  X   -0.000381   0.013680   0.014148  -0.020581   0.007218
   24  H  3  Y   -0.000961   0.037312  -0.021396  -0.032036   0.017337
   25  H  3  Z    0.000425  -0.006798   0.007616   0.014286   0.019651
   26  H  4  S   -0.002018   0.219439   0.435309  -0.000000   0.125886
   27  H  4  S    0.000351   0.007595   0.078414  -0.000000   0.025072
   28  H  4  X    0.000950  -0.038207  -0.032812   0.000000  -0.022102
   29  H  4  Y   -0.000000  -0.000000  -0.000000   0.025925  -0.000000
   30  H  4  Z    0.000480  -0.012551  -0.022414   0.000000   0.018538

                      6          7          8          9         10
                    0.0000     0.0000     0.0000     0.1549     0.2009
                     A          A          A          A          A   
    1  N  1  S    0.259656  -0.025574  -0.000000  -0.158738  -0.000000
    2  N  1  S    0.842548  -0.073658  -0.000000  -0.245834  -0.000000
    3  N  1  S    0.161027   0.050251  -0.000000   1.567168   0.000000
    4  N  1  X    0.059001   0.903141   0.000000  -0.030450  -0.000000
    5  N  1  Y    0.000000   0.000000   0.992490   0.000000   0.118069
    6  N  1  Z    0.705779   0.056771   0.000000  -0.236887  -0.000000
    7  N  1  X    0.040781   0.039759  -0.000000   0.108183   0.000000
    8  N  1  Y    0.000000   0.000000   0.088800   0.000000  -0.762603
    9  N  1  Z   -0.094077  -0.004860  -0.000000   0.546700   0.000000
   10  N  1 XX    0.027687  -0.024796  -0.000000  -0.019902   0.000000
   11  N  1 YY   -0.019726   0.028294   0.000000   0.066555  -0.000000
   12  N  1 ZZ   -0.007962  -0.003498   0.000000  -0.046652   0.000000
   13  N  1 XY    0.000000   0.000000  -0.029193   0.000000   0.061066
   14  N  1 XZ   -0.026960  -0.027617   0.000000   0.036666   0.000000
   15  N  1 YZ    0.000000   0.000000  -0.049833  -0.000000  -0.109015
   16  H  2  S   -0.495019   0.344821  -0.591909   0.303981  -0.446651
   17  H  2  S   -0.055044   0.068494  -0.116180  -0.929567   1.625815
   18  H  2  X   -0.028740  -0.006334  -0.028680  -0.025005   0.044703
   19  H  2  Y    0.063831  -0.032985   0.047891   0.106215  -0.076446
   20  H  2  Z   -0.012679  -0.008019  -0.009008   0.015416  -0.075705
   21  H  3  S   -0.495019   0.344821   0.591909   0.303981   0.446651
   22  H  3  S   -0.055044   0.068494   0.116180  -0.929567  -1.625813
   23  H  3  X   -0.028740  -0.006334   0.028680  -0.025005  -0.044703
   24  H  3  Y   -0.063831   0.032985   0.047891  -0.106215  -0.076446
   25  H  3  Z   -0.012679  -0.008019   0.009008   0.015416   0.075705
   26  H  4  S   -0.498210  -0.687452   0.000000   0.154925   0.000001
   27  H  4  S   -0.055872  -0.143171   0.000000  -0.683833  -0.000002
   28  H  4  X    0.071472   0.052035  -0.000000   0.097277   0.000000
   29  H  4  Y    0.000000   0.000000  -0.034449   0.000000   0.032841
   30  H  4  Z   -0.010513   0.009907  -0.000000   0.049599   0.000000

                     11         12         13         14         15
                    0.2031     0.5406     0.5948     0.6249     0.8064
                     A          A          A          A          A   
    1  N  1  S    0.031045   0.046891  -0.000000   0.102407  -0.000000
    2  N  1  S    0.058788   0.047366  -0.000000   0.371164  -0.000000
    3  N  1  S   -0.208406  -0.376494  -0.000000   0.145663   0.000000
    4  N  1  X    0.009352  -0.591686  -0.000000  -0.176341  -0.000000
    5  N  1  Y    0.000000   0.000000  -0.483532  -0.000000  -0.100751
    6  N  1  Z    0.054668   0.297467   0.000000  -0.630620   0.000000
    7  N  1  X   -0.473548   1.563013  -0.000000   0.785808   0.000000
    8  N  1  Y   -0.000001  -0.000000   1.933735   0.000000   0.638412
    9  N  1  Z   -0.150000  -0.384570  -0.000000   1.065251  -0.000000
   10  N  1 XX   -0.080451   0.021219   0.000000  -0.016083   0.000000
   11  N  1 YY    0.085824  -0.007285   0.000000  -0.053291  -0.000000
   12  N  1 ZZ   -0.005373  -0.013934  -0.000000   0.069374  -0.000000
   13  N  1 XY    0.000000  -0.000000   0.060788   0.000000  -0.170184
   14  N  1 XZ   -0.085659   0.040812   0.000000  -0.032101  -0.000000
   15  N  1 YZ   -0.000000  -0.000000  -0.000912  -0.000000  -0.136965
   16  H  2  S    0.314178   0.373564  -0.658305  -0.362247  -0.134038
   17  H  2  S   -0.961119   0.539431  -0.739836   0.332121  -0.203340
   18  H  2  X    0.018548   0.047768   0.071343   0.015696  -0.344050
   19  H  2  Y    0.036986  -0.046361   0.178763  -0.055827   0.100749
   20  H  2  Z    0.013331  -0.070991   0.009202   0.046056  -0.265300
   21  H  3  S    0.314179   0.373564   0.658305  -0.362247   0.134038
   22  H  3  S   -0.961122   0.539430   0.739836   0.332121   0.203340
   23  H  3  X    0.018548   0.047768  -0.071343   0.015696   0.344050
   24  H  3  Y   -0.036986   0.046361   0.178763   0.055827   0.100749
   25  H  3  Z    0.013331  -0.070991  -0.009202   0.046056   0.265300
   26  H  4  S   -0.598349  -0.277976   0.000000  -0.791291   0.000000
   27  H  4  S    2.098751  -0.952932  -0.000000  -0.322951  -0.000000
   28  H  4  X   -0.099171   0.116928  -0.000000   0.027888   0.000000
   29  H  4  Y    0.000000   0.000000   0.093318   0.000000  -0.503574
   30  H  4  Z   -0.068776   0.080152  -0.000000   0.050338  -0.000000

                     16         17         18         19         20
                    0.9617     0.9826     1.3174     1.4809     1.5372
                     A          A          A          A          A   
    1  N  1  S   -0.558154  -0.145999  -0.000000  -0.589582  -0.123050
    2  N  1  S   -1.186158  -0.310049  -0.000000  -1.216164  -0.241190
    3  N  1  S    2.408479   0.804604  -0.000000   2.297324   0.659028
    4  N  1  X   -0.058609  -0.051961  -0.000000  -0.005304   0.166548
    5  N  1  Y   -0.000000   0.000000  -0.201104   0.000000  -0.000000
    6  N  1  Z    0.177995   0.061204  -0.000000  -0.028550   0.024896
    7  N  1  X    0.277500   0.396335  -0.000000  -0.070017   0.725233
    8  N  1  Y    0.000000  -0.000000   0.791482  -0.000000  -0.000000
    9  N  1  Z   -0.029565   0.288509   0.000000   0.957064   0.329576
   10  N  1 XX   -0.113111   0.187806  -0.000000   0.133807  -0.049553
   11  N  1 YY   -0.095125  -0.093005   0.000000   0.143344   0.005218
   12  N  1 ZZ    0.208236  -0.094801  -0.000000  -0.277152   0.044334
   13  N  1 XY    0.000000   0.000000  -0.078457  -0.000000  -0.000000
   14  N  1 XZ   -0.046095  -0.224604  -0.000000  -0.000888  -0.162542
   15  N  1 YZ   -0.000000   0.000000   0.011261  -0.000000  -0.000000
   16  H  2  S   -0.318699  -0.071457  -0.357266  -0.643235  -0.118207
   17  H  2  S   -0.317635  -0.060225  -0.150178  -0.187904   0.080375
   18  H  2  X    0.011470  -0.364663  -0.473089   0.288702  -0.487103
   19  H  2  Y   -0.028740  -0.069904  -0.409298   0.101655  -0.105157
   20  H  2  Z    0.329616   0.112038   0.306371  -0.408298  -0.455647
   21  H  3  S   -0.318699  -0.071457   0.357266  -0.643235  -0.118207
   22  H  3  S   -0.317635  -0.060225   0.150178  -0.187904   0.080375
   23  H  3  X    0.011470  -0.364663   0.473089   0.288702  -0.487103
   24  H  3  Y    0.028740   0.069904  -0.409298  -0.101655   0.105157
   25  H  3  Z    0.329616   0.112038  -0.306371  -0.408298  -0.455647
   26  H  4  S   -0.441992  -0.230761   0.000000  -0.616604  -0.357731
   27  H  4  S   -0.354163  -0.231134   0.000000  -0.209587  -0.340062
   28  H  4  X   -0.079261   0.393237  -0.000000   0.128714   0.031704
   29  H  4  Y    0.000000   0.000000   0.255032   0.000000   0.000000
   30  H  4  Z    0.286128  -0.472716  -0.000000  -0.276738   0.649960

                     21         22         23         24         25
                    1.5920     1.8264     1.8858     2.0344     2.2212
                     A          A          A          A          A   
    1  N  1  S   -0.000000   0.104796  -0.000000   0.100985   0.127672
    2  N  1  S   -0.000000   0.200600  -0.000000   0.328964   0.262528
    3  N  1  S    0.000000  -0.591090  -0.000000   1.665382  -0.317145
    4  N  1  X   -0.000000   0.422678   0.000000   0.103701   0.081008
    5  N  1  Y    0.030810  -0.000000   0.619447  -0.000000   0.000000
    6  N  1  Z    0.000000   0.026753  -0.000000   0.361142   0.032042
    7  N  1  X    0.000000  -0.211583   0.000000  -0.207226  -0.155495
    8  N  1  Y    0.980133   0.000000   0.079095  -0.000000   0.000000
    9  N  1  Z    0.000000  -0.229789   0.000000   0.691420  -0.456004
   10  N  1 XX   -0.000000  -0.267535  -0.000000  -0.062025   0.820660
   11  N  1 YY   -0.000000   0.154527   0.000000  -0.235373  -0.051681
   12  N  1 ZZ    0.000000   0.113008   0.000000   0.297398  -0.768978
   13  N  1 XY    0.011031  -0.000000   0.285149   0.000000  -0.000000
   14  N  1 XZ   -0.000000  -0.121829  -0.000000  -0.181232  -0.537193
   15  N  1 YZ   -0.101112  -0.000000  -0.189284  -0.000000  -0.000000
   16  H  2  S   -0.335124   0.078471   0.023898  -0.464875   0.107043
   17  H  2  S   -0.215653   0.300036  -0.357550  -0.325832   0.018932
   18  H  2  X    0.178712   0.306890  -0.420618   0.057365   0.283119
   19  H  2  Y   -0.068367  -0.444532   0.585798   0.859593   0.037116
   20  H  2  Z    0.555317   0.026301   0.376272  -0.073707   0.252104
   21  H  3  S    0.335124   0.078471  -0.023898  -0.464875   0.107043
   22  H  3  S    0.215653   0.300036   0.357550  -0.325832   0.018932
   23  H  3  X   -0.178712   0.306890   0.420618   0.057365   0.283119
   24  H  3  Y   -0.068367   0.444532   0.585798  -0.859593  -0.037116
   25  H  3  Z   -0.555317   0.026301  -0.376272  -0.073707   0.252104
   26  H  4  S   -0.000000   0.325143   0.000000  -0.408715   0.158579
   27  H  4  S   -0.000000  -0.394671  -0.000000  -0.178334  -0.012853
   28  H  4  X   -0.000000   0.830224   0.000000   0.699209  -0.139799
   29  H  4  Y   -0.857759  -0.000000   0.167292   0.000000   0.000000
   30  H  4  Z    0.000000   0.186771   0.000000   0.172718   0.691890

                     26         27         28         29
                    2.3565     2.5393     2.7376     2.9880
                     A          A          A          A   
    1  N  1  S    0.000000  -0.039437  -0.000000   0.026826
    2  N  1  S    0.000000   0.068035   0.000000   0.096057
    3  N  1  S   -0.000000   2.229253   0.000000   0.460260
    4  N  1  X   -0.000000   0.210806  -0.000000  -0.579808
    5  N  1  Y   -0.123614  -0.000000   0.629776  -0.000000
    6  N  1  Z   -0.000000   0.336640   0.000000   0.043526
    7  N  1  X   -0.000000   0.693302   0.000000  -0.938539
    8  N  1  Y    0.229931  -0.000000   1.475973  -0.000000
    9  N  1  Z   -0.000000   0.539051   0.000000  -0.040104
   10  N  1 XX    0.000000   0.070412  -0.000000  -1.017180
   11  N  1 YY   -0.000000   0.640340   0.000000   1.348170
   12  N  1 ZZ    0.000000  -0.710751  -0.000000  -0.330990
   13  N  1 XY    1.042937   0.000000  -0.676888   0.000000
   14  N  1 XZ   -0.000000   0.836698  -0.000000  -0.807928
   15  N  1 YZ    0.572641  -0.000000   1.225537  -0.000000
   16  H  2  S   -0.009895  -0.627207  -1.157359  -0.844213
   17  H  2  S    0.028820  -0.112547  -0.459135  -0.271133
   18  H  2  X   -0.317195  -0.400611  -0.223801  -0.232304
   19  H  2  Y   -0.201126   0.263303   0.815207   0.647566
   20  H  2  Z   -0.284819   0.407575   0.223472   0.398552
   21  H  3  S    0.009895  -0.627207   1.157359  -0.844213
   22  H  3  S   -0.028820  -0.112547   0.459135  -0.271133
   23  H  3  X    0.317195  -0.400611   0.223801  -0.232304
   24  H  3  Y   -0.201126  -0.263303   0.815206  -0.647567
   25  H  3  Z    0.284819   0.407575  -0.223472   0.398552
   26  H  4  S    0.000000  -1.177297  -0.000000   1.155137
   27  H  4  S    0.000000  -0.479812  -0.000000   0.396589
   28  H  4  X   -0.000000   0.770388  -0.000000  -0.860982
   29  H  4  Y   -0.578574  -0.000000  -0.179056   0.000000
   30  H  4  Z   -0.000000   0.464893   0.000000  -0.480604
 .....DONE WITH MCSCF ITERATIONS.....
 CPU     0: STEP CPU TIME=     7.09 TOTAL CPU TIME=          8.2 (      0.1 MIN)
 TOTAL WALL CLOCK TIME=          8.2 SECONDS, CPU UTILIZATION IS    99.88%

     ----------------------------------------------------------------
     PROPERTY VALUES FOR THE MCSCF SELF-CONSISTENT FIELD WAVEFUNCTION
     ----------------------------------------------------------------

          -----------------
          ENERGY COMPONENTS
          -----------------

         WAVEFUNCTION NORMALIZATION =       1.0000000000

                ONE ELECTRON ENERGY =     -94.7821606216
                TWO ELECTRON ENERGY =      27.3397708105
           NUCLEAR REPULSION ENERGY =      11.6833010253
                                      ------------------
                       TOTAL ENERGY =     -55.7590887858

 ELECTRON-ELECTRON POTENTIAL ENERGY =      27.3397708105
  NUCLEUS-ELECTRON POTENTIAL ENERGY =    -150.6853937062
   NUCLEUS-NUCLEUS POTENTIAL ENERGY =      11.6833010253
                                      ------------------
             TOTAL POTENTIAL ENERGY =    -111.6623218704
               TOTAL KINETIC ENERGY =      55.9032330846
                 VIRIAL RATIO (V/T) =       1.9974215391

          ---------------------------------------
          MULLIKEN AND LOWDIN POPULATION ANALYSES
          ---------------------------------------

     ATOMIC MULLIKEN POPULATION IN EACH MOLECULAR ORBITAL

                      1          2          3          4          5

                  2.000000   1.984327   1.656708   1.650376   1.647202

    1             2.001001   1.301042   1.545128   0.929361   1.046166
    2            -0.000327   0.209550   0.039479   0.355536   0.086555
    3            -0.000327   0.209550   0.039479   0.355536   0.086555
    4            -0.000348   0.264185   0.032623   0.009943   0.427925

                      6          7          8

                  0.024269   0.018786   0.018333

    1             0.011940   0.010076   0.009853
    2             0.003477   0.004352   0.001932
    3             0.003477   0.004352   0.001932
    4             0.005376   0.000005   0.004616
 WARNING! MCSCF POPULATIONS SHOWN ABOVE ARE FOR THE NATURAL ORBITALS.
 IGNORE THE ABOVE DATA FOR MCSCF FUNCTIONS WHICH ARE NOT OF -FORS- TYPE.
 THE FOLLOWING POPULATIONS ARE CORRECT FOR ANY MCSCF WAVEFUNCTION.

               ----- POPULATIONS IN EACH AO -----
                             MULLIKEN      LOWDIN
              1  N  1  S      2.00272     1.89451
              2  N  1  S      0.82742     0.57621
              3  N  1  S      0.62320     0.39074
              4  N  1  X      0.70945     0.64300
              5  N  1  Y      0.67155     0.59022
              6  N  1  Z      0.88780     0.82939
              7  N  1  X      0.33550     0.41179
              8  N  1  Y      0.26060     0.37842
              9  N  1  Z      0.51733     0.55448
             10  N  1 XX      0.00056     0.15806
             11  N  1 YY      0.00465     0.18302
             12  N  1 ZZ      0.00095     0.14205
             13  N  1 XY      0.00650     0.00444
             14  N  1 XZ      0.00634     0.01183
             15  N  1 YZ      0.00000     0.01233
             16  H  2  S      0.60943     0.47386
             17  H  2  S      0.03313     0.14241
             18  H  2  X      0.01146     0.02370
             19  H  2  Y      0.03294     0.05548
             20  H  2  Z      0.01361     0.03615
             21  H  3  S      0.60943     0.47386
             22  H  3  S      0.03313     0.14241
             23  H  3  X      0.01146     0.02370
             24  H  3  Y      0.03294     0.05548
             25  H  3  Z      0.01361     0.03615
             26  H  4  S      0.64040     0.49658
             27  H  4  S      0.04382     0.14117
             28  H  4  X      0.03270     0.05558
             29  H  4  Y      0.00995     0.01981
             30  H  4  Z      0.01745     0.04317

          ----- MULLIKEN ATOMIC OVERLAP POPULATIONS -----
          (OFF-DIAGONAL ELEMENTS NEED TO BE MULTIPLIED BY 2)

             1           2           3           4

    1    5.9188074
    2    0.3128345   0.3991691
    3    0.3128345  -0.0059436   0.3991691
    4    0.3100903  -0.0055059  -0.0055059   0.4452467

          TOTAL MULLIKEN AND LOWDIN ATOMIC POPULATIONS
       ATOM         MULL.POP.    CHARGE          LOW.POP.     CHARGE
    1 N             6.854567    0.145433         6.780499    0.219501
    2 H             0.700554    0.299446         0.731598    0.268402
    3 H             0.700554    0.299446         0.731598    0.268402
    4 H             0.744325    0.255675         0.756305    0.243695

          MULLIKEN SPHERICAL HARMONIC POPULATIONS
       ATOM           S       P       D      F      G      H      I    TOTAL
    1 N             3.45    3.38    0.02   0.00   0.00   0.00   0.00    6.85
    2 H             0.64    0.06    0.00   0.00   0.00   0.00   0.00    0.70
    3 H             0.64    0.06    0.00   0.00   0.00   0.00   0.00    0.70
    4 H             0.68    0.06    0.00   0.00   0.00   0.00   0.00    0.74

          ---------------------
          ELECTROSTATIC MOMENTS
          ---------------------

 POINT   1           X           Y           Z (BOHR)    CHARGE
                 0.000002    0.000000   -0.177185        1.00 (A.U.)
         DX          DY          DZ         /D/  (DEBYE)
     0.308757    0.000000    2.143088    2.165216
 ...... END OF PROPERTY EVALUATION ......
 CPU     0: STEP CPU TIME=     0.00 TOTAL CPU TIME=          8.2 (      0.1 MIN)
 TOTAL WALL CLOCK TIME=          8.2 SECONDS, CPU UTILIZATION IS    99.88%

     -------------------------------------------------
     GMC-PT/GMC-QDPT or general MCSCF input parameters
     -------------------------------------------------
 # of frozen core orbs. =         0 ->         0
 # of doubly occ. orbs. =         1
 # of active      orbs. =         7
 # of virtual     orbs. =        21
 # of active electrons  =         7
 # of states in CI      =         3
 Highest state in CI    =         3
 kstate =  1 1 1
 avecoe =  0.333 0.333 0.333
 State symmetry           = A           
 Assigned symmetry number = 1

 <<<Act. MO sym.: 1111111

 <<<Division of 1-ext.:  0
 <<<Division of 2-ext.:  0

     ------------------------
     Orbital canonicalization
     ------------------------

 MOs are canonicalized for core, virtual, and invariant-active orbital spaces.
 This is a part of the GMC-QDPT calculation.
 SCHWARZ INEQUALITY OVERHEAD:       465 INTEGRALS, T=        0.00
 DIRECT TRANSFORMATION SKIPS AO INTEGRAL STORAGE ON DISK.

 Averaged energy =     -55.759088786

 State #    1  Energy =     -55.901285401  S =  0.500
 State #    2  Energy =     -55.727272914  S =  0.500
 State #    3  Energy =     -55.648708042  S =  0.500

 Orbital energies for filled orbital space
  -15.986616
 Orbital energies for active orbital space
   -1.532289  -0.894605  -0.975784  -0.756627   0.421643
    0.289167   0.415983
 Orbital energies for external orbital space
    0.154883   0.200936   0.203075   0.540553   0.594760
    0.624865   0.806401   0.961705   0.982557   1.317418
    1.480946   1.537229   1.591967   1.826398   1.885788
    2.034420   2.221209   2.356546   2.539309   2.737621
    2.987993

 Zero values mean non-canonical orbitals.
 ... done with orbital canonicalization ...
 CPU     0: STEP CPU TIME=     0.49 TOTAL CPU TIME=          8.7 (      0.1 MIN)
 TOTAL WALL CLOCK TIME=          8.7 SECONDS, CPU UTILIZATION IS    99.88%

     --------------------------------------------
     PARTIAL TWO ELECTRON INTEGRAL TRANSFORMATION
     --------------------------------------------

 NUMBER OF CORE MOLECULAR ORBITALS     =    0
 NUMBER OF OCCUPIED MOLECULAR ORBITALS =    8
 TOTAL NUMBER OF MOLECULAR ORBITALS    =   29
 TOTAL NUMBER OF ATOMIC ORBITALS       =   30
 THRESHOLD FOR KEEPING TRANSFORMED 2E- INTEGRALS = 1.000E-09
 AO INTEGRALS WILL BE CALCULATED IN DIRECT MODE...
 DIRECT TRANSFORMATION SKIPS AO INTEGRAL STORAGE ON DISK.
 SCHWARZ INEQUALITY OVERHEAD:       465 INTEGRALS, T=        0.00

 PLAN A: REQUIREMENTS FOR FULLY IN-MEMORY TRANSFORMATION:
 # OF WORDS AVAILABLE =            100000000
 # OF WORDS NEEDED    =               221798

 PARALLEL ONLY WORKS WITH THE SEGMENTED ALGORITHM.
 ADJUSTING MEMORY TO USE SEGMENTED ALGORITHM.


 PLAN B: REQUIREMENTS FOR THE SEGMENTED TRANSFORMATION:
       MINIMUM=         124148 WORDS FOR 1 MOLECULAR ORBITAL PER PASS
       MAXIMUM=         221798 WORDS FOR ALL MOLECULAR ORBITALS IN 1 PASS
              (          13950 EXTRA WORDS INCLUDES 1 EXTRA ORBITAL/PASS)
 THIS RUN USES=         221798 WORDS,
 DISTRIBUTING   1 PASSES EACH CONTAINING     8 ORBITALS OVER   1 PROCESSORS.

 CHOOSING SEGMENTED PARTIAL TRANSFORMATION...
 DIRECT TRANSFORMATION SKIPS AO INTEGRAL STORAGE ON DISK.
 PASS #   1 TOOK        0.04 SECONDS.
 TOTAL NUMBER OF TRANSFORMED 2E- INTEGRALS KEPT =        19991
 ... END OF INTEGRAL TRANSFORMATION ...
 CPU     0: STEP CPU TIME=     0.04 TOTAL CPU TIME=          8.7 (      0.1 MIN)
 TOTAL WALL CLOCK TIME=          8.7 SECONDS, CPU UTILIZATION IS    99.89%

     --------     ------------------------------------------
     GMC-QDPT     Program written by H.Nakano (Kyushu Univ.)
     --------     ------------------------------------------

 *** Reference space

 Reference type: ORMAS (= Occupation restricted multiple active space)
 # of orbitals          =  7
 # of minimum electrons =  7
 # of maximum electrons =  7
 State symmetry    =    1 (input)
 2*Sz              =    1 (input)
 Spin multiplicity =    2 (input)
 Dimension of reference space =      1225  (from      3432 walks)

 Dimension of reference space =      1225  (from      1225 walks)

 <<<Ionized spaces for Ref-CI:
      0:         1225 /   -1-0:         1960 /  0-1-0:         2891

 ***                    ***
 *** Reference space CI ***
 ***                    ***

 Converged after   22 iterations

 Reference wavefunctions:

 State #    1  Energy =     -55.901285401  S =  0.500

      Det      Coef    Occupancy (Ignoring core)
      ---      ----    --------- --------- -----
        1   -0.979303  11110001110000
      393   -0.068832  10110101010010
      717   -0.064866  11010011100001

 State #    2  Energy =     -55.727272914  S =  0.500

      Det      Coef    Occupancy (Ignoring core)
      ---      ----    --------- --------- -----
       71   -0.983708  11110001011000
      822    0.064837  11010011001001

 State #    3  Energy =     -55.648708042  S =  0.500

      Det      Coef    Occupancy (Ignoring core)
      ---      ----    --------- --------- -----
       36    0.982196  11110001101000
      463    0.068958  10110101001010

 Davidson method: CPU/Wall time =           0.41 /           0.41 sec.

 Oscillator strength (invalid if E(1)/=E(GS)):
 -----------------------------------------
   State                        f
 -----------------------------------------
     2     F(REF-CI)=        0.0007967223
     3     F(REF-CI)=        0.0006680657
 -----------------------------------------

 Dipole moment matrix elements, x, y, z, in A.U.

 Dimension of ionized spaces for PT:
 (N-2) space:         1715 /  (N-1) space:         2842 /  N space:         2891
 (N+1) space:         2842 /  (N+2) space:         1715

 <<<Ionized spaces for internal:
         0:         1225 /      -1-0:         1960 /     0-1-0:         2891
  -1-0-1-0:         2842 / 0-1-0-1-0:         3381

 Diagonal elements of averaged one-particle density matrix:
       2       3       4       5       6       7       8
  0.9942  0.9880  0.9891  0.9932  0.0101  0.0143  0.0112
  0.9900  0.6591  0.6611  0.6635  0.0084  0.0101  0.0078

 Orbital energies:
 -------- Doubly-occupied orbitals (highest several orbs.) -------
             1
 -1.598662D+01
 -------- Active orbitals ----------------------------------------
             2            3            4            5            6
 -1.532289D+00-8.946045D-01-9.757836D-01-7.566273D-01 4.216435D-01
             7            8
  2.891672D-01 4.159827D-01
 -------- External orbitals (lowest several orbs.) ---------------
             9           10           11           12           13
  1.548826D-01 2.009362D-01 2.030751D-01 5.405533D-01 5.947601D-01
            14           15           16           17           18
  6.248650D-01 8.064013D-01 9.617045D-01 9.825566D-01 1.317418D+00

 *** Quasi-degeneracy checking

 === Det (|Ci| > 1.0D-01 and dE < 5.0D-03)

 # of small denominators (single excitations)
 State       dEmin  dE < 5.0D-03  dE < 5.0D-04  dE < 5.0D-05  dE < 5.0D-06
 ----- ----------- ------------- ------------- ------------- -------------
     1    5.00D-03             0             0             0             0
     2    5.00D-03             0             0             0             0
     3    5.00D-03             0             0             0             0

 # of small denominators (double excitations)
 State       dEmin  dE < 5.0D-03  dE < 5.0D-04  dE < 5.0D-05  dE < 5.0D-06
 ----- ----------- ------------- ------------- ------------- -------------
     1    5.00D-03             0             0             0             0
     2    5.00D-03             0             0             0             0
     3    5.00D-03             0             0             0             0

 *** Zeroth-Order Setup (Granovsky's zeroth-order vectors)
 Zeroth-order effective Hamiltonian
  (= Sum_i e(i)*<I|a+(i)a(i)|J> ):
                   1            2            3
     1 -7.461755D+00
     2  6.897609D-03-7.344373D+00
     3  3.926263D-11-5.851836D-10-7.258394D+00

 Zeroth-order vectors:
 State #    1
       MC st            1           2           3
       Coeff    9.983D-01  -5.846D-02  -3.602D-10
 State #    2
       MC st            2           1           3
       Coeff   -9.983D-01  -5.846D-02  -6.800D-09
 State #    3
       MC st            3           2           1
       Coeff    1.000D+00  -6.809D-09   0.000D+00

 *** GMC-QDPT computation

 (Integral reading:  CPU/Wall time =           0.00 /           0.00 sec.)

 One-external:
   0 -ionized terms: CPU/Wall time =           0.03 /           0.03 sec.
 (-1)-ionized terms: CPU/Wall time =           0.10 /           0.10 sec.
 (+1)-ionized terms: CPU/Wall time =           0.02 /           0.02 sec.
 (+1)-ionized terms: CPU/Wall time =           0.01 /           0.01 sec.
 (+2)-ionized terms: CPU/Wall time =           0.00 /           0.00 sec.

 Internal:
 # of macro loops for internal contribution =         1 (input)
 Loop:    1
 Dimension of internal CISD space     =         0  (after screening)
 Space construction: CPU/Wall time =           0.02 /           0.02 sec.
 Internal terms:     CPU/Wall time =           0.00 /           0.00 sec.

 Two-external:
   0 -ionized terms: CPU/Wall time =           0.02 /           0.02 sec.
 (-1)-ionized terms: CPU/Wall time =           0.31 /           0.31 sec.
 (-2)-ionized terms: CPU/Wall time =           0.18 /           0.19 sec.

 Total time:         CPU/Wall time =           0.69 /           0.70 sec.

 ***                  ***
 *** GMC-QDPT Results ***
 ***                  ***

 Diagonal elements of effective Hamiltonian:
 Heff(  1) =   -55.99838359
 Heff(  2) =   -55.83685804
 Heff(  3) =   -55.75951681

 Off-diagonal elements of effective Hamiltonian:
                   1            2
     2  9.041987D-03
     3 -2.019786D-09-4.676411D-10

 ******** GMC-QDPT energies ********
 ----------------------------------------------------------------------------
   State                        1st order                           2nd order
 ----------------------------------------------------------------------------
     1     E(REF-CI)=      -55.9012854009   E(GMC-QDPT2)=      -55.9988881716
     2     E(REF-CI)=      -55.7272729143   E(GMC-QDPT2)=      -55.8363534551
     3     E(REF-CI)=      -55.6487080422   E(GMC-QDPT2)=      -55.7595168089
 ----------------------------------------------------------------------------

 Excitation energies (invalid if E(1)/=E(GS)):
 ----------------------------------------------------------------------------
   State                        1st order                           2nd order
 ----------------------------------------------------------------------------

     TZ Sorted GMC-PT ENERGIES:
         1      -55.9988881716
         2      -55.8363534551
         3      -55.7595168089
     2     E(REF-CI)=        4.7351234 eV   E(GMC-QDPT2)=        4.4227972 eV
     3     E(REF-CI)=        6.8729835 eV   E(GMC-QDPT2)=        6.5136299 eV
 ----------------------------------------------------------------------------

 Main characters of perturbed GMC-QDPT states:

 State #    1  Energy =     -55.998888172  S =  0.500

      Det      Coef    Occupancy (Ignoring core)
      ---      ----    --------- --------- -----
        1    0.979377  11110001110000
      393    0.068822  10110101010010
      717    0.064865  11010011100001

 State #    2  Energy =     -55.836353455  S =  0.500

      Det      Coef    Occupancy (Ignoring core)
      ---      ----    --------- --------- -----
       71   -0.983778  11110001011000
      822    0.064843  11010011001001

 State #    3  Energy =     -55.759516809  S =  0.500

      Det      Coef    Occupancy (Ignoring core)
      ---      ----    --------- --------- -----
       36    0.982196  11110001101000
      463    0.068958  10110101001010

 <<<Max |V/de| = 2.913D-02  Thresh = 1.000D+00

 Oscillator strength (invalid if E(1)/=E(GS)):
 ----------------------------------------------------------------------------
   State                        1st order                           2nd order
 ----------------------------------------------------------------------------
     2     F(REF-CI)=        0.0007967223     F(GMC-PT2)=        0.0007700069
     3     F(REF-CI)=        0.0006680657     F(GMC-PT2)=        0.0006484082
 ----------------------------------------------------------------------------

 Dipole moment matrix elements, x, y, z, in A.U.
States    1    1        0.1587119596       -0.0000000044        0.7619892000
States    1    2       -0.0240299418       -0.0000000068       -0.0808009894
States    1    3        0.0000000005        0.0637431866       -0.0000000010
States    2    1       -0.0240299418       -0.0000000068       -0.0808009894
States    2    2        0.0204690376       -0.0000000304        0.2619291560
States    2    3       -0.0000000162        0.2747950337        0.0000000005
States    3    1        0.0000000005        0.0637431866       -0.0000000010
States    3    2       -0.0000000162        0.2747950337        0.0000000005
States    3    3        0.3988025651        0.0000000307        0.2588413986

 Oscillator strength (valid only when positive): 
 ----------------------------------------------------------------------------
  States                        1st order                           2nd order
 ----------------------------------------------------------------------------
  1  1     F(REF-CI)=        0.0000000000     F(GMC-PT2)=        0.0000000000
  1  2     F(REF-CI)=       -0.0007967223     F(GMC-PT2)=       -0.0007700069
  1  3     F(REF-CI)=       -0.0006680657     F(GMC-PT2)=       -0.0006484082
  2  1     F(REF-CI)=        0.0007967223     F(GMC-PT2)=        0.0007700069
  2  2     F(REF-CI)=        0.0000000000     F(GMC-PT2)=        0.0000000000
  2  3     F(REF-CI)=       -0.0039600892     F(GMC-PT2)=       -0.0038680751
  3  1     F(REF-CI)=        0.0006680657     F(GMC-PT2)=        0.0006484082
  3  2     F(REF-CI)=        0.0039600892     F(GMC-PT2)=        0.0038680751
  3  3     F(REF-CI)=        0.0000000000     F(GMC-PT2)=        0.0000000000
 CPU     0: STEP CPU TIME=     1.17 TOTAL CPU TIME=          9.9 (      0.2 MIN)
 TOTAL WALL CLOCK TIME=          9.9 SECONDS, CPU UTILIZATION IS    99.90%

     !!! DIABATIZATION FOR REF CI STATES !!!

 *******************************************************
          $DMO GROUP FOUND IN THE INPUT.
        DIABATIZATION OF ADIABATIC STATES BEGINS.
     PROGRAMMED BY TAO ZENG (CARLETON UNIVERSITY).
               Email: toby.zeng@carleton.ca
     See T. Zeng, J. Chem. Phys. 2017, 146, 144103
 *******************************************************

 *************************************************************************
     STEP 1: TRANSFORMATION OF ADIABATIC STATES TO THE DMO REPRESENTATION
         See Atchity and Ruedenberg, J. Chem. Phys. 1999, 111, 2910
 *************************************************************************

Read in Diabatic Molecualr Orbitals:

                      1          2          3          4          5

    1  N  1  S    0.008609   0.000000   0.000000  -0.013219   0.279491
    2  N  1  S    0.442914  -0.000000   0.000000  -0.184329   0.867803
    3  N  1  S    0.276913   0.000000  -0.000000  -0.288315   0.144236
    4  N  1  X   -0.000000   0.493155  -0.024636  -0.000000  -0.000000
    5  N  1  Y    0.000000   0.024636   0.493155  -0.000000   0.000000
    6  N  1  Z    0.090197   0.000000   0.000000   0.593421   0.705309
    7  N  1  X   -0.000000   0.210628  -0.010522   0.000000   0.000000
    8  N  1  Y    0.000000   0.010522   0.210628  -0.000000  -0.000000
    9  N  1  Z   -0.004381   0.000000   0.000000   0.381592  -0.106092
   10  N  1 XX   -0.000457   0.010719  -0.000535  -0.012387   0.006153
   11  N  1 YY   -0.000457  -0.010719   0.000535  -0.012387   0.006153
   12  N  1 ZZ    0.000914  -0.000000   0.000000   0.024773  -0.012306
   13  N  1 XY    0.000000  -0.000618  -0.012377  -0.000000   0.000000
   14  N  1 XZ   -0.000000   0.026529  -0.001325  -0.000000   0.000000
   15  N  1 YZ    0.000000   0.001325   0.026529  -0.000000   0.000000
   16  H  2  S    0.194462  -0.176074   0.343485   0.112865  -0.523343
   17  H  2  S    0.003574  -0.023812   0.046452   0.024014  -0.054445
   18  H  2  X    0.018760   0.009101   0.022834   0.009336  -0.039151
   19  H  2  Y   -0.032493   0.022287  -0.020044  -0.016171   0.067811
   20  H  2  Z   -0.009251   0.008464  -0.016511   0.018769  -0.010566
   21  H  3  S    0.194462  -0.209430  -0.324227   0.112865  -0.523343
   22  H  3  S    0.003574  -0.028322  -0.043847   0.024014  -0.054445
   23  H  3  X    0.018760   0.006781  -0.023627   0.009336  -0.039151
   24  H  3  Y    0.032493  -0.024174  -0.017723   0.016171  -0.067811
   25  H  3  Z   -0.009251   0.010067   0.015585   0.018769  -0.010566
   26  H  4  S    0.194462   0.385503  -0.019258   0.112865  -0.523343
   27  H  4  S    0.003574   0.052134  -0.002604   0.024014  -0.054445
   28  H  4  X   -0.037519  -0.032295   0.001613  -0.018672   0.078302
   29  H  4  Y    0.000000   0.001067   0.021353  -0.000000   0.000000
   30  H  4  Z   -0.009251  -0.018530   0.000926   0.018769  -0.010566

                      6          7

    1  N  1  S    0.000000  -0.000000
    2  N  1  S    0.000000  -0.000000
    3  N  1  S   -0.000000   0.000000
    4  N  1  X   -0.930415  -0.002083
    5  N  1  Y   -0.002083   0.930415
    6  N  1  Z   -0.000000   0.000000
    7  N  1  X   -0.046866  -0.000105
    8  N  1  Y   -0.000105   0.046866
    9  N  1  Z   -0.000000   0.000000
   10  N  1 XX    0.001538   0.000003
   11  N  1 YY   -0.001538  -0.000003
   12  N  1 ZZ   -0.000000   0.000000
   13  N  1 XY   -0.000004   0.001776
   14  N  1 XZ    0.039985   0.000090
   15  N  1 YZ    0.000090  -0.039985
   16  H  2  S   -0.362630  -0.631354
   17  H  2  S   -0.065964  -0.114846
   18  H  2  X    0.002763  -0.037520
   19  H  2  Y    0.037435   0.040736
   20  H  2  Z    0.001882   0.003276
   21  H  3  S   -0.365454   0.629724
   22  H  3  S   -0.066477   0.114549
   23  H  3  X    0.002595   0.037532
   24  H  3  Y   -0.037617   0.040567
   25  H  3  Z    0.001896  -0.003268
   26  H  4  S    0.728084   0.001630
   27  H  4  S    0.132441   0.000297
   28  H  4  X   -0.062317  -0.000140
   29  H  4  Y    0.000055  -0.024345
   30  H  4  Z   -0.003778  -0.000008

NUMBER OF SUB ACTIVE SPACES:   1
ROTATE ACTIVE MOS TO DMOS IN EACH SUB-SPACE

SPACE  1:

OVERLAP BETWEEN ORTHONORMAL AND PRE-ORTHONORMAL REF. DMOS

             1           2           3           4           5

    1    0.9952406   0.0163240  -0.0008155  -0.0016234   0.0008422
    2    0.0163240   0.9597106   0.0032769   0.0211066  -0.0374345
    3   -0.0008155   0.0032769   1.0251432  -0.0010544   0.0018701
    4   -0.0016234   0.0211066  -0.0010544   0.9989104  -0.0023055
    5    0.0008422  -0.0374345   0.0018701  -0.0023055   1.0275286
    6   -0.0027210  -0.0290171   0.0015057   0.0217046   0.0130689
    7   -0.0000061  -0.0013148  -0.0250154   0.0000486   0.0000293

             6           7

    1   -0.0027210  -0.0000061
    2   -0.0290171  -0.0013148
    3    0.0015057  -0.0250154
    4    0.0217046   0.0000486
    5    0.0130689   0.0000293
    6    1.0289183   0.0000751
    7    0.0000751   0.9953704
REFERENCE DMOS AFTER ORTHONORMALIZATION:

                      1          2          3          4          5

    1  N  1  S    0.008215   0.010681  -0.000534  -0.012755   0.272395
    2  N  1  S    0.443525   0.029281  -0.001463  -0.182374   0.844913
    3  N  1  S    0.277544   0.007224  -0.000361  -0.288123   0.139695
    4  N  1  X   -0.010472   0.488114  -0.024384   0.009072   0.029189
    5  N  1  Y   -0.000000   0.025183   0.504101   0.000000  -0.000000
    6  N  1  Z    0.090771   0.011573  -0.000578   0.596011   0.688362
    7  N  1  X   -0.003719   0.218793  -0.010930  -0.003765   0.008487
    8  N  1  Y   -0.000000   0.010326   0.206705  -0.000000   0.000000
    9  N  1  Z   -0.003504  -0.012571   0.000628   0.382186  -0.102757
   10  N  1 XX   -0.000673   0.011770  -0.000588  -0.012680   0.006365
   11  N  1 YY   -0.000311  -0.010730   0.000536  -0.012125   0.005590
   12  N  1 ZZ    0.000985  -0.001041   0.000052   0.024805  -0.011955
   13  N  1 XY    0.000000  -0.000601  -0.012036   0.000000  -0.000000
   14  N  1 XZ   -0.000370   0.028908  -0.001444  -0.001474   0.000548
   15  N  1 YZ    0.000000   0.001244   0.024909  -0.000000   0.000000
   16  H  2  S    0.198967  -0.222304   0.322229   0.124902  -0.513360
   17  H  2  S    0.004025  -0.029794   0.042840   0.026014  -0.053266
   18  H  2  X    0.018800   0.007458   0.021432   0.009087  -0.037904
   19  H  2  Y   -0.033107   0.027995  -0.018873  -0.017498   0.066570
   20  H  2  Z   -0.009401   0.008297  -0.016035   0.018520  -0.009925
   21  H  3  S    0.198967  -0.253312  -0.298469   0.124902  -0.513360
   22  H  3  S    0.004025  -0.033915  -0.039657   0.026014  -0.053266
   23  H  3  X    0.018800   0.005285  -0.022069   0.009087  -0.037904
   24  H  3  Y    0.033107  -0.029736  -0.015989   0.017498  -0.066570
   25  H  3  Z   -0.009401   0.009854   0.015128   0.018520  -0.009925
   26  H  4  S    0.191384   0.398800  -0.019922   0.087958  -0.503924
   27  H  4  S    0.003109   0.055739  -0.002784   0.019907  -0.052569
   28  H  4  X   -0.037441  -0.031577   0.001577  -0.016559   0.075835
   29  H  4  Y    0.000000   0.001011   0.020242  -0.000000   0.000000
   30  H  4  Z   -0.008936  -0.020146   0.001006   0.019275  -0.010911

                      6          7

    1  N  1  S   -0.002867  -0.000006
    2  N  1  S   -0.004884  -0.000011
    3  N  1  S    0.005242   0.000012
    4  N  1  X   -0.891054  -0.001995
    5  N  1  Y   -0.002122   0.947445
    6  N  1  Z   -0.020749  -0.000046
    7  N  1  X   -0.039401  -0.000088
    8  N  1  Y   -0.000117   0.052292
    9  N  1  Z   -0.007122  -0.000016
   10  N  1 XX    0.002012   0.000005
   11  N  1 YY   -0.001614  -0.000004
   12  N  1 ZZ   -0.000398  -0.000001
   13  N  1 XY   -0.000003   0.001481
   14  N  1 XZ    0.039702   0.000089
   15  N  1 YZ    0.000089  -0.039544
   16  H  2  S   -0.354721  -0.626449
   17  H  2  S   -0.064866  -0.114337
   18  H  2  X    0.003207  -0.037145
   19  H  2  Y    0.036633   0.040484
   20  H  2  Z    0.001797   0.002899
   21  H  3  S   -0.357523   0.624854
   22  H  3  S   -0.065377   0.114046
   23  H  3  X    0.003040   0.037159
   24  H  3  Y   -0.036814   0.040319
   25  H  3  Z    0.001810  -0.002891
   26  H  4  S    0.723948   0.001621
   27  H  4  S    0.130551   0.000292
   28  H  4  X   -0.062171  -0.000139
   29  H  4  Y    0.000054  -0.023948
   30  H  4  Z   -0.004533  -0.000010

 -------------------------------------------
       MAXIMIZING MORMO OVERLAP TERM        
 -------------------------------------------
   SWEEP    VALUE       PROGRESS
     0     6.67961
     1     6.99058     0.31096981
     2     6.99086     0.00027921
     3     6.99086     0.00000000
     4     6.99086     0.00000000
 THE ROTATION IS DONE
FLIPPING SIGN FOR ORBITAL   7
ACTIVE ORBITALS AFTER MORMO:

                      1          2          3          4          5

    1  N  1  S    0.007978   0.015148  -0.000757  -0.012682   0.259958
    2  N  1  S    0.439167   0.034933  -0.001745  -0.184675   0.828640
    3  N  1  S    0.290657  -0.029877   0.001493  -0.285113   0.155234
    4  N  1  X   -0.003054   0.474153  -0.023687   0.018513   0.018722
    5  N  1  Y    0.000000   0.025190   0.504252   0.000000  -0.000000
    6  N  1  Z    0.088477   0.020517  -0.001025   0.595849   0.687405
    7  N  1  X   -0.015508   0.247018  -0.012340  -0.027406   0.029895
    8  N  1  Y    0.000000   0.009316   0.186483   0.000000  -0.000000
    9  N  1  Z    0.003158  -0.036447   0.001821   0.382085  -0.101489
   10  N  1 XX   -0.001699   0.016779  -0.000838  -0.012806   0.027833
   11  N  1 YY    0.000753  -0.016172   0.000808  -0.011480  -0.019346
   12  N  1 ZZ    0.000946  -0.000608   0.000030   0.024286  -0.008487
   13  N  1 XY   -0.000000  -0.000354  -0.007079  -0.000000   0.000000
   14  N  1 XZ   -0.000060   0.025976  -0.001298   0.000890  -0.027697
   15  N  1 YZ    0.000000   0.001134   0.022701   0.000000   0.000000
   16  H  2  S    0.191423  -0.191321   0.335109   0.116886  -0.504661
   17  H  2  S    0.002164  -0.037181   0.042232   0.027234  -0.055432
   18  H  2  X    0.012205   0.013474   0.016733   0.006548  -0.029968
   19  H  2  Y   -0.034696   0.021892  -0.027837  -0.016118   0.065488
   20  H  2  Z   -0.007321   0.005417  -0.015460   0.019290  -0.012950
   21  H  3  S    0.191423  -0.223766  -0.314373   0.116886  -0.504661
   22  H  3  S    0.002164  -0.041205  -0.038316   0.027234  -0.055432
   23  H  3  X    0.012205   0.011739  -0.017992   0.006548  -0.029968
   24  H  3  Y    0.034696  -0.024558  -0.025517   0.016118  -0.065488
   25  H  3  Z   -0.007321   0.006931   0.014843   0.019290  -0.012950
   26  H  4  S    0.193795   0.391108  -0.019538   0.100045  -0.514911
   27  H  4  S    0.004663   0.070931  -0.003543   0.020818  -0.057141
   28  H  4  X   -0.034805  -0.027907   0.001394  -0.019175   0.073910
   29  H  4  Y   -0.000000   0.001102   0.022051   0.000000   0.000000
   30  H  4  Z   -0.012552  -0.023206   0.001159   0.018165  -0.009505

                      6          7

    1  N  1  S    0.019918   0.000045
    2  N  1  S    0.048252   0.000108
    3  N  1  S   -0.065416  -0.000146
    4  N  1  X   -0.890352  -0.001994
    5  N  1  Y   -0.002113   0.943748
    6  N  1  Z   -0.052421  -0.000117
    7  N  1  X   -0.034146  -0.000076
    8  N  1  Y   -0.000155   0.069158
    9  N  1  Z    0.018390   0.000041
   10  N  1 XX    0.024297   0.000054
   11  N  1 YY   -0.028748  -0.000064
   12  N  1 ZZ    0.004451   0.000010
   13  N  1 XY    0.000064  -0.028598
   14  N  1 XZ    0.029031   0.000065
   15  N  1 YZ    0.000118  -0.052576
   16  H  2  S   -0.336076  -0.631205
   17  H  2  S   -0.067354  -0.121360
   18  H  2  X    0.007570  -0.030707
   19  H  2  Y    0.031823   0.051125
   20  H  2  Z    0.009171  -0.007402
   21  H  3  S   -0.338900   0.629694
   22  H  3  S   -0.067897   0.121057
   23  H  3  X    0.007433   0.030740
   24  H  3  Y   -0.032051   0.050982
   25  H  3  Z    0.009138   0.007443
   26  H  4  S    0.712916   0.001596
   27  H  4  S    0.147278   0.000330
   28  H  4  X   -0.054939  -0.000123
   29  H  4  Y    0.000083  -0.037033
   30  H  4  Z   -0.009722  -0.000022

Actually Used Diabatic Molecualr Orbitals:

                      1          2          3          4          5

    1  N  1  S    0.007978   0.015148  -0.000757  -0.012682   0.259958
    2  N  1  S    0.439167   0.034933  -0.001745  -0.184675   0.828640
    3  N  1  S    0.290657  -0.029877   0.001493  -0.285113   0.155234
    4  N  1  X   -0.003054   0.474153  -0.023687   0.018513   0.018722
    5  N  1  Y    0.000000   0.025190   0.504252   0.000000  -0.000000
    6  N  1  Z    0.088477   0.020517  -0.001025   0.595849   0.687405
    7  N  1  X   -0.015508   0.247018  -0.012340  -0.027406   0.029895
    8  N  1  Y    0.000000   0.009316   0.186483   0.000000  -0.000000
    9  N  1  Z    0.003158  -0.036447   0.001821   0.382085  -0.101489
   10  N  1 XX   -0.001699   0.016779  -0.000838  -0.012806   0.027833
   11  N  1 YY    0.000753  -0.016172   0.000808  -0.011480  -0.019346
   12  N  1 ZZ    0.000946  -0.000608   0.000030   0.024286  -0.008487
   13  N  1 XY   -0.000000  -0.000354  -0.007079  -0.000000   0.000000
   14  N  1 XZ   -0.000060   0.025976  -0.001298   0.000890  -0.027697
   15  N  1 YZ    0.000000   0.001134   0.022701   0.000000   0.000000
   16  H  2  S    0.191423  -0.191321   0.335109   0.116886  -0.504661
   17  H  2  S    0.002164  -0.037181   0.042232   0.027234  -0.055432
   18  H  2  X    0.012205   0.013474   0.016733   0.006548  -0.029968
   19  H  2  Y   -0.034696   0.021892  -0.027837  -0.016118   0.065488
   20  H  2  Z   -0.007321   0.005417  -0.015460   0.019290  -0.012950
   21  H  3  S    0.191423  -0.223766  -0.314373   0.116886  -0.504661
   22  H  3  S    0.002164  -0.041205  -0.038316   0.027234  -0.055432
   23  H  3  X    0.012205   0.011739  -0.017992   0.006548  -0.029968
[...]
      332    0.027671   -0.027671  ++-2-0+
      111    0.027227   -0.027227  +22-0+0
      323   -0.026474    0.026474  +022-+0
       42   -0.026128    0.026128  22020+0
      180   -0.024526    0.024526  -+2+200
      751    0.022578   -0.022578  2+20002
       99    0.022195   -0.022195  20-20++
      534    0.021032    0.021032  0+22020
       51   -0.020523    0.020523  22+-00+
      391    0.020356   -0.020356  2+20020
      317    0.020259   -0.020259  ++2-200
      192    0.020199   -0.020199  2+-+-0+

 State #    3  Energy =     -55.759517075

      Det      Coef        Coefp    Occupancy (Ignoring core)
      ---      ----        ----    --------- --------- -----
       36   -0.982194   -0.982194  22+2000
      463    0.068958   -0.068958  20+2020
      121    0.044132   -0.044132  +22-00+
      472    0.038672    0.038672  2+020-+
      112   -0.038154   -0.038154  +2-20+0
      249    0.036755   -0.036755  20+2200
      285    0.032293   -0.032293  02+2200
       86   -0.029287   -0.029287  2+2-00+
      253    0.028739    0.028739  20+2-+0
      460   -0.027835   -0.027835  -++2+-0
      297   -0.027774    0.027774  +202-0+
      288   -0.026911   -0.026911  +-+2-+0
      459   -0.026621    0.026621  20+2+-0
      716    0.026125    0.026125  22+0002
       41   -0.025388    0.025388  22+-0+0
      771   -0.024769   -0.024769  +22+00-
      142    0.024174    0.024174  22+0200
        7    0.023004    0.023004  22-+0+0
       39   -0.022987   -0.022987  2-+2+00
      356    0.022376    0.022376  22+0020
      148   -0.022358   -0.022358  2-++-+0
       77    0.022197   -0.022197  2+-20+0
      457   -0.022174    0.022174  2++-+-0
      282    0.022043    0.022043  +2+-200
      145   -0.021975   -0.021975  -2++200
       64   -0.021053    0.021053  2-020++
      491    0.020744   -0.020744  +2+20-0
      499    0.020395   -0.020395  02+2020
       73    0.020250   -0.020250  2+-2+00
      284   -0.020244    0.020244  +-+2200

 ---------------------------------------
    -DIABATIC STATES IN PROTOTYPES-     
 ---------------------------------------

     STATE:    1
 Group Ref#    Coefficients
     1    1    0.990444
     2    2    0.001605
     3    3    0.000043

WEIGHT OF LISTED PROTOTYPES:   98.10%

     STATE:    2
 Group Ref#    Coefficients
     1    1    0.001605
     2    2    0.990711
     3    3    0.000162

WEIGHT OF LISTED PROTOTYPES:   98.15%

     STATE:    3
 Group Ref#    Coefficients
     1    1    0.000043
     2    2    0.000162
     3    3    0.987889

WEIGHT OF LISTED PROTOTYPES:   97.59%

 --------------------------------------------------
 IN DIRECT MAX. DIABATIZATION FOR GMC-QDPT

 DIRECT MAXIMIZATION (DM) WITHOUT TRUNCATING ADIABATS
 EXPANSIONS INTO THE REFERENCE CONFIGURATION SPACE
 --------------------------------------------------

 -------------------------------------------
 - DM DIABT PT HAMILTONIAN MATRIX ELEMENTS -
 -------------------------------------------
                                            
 --- DIABATIC ENERGIES (DIAGONAL ELEMENT) ---       HARTREE            EV
 STATE #  1'S GMC-PT-LEVEL DIABATIC ENERGY=     -55.995324376       0.000000000
 STATE #  2'S GMC-PT-LEVEL DIABATIC ENERGY=     -55.839916985       4.228850501
 STATE #  3'S GMC-PT-LEVEL DIABATIC ENERGY=     -55.759517075       6.416643469

 --- DIABATIC COUPLINGS (OFF DIAGONAL ELEMENTS)---  HATREE            EV
 STATE #  1 &  2'S GMC-PT-LEVEL COUPLING  =      -0.023802033      -0.647686302
 STATE #  1 &  3'S GMC-PT-LEVEL COUPLING  =       0.000056967       0.001550163
 STATE #  2 &  3'S GMC-PT-LEVEL COUPLING  =       0.000146144       0.003976769

 ---------------------------------------
     - ROTATION TO DIABATIC STATES -    
 ---------------------------------------
 ROWS=ADIABATIC, COLUMNS=DIABATIC STATES

             1           2           3

    1   -0.9889761  -0.1480752   0.0003258
    2    0.1480755  -0.9889745   0.0017713
    3   -0.0000599  -0.0018000  -0.9999984

 ---------------------------------------
          - DIABATIC STATES -           
 ---------------------------------------

 State #    1  Energy =     -55.995324376

      Det      Coef        Coefp    Occupancy (Ignoring core)
      ---      ----        ----    --------- --------- -----
        1    0.973332   -0.973332  222+000
        8   -0.084517    0.084517  2-2+0+0
      393   -0.075832   -0.075832  202+020
      717   -0.065699   -0.065699  220+002
      386    0.055134   -0.055134  2+2+0-0
        4   -0.052914    0.052914  2-2++00
      176    0.051186   -0.051186  2+2+-00
      708    0.039458   -0.039458  2-++0+-
      402    0.037799   -0.037799  2+-+0-+
        6    0.035567   -0.035567  22200+0
      215   -0.034558   -0.034558  022+200
      218    0.033311   -0.033311  +-2+-+0
      390    0.033070   -0.033070  -+2++-0
      227   -0.032434   -0.032434  +2-+-0+
      705   -0.032343   -0.032343  -2+++0-
       76    0.029383    0.029383  2+2-0+0
        2    0.028470   -0.028470  2220+00
      212    0.028170    0.028170  +220200
      113   -0.027568    0.027568  +-220+0
       51   -0.026235    0.026235  22+-00+
      143   -0.024560   -0.024560  220+200
      424   -0.023814   -0.023814  +-2++-0
      122    0.023617    0.023617  +2-200+
      184   -0.022750   -0.022750  -+2+-+0
      387   -0.022531    0.022531  2+20+-0
      106   -0.022021   -0.022021  +222000
      702    0.021665    0.021665  22+0+0-
       17    0.021148    0.021148  22-+00+
      742   -0.021091   -0.021091  2+-+0+-
      368   -0.020709   -0.020709  2-++0-+
      773    0.020644   -0.020644  +2-++0-
      159    0.020335   -0.020335  -2++-0+

 State #    2  Energy =     -55.839916985

      Det      Coef        Coefp    Occupancy (Ignoring core)
      ---      ----        ----    --------- --------- -----
       71   -0.975700    0.975700  2+22000
       74    0.078888   -0.078888  2022+00
      822    0.063954   -0.063954  2+02002
       76    0.063466    0.063466  2+2-0+0
      386   -0.052236    0.052236  2+2+0-0
       36    0.046981    0.046981  22+2000
      813    0.041809   -0.041809  20+20+-
      106    0.040132    0.040132  +222000
      323   -0.035099    0.035099  +022-+0
      111    0.034793   -0.034793  +22-0+0
      320    0.033797    0.033797  0+22200
      810   -0.032630   -0.032630  -++2+0-
      113    0.032119   -0.032119  +-220+0
      332   -0.030875    0.030875  ++-2-0+
      180   -0.028746    0.028746  -+2+200
      317    0.028440   -0.028440  ++2-200
       38   -0.026977    0.026977  2202+00
      183   -0.026776    0.026776  202+-+0
      177    0.026635   -0.026635  2+20200
       78    0.026206   -0.026206  20220+0
      248    0.025393   -0.025393  2+02200
       99   -0.024915    0.024915  20-20++
        6    0.024776   -0.024776  22200+0
       81    0.022928    0.022928  202-++0
      807   -0.022505    0.022505  2++-+0-
      526   -0.022496   -0.022496  ++220-0
      391    0.022135   -0.022135  2+20020
      192   -0.021951    0.021951  2+-+-0+
      529    0.021829    0.021829  +022+-0
      751    0.021699   -0.021699  2+20002
       51    0.021344   -0.021344  22+-00+
      534    0.020709    0.020709  0+22020
       42   -0.020232    0.020232  22020+0

 State #    3  Energy =     -55.759517075

      Det      Coef        Coefp    Occupancy (Ignoring core)
      ---      ----        ----    --------- --------- -----
       36   -0.975690   -0.975690  22+2000
      463    0.077200   -0.077200  20+2020
      246   -0.058754   -0.058754  2++2-00
      456   -0.055265   -0.055265  2++20-0
       71   -0.046981    0.046981  2+22000
      472   -0.042527   -0.042527  2+020-+
      121   -0.042290    0.042290  +22-00+
       52    0.040794   -0.040794  220200+
       43    0.040367    0.040367  2-+20+0
      285    0.034677   -0.034677  02+2200
      112   -0.034513   -0.034513  +2-20+0
      460   -0.034244   -0.034244  -++2+-0
      351   -0.033065   -0.033065  22++0-0
      288   -0.032827   -0.032827  +-+2-+0
      297    0.031960   -0.031960  +202-0+
       39    0.029919    0.029919  2-+2+00
       73    0.028834   -0.028834  2+-2+00
      145   -0.028443   -0.028443  -2++200
      282    0.028367    0.028367  +2+-200
      142    0.026739    0.026739  22+0200
       16   -0.026563    0.026563  222000+
       64    0.025108   -0.025108  2-020++
      457   -0.025009    0.025009  2++-+-0
      148   -0.024840   -0.024840  2-++-+0
      716    0.023767    0.023767  22+0002
      254    0.023703   -0.023703  -++2-+0
      157    0.023402   -0.023402  220+-0+
      771    0.023260    0.023260  +22+00-
      494    0.022629   -0.022629  +-+2+-0
       86    0.021943    0.021943  2+2-00+
      249    0.021827   -0.021827  20+2200
      356    0.021183    0.021183  22+0020

 ---------------------------------------
      - DIABATIC STATES IN CMO -        
 ---------------------------------------

 State #    1  Energy =     -55.995324376

      Det      Coef        Coefp    Occupancy (Ignoring core)
      ---      ----        ----    --------- --------- -----
        1    0.964788   -0.964788  222+000
       71    0.169252   -0.169252  2+22000
      393   -0.068592   -0.068592  202+020
      717   -0.064204   -0.064204  220+002
       17   -0.044115   -0.044115  22-+00+
      402   -0.040257    0.040257  2+-+0-+
        8   -0.039447    0.039447  2-2+0+0
      708   -0.036502    0.036502  2-++0+-
      179   -0.033249   -0.033249  202+200
      215   -0.032506   -0.032506  022+200
      390    0.029420   -0.029420  -+2++-0
      227    0.028222    0.028222  +2-+-0+
      357   -0.027759   -0.027759  220+020
      705    0.027635    0.027635  -2+++0-
      389    0.026687    0.026687  202++-0
      106   -0.026389   -0.026389  +222000
      218    0.026247   -0.026247  +-2+-+0
       76    0.026143    0.026143  2+2-0+0
       51    0.025537   -0.025537  22+-00+
        2    0.025162   -0.025162  2220+00
      113   -0.024930    0.024930  +-220+0
      742    0.024437    0.024437  2+-+0+-
      122   -0.024279   -0.024279  +2-200+
      183   -0.023489    0.023489  202+-+0
        4    0.022698   -0.022698  2-2++00
      387   -0.021823    0.021823  2+20+-0
      212    0.021313    0.021313  +220200
      368    0.021022    0.021022  2-++0-+

 State #    2  Energy =     -55.839916985

      Det      Coef        Coefp    Occupancy (Ignoring core)
      ---      ----        ----    --------- --------- -----
       71   -0.969401    0.969401  2+22000
        1    0.170354   -0.170354  222+000
      822    0.063836   -0.063836  2+02002
      813   -0.039769    0.039769  20+20+-
      113    0.037224   -0.037224  +-220+0
      320    0.032596    0.032596  0+22200
       74    0.030436   -0.030436  2022+00
      462    0.029379   -0.029379  2+02020
      183   -0.029356    0.029356  202+-+0
      177    0.027979   -0.027979  2+20200
      810    0.027806    0.027806  -++2+0-
        6    0.027691   -0.027691  22200+0
      332    0.027671   -0.027671  ++-2-0+
      111    0.027227   -0.027227  +22-0+0
      323   -0.026474    0.026474  +022-+0
       42   -0.026128    0.026128  22020+0
      180   -0.024526    0.024526  -+2+200
      751    0.022578   -0.022578  2+20002
       99    0.022195   -0.022195  20-20++
      534    0.021032    0.021032  0+22020
       51   -0.020523    0.020523  22+-00+
      391    0.020356   -0.020356  2+20020
      317    0.020259   -0.020259  ++2-200
      192    0.020199   -0.020199  2+-+-0+

 State #    3  Energy =     -55.759517075

      Det      Coef        Coefp    Occupancy (Ignoring core)
      ---      ----        ----    --------- --------- -----
       36   -0.982194   -0.982194  22+2000
      463    0.068958   -0.068958  20+2020
      121    0.044132   -0.044132  +22-00+
      472    0.038672    0.038672  2+020-+
      112   -0.038154   -0.038154  +2-20+0
      249    0.036755   -0.036755  20+2200
      285    0.032293   -0.032293  02+2200
       86   -0.029287   -0.029287  2+2-00+
      253    0.028739    0.028739  20+2-+0
      460   -0.027835   -0.027835  -++2+-0
      297   -0.027774    0.027774  +202-0+
      288   -0.026911   -0.026911  +-+2-+0
      459   -0.026621    0.026621  20+2+-0
      716    0.026125    0.026125  22+0002
       41   -0.025388    0.025388  22+-0+0
      771   -0.024769   -0.024769  +22+00-
      142    0.024174    0.024174  22+0200
        7    0.023004    0.023004  22-+0+0
       39   -0.022987   -0.022987  2-+2+00
      356    0.022376    0.022376  22+0020
      148   -0.022358   -0.022358  2-++-+0
       77    0.022197   -0.022197  2+-20+0
      457   -0.022174    0.022174  2++-+-0
      282    0.022043    0.022043  +2+-200
      145   -0.021975   -0.021975  -2++200
       64   -0.021053    0.021053  2-020++
      491    0.020744   -0.020744  +2+20-0
      499    0.020395   -0.020395  02+2020
       73    0.020250   -0.020250  2+-2+00
      284   -0.020244    0.020244  +-+2200

 ---------------------------------------
    -DIABATIC STATES IN PROTOTYPES-     
 ---------------------------------------

     STATE:    1
 Group Ref#    Coefficients
     1    1    0.990444
     2    2    0.001605
     3    3    0.000043

WEIGHT OF LISTED PROTOTYPES:   98.10%

     STATE:    2
 Group Ref#    Coefficients
     1    1    0.001604
     2    2    0.990711
     3    3    0.000162

WEIGHT OF LISTED PROTOTYPES:   98.15%

     STATE:    3
 Group Ref#    Coefficients
     1    1    0.000043
     2    2    0.000163
     3    3    0.987889

WEIGHT OF LISTED PROTOTYPES:   97.59%

     DIRECT MAX. DIABATIZATION FINISHED    
 CPU     0: STEP CPU TIME=     0.25 TOTAL CPU TIME=         10.1 (      0.2 MIN)
 TOTAL WALL CLOCK TIME=         10.1 SECONDS, CPU UTILIZATION IS    99.90%

DIABATS FOR SPIN-ORBIT CALCULATION ARE READY

TRANSITION DIPOLES BETWEEN ADIABATS (in A.U.):

STATE PAIR      X         Y         Z
    1    1  0.158712 -0.000000  0.761989
    2    1 -0.024030 -0.000000 -0.080801
    2    2  0.020469 -0.000000  0.261929
    3    1  0.000000  0.063743 -0.000000
    3    2 -0.000000  0.274795  0.000000
    3    3  0.398803  0.000000  0.258841


TRANSITION DIPOLES BETWEEN DIABATS (in A.U.):

STATE PAIR      X         Y         Z
    1    1  0.162719  0.000003  0.774690
    2    1 -0.002731  0.000057 -0.004027
    2    2  0.016463  0.001012  0.249228
    3    1  0.000019  0.022350 -0.000024
    3    2  0.000688  0.281203  0.000018
    3    3  0.398801 -0.001015  0.258841

TRANSITION DIPOLES BETWEEN DIRECT MAX. DIABATS (in A.U.):

STATE PAIR      X         Y         Z
    1    1  0.162719  0.000003  0.774690
    2    1 -0.002731  0.000057 -0.004027
    2    2  0.016463  0.001012  0.249228
    3    1  0.000019  0.022350 -0.000024
    3    2  0.000688  0.281203  0.000018
    3    3  0.398801 -0.001015  0.258841
 No $TRANST Group Found.
 Quit without doing spin-orbit coupling
 ..... DONE WITH MP2 ENERGY .....
 CPU     0: STEP CPU TIME=     0.00 TOTAL CPU TIME=         10.1 (      0.2 MIN)
 TOTAL WALL CLOCK TIME=         10.1 SECONDS, CPU UTILIZATION IS    99.90%
            100000000  WORDS OF DYNAMIC MEMORY USED
 EXECUTION OF GAMESS TERMINATED NORMALLY Wed Nov 16 19:24:33 2022
 DDI: 715512 bytes (0.7 MB / 0 MWords) used by master data server.

 ----------------------------------------
 CPU timing information for all processes
 ========================================
 0: 9.895 + 0.244 = 10.140
 ----------------------------------------
Note: The following floating-point exceptions are signalling: IEEE_DENORMAL
 ddikick.x: exited gracefully.
unset echo
----- accounting info -----
Files used on the master node io002 were:
-rw-r--r-- 1 bsonghao nooijen   20704 Nov 16 19:24 /scratch/bsonghao/nh3_diabatization_2d_at_mode_7_8_dist0.0_0.3.F05
-rw-r--r-- 1 bsonghao nooijen  363520 Nov 16 19:24 /scratch/bsonghao/nh3_diabatization_2d_at_mode_7_8_dist0.0_0.3.F09
-rw-r--r-- 1 bsonghao nooijen 1995920 Nov 16 19:24 /scratch/bsonghao/nh3_diabatization_2d_at_mode_7_8_dist0.0_0.3.F10
-rw-r--r-- 1 bsonghao nooijen  104680 Nov 16 19:24 /scratch/bsonghao/nh3_diabatization_2d_at_mode_7_8_dist0.0_0.3.F13
-rw-r--r-- 1 bsonghao nooijen  180312 Nov 16 19:24 /scratch/bsonghao/nh3_diabatization_2d_at_mode_7_8_dist0.0_0.3.F15
-rw-r--r-- 1 bsonghao nooijen       0 Nov 16 19:24 /scratch/bsonghao/nh3_diabatization_2d_at_mode_7_8_dist0.0_0.3.F16
-rw-r--r-- 1 bsonghao nooijen    9808 Nov 16 19:24 /scratch/bsonghao/nh3_diabatization_2d_at_mode_7_8_dist0.0_0.3.F70
-rw-r--r-- 1 bsonghao nooijen    9808 Nov 16 19:24 /scratch/bsonghao/nh3_diabatization_2d_at_mode_7_8_dist0.0_0.3.F71
-rw-r--r-- 1 bsonghao nooijen   19608 Nov 16 19:24 /scratch/bsonghao/nh3_diabatization_2d_at_mode_7_8_dist0.0_0.3.F72
-rw-r--r-- 1 bsonghao nooijen   19608 Nov 16 19:24 /scratch/bsonghao/nh3_diabatization_2d_at_mode_7_8_dist0.0_0.3.F73
-rw-r--r-- 1 bsonghao nooijen 1920824 Nov 16 19:24 /scratch/bsonghao/nh3_diabatization_2d_at_mode_7_8_dist0.0_0.3.F74
-rw-r--r-- 1 bsonghao nooijen       0 Nov 16 19:24 /scratch/bsonghao/nh3_diabatization_2d_at_mode_7_8_dist0.0_0.3.F75
-rw-r--r-- 1 bsonghao nooijen   58848 Nov 16 19:24 /scratch/bsonghao/nh3_diabatization_2d_at_mode_7_8_dist0.0_0.3.F76
-rw-r--r-- 1 bsonghao nooijen       0 Nov 16 19:24 /scratch/bsonghao/nh3_diabatization_2d_at_mode_7_8_dist0.0_0.3.F77
-rw-r--r-- 1 bsonghao nooijen    1864 Nov 16 19:24 /scratch/bsonghao/nh3_diabatization_2d_at_mode_7_8_dist0.0_0.3.F78
-rw-r--r-- 1 bsonghao nooijen   39208 Nov 16 19:24 /scratch/bsonghao/nh3_diabatization_2d_at_mode_7_8_dist0.0_0.3.F79
-rw-r--r-- 1 bsonghao nooijen     104 Nov 16 19:24 /scratch/bsonghao/nh3_diabatization_2d_at_mode_7_8_dist0.0_0.3.F80
-rw-r--r-- 1 bsonghao nooijen   13472 Nov 16 19:24 /scratch/bsonghao/nh3_diabatization_2d_at_mode_7_8_dist0.0_0.3.F81
-rw-r--r-- 1 bsonghao nooijen      16 Nov 16 19:24 /scratch/bsonghao/nh3_diabatization_2d_at_mode_7_8_dist0.0_0.3.F82
-rw-r--r-- 1 bsonghao nooijen   19216 Nov 16 19:24 /scratch/bsonghao/nh3_diabatization_2d_at_mode_7_8_dist0.0_0.3.F83
-rw-r--r-- 1 bsonghao nooijen   29712 Nov 16 19:24 /scratch/bsonghao/nh3_diabatization_2d_at_mode_7_8_dist0.0_0.3.F84
-rw-r--r-- 1 bsonghao nooijen  272328 Nov 16 19:24 /scratch/bsonghao/nh3_diabatization_2d_at_mode_7_8_dist0.0_0.3.F85
-rw-r--r-- 1 bsonghao nooijen  586296 Nov 16 19:24 /scratch/bsonghao/nh3_diabatization_2d_at_mode_7_8_dist0.0_0.3.F86
-rw-r--r-- 1 bsonghao nooijen     656 Nov 16 19:24 /scratch/bsonghao/nh3_diabatization_2d_at_mode_7_8_dist0.0_0.3.F87
-rw-r--r-- 1 bsonghao nooijen   22128 Nov 16 19:24 /scratch/bsonghao/nh3_diabatization_2d_at_mode_7_8_dist0.0_0.3.F88
-rw-r--r-- 1 bsonghao nooijen     240 Nov 16 19:24 /scratch/bsonghao/nh3_diabatization_2d_at_mode_7_8_dist0.0_0.3.F89
-rw-r--r-- 1 bsonghao nooijen       0 Nov 16 19:24 /scratch/bsonghao/nh3_diabatization_2d_at_mode_7_8_dist0.0_0.3.F90
-rw-r--r-- 1 bsonghao nooijen   13760 Nov 16 19:24 /scratch/bsonghao/nh3_diabatization_2d_at_mode_7_8_dist0.0_0.3.F91
-rw-r--r-- 1 bsonghao nooijen   22776 Nov 16 19:24 /scratch/bsonghao/nh3_diabatization_2d_at_mode_7_8_dist0.0_0.3.F92
-rw-r--r-- 1 bsonghao nooijen   23168 Nov 16 19:24 /scratch/bsonghao/nh3_diabatization_2d_at_mode_7_8_dist0.0_0.3.F93
-rw-r--r-- 1 bsonghao nooijen   22776 Nov 16 19:24 /scratch/bsonghao/nh3_diabatization_2d_at_mode_7_8_dist0.0_0.3.F94
-rw-r--r-- 1 bsonghao nooijen   13760 Nov 16 19:24 /scratch/bsonghao/nh3_diabatization_2d_at_mode_7_8_dist0.0_0.3.F95
-rw-r--r-- 1 bsonghao nooijen   29440 Nov 16 19:24 /scratch/bsonghao/nh3_diabatization_2d_at_mode_7_8_dist0.0_0.3.F96
-rw-r--r-- 1 bsonghao nooijen    1184 Nov 16 19:24 /scratch/bsonghao/nh3_diabatization_2d_at_mode_7_8_dist0.0_0.3.F97
-rw-r--r-- 1 bsonghao nooijen    9808 Nov 16 19:24 /scratch/bsonghao/nh3_diabatization_2d_at_mode_7_8_dist0.0_0.3.F98
-rw-r--r-- 1 bsonghao nooijen   30264 Nov 16 19:24 /scratch/bsonghao/nh3_diabatization_2d_at_mode_7_8_dist0.0_0.3.F99
ls: No match.
ls: No match.
ls: No match.
Wed 16 Nov 2022 07:24:36 PM EST
0.285u 0.043s 0:13.50 2.3%	0+0k 48+224io 0pf+0w
