----- GAMESS execution script 'rungms' -----
This job is running on host io002
under operating system Linux at Wed 16 Nov 2022 06:44:41 PM EST
Available scratch disk space (Kbyte units) at beginning of the job is
Filesystem       1K-blocks       Used   Available Use% Mounted on
/dev/sdc1      15378471580 3278917120 11318349060  23% /scratch
GAMESS temporary binary files will be written to /scratch/bsonghao
GAMESS supplementary output files will be written to /home/bsonghao/.gamess_ascii_files/267638
Copying input file nh3_diabatization_2d_at_mode_7_8_dist-0.5_-0.1.inp to your run's scratch directory...
cp nh3_diabatization_2d_at_mode_7_8_dist-0.5_-0.1.inp /scratch/bsonghao/nh3_diabatization_2d_at_mode_7_8_dist-0.5_-0.1.F05
unset echo
/home/bjb2chen/gamess/ddikick.x /home/bjb2chen/gamess/gamess.00.x nh3_diabatization_2d_at_mode_7_8_dist-0.5_-0.1 -ddi 1 1 io002 -scr /scratch/bsonghao

 Distributed Data Interface kickoff program.
 Initiating 1 compute processes on 1 nodes to run the following command:
 /home/bjb2chen/gamess/gamess.00.x nh3_diabatization_2d_at_mode_7_8_dist-0.5_-0.1 

          ******************************************************
          *         GAMESS VERSION = 02 AUG 2018 (R2)         *
          *             FROM IOWA STATE UNIVERSITY             *
          * M.W.SCHMIDT, K.K.BALDRIDGE, J.A.BOATZ, S.T.ELBERT, *
          *   M.S.GORDON, J.H.JENSEN, S.KOSEKI, N.MATSUNAGA,   *
          *          K.A.NGUYEN, S.J.SU, T.L.WINDUS,           *
          *       TOGETHER WITH M.DUPUIS, J.A.MONTGOMERY       *
          *         J.COMPUT.CHEM.  14, 1347-1363(1993)        *
          **************** 64 BIT LINUX VERSION ****************

  SINCE 1993, STUDENTS AND POSTDOCS WORKING AT IOWA STATE UNIVERSITY
  AND ALSO IN THEIR VARIOUS JOBS AFTER LEAVING ISU HAVE MADE IMPORTANT
  CONTRIBUTIONS TO THE CODE:
     IVANA ADAMOVIC, CHRISTINE AIKENS, YURI ALEXEEV, POOJA ARORA,
     ANDREY ASADCHEV, ROB BELL, PRADIPTA BANDYOPADHYAY, JONATHAN BENTZ,
     BRETT BODE, KURT BRORSEN, CALEB CARLIN, GALINA CHABAN, WEI CHEN,
     CHEOL HO CHOI, PAUL DAY, ALBERT DEFUSCO, NUWAN DESILVA, TIM DUDLEY,
     DMITRI FEDOROV, ALEX FINDLATER, GRAHAM FLETCHER, MARK FREITAG,
     KURT GLAESEMANN, ANASTASIA GUININA,
     DAN KEMP, GRANT MERRILL, NORIYUKI MINEZAWA, JONATHAN MULLIN,
     TAKESHI NAGATA, SEAN NEDD, HEATHER NETZLOFF, BOSILJKA NJEGIC, RYAN OLSON,
     MIKE PAK, BUU PHAM,
     SPENCER PRUITT, LUKE ROSKOP, JIM SHOEMAKER, LYUDMILA SLIPCHENKO,
     TONY SMITH, SAROM SOK LEANG, JIE SONG, TETSUYA TAKETSUGU, SIMON WEBB,
     PENG XU, SOOHAENG YOO, FEDERICO ZAHARIEV

  ADDITIONAL CODE HAS BEEN PROVIDED BY COLLABORATORS IN OTHER GROUPS:
     IOWA STATE UNIVERSITY:
          JOE IVANIC, AARON WEST, LAIMUTIS BYTAUTAS, KLAUS RUEDENBERG
     UNIVERSITY OF TOKYO: KIMIHIKO HIRAO, TAKAHITO NAKAJIMA,
          TAKAO TSUNEDA, MUNEAKI KAMIYA, SUSUMU YANAGISAWA,
          KIYOSHI YAGI, MAHITO CHIBA, SEIKEN TOKURA, NAOAKI KAWAKAMI
     UNIVERSITY OF AARHUS: FRANK JENSEN
     UNIVERSITY OF IOWA: VISVALDAS KAIRYS, HUI LI
     NATIONAL INST. OF STANDARDS AND TECHNOLOGY: WALT STEVENS, DAVID GARMER
     UNIVERSITY OF PISA: BENEDETTA MENNUCCI, JACOPO TOMASI
     UNIVERSITY OF MEMPHIS: HENRY KURTZ, PRAKASHAN KORAMBATH
     UNIVERSITY OF ALBERTA: TOBY ZENG, MARIUSZ KLOBUKOWSKI
     UNIVERSITY OF NEW ENGLAND: MARK SPACKMAN
     MIE UNIVERSITY: HIROAKI UMEDA
     NAT. INST. OF ADVANCED INDUSTRIAL SCIENCE AND TECHNOLOGY: KAZUO KITAURA
     MICHIGAN STATE UNIVERSITY:
          KAROL KOWALSKI, MARTA WLOCH, JEFFREY GOUR, JESSE LUTZ,
          WEI LI, JUN SHEN, J. EMILIANO DEUSTUA, PIOTR PIECUCH
     UNIVERSITY OF MINNESOTA:
          YINAN SHU
     UNIVERSITY OF SILESIA: MONIKA MUSIAL, STANISLAW KUCHARSKI
     FACULTES UNIVERSITAIRES NOTRE-DAME DE LA PAIX:
          OLIVIER QUINET, BENOIT CHAMPAGNE
     UNIVERSITY OF CALIFORNIA - SANTA BARBARA: BERNARD KIRTMAN
     INSTITUTE FOR MOLECULAR SCIENCE:
          KAZUYA ISHIMURA, MICHIO KATOUDA, AND SHIGERU NAGASE
     UNIVERSITY OF NOTRE DAME: ANNA POMOGAEVA, DAN CHIPMAN
     KYUSHU UNIVERSITY:
          HARUYUKI NAKANO,
          FENG LONG GU, JACEK KORCHOWIEC, MARCIN MAKOWSKI, AND YURIKO AOKI,
          HIROTOSHI MORI AND EISAKU MIYOSHI
     PENNSYLVANIA STATE UNIVERSITY:
          TZVETELIN IORDANOV, CHET SWALINA, JONATHAN SKONE,
          SHARON HAMMES-SCHIFFER
     WASEDA UNIVERSITY:
          MASATO KOBAYASHI, TOMOKO AKAMA, TSUGUKI TOUMA,
          TAKESHI YOSHIKAWA, YASUHIRO IKABATA, JUNJI SEINO,
          YUYA NAKAJIMA, HIROMI NAKAI
     NANJING UNIVERSITY: SHUHUA LI
     UNIVERSITY OF NEBRASKA:
          PEIFENG SU, DEJUN SI, NANDUN THELLAMUREGE, YALI WANG, HUI LI
     UNIVERSITY OF ZURICH: ROBERTO PEVERATI, KIM BALDRIDGE
     N. COPERNICUS UNIVERSITY AND JACKSON STATE UNIVERSITY:
          MARIA BARYSZ
     UNIVERSITY OF COPENHAGEN: Jimmy Kromann, CASPER STEINMANN
     TOKYO INSTITUTE OF TECHNOLOGY: HIROYA NAKATA
     NAGOYA UNIVERSITY: YOSHIO NISHIMOTO, STEPHAN IRLE
     MOSCOW STATE UNIVERSITY: VLADIMIR MIRONOV

 EXECUTION OF GAMESS BEGUN Wed Nov 16 18:44:41 2022

            ECHO OF THE FIRST FEW INPUT CARDS -
 INPUT CARD> $system kdiag=3 mwords=100 memddi=1000 parall=.t. $end                         
 INPUT CARD> $contrl runtyp=energy ispher=1 $end                                            
 INPUT CARD> $contrl icut=9 itol=20 inttyp=rysquad qmttol=1.0d-05 nosym=1 $end              
 INPUT CARD> $scf    npunch=2 conv=1.0d-06 dirscf=.t.      $end                             
 INPUT CARD> $contrl scftyp=mcscf  mult=2 maxit=200 icharg=1 mplevl=2 $end                  
 INPUT CARD> $guess  guess=moread norb=29 purify=.t. $end                                   
 INPUT CARD> $basis  gbasis=ccd $end                                                        
 INPUT CARD> $mcscf  cistep=gmcci fullnr=.t. finci=mos                                      
 INPUT CARD>         acurcy=1.d-6 maxit=100 $end                                            
 INPUT CARD> $trans  dirtrf=.t. $end                                                        
 INPUT CARD> $mrmp   mrpt=gmcpt rdvecs=.f. $end                                             
 INPUT CARD> $gmcpt  nmofzc=0 nmodoc=1 nmoact=7 nelact=7 stsym(1)=A                         
 INPUT CARD>         reftyp=ormas nspace=1 mstart(1)=2 mine(1)=7 maxe(1)=7                  
 INPUT CARD>         kstate(1)=1,1,1                                                        
 INPUT CARD>         wstate(1)=1,1,1                                                        
 INPUT CARD>         iwgt=0 thrwgt=-1.0 krot=.f. kszdoe=.f. knospn=.f.                      
 INPUT CARD>         thrde=-1.0 edshft=0.02 $end                                            
 INPUT CARD> $data                                                                          
 INPUT CARD> NH3+ 3 states calculation at NH3 structure.                                    
 INPUT CARD> c1                                                                             
 INPUT CARD>N 7.0 0.006228917999999998 0.031144515 -0.1693806302                            
 INPUT CARD>H 1.0 -0.70730332 0.7338145488000001 0.15535497510000001                        
 INPUT CARD>H 1.0 -0.325176733 -0.8016993998 0.3839623521                                   
 INPUT CARD>H 1.0 0.945927582 -0.364878722 0.23006253010000002                              
 INPUT CARD>$end                                                                            
 INPUT CARD>--- OPTIMIZED RHF      MO-S --- GENERATED AT Mon Nov 14 16:47:08 2022           
 INPUT CARD>E=      -56.3825050291, E(NUC)=   11.8429239490                                 
 INPUT CARD> $VEC                                                                           
 INPUT CARD> 1  1-1.00134066E+00-2.25158504E-03 3.44925845E-03 0.00000000E+00 0.00000000E+00
 INPUT CARD> 1  2-2.13170927E-03 0.00000000E+00 0.00000000E+00 6.57129898E-04-6.87950443E-05
 INPUT CARD> 1  3-6.87950443E-05 1.37590089E-04 0.00000000E+00 0.00000000E+00 0.00000000E+00
 INPUT CARD> 1  4 3.25502815E-04-4.84772356E-04 3.62525460E-04-6.27912517E-04-3.45956485E-04
 INPUT CARD> 1  5 3.25502815E-04-4.84772356E-04 3.62525460E-04 6.27912517E-04-3.45956485E-04
 INPUT CARD> 1  6 3.25502815E-04-4.84772356E-04-7.25050921E-04 0.00000000E+00-3.45956485E-04
 INPUT CARD> 2  1 1.31286642E-02-4.05911371E-01-2.82090992E-01 0.00000000E+00 0.00000000E+00
 INPUT CARD> 2  2-7.71489043E-02 0.00000000E+00 0.00000000E+00 9.73717494E-03 6.62450916E-04
 INPUT CARD> 2  3 6.62450916E-04-1.32490183E-03 0.00000000E+00 0.00000000E+00 0.00000000E+00
 INPUT CARD> 2  4-1.96090317E-01-1.96656153E-02-1.74855877E-02 3.02859263E-02 8.68214399E-03
 INPUT CARD> 2  5-1.96090317E-01-1.96656153E-02-1.74855877E-02-3.02859263E-02 8.68214399E-03
 INPUT CARD> 2  6-1.96090317E-01-1.96656153E-02 3.49711754E-02 0.00000000E+00 8.68214399E-03
 INPUT CARD> 3  1 0.00000000E+00 0.00000000E+00 0.00000000E+00 4.48608762E-01 0.00000000E+00
 INPUT CARD> 3  2 0.00000000E+00 2.18692520E-01 0.00000000E+00 0.00000000E+00 1.30198027E-02
 INPUT CARD> 3  3-1.30198027E-02 0.00000000E+00 0.00000000E+00 2.71832968E-02 0.00000000E+00
 INPUT CARD> 3  4-1.85332726E-01-7.03958951E-02 8.47929477E-03 1.95242443E-02 8.32835058E-03
 INPUT CARD> 3  5-1.85332726E-01-7.03958951E-02 8.47929477E-03-1.95242443E-02 8.32835058E-03
 INPUT CARD> 3  6 3.70665453E-01 1.40791790E-01-2.53376884E-02 0.00000000E+00-1.66567012E-02
 INPUT CARD> 4  1 0.00000000E+00 0.00000000E+00 0.00000000E+00 0.00000000E+00 4.48608762E-01
 INPUT CARD> 4  2 0.00000000E+00 0.00000000E+00 2.18692520E-01 0.00000000E+00 0.00000000E+00
 INPUT CARD> 4  3 0.00000000E+00 0.00000000E+00-1.50339731E-02 0.00000000E+00 2.71832968E-02
 INPUT CARD> 4  4 3.21005698E-01 1.21929267E-01 1.95242443E-02-1.40653607E-02-1.44251263E-02
  100000000 WORDS OF MEMORY AVAILABLE

     BASIS OPTIONS
     -------------
     GBASIS=CCD          IGAUSS=       0      POLAR=NONE    
     NDFUNC=       0     NFFUNC=       0     DIFFSP=       F
     NPFUNC=       0      DIFFS=       F     BASNAM=        


     RUN TITLE
     ---------
  NH3+ 3 states calculation at NH3 structure.                                    

 THE POINT GROUP OF THE MOLECULE IS C1      
 THE ORDER OF THE PRINCIPAL AXIS IS     0

 ATOM      ATOMIC                      COORDINATES (BOHR)
           CHARGE         X                   Y                   Z
 N           7.0     0.0117709482        0.0588545994       -0.3200829787
 H           1.0    -1.3366094650        1.3867084230        0.2935783338
 H           1.0    -0.6144949230       -1.5149921901        0.7255836351
 H           1.0     1.7875439342       -0.6895208033        0.4347551419

          INTERNUCLEAR DISTANCES (ANGS.)
          ------------------------------

                1 N          2 H          3 H          4 H     

   1 N       0.0000000    1.0527709 *  1.0533979 *  1.0951816 *
   2 H       1.0527709 *  0.0000000    1.5987761 *  1.9864241 *
   3 H       1.0533979 *  1.5987761 *  0.0000000    1.3528502 *
   4 H       1.0951816 *  1.9864241 *  1.3528502 *  0.0000000  

  * ... LESS THAN  3.000


     ATOMIC BASIS SET
     ----------------
 THE CONTRACTED PRIMITIVE FUNCTIONS HAVE BEEN UNNORMALIZED
 THE CONTRACTED BASIS FUNCTIONS ARE NOW NORMALIZED TO UNITY

  SHELL TYPE  PRIMITIVE        EXPONENT          CONTRACTION COEFFICIENT(S)

 N         

      1   S       1          9046.0000000    0.000699617413
      1   S       2          1357.0000000    0.005386054630
      1   S       3           309.3000000    0.027391021189
      1   S       4            87.7300000    0.103150591982
      1   S       5            28.5600000    0.278570663317
      1   S       6            10.2100000    0.448294849454
      1   S       7             3.8380000    0.278085928395
      1   S       8             0.7466000    0.015431561233

      2   S       9          9046.0000000   -0.000304990096
      2   S      10          1357.0000000   -0.002408026379
      2   S      11           309.3000000   -0.011944448725
      2   S      12            87.7300000   -0.048925992909
      2   S      13            28.5600000   -0.134472724725
      2   S      14            10.2100000   -0.315112577700
      2   S      15             3.8380000   -0.242857832550
      2   S      16             0.7466000    1.094382206854

      3   S      17             0.2248000    1.000000000000

      4   P      18            13.5500000    0.058905676772
      4   P      19             2.9170000    0.320461106714
      4   P      20             0.7973000    0.753042061792

      5   P      21             0.2185000    1.000000000000

      6   D      22             0.8170000    1.000000000000

 H         

      7   S      23            13.0100000    0.033498726390
      7   S      24             1.9620000    0.234800801174
      7   S      25             0.4446000    0.813682957883

      8   S      26             0.1220000    1.000000000000

      9   P      27             0.7270000    1.000000000000

 H         

     10   S      28            13.0100000    0.033498726390
     10   S      29             1.9620000    0.234800801174
     10   S      30             0.4446000    0.813682957883

     11   S      31             0.1220000    1.000000000000

     12   P      32             0.7270000    1.000000000000

 H         

     13   S      33            13.0100000    0.033498726390
     13   S      34             1.9620000    0.234800801174
     13   S      35             0.4446000    0.813682957883

     14   S      36             0.1220000    1.000000000000

     15   P      37             0.7270000    1.000000000000

 TOTAL NUMBER OF BASIS SET SHELLS             =   15
 NUMBER OF CARTESIAN GAUSSIAN BASIS FUNCTIONS =   30
 NOTE: THIS RUN WILL RESTRICT THE MO VARIATION SPACE TO SPHERICAL HARMONICS.
 THE NUMBER OF ORBITALS KEPT IN THE VARIATIONAL SPACE WILL BE PRINTED LATER.
 NUMBER OF ELECTRONS                          =    9
 CHARGE OF MOLECULE                           =    1
 SPIN MULTIPLICITY                            =    2
 NUMBER OF OCCUPIED ORBITALS (ALPHA)          =    5
 NUMBER OF OCCUPIED ORBITALS (BETA )          =    4
 TOTAL NUMBER OF ATOMS                        =    4
 THE NUCLEAR REPULSION ENERGY IS       11.4058819636

     $CONTRL OPTIONS
     ---------------
 SCFTYP=MCSCF        RUNTYP=ENERGY       EXETYP=RUN     
 MPLEVL=       2     CITYP =NONE         CCTYP =NONE         VBTYP =NONE    
 DFTTYP=NONE         TDDFT =NONE    
 MULT  =       2     ICHARG=       1     NZVAR =       0     COORD =UNIQUE  
 PP    =NONE         RELWFN=NONE         LOCAL =NONE         NUMGRD=       F
 ISPHER=       1     NOSYM =       1     MAXIT =     200     UNITS =ANGS    
 PLTORB=       F     MOLPLT=       F     AIMPAC=       F     FRIEND=        
 NPRINT=       7     IREST =       0     GEOM  =INPUT   
 NORMF =       0     NORMP =       0     ITOL  =      20     ICUT  =       9
 INTTYP=RYSQUAD      GRDTYP=BEST         QMTTOL= 1.0E-05

     $SYSTEM OPTIONS
     ---------------
  REPLICATED MEMORY=   100000000 WORDS (ON EVERY NODE).
 DISTRIBUTED MEMDDI=        1000 MILLION WORDS IN AGGREGATE,
 MEMDDI DISTRIBUTED OVER   1 PROCESSORS IS  1000000000 WORDS/PROCESSOR.
 TOTAL MEMORY REQUESTED ON EACH PROCESSOR=  1100000000 WORDS.
 TIMLIM=      525600.00 MINUTES, OR     365.0 DAYS.
 PARALL= T  BALTYP=  DLB     KDIAG=    3  COREFL= F
 MXSEQ2=     300 MXSEQ3=     150  mem10=         0

          ----------------
          PROPERTIES INPUT
          ----------------

     MOMENTS            FIELD           POTENTIAL          DENSITY
 IEMOM =       1   IEFLD =       0   IEPOT =       0   IEDEN =       0
 WHERE =COMASS     WHERE =NUCLEI     WHERE =NUCLEI     WHERE =NUCLEI  
 OUTPUT=BOTH       OUTPUT=BOTH       OUTPUT=BOTH       OUTPUT=BOTH    
 IEMINT=       0   IEFINT=       0                     IEDINT=       0
                                                       MORB  =       0

     -------------------------------
     INTEGRAL TRANSFORMATION OPTIONS
     -------------------------------
     NWORD  =            0
     CUTOFF = 1.0E-09     MPTRAN =       0
     DIRTRF =       T     AOINTS =DUP     

          ----------------------
          MCSCF INPUT PARAMETERS
          ----------------------
 CONVERGER SELECTION: FOCAS = F  SOSCF = F  FULLNR = T  QUD = F  JACOBI = F
 SECULAR EQUATION METHOD CISTEP = GMCCI   
 --- GENERAL INPUT OPTIONS:
 MAXIT =     100  MICIT =       1  ACURCY= 1.000E-06
 DAMP  =   0.000  CANONC=       T  ENGTOL= 1.000E-10
 EKT   =       F  NPUNCH=       2  NWORD =         0
 REGENERATE CI AFTER CONVERGENCE = NONE    
 DIABATIZATION AFTER CONVERGENCE =        F
 --- INPUT FOR FULLNR CONVERGER:
 METHOD=DM2       FORS  =       F  DROPC =       T
 LINSER=       F  FCORE =       F  NORB  =      30

          ----------------------
          INTEGRAL INPUT OPTIONS
          ----------------------
 NOPK  =       1 NORDER=       0 SCHWRZ=       T

 ------------------------------------------
 MULTIREFERENCE PERTURBATION THEORY CONTROL
 ------------------------------------------
 MRPT=GMCPT    READ CONVERGED MCSCF VECTORS= F


     ------------------------------------------
     THE POINT GROUP IS C1 , NAXIS= 1, ORDER= 1
     ------------------------------------------

 -- VARIATIONAL SPACE WILL BE RESTRICTED TO PURE SPHERICAL HARMONICS ONLY --
 AFTER EXCLUDING CONTAMINANT COMBINATIONS FROM THE CARTESIAN GAUSSIAN BASIS
 SET, THE NUMBER OF SPHERICAL HARMONICS KEPT IN THE VARIATION SPACE IS   29

     DIMENSIONS OF THE SYMMETRY SUBSPACES ARE
 A   =   29

 ..... DONE SETTING UP THE RUN .....
 CPU     0: STEP CPU TIME=     0.04 TOTAL CPU TIME=          0.0 (      0.0 MIN)
 TOTAL WALL CLOCK TIME=          0.0 SECONDS, CPU UTILIZATION IS   100.00%

          ********************
          1 ELECTRON INTEGRALS
          ********************
 TIME TO DO   DIPOLE INTEGRALS=      0.00
 ...... END OF ONE-ELECTRON INTEGRALS ......
 CPU     0: STEP CPU TIME=     0.00 TOTAL CPU TIME=          0.0 (      0.0 MIN)
 TOTAL WALL CLOCK TIME=          0.0 SECONDS, CPU UTILIZATION IS   100.00%

          -------------
          GUESS OPTIONS
          -------------
          GUESS =MOREAD            NORB  =      29          NORDER=       0
          MIX   =       F          PRTMO =       F          PUNMO =       F
          TOLZ  = 1.0E-08          TOLE  = 1.0E-05
          SYMDEN=       F          PURIFY=       T

 INITIAL GUESS ORBITALS GENERATED BY MOREAD   ROUTINE.

 STATISTICS FOR GENERATION OF SYMMETRY ORBITAL -Q- MATRIX
 NUMBER OF CARTESIAN ATOMIC ORBITALS=         30
 NUMBER OF SPHERICAL CONTAMINANTS DROPPED=     1
 NUMBER OF LINEARLY DEPENDENT MOS DROPPED=     0
 TOTAL NUMBER OF MOS IN VARIATION SPACE=      29
 ORBITAL PURIFICATION WILL OCCUR

 SYMMETRIES FOR INITIAL GUESS ORBITALS FOLLOW.   BOTH SET(S).
     5 ORBITALS ARE OCCUPIED (    1 CORE ORBITALS).
     1=A        2=A        3=A        4=A        5=A        6=A        7=A   
     8=A        9=A       10=A       11=A       12=A       13=A       14=A   
    15=A       16=A       17=A       18=A       19=A       20=A       21=A   
    22=A       23=A       24=A       25=A       26=A       27=A       28=A   
    29=A   
 ...... END OF INITIAL ORBITAL SELECTION ......
 CPU     0: STEP CPU TIME=     0.01 TOTAL CPU TIME=          0.0 (      0.0 MIN)
 TOTAL WALL CLOCK TIME=          0.1 SECONDS, CPU UTILIZATION IS   100.00%

                    ----------------------
                    AO INTEGRAL TECHNOLOGY
                    ----------------------
     S,P,L SHELL ROTATED AXIS INTEGRALS, REPROGRAMMED BY
        KAZUYA ISHIMURA (IMS) AND JOSE SIERRA (SYNSTAR).
     S,P,D,L SHELL ROTATED AXIS INTEGRALS PROGRAMMED BY
        KAZUYA ISHIMURA (INSTITUTE FOR MOLECULAR SCIENCE).
     S,P,D,F,G SHELL TO TOTAL QUARTET ANGULAR MOMENTUM SUM 5,
        ERIC PROGRAM BY GRAHAM FLETCHER (ELORET AND NASA ADVANCED
        SUPERCOMPUTING DIVISION, AMES RESEARCH CENTER).
     S,P,D,F,G,L SHELL GENERAL RYS QUADRATURE PROGRAMMED BY
        MICHEL DUPUIS (PACIFIC NORTHWEST NATIONAL LABORATORY).

          --------------------
          2 ELECTRON INTEGRALS
          --------------------

 DIRECT SCF METHOD SKIPS INTEGRAL STORAGE ON DISK.
 DIRECT TRANSFORMATION SKIPS AO INTEGRAL STORAGE ON DISK.
  ...... END OF TWO-ELECTRON INTEGRALS .....
 STEP CPU TIME =     0.02 TOTAL CPU TIME =          0.1 (      0.0 MIN)
 TOTAL WALL CLOCK TIME=          0.1 SECONDS, CPU UTILIZATION IS    87.50%
 DDI: Creating Array [0] - 900 x 36 = 32400 words.
 DDI: Creating Array [1] - 21 x 288 = 6048 words.
 DDI: Creating Array [2] - 36 x 36 = 1296 words.
 DDI: Creating Array [3] - 465 x 36 = 16740 words.

          -----------------
          MCSCF CALCULATION
          -----------------

 ----- NUCLEAR ENERGY ----- =        11.4058819636

     -------------------------------------------------
     GMC-PT/GMC-QDPT or general MCSCF input parameters
     -------------------------------------------------
 # of frozen core orbs. =         0 ->         0
 # of doubly occ. orbs. =         1
 # of active      orbs. =         7
 # of virtual     orbs. =        21
 # of active electrons  =         7
 # of states in CI      =         3
 Highest state in CI    =         3
 kstate =  1 1 1
 avecoe =  0.333 0.333 0.333
 State symmetry           = A           
 Assigned symmetry number = 1

 <<<Act. MO sym.: 1111111

 <<<Division of 1-ext.:  0
 <<<Division of 2-ext.:  0

 *** Reference space

 Reference type: ORMAS (= Occupation restricted multiple active space)
 # of orbitals          =  7
 # of minimum electrons =  7
 # of maximum electrons =  7
 State symmetry    =    1 (input)
 2*Sz              =    1 (input)
 Spin multiplicity =    2 (input)
 Dimension of reference space =      1225  (from      3432 walks)

 Dimension of reference space =      1225  (from      1225 walks)

 <<<Ionized spaces for Ref-CI:
      0:         1225 /   -1-0:         1960 /  0-1-0:         2891

 EVALUATING EXCHANGE INTEGRALS FOR DIRECT INTEGRAL TRANSFORMATION
 SCHWARZ INEQUALITY OVERHEAD:       465 INTEGRALS, T=        0.00

     --------------------------------------------
     PARTIAL TWO ELECTRON INTEGRAL TRANSFORMATION
     --------------------------------------------

 NUMBER OF CORE MOLECULAR ORBITALS     =    1
 NUMBER OF OCCUPIED MOLECULAR ORBITALS =    8
 TOTAL NUMBER OF MOLECULAR ORBITALS    =   29
 TOTAL NUMBER OF ATOMIC ORBITALS       =   30
 THRESHOLD FOR KEEPING TRANSFORMED 2E- INTEGRALS = 1.000E-09

 -------------------------------     ------------------------------
 DISTRIBUTED DATA TRANSFORMATION     PROGRAM WRITTEN BY G. FLETCHER
 -------------------------------     ------------------------------

 THE DISTRIBUTED MEMORY REQUIRED FOR THIS STEP IS MEMDDI=         1 MWORDS
 CREATING DISTRIBUTED STORAGE FOR [VIR OCC|VIR OCC] INTEGRALS
 CREATING DISTRIBUTED STORAGE FOR [VIR OCC|OCC OCC] INTEGRALS
 CREATING DISTRIBUTED STORAGE FOR [OCC OCC|OCC OCC] INTEGRALS
 CREATING DISTRIBUTED STORAGE FOR [VIR VIR|OCC OCC] INTEGRALS
 FOR    1 PROCESSORS, THE REPLICATED MEMORY NEEDED IS       73700 WORDS.
 SCHWARZ INEQUALITY OVERHEAD:       465 INTEGRALS, T=        0.00

      DIRECT 4-INDEX TRANSFORMATION 
      SCHWARZ INEQUALITY TEST SKIPPED          0 INTEGRAL BLOCKS
 ----- FROZEN CORE ENERGY =       -47.7084297669
 ... END OF INTEGRAL TRANSFORMATION ...
 CPU     0: STEP CPU TIME=     0.22 TOTAL CPU TIME=          0.3 (      0.0 MIN)
 TOTAL WALL CLOCK TIME=          0.3 SECONDS, CPU UTILIZATION IS    96.67%

     --------------------------------     -----------------------------
     MCHF NEWTON-RAPHSON OPTIMIZATION     CODE WRITTEN BY MICHEL DUPUIS
     --------------------------------     -----------------------------
     PARALLEL VERSION WRITTEN BY G. FLETCHER (ELORET)
     NASA ADVANCED SUPERCOMPUTING DIVISION, AMES RESEARCH CENTER

 NUMBER OF INDEPENDENT ORBITAL ROTATION PARAMETERS =   175
 ..... DONE SOLVING NEWTON-RAPHSON EQUATIONS .....
 CPU     0: STEP CPU TIME=     0.83 TOTAL CPU TIME=          1.1 (      0.0 MIN)
 TOTAL WALL CLOCK TIME=          1.1 SECONDS, CPU UTILIZATION IS   100.00%
 ..... DONE WITH NTN-RPH ORBITAL ROTATIONS ..... 
 CPU     0: STEP CPU TIME=     0.00 TOTAL CPU TIME=          1.1 (      0.0 MIN)
 TOTAL WALL CLOCK TIME=          1.1 SECONDS, CPU UTILIZATION IS   100.00%
 MAXIMUM MEMORY USED BY NTN-RPH CODE WAS     57645 WORDS.

 ITER     TOTAL ENERGY      DEL(E)  LAGRANGIAN ASYMMETRY   SQCDF  MICIT   DAMP
   1      -55.644825421 -0.644825421  0.119690   12    5 1.348E-01  1   0.0000
   2      -55.689348859 -0.044523439  0.021574   12    5 4.554E-01  1   0.0000
   3      -55.723475161 -0.034126302  0.012833   11    6 2.178E-01  1   0.0234
   4      -55.738090694 -0.014615532  0.004403   11    6 3.957E-02  1   0.0047
   5      -55.739904553 -0.001813860  0.000672   12    5 9.880E-04  1   0.0000
   6      -55.739952685 -0.000048132  0.000272   23    5 7.025E-05  1   0.0000
   7      -55.739957136 -0.000004451  0.000118   23    5 1.113E-05  1   0.0000
   8      -55.739957903 -0.000000766  0.000056   23    5 2.224E-06  1   0.0000
   9      -55.739958061 -0.000000159  0.000028   23    5 5.240E-07  1   0.0000
  10      -55.739958099 -0.000000038  0.000014   23    5 1.409E-07  1   0.0000
  11      -55.739958109 -0.000000010  0.000008   23    5 4.152E-08  1   0.0000
  12      -55.739958112 -0.000000003  0.000004   23    5 1.297E-08  1   0.0000
  13      -55.739958113 -0.000000001  0.000002   23    5 4.212E-09  1   0.0000
  14      -55.739958113 -0.000000000  0.000001   23    5 1.393E-09  1   0.0000
  15      -55.739958113 -0.000000000  0.000001   12    8 4.678E-10  1   0.0000

          --------------------
          LAGRANGIAN CONVERGED
          --------------------

 FINAL MCSCF ENERGY IS      -55.7399581133 AFTER  15 ITERATIONS

 -MCCI- BASED ON OPTIMIZED ORBITALS
 ----------------------------------

 PLEASE NOTE: IF THE ACTIVE ORBITALS ARE CANONICALIZED BELOW,
 THE FOLLOWING CI EXPANSION COEFFICIENTS AND THE DENSITY DO NOT
 CORRESPOND TO THE PRINTED ORBITALS.  THE PRINTED EXPANSIONS MATCH
 THE ORBITALS USED DURING THE LAST ITERATION.  IF YOU WISH TO SEE
 CI EXPANSIONS BASED ON THE CANONICAL (OR NATURAL) ORBITALS, YOU
 MUST RUN A CI CALCULATION WITH THAT ORBITAL CHOICE READ IN $VEC.

 Averaged energy =     -55.739958113

 State #    1  Energy =     -55.879720427  S =  0.500

      Det      Coef    Occupancy (Ignoring core)
      ---      ----    --------- --------- -----
        1    0.926497  11110001110000
        2    0.052798  11101001110000
        5   -0.065794  01111001110000
        8   -0.128821  10110101110000
       17   -0.132468  11010011110000
       36   -0.191983  11110001101000
       71    0.088049  11110001011000
      211    0.050114  11110000110100
      386    0.102843  11110001010010
      393    0.055517  10110101010010
      701    0.097419  11110001100001
      717    0.064614  11010011100001

 State #    2  Energy =     -55.733383154  S =  0.500

      Det      Coef    Occupancy (Ignoring core)
      ---      ----    --------- --------- -----
        1    0.196615  11110001110000
       36    0.702169  11110001101000
       43   -0.072912  10110101101000
       52   -0.062771  11010011101000
       71   -0.628732  11110001011000
       78    0.054390  10110101011000
       87    0.065392  11010011011000
      456    0.072701  11110001001010
      806    0.064273  11110001001001

 State #    3  Energy =     -55.606770759  S =  0.500

      Det      Coef    Occupancy (Ignoring core)
      ---      ----    --------- --------- -----
        1    0.059962  11110001110000
       36    0.631900  11110001101000
       43   -0.057466  10110101101000
       71    0.728411  11110001011000
       87   -0.064342  11010011011000
      316    0.055711  11110000011100
      456    0.059883  11110001001010
      806   -0.081653  11110001001001
      822   -0.054526  11010011001001

 DENSITY MATRIX OVER ACTIVE MO-S

             1           2           3           4           5

    1    1.9767461
    2   -0.0071232   1.6332008
    3   -0.0165522  -0.0021597   1.6325054
    4    0.0011564  -0.0020908  -0.0033752   1.6537663
    5    0.1020403   0.0146565   0.0316165   0.0360948   0.0285805
    6   -0.0061332  -0.1450287   0.0121943  -0.0152239  -0.0038788
    7   -0.0000833   0.0015171   0.1505021   0.0395259   0.0057957

             6           7

    6    0.0353007
    7   -0.0035468   0.0399001

 FORMING THE "STANDARD FOCK OPERATOR" IN DIRECT AO INTEGRAL MODE...
 ONLY THE    1 CORE AND   21 VIRTUAL ORBITALS WILL BE CANONICALIZED

          ----------------------
          MCSCF NATURAL ORBITALS
          ----------------------

                      1          2          3          4          5
                  -15.9840     1.9829     1.6558     1.6494     1.6435
                     A          A          A          A          A   
    1  N  1  S    1.001195   0.009088  -0.009957   0.001555   0.002648
    2  N  1  S   -0.001892   0.437035  -0.170239   0.061106   0.062874
    3  N  1  S   -0.006315   0.307349  -0.270637   0.083689   0.094571
    4  N  1  X   -0.000085  -0.014742  -0.016634  -0.307600   0.397531
    5  N  1  Y    0.000018  -0.036992   0.122373   0.354696   0.342230
    6  N  1  Z    0.001126   0.092739   0.584877  -0.084305  -0.021232
    7  N  1  X   -0.000032   0.002364   0.007498  -0.109198   0.203219
    8  N  1  Y   -0.000033   0.000650   0.085208   0.131390   0.180509
    9  N  1  Z   -0.000476   0.010718   0.384810  -0.040530   0.012993
   10  N  1 XX    0.000120  -0.000573  -0.011329   0.002909   0.008868
   11  N  1 YY    0.000065  -0.000060  -0.012183   0.001107  -0.007640
   12  N  1 ZZ   -0.000184   0.000633   0.023512  -0.004016  -0.001228
   13  N  1 XY   -0.000338  -0.002216  -0.001598  -0.005924  -0.013466
   14  N  1 XZ   -0.000064   0.000207  -0.002515  -0.012698   0.018248
   15  N  1 YZ   -0.000137  -0.002244   0.001218   0.017185   0.016813
   16  H  2  S   -0.001930   0.173162   0.153922   0.348227   0.029973
   17  H  2  S    0.000585  -0.000443   0.033740   0.043642   0.015286
   18  H  2  X   -0.000683   0.022446   0.014048   0.025429   0.013899
   19  H  2  Y    0.000761  -0.026337  -0.012837  -0.024957   0.015040
   20  H  2  Z    0.000371  -0.004382   0.017810  -0.016434  -0.002212
   21  H  3  S   -0.001906   0.211119   0.090254  -0.159192  -0.347421
   22  H  3  S    0.000294   0.008079   0.021344  -0.022094  -0.083569
   23  H  3  X   -0.000340   0.012622   0.007341  -0.024639  -0.002088
   24  H  3  Y   -0.000829   0.031938   0.017729  -0.002188  -0.025585
   25  H  3  Z    0.000514  -0.015737   0.019885   0.005791   0.020453
   26  H  4  S   -0.001731   0.173512   0.071831  -0.279746   0.244846
   27  H  4  S    0.000445  -0.000649   0.025862  -0.037929   0.063513
   28  H  4  X    0.000853  -0.030499  -0.010443   0.032890  -0.014351
   29  H  4  Y   -0.000284   0.010627   0.004969   0.000253   0.023636
   30  H  4  Z    0.000405  -0.006871   0.021538   0.008484  -0.010544

                      6          7          8
                    0.0288     0.0208     0.0189
                     A          A          A   
    1  N  1  S   -0.107549  -0.181451  -0.104607
    2  N  1  S   -0.348101  -0.612873  -0.320974
    3  N  1  S    0.009954  -0.185093  -0.017475
    4  N  1  X   -0.503058  -0.033159   0.746012
    5  N  1  Y   -0.533438   0.484303  -0.485088
    6  N  1  Z   -0.139674  -0.622155  -0.202282
    7  N  1  X    0.017239  -0.006207   0.064605
    8  N  1  Y    0.017405   0.082828  -0.036001
    9  N  1  Z    0.041972   0.074084   0.049265
   10  N  1 XX    0.022684  -0.016362   0.031814
   11  N  1 YY   -0.020084   0.011409  -0.028068
   12  N  1 ZZ   -0.002600   0.004953  -0.003747
   13  N  1 XY   -0.053592  -0.028643   0.008322
   14  N  1 XZ    0.012369   0.001330  -0.046375
   15  N  1 YZ    0.004546  -0.050171   0.017484
   16  H  2  S    0.375458   0.149774   0.769938
   17  H  2  S    0.064358  -0.007269   0.142097
   18  H  2  X    0.036104   0.017794   0.051110
   19  H  2  Y   -0.016165  -0.025712  -0.063610
   20  H  2  Z   -0.003401   0.008710   0.019987
   21  H  3  S   -0.484655   0.702680   0.107145
   22  H  3  S   -0.143408   0.113361   0.020326
   23  H  3  X   -0.000839   0.050009  -0.026875
   24  H  3  Y   -0.022291   0.057925   0.034725
   25  H  3  Z    0.019964   0.004549  -0.001715
   26  H  4  S    0.602538   0.427990  -0.382147
   27  H  4  S    0.135437   0.052574  -0.103136
   28  H  4  X   -0.049565  -0.060193   0.031895
   29  H  4  Y    0.037365  -0.000995   0.000779
   30  H  4  Z   -0.004325   0.024945  -0.006908

          ------------------------
          MCSCF OPTIMIZED ORBITALS
          ------------------------

                      1          2          3          4          5
                  -15.9840     0.0000     0.0000     0.0000     0.0000
                     A          A          A          A          A   
    1  N  1  S    1.001195  -0.002765   0.000603  -0.007874  -0.016148
    2  N  1  S   -0.001892   0.400939   0.004424   0.016089  -0.195609
    3  N  1  S   -0.006315   0.305266   0.025047   0.077666  -0.282607
    4  N  1  X   -0.000085  -0.006649   0.417575   0.058773   0.004060
    5  N  1  Y    0.000018  -0.011315   0.007387   0.425196   0.033448
    6  N  1  Z    0.001126   0.052255  -0.003544  -0.002940   0.579824
    7  N  1  X   -0.000032   0.009450   0.216793   0.067745   0.016050
    8  N  1  Y   -0.000033   0.014167   0.038671   0.225416   0.056867
    9  N  1  Z   -0.000476   0.013178   0.008400   0.036775   0.387853
   10  N  1 XX    0.000120   0.000076   0.004030   0.010457  -0.011123
   11  N  1 YY    0.000065  -0.000562  -0.004338  -0.009463  -0.012671
   12  N  1 ZZ   -0.000184   0.000486   0.000308  -0.000994   0.023794
   13  N  1 XY   -0.000338  -0.005228  -0.009389  -0.016229  -0.001937
   14  N  1 XZ   -0.000064   0.000417   0.025975   0.001400  -0.001454
   15  N  1 YZ   -0.000137  -0.003162  -0.001298   0.026559  -0.002302
   16  H  2  S   -0.001930   0.205575  -0.262392   0.347539   0.120335
   17  H  2  S    0.000585   0.003852  -0.027864   0.058915   0.029404
   18  H  2  X   -0.000683   0.025693  -0.010168   0.033518   0.011402
   19  H  2  Y    0.000761  -0.028473   0.032555  -0.012085  -0.011192
   20  H  2  Z    0.000371  -0.004312   0.006913  -0.009849   0.020310
   21  H  3  S   -0.001906   0.215784  -0.176957  -0.394827   0.122921
   22  H  3  S    0.000294   0.006447  -0.054671  -0.082496   0.024955
   23  H  3  X   -0.000340   0.013870   0.017063  -0.021287   0.011333
   24  H  3  Y   -0.000829   0.033306  -0.021719  -0.019187   0.019447
   25  H  3  Z    0.000514  -0.014226   0.010868   0.022776   0.018320
   26  H  4  S   -0.001731   0.204350   0.424741  -0.016900   0.122715
   27  H  4  S    0.000445   0.004965   0.085160   0.022916   0.032058
   28  H  4  X    0.000853  -0.033665  -0.037257   0.013108  -0.016697
   29  H  4  Y   -0.000284   0.012319   0.018295   0.019368   0.005074
   30  H  4  Z    0.000405  -0.006272  -0.014288   0.000717   0.020380

                      6          7          8          9         10
                    0.0000     0.0000     0.0000     0.1493     0.2026
                     A          A          A          A          A   
    1  N  1  S    0.230262  -0.015780   0.044995  -0.141214  -0.000611
    2  N  1  S    0.781717  -0.035016   0.126016  -0.214934  -0.009816
    3  N  1  S    0.176999  -0.009329  -0.084794   1.414751  -0.078846
    4  N  1  X   -0.011953   0.941099   0.012209   0.014180  -0.120744
    5  N  1  Y   -0.080472  -0.132140   0.898699   0.041417   0.080099
    6  N  1  Z    0.677460  -0.047774  -0.074584  -0.212349  -0.008812
    7  N  1  X   -0.016055   0.063464  -0.039654  -0.027491   0.564687
    8  N  1  Y   -0.061615  -0.041984   0.065312  -0.175983  -0.574824
    9  N  1  Z   -0.085461   0.017182  -0.007536   0.475766   0.045469
   10  N  1 XX   -0.003338   0.014747  -0.039144   0.025321  -0.005031
   11  N  1 YY    0.005110  -0.013079   0.032603   0.019974  -0.009508
   12  N  1 ZZ   -0.001772  -0.001667   0.006542  -0.045295   0.014539
   13  N  1 XY    0.041313   0.037964   0.021334  -0.063968   0.052568
   14  N  1 XZ    0.008747  -0.043190   0.013609  -0.012527   0.067852
   15  N  1 YZ    0.037739   0.014504  -0.032726  -0.056287  -0.081279
   16  H  2  S   -0.483386   0.394345  -0.544516   0.321459  -0.525536
   17  H  2  S   -0.058099   0.079416  -0.113376  -0.805728   1.888314
   18  H  2  X   -0.042059   0.020082  -0.039800  -0.061683   0.078590
   19  H  2  Y    0.046211  -0.039361   0.029146   0.075493  -0.069894
   20  H  2  Z   -0.012470   0.018860  -0.003350  -0.004346  -0.076257
   21  H  3  S   -0.475748   0.309881   0.606343   0.209733   0.222260
   22  H  3  S   -0.056259   0.086963   0.143652  -0.743218  -0.781188
   23  H  3  X   -0.035053  -0.022867   0.035097   0.006702  -0.018858
   24  H  3  Y   -0.052209   0.036484   0.025838  -0.097661  -0.021046
   25  H  3  Z   -0.010444  -0.011983  -0.009467   0.062851   0.041466
   26  H  4  S   -0.461611  -0.640687  -0.068294   0.352078   0.240766
   27  H  4  S   -0.061531  -0.157006  -0.024893  -0.934451  -0.928420
   28  H  4  X    0.059120   0.054115  -0.005331   0.064623   0.049434
   29  H  4  Y   -0.011449  -0.018731  -0.026923  -0.060863  -0.019389
   30  H  4  Z   -0.018409  -0.005857   0.018719   0.031243   0.072050

                     11         12         13         14         15
                    0.2199     0.5361     0.6038     0.6551     0.7831
                     A          A          A          A          A   
    1  N  1  S    0.029867  -0.073376  -0.036791   0.041319  -0.248746
    2  N  1  S    0.060639  -0.089622  -0.199382   0.144087  -0.578344
    3  N  1  S   -0.187381   0.504373  -0.365210   0.015077   0.935930
    4  N  1  X   -0.040943  -0.299502  -0.309952  -0.356130  -0.055715
    5  N  1  Y    0.030572  -0.513982  -0.145910   0.253278   0.030847
    6  N  1  Z    0.046579  -0.419879   0.495923  -0.231651   0.218804
    7  N  1  X    0.464712   0.532450   0.991931   1.427736   0.302862
    8  N  1  Y    0.159954   1.149640   0.539507  -1.284171  -0.121286
    9  N  1  Z   -0.143134   0.528726  -0.927730   0.481979  -0.158014
   10  N  1 XX    0.060160   0.009773  -0.021955  -0.043178   0.139876
   11  N  1 YY   -0.052851  -0.027093   0.063117   0.031875  -0.098630
   12  N  1 ZZ   -0.007309   0.017320  -0.041162   0.011304  -0.041246
   13  N  1 XY   -0.060979  -0.007499  -0.052313  -0.001478   0.076956
   14  N  1 XZ    0.065438   0.013046  -0.007373  -0.042323  -0.083726
   15  N  1 YZ    0.043457   0.027420  -0.019735   0.049795   0.015672
   16  H  2  S    0.105516  -0.425270   0.507037   0.533489   0.020401
   17  H  2  S   -0.200614  -0.473114  -0.106249   0.763720  -0.143521
   18  H  2  X   -0.010639  -0.039176   0.079519   0.197147  -0.119394
   19  H  2  Y   -0.035704   0.043570   0.076391  -0.087165  -0.200523
   20  H  2  Z   -0.012842   0.064394  -0.056078   0.115568   0.190524
   21  H  3  S   -0.580754   0.114577   0.709796  -0.357669   0.124925
   22  H  3  S    2.006353   0.774954   0.571226  -0.128960  -0.117535
   23  H  3  X    0.035004  -0.015073   0.133235  -0.064549  -0.464328
   24  H  3  Y    0.079650   0.105716   0.013903  -0.064130   0.097366
   25  H  3  Z   -0.052339  -0.049742  -0.080326  -0.026240   0.011006
   26  H  4  S    0.516241  -0.289198   0.025894  -0.760272   0.033629
   27  H  4  S   -1.693131  -0.473887  -0.569392  -0.472248  -0.341250
   28  H  4  X    0.057969   0.054001  -0.020527   0.159031   0.337802
   29  H  4  Y   -0.014579   0.032162  -0.149183  -0.126091   0.261950
   30  H  4  Z    0.022265   0.076197  -0.010988  -0.083122  -0.168595

                     16         17         18         19         20
                    0.9812     1.0280     1.2472     1.4093     1.4613
                     A          A          A          A          A   
    1  N  1  S   -0.520154  -0.250386   0.017010  -0.400628  -0.313312
    2  N  1  S   -1.102387  -0.527466   0.034140  -0.844078  -0.644998
    3  N  1  S    2.194882   1.226623  -0.053794   1.450795   1.285371
    4  N  1  X    0.002174   0.060998  -0.241347   0.001540  -0.065273
    5  N  1  Y    0.080589   0.016517   0.112664   0.034199  -0.081583
    6  N  1  Z    0.149783   0.067313   0.015965  -0.038669  -0.005443
    7  N  1  X   -0.065243  -0.393478   0.848907  -0.075611  -0.120712
    8  N  1  Y   -0.391380  -0.186259  -0.617467   0.400422  -0.582387
    9  N  1  Z   -0.028045   0.380171   0.027383   0.598054   0.633177
   10  N  1 XX   -0.131748  -0.060001   0.075511   0.132553  -0.007023
   11  N  1 YY   -0.090689   0.169691  -0.074724   0.085130   0.025096
   12  N  1 ZZ    0.222438  -0.109690  -0.000787  -0.217682  -0.018073
   13  N  1 XY   -0.045829   0.096966   0.057105   0.035801  -0.080632
   14  N  1 XZ    0.024696   0.170753   0.081176  -0.008256   0.082682
   15  N  1 YZ    0.041900   0.161071   0.001260  -0.018228   0.084591
   16  H  2  S   -0.223017  -0.246573   0.499046  -0.516588  -0.242357
   17  H  2  S   -0.280999  -0.212735   0.237656  -0.221673   0.019090
   18  H  2  X    0.008593   0.227305  -0.428922  -0.392538   0.228527
   19  H  2  Y    0.019758   0.396465  -0.135845  -0.441550   0.296351
   20  H  2  Z    0.286296   0.024569  -0.383328  -0.122560  -0.673728
   21  H  3  S   -0.463875  -0.296392  -0.023889  -0.316127  -0.476396
   22  H  3  S   -0.319295  -0.244893  -0.031661  -0.081126  -0.354662
   23  H  3  X    0.168709  -0.098678   0.122155   0.206580  -0.102253
   24  H  3  Y    0.069987  -0.403530  -0.164514  -0.244638  -0.012227
   25  H  3  Z    0.326525  -0.456986   0.013084  -0.366689   0.474996
   26  H  4  S   -0.361637  -0.049388  -0.494463  -0.309161  -0.419107
   27  H  4  S   -0.257485  -0.053202  -0.162872  -0.060550   0.031871
   28  H  4  X   -0.076236   0.121487  -0.095615  -0.178945   0.018716
   29  H  4  Y   -0.092625   0.158797   0.569961  -0.400476   0.120280
   30  H  4  Z    0.359843   0.154595   0.387142  -0.326905  -0.498355

                     21         22         23         24         25
                    1.6313     1.8490     1.8965     1.9429     2.1272
                     A          A          A          A          A   
    1  N  1  S   -0.119573  -0.010310   0.091334  -0.167637  -0.068379
    2  N  1  S   -0.235241   0.037031   0.271693  -0.401282  -0.129027
    3  N  1  S    0.512603   0.864004   0.686630  -0.343041   0.344185
    4  N  1  X    0.131295  -0.119739   0.307373   0.357294  -0.035544
    5  N  1  Y    0.144824   0.300058  -0.413744   0.047902   0.105120
    6  N  1  Z   -0.022644   0.069078   0.221285  -0.200531  -0.000329
    7  N  1  X    0.759285  -0.244867   0.168094  -0.133495   0.014626
    8  N  1  Y   -0.421312   0.065709   0.041433  -0.206636   0.086516
    9  N  1  Z    0.228977   0.322883   0.265128  -0.095614   0.416993
   10  N  1 XX   -0.006910  -0.030623  -0.205754  -0.119802  -0.539880
   11  N  1 YY    0.108415   0.038946   0.046629   0.234111  -0.261210
   12  N  1 ZZ   -0.101505  -0.008323   0.159125  -0.114309   0.801090
   13  N  1 XY    0.040625   0.242989  -0.036304  -0.076571  -0.538300
   14  N  1 XZ   -0.136913   0.117285  -0.028534  -0.194692  -0.020266
   15  N  1 YZ   -0.038762  -0.031105   0.215305  -0.140311  -0.344034
   16  H  2  S    0.214146  -0.206857  -0.125289   0.089487  -0.166626
   17  H  2  S    0.048402  -0.512336   0.110075   0.203750  -0.139488
   18  H  2  X   -0.168991  -0.640310  -0.167661   0.478306  -0.237761
   19  H  2  Y    0.151577   0.641329  -0.302269  -0.385369   0.110389
   20  H  2  Z   -0.502105   0.160801  -0.349845  -0.169708  -0.131072
   21  H  3  S   -0.285145  -0.245801  -0.075707   0.009742  -0.108282
   22  H  3  S    0.186348   0.291165  -0.134599   0.293136   0.067073
   23  H  3  X   -0.488524   0.490787   0.052159   0.624825  -0.255529
   24  H  3  Y    0.550792   0.238179  -0.532000   0.511244  -0.135487
   25  H  3  Z   -0.232304   0.021455   0.278803  -0.259973  -0.602192
   26  H  4  S   -0.342879  -0.107898  -0.153018   0.039582  -0.113587
   27  H  4  S   -0.392084  -0.242255  -0.447364  -0.171516  -0.003834
   28  H  4  X    0.073959   0.538193   0.860988   0.439948   0.108599
   29  H  4  Y   -0.437369  -0.082244  -0.364649   0.511666   0.131190
   30  H  4  Z    0.502548  -0.358235   0.269743   0.040009  -0.301631

                     26         27         28         29
                    2.3075     2.5898     2.6428     3.0508
                     A          A          A          A   
    1  N  1  S    0.075942  -0.096636  -0.066390   0.020103
    2  N  1  S    0.130027  -0.037490  -0.094777  -0.035253
    3  N  1  S   -0.528574   2.297320   0.498697  -0.844400
    4  N  1  X   -0.060821  -0.252613   0.382737  -0.136724
    5  N  1  Y    0.050885  -0.162621  -0.324493  -0.420459
    6  N  1  Z   -0.032932   0.329596   0.060604  -0.052919
    7  N  1  X    0.262275  -0.561481   1.086929  -0.189406
    8  N  1  Y    0.145639  -0.545320  -0.941437  -0.643980
    9  N  1  Z   -0.315760   0.632042   0.174680  -0.010307
   10  N  1 XX   -0.687174  -0.011893   0.363016  -0.844027
   11  N  1 YY    0.894735   0.594737  -0.261759   0.351720
   12  N  1 ZZ   -0.207561  -0.582844  -0.101257   0.492306
   13  N  1 XY   -0.244784  -0.365593   0.096532   1.271584
   14  N  1 XZ    0.549071  -0.541360   0.937982  -0.273745
   15  N  1 YZ    0.182090  -0.736966  -0.846962  -0.537196
   16  H  2  S    0.135200  -0.829788   0.876560   1.000612
   17  H  2  S    0.007382  -0.216081   0.403648   0.288314
   18  H  2  X   -0.391935  -0.337833   0.570490   0.525841
   19  H  2  Y   -0.406031   0.514060  -0.421160  -0.594133
   20  H  2  Z    0.260129   0.326105   0.023696  -0.417052
   21  H  3  S    0.240939  -1.303294  -0.355473  -0.886462
   22  H  3  S    0.114101  -0.528295  -0.101355  -0.275758
   23  H  3  X   -0.361877  -0.300441  -0.225982  -0.268804
   24  H  3  Y    0.388063  -0.804266  -0.068520  -0.653140
   25  H  3  Z    0.220201   0.566407   0.102433   0.431809
   26  H  4  S    0.119748  -0.359598  -1.079455   0.812837
   27  H  4  S    0.051330   0.039362  -0.422890   0.239142
   28  H  4  X   -0.106865   0.176403   0.723149  -0.710568
   29  H  4  Y    0.178893   0.177036  -0.361644   0.241128
   30  H  4  Z   -0.119289   0.216913   0.201850  -0.426419
 .....DONE WITH MCSCF ITERATIONS.....
 CPU     0: STEP CPU TIME=     9.82 TOTAL CPU TIME=         10.9 (      0.2 MIN)
 TOTAL WALL CLOCK TIME=         11.0 SECONDS, CPU UTILIZATION IS    99.91%

     ----------------------------------------------------------------
     PROPERTY VALUES FOR THE MCSCF SELF-CONSISTENT FIELD WAVEFUNCTION
     ----------------------------------------------------------------

          -----------------
          ENERGY COMPONENTS
          -----------------

         WAVEFUNCTION NORMALIZATION =       1.0000000000

                ONE ELECTRON ENERGY =     -94.3030572458
                TWO ELECTRON ENERGY =      27.1572171689
           NUCLEAR REPULSION ENERGY =      11.4058819636
                                      ------------------
                       TOTAL ENERGY =     -55.7399581133

 ELECTRON-ELECTRON POTENTIAL ENERGY =      27.1572171689
  NUCLEUS-ELECTRON POTENTIAL ENERGY =    -150.1005909670
   NUCLEUS-NUCLEUS POTENTIAL ENERGY =      11.4058819636
                                      ------------------
             TOTAL POTENTIAL ENERGY =    -111.5374918346
               TOTAL KINETIC ENERGY =      55.7975337212
                 VIRIAL RATIO (V/T) =       1.9989681335

          ---------------------------------------
          MULLIKEN AND LOWDIN POPULATION ANALYSES
          ---------------------------------------

     ATOMIC MULLIKEN POPULATION IN EACH MOLECULAR ORBITAL

                      1          2          3          4          5

                  2.000000   1.982881   1.655820   1.649359   1.643470

    1             2.000828   1.332331   1.535104   0.906304   1.099663
    2            -0.000288   0.185736   0.068345   0.399830   0.011163
    3            -0.000315   0.275886   0.033095   0.085985   0.341358
    4            -0.000224   0.188928   0.019276   0.257239   0.191285

                      6          7          8

                  0.028799   0.020814   0.018858

    1             0.013218   0.011217   0.010142
    2             0.003104   0.000247   0.006946
    3             0.004466   0.006616   0.000155
    4             0.008010   0.002734   0.001615
 WARNING! MCSCF POPULATIONS SHOWN ABOVE ARE FOR THE NATURAL ORBITALS.
 IGNORE THE ABOVE DATA FOR MCSCF FUNCTIONS WHICH ARE NOT OF -FORS- TYPE.
 THE FOLLOWING POPULATIONS ARE CORRECT FOR ANY MCSCF WAVEFUNCTION.

               ----- POPULATIONS IN EACH AO -----
                             MULLIKEN      LOWDIN
              1  N  1  S      2.00249     1.89945
              2  N  1  S      0.82344     0.57681
              3  N  1  S      0.66338     0.40207
              4  N  1  X      0.68307     0.60952
              5  N  1  Y      0.69318     0.62307
              6  N  1  Z      0.87595     0.82107
              7  N  1  X      0.31316     0.41118
              8  N  1  Y      0.31319     0.41045
              9  N  1  Z      0.52315     0.56064
             10  N  1 XX      0.00057     0.17193
             11  N  1 YY      0.00171     0.16436
             12  N  1 ZZ      0.00400     0.14287
             13  N  1 XY      0.00515     0.01188
             14  N  1 XZ      0.00635     0.00927
             15  N  1 YZ      0.00000     0.01281
             16  H  2  S      0.58627     0.45605
             17  H  2  S      0.03199     0.14544
             18  H  2  X      0.02176     0.04129
             19  H  2  Y      0.02311     0.03992
             20  H  2  Z      0.01195     0.03220
             21  H  3  S      0.63656     0.49192
             22  H  3  S      0.05064     0.14446
             23  H  3  X      0.01390     0.03001
             24  H  3  Y      0.02735     0.04700
             25  H  3  Z      0.01879     0.04321
             26  H  4  S      0.57137     0.44337
             27  H  4  S      0.04220     0.14739
             28  H  4  X      0.03052     0.05145
             29  H  4  Y      0.01200     0.02722
             30  H  4  Z      0.01278     0.03168

          ----- MULLIKEN ATOMIC OVERLAP POPULATIONS -----
          (OFF-DIAGONAL ELEMENTS NEED TO BE MULTIPLIED BY 2)

             1           2           3           4

    1    6.0225407
    2    0.3071206   0.3794496
    3    0.2937079  -0.0054764   0.4678216
    4    0.2854388  -0.0060118  -0.0088071   0.3982441

          TOTAL MULLIKEN AND LOWDIN ATOMIC POPULATIONS
       ATOM         MULL.POP.    CHARGE          LOW.POP.     CHARGE
    1 N             6.908808    0.091192         6.827381    0.172619
    2 H             0.675082    0.324918         0.714900    0.285100
    3 H             0.747246    0.252754         0.756596    0.243404
    4 H             0.668864    0.331136         0.701123    0.298877

          MULLIKEN SPHERICAL HARMONIC POPULATIONS
       ATOM           S       P       D      F      G      H      I    TOTAL
    1 N             3.49    3.40    0.02   0.00   0.00   0.00   0.00    6.91
    2 H             0.62    0.06    0.00   0.00   0.00   0.00   0.00    0.68
    3 H             0.69    0.06    0.00   0.00   0.00   0.00   0.00    0.75
    4 H             0.61    0.06    0.00   0.00   0.00   0.00   0.00    0.67

          ---------------------
          ELECTROSTATIC MOMENTS
          ---------------------

 POINT   1           X           Y           Z (BOHR)    CHARGE
                -0.000001   -0.000003   -0.177185        1.00 (A.U.)
         DX          DY          DZ         /D/  (DEBYE)
    -0.104439   -0.563337    2.142635    2.217914
 ...... END OF PROPERTY EVALUATION ......
 CPU     0: STEP CPU TIME=     0.00 TOTAL CPU TIME=         10.9 (      0.2 MIN)
 TOTAL WALL CLOCK TIME=         11.0 SECONDS, CPU UTILIZATION IS    99.91%

     -------------------------------------------------
     GMC-PT/GMC-QDPT or general MCSCF input parameters
     -------------------------------------------------
 # of frozen core orbs. =         0 ->         0
 # of doubly occ. orbs. =         1
 # of active      orbs. =         7
 # of virtual     orbs. =        21
 # of active electrons  =         7
 # of states in CI      =         3
 Highest state in CI    =         3
 kstate =  1 1 1
 avecoe =  0.333 0.333 0.333
 State symmetry           = A           
 Assigned symmetry number = 1

 <<<Act. MO sym.: 1111111

 <<<Division of 1-ext.:  0
 <<<Division of 2-ext.:  0

     ------------------------
     Orbital canonicalization
     ------------------------

 MOs are canonicalized for core, virtual, and invariant-active orbital spaces.
 This is a part of the GMC-QDPT calculation.
 SCHWARZ INEQUALITY OVERHEAD:       465 INTEGRALS, T=        0.01
 DIRECT TRANSFORMATION SKIPS AO INTEGRAL STORAGE ON DISK.

 Averaged energy =     -55.739958113

 State #    1  Energy =     -55.879720427  S =  0.500
 State #    2  Energy =     -55.733383154  S =  0.500
 State #    3  Energy =     -55.606770759  S =  0.500

 Orbital energies for filled orbital space
  -15.984010
 Orbital energies for active orbital space
   -1.515886  -0.981702  -0.852719  -0.741983   0.364207
    0.410318   0.211368
 Orbital energies for external orbital space
    0.149343   0.202615   0.219944   0.536050   0.603808
    0.655084   0.783135   0.981167   1.028004   1.247195
    1.409339   1.461349   1.631266   1.849044   1.896545
    1.942901   2.127198   2.307494   2.589827   2.642766
    3.050802

 Zero values mean non-canonical orbitals.
 ... done with orbital canonicalization ...
 CPU     0: STEP CPU TIME=     0.63 TOTAL CPU TIME=         11.6 (      0.2 MIN)
 TOTAL WALL CLOCK TIME=         11.6 SECONDS, CPU UTILIZATION IS   100.00%

     --------------------------------------------
     PARTIAL TWO ELECTRON INTEGRAL TRANSFORMATION
     --------------------------------------------

 NUMBER OF CORE MOLECULAR ORBITALS     =    0
 NUMBER OF OCCUPIED MOLECULAR ORBITALS =    8
 TOTAL NUMBER OF MOLECULAR ORBITALS    =   29
 TOTAL NUMBER OF ATOMIC ORBITALS       =   30
 THRESHOLD FOR KEEPING TRANSFORMED 2E- INTEGRALS = 1.000E-09
 AO INTEGRALS WILL BE CALCULATED IN DIRECT MODE...
 DIRECT TRANSFORMATION SKIPS AO INTEGRAL STORAGE ON DISK.
 SCHWARZ INEQUALITY OVERHEAD:       465 INTEGRALS, T=        0.00

 PLAN A: REQUIREMENTS FOR FULLY IN-MEMORY TRANSFORMATION:
 # OF WORDS AVAILABLE =            100000000
 # OF WORDS NEEDED    =               221798

 PARALLEL ONLY WORKS WITH THE SEGMENTED ALGORITHM.
 ADJUSTING MEMORY TO USE SEGMENTED ALGORITHM.


 PLAN B: REQUIREMENTS FOR THE SEGMENTED TRANSFORMATION:
       MINIMUM=         124148 WORDS FOR 1 MOLECULAR ORBITAL PER PASS
       MAXIMUM=         221798 WORDS FOR ALL MOLECULAR ORBITALS IN 1 PASS
              (          13950 EXTRA WORDS INCLUDES 1 EXTRA ORBITAL/PASS)
 THIS RUN USES=         221798 WORDS,
 DISTRIBUTING   1 PASSES EACH CONTAINING     8 ORBITALS OVER   1 PROCESSORS.

 CHOOSING SEGMENTED PARTIAL TRANSFORMATION...
 DIRECT TRANSFORMATION SKIPS AO INTEGRAL STORAGE ON DISK.
 PASS #   1 TOOK        0.04 SECONDS.
 TOTAL NUMBER OF TRANSFORMED 2E- INTEGRALS KEPT =        29226
 ... END OF INTEGRAL TRANSFORMATION ...
 CPU     0: STEP CPU TIME=     0.04 TOTAL CPU TIME=         11.6 (      0.2 MIN)
 TOTAL WALL CLOCK TIME=         11.6 SECONDS, CPU UTILIZATION IS    99.91%

     --------     ------------------------------------------
     GMC-QDPT     Program written by H.Nakano (Kyushu Univ.)
     --------     ------------------------------------------

 *** Reference space

 Reference type: ORMAS (= Occupation restricted multiple active space)
 # of orbitals          =  7
 # of minimum electrons =  7
 # of maximum electrons =  7
 State symmetry    =    1 (input)
 2*Sz              =    1 (input)
 Spin multiplicity =    2 (input)
 Dimension of reference space =      1225  (from      3432 walks)

 Dimension of reference space =      1225  (from      1225 walks)

 <<<Ionized spaces for Ref-CI:
      0:         1225 /   -1-0:         1960 /  0-1-0:         2891

 ***                    ***
 *** Reference space CI ***
 ***                    ***

 Converged after   33 iterations

 Reference wavefunctions:

 State #    1  Energy =     -55.879720427  S =  0.500

      Det      Coef    Occupancy (Ignoring core)
      ---      ----    --------- --------- -----
        1    0.976161  11110001110000
       36    0.058825  11110001101000
      393    0.058424  10110101010010
      717    0.065709  11010011100001

 State #    2  Energy =     -55.733383154  S =  0.500

      Det      Coef    Occupancy (Ignoring core)
      ---      ----    --------- --------- -----
        1    0.062051  11110001110000
       36   -0.980660  11110001101000
      463   -0.059118  10110101001010

 State #    3  Energy =     -55.606770759  S =  0.500

      Det      Coef    Occupancy (Ignoring core)
      ---      ----    --------- --------- -----
       71    0.979264  11110001011000
      822   -0.066550  11010011001001

 Davidson method: CPU/Wall time =           0.44 /           0.44 sec.

 Oscillator strength (invalid if E(1)/=E(GS)):
 -----------------------------------------
   State                        f
 -----------------------------------------
     2     F(REF-CI)=        0.0016088148
     3     F(REF-CI)=        0.0023160496
 -----------------------------------------

 Dipole moment matrix elements, x, y, z, in A.U.

 Dimension of ionized spaces for PT:
 (N-2) space:         1715 /  (N-1) space:         2842 /  N space:         2891
 (N+1) space:         2842 /  (N+2) space:         1715

 <<<Ionized spaces for internal:
         0:         1225 /      -1-0:         1960 /     0-1-0:         2891
  -1-0-1-0:         2842 / 0-1-0-1-0:         3381

 Diagonal elements of averaged one-particle density matrix:
       2       3       4       5       6       7       8
  0.9937  0.9880  0.9862  0.9924  0.0117  0.0111  0.0169
  0.9891  0.6611  0.6577  0.6628  0.0093  0.0079  0.0119

 Orbital energies:
 -------- Doubly-occupied orbitals (highest several orbs.) -------
             1
 -1.598401D+01
 -------- Active orbitals ----------------------------------------
             2            3            4            5            6
 -1.515886D+00-9.817020D-01-8.527189D-01-7.419827D-01 3.642075D-01
             7            8
  4.103176D-01 2.113676D-01
 -------- External orbitals (lowest several orbs.) ---------------
             9           10           11           12           13
  1.493432D-01 2.026151D-01 2.199436D-01 5.360500D-01 6.038077D-01
            14           15           16           17           18
  6.550835D-01 7.831354D-01 9.811669D-01 1.028004D+00 1.247195D+00

 *** Quasi-degeneracy checking

 === Det (|Ci| > 1.0D-01 and dE < 5.0D-03)

 # of small denominators (single excitations)
 State       dEmin  dE < 5.0D-03  dE < 5.0D-04  dE < 5.0D-05  dE < 5.0D-06
 ----- ----------- ------------- ------------- ------------- -------------
     1    5.00D-03             0             0             0             0
     2    5.00D-03             0             0             0             0
     3    5.00D-03             0             0             0             0

 # of small denominators (double excitations)
 State       dEmin  dE < 5.0D-03  dE < 5.0D-04  dE < 5.0D-05  dE < 5.0D-06
 ----- ----------- ------------- ------------- ------------- -------------
     1    5.00D-03             0             0             0             0
     2    5.00D-03             0             0             0             0
     3    5.00D-03             0             0             0             0

 *** Zeroth-Order Setup (Granovsky's zeroth-order vectors)
 Zeroth-order effective Hamiltonian
  (= Sum_i e(i)*<I|a+(i)a(i)|J> ):
                   1            2            3
     1 -7.338397D+00
     2 -1.192411D-02-7.248665D+00
     3  1.577135D-03-2.875669D-03-7.112014D+00

 Zeroth-order vectors:
 State #    1
       MC st            1           2           3
       Coeff    9.916D-01   1.293D-01  -5.229D-03
 State #    2
       MC st            2           1           3
       Coeff   -9.914D-01   1.292D-01  -2.260D-02
 State #    3
       MC st            3           2           1
       Coeff    9.997D-01  -2.173D-02   8.107D-03

 *** GMC-QDPT computation

 (Integral reading:  CPU/Wall time =           0.00 /           0.00 sec.)

 One-external:
   0 -ionized terms: CPU/Wall time =           0.03 /           0.03 sec.
 (-1)-ionized terms: CPU/Wall time =           0.09 /           0.09 sec.
 (+1)-ionized terms: CPU/Wall time =           0.02 /           0.02 sec.
 (+1)-ionized terms: CPU/Wall time =           0.01 /           0.01 sec.
 (+2)-ionized terms: CPU/Wall time =           0.00 /           0.00 sec.

 Internal:
 # of macro loops for internal contribution =         1 (input)
 Loop:    1
 Dimension of internal CISD space     =         0  (after screening)
 Space construction: CPU/Wall time =           0.02 /           0.02 sec.
 Internal terms:     CPU/Wall time =           0.00 /           0.00 sec.

 Two-external:
   0 -ionized terms: CPU/Wall time =           0.06 /           0.06 sec.
 (-1)-ionized terms: CPU/Wall time =           1.00 /           1.00 sec.
 (-2)-ionized terms: CPU/Wall time =           0.16 /           0.17 sec.

 Total time:         CPU/Wall time =           1.39 /           1.40 sec.

 ***                  ***
 *** GMC-QDPT Results ***
 ***                  ***

 Diagonal elements of effective Hamiltonian:
 Heff(  1) =   -55.97573344
 Heff(  2) =   -55.84376698
 Heff(  3) =   -55.71789242

 Off-diagonal elements of effective Hamiltonian:
                   1            2
     2 -1.665780D-02
     3 -1.477829D-03-2.805195D-03

 ******** GMC-QDPT energies ********
 ----------------------------------------------------------------------------
   State                        1st order                           2nd order
 ----------------------------------------------------------------------------
     1     E(REF-CI)=      -55.8797204271   E(GMC-QDPT2)=      -55.9778162764
     2     E(REF-CI)=      -55.7333831537   E(GMC-QDPT2)=      -55.8417514181
     3     E(REF-CI)=      -55.6067707592   E(GMC-QDPT2)=      -55.7178251521
 ----------------------------------------------------------------------------

 Excitation energies (invalid if E(1)/=E(GS)):
 ----------------------------------------------------------------------------
   State                        1st order                           2nd order
 ----------------------------------------------------------------------------

     TZ Sorted GMC-PT ENERGIES:
         1      -55.9778162764
         2      -55.8417514181
         3      -55.7178251521
     2     E(REF-CI)=        3.9820421 eV   E(GMC-QDPT2)=        3.7025153 eV
     3     E(REF-CI)=        7.4273426 eV   E(GMC-QDPT2)=        7.0747225 eV
 ----------------------------------------------------------------------------

 Main characters of perturbed GMC-QDPT states:

 State #    1  Energy =     -55.977816276  S =  0.500

      Det      Coef    Occupancy (Ignoring core)
      ---      ----    --------- --------- -----
        1    0.976505  11110001110000
       36    0.053143  11110001101000
      393    0.058422  10110101010010
      717    0.065623  11010011100001

 State #    2  Energy =     -55.841751418  S =  0.500

      Det      Coef    Occupancy (Ignoring core)
      ---      ----    --------- --------- -----
        1    0.056379  11110001110000
       36   -0.980996  11110001101000
      463   -0.059133  10110101001010

 State #    3  Energy =     -55.717825152  S =  0.500

      Det      Coef    Occupancy (Ignoring core)
      ---      ----    --------- --------- -----
       71    0.979276  11110001011000
      822   -0.066555  11010011001001

 <<<Max |V/de| = 2.448D-02  Thresh = 1.000D+00

 Oscillator strength (invalid if E(1)/=E(GS)):
 ----------------------------------------------------------------------------
   State                        1st order                           2nd order
 ----------------------------------------------------------------------------
     2     F(REF-CI)=        0.0016088148     F(GMC-PT2)=        0.0015559944
     3     F(REF-CI)=        0.0023160496     F(GMC-PT2)=        0.0022652643
 ----------------------------------------------------------------------------

 Dipole moment matrix elements, x, y, z, in A.U.
States    1    1       -0.0383860157       -0.2518092826        0.7239618393
States    1    2        0.0054030424        0.0272255160       -0.1279964860
States    1    3       -0.0818973813        0.0666982949        0.0437428262
States    2    1        0.0054030424        0.0272255160       -0.1279964860
States    2    2       -0.1505501175       -0.1417660006        0.2895422397
States    2    3       -0.2241140431        0.0531258455        0.0019664718
States    3    1       -0.0818973813        0.0666982949        0.0437428262
States    3    2       -0.2241140431        0.0531258455        0.0019664718
States    3    3       -0.0019032387       -0.5121690295        0.2697479160

 Oscillator strength (valid only when positive): 
 ----------------------------------------------------------------------------
  States                        1st order                           2nd order
 ----------------------------------------------------------------------------
  1  1     F(REF-CI)=        0.0000000000     F(GMC-PT2)=        0.0000000000
  1  2     F(REF-CI)=       -0.0016088148     F(GMC-PT2)=       -0.0015559944
  1  3     F(REF-CI)=       -0.0023160496     F(GMC-PT2)=       -0.0022652643
  2  1     F(REF-CI)=        0.0016088148     F(GMC-PT2)=        0.0015559944
  2  2     F(REF-CI)=        0.0000000000     F(GMC-PT2)=        0.0000000000
  2  3     F(REF-CI)=       -0.0045066240     F(GMC-PT2)=       -0.0043831338
  3  1     F(REF-CI)=        0.0023160496     F(GMC-PT2)=        0.0022652643
  3  2     F(REF-CI)=        0.0045066240     F(GMC-PT2)=        0.0043831338
  3  3     F(REF-CI)=        0.0000000000     F(GMC-PT2)=        0.0000000000
 CPU     0: STEP CPU TIME=     1.90 TOTAL CPU TIME=         13.5 (      0.2 MIN)
 TOTAL WALL CLOCK TIME=         13.5 SECONDS, CPU UTILIZATION IS    99.93%

     !!! DIABATIZATION FOR REF CI STATES !!!

 *******************************************************
          $DMO GROUP FOUND IN THE INPUT.
        DIABATIZATION OF ADIABATIC STATES BEGINS.
     PROGRAMMED BY TAO ZENG (CARLETON UNIVERSITY).
               Email: toby.zeng@carleton.ca
     See T. Zeng, J. Chem. Phys. 2017, 146, 144103
 *******************************************************

 *************************************************************************
     STEP 1: TRANSFORMATION OF ADIABATIC STATES TO THE DMO REPRESENTATION
         See Atchity and Ruedenberg, J. Chem. Phys. 1999, 111, 2910
 *************************************************************************

Read in Diabatic Molecualr Orbitals:

                      1          2          3          4          5

    1  N  1  S    0.008609   0.000000   0.000000  -0.013219   0.279491
    2  N  1  S    0.442914  -0.000000   0.000000  -0.184329   0.867803
    3  N  1  S    0.276913   0.000000  -0.000000  -0.288315   0.144236
    4  N  1  X   -0.000000   0.493155  -0.024636  -0.000000  -0.000000
    5  N  1  Y    0.000000   0.024636   0.493155  -0.000000   0.000000
    6  N  1  Z    0.090197   0.000000   0.000000   0.593421   0.705309
    7  N  1  X   -0.000000   0.210628  -0.010522   0.000000   0.000000
    8  N  1  Y    0.000000   0.010522   0.210628  -0.000000  -0.000000
    9  N  1  Z   -0.004381   0.000000   0.000000   0.381592  -0.106092
   10  N  1 XX   -0.000457   0.010719  -0.000535  -0.012387   0.006153
   11  N  1 YY   -0.000457  -0.010719   0.000535  -0.012387   0.006153
   12  N  1 ZZ    0.000914  -0.000000   0.000000   0.024773  -0.012306
   13  N  1 XY    0.000000  -0.000618  -0.012377  -0.000000   0.000000
   14  N  1 XZ   -0.000000   0.026529  -0.001325  -0.000000   0.000000
   15  N  1 YZ    0.000000   0.001325   0.026529  -0.000000   0.000000
   16  H  2  S    0.194462  -0.176074   0.343485   0.112865  -0.523343
   17  H  2  S    0.003574  -0.023812   0.046452   0.024014  -0.054445
   18  H  2  X    0.018760   0.009101   0.022834   0.009336  -0.039151
   19  H  2  Y   -0.032493   0.022287  -0.020044  -0.016171   0.067811
   20  H  2  Z   -0.009251   0.008464  -0.016511   0.018769  -0.010566
   21  H  3  S    0.194462  -0.209430  -0.324227   0.112865  -0.523343
   22  H  3  S    0.003574  -0.028322  -0.043847   0.024014  -0.054445
   23  H  3  X    0.018760   0.006781  -0.023627   0.009336  -0.039151
   24  H  3  Y    0.032493  -0.024174  -0.017723   0.016171  -0.067811
   25  H  3  Z   -0.009251   0.010067   0.015585   0.018769  -0.010566
   26  H  4  S    0.194462   0.385503  -0.019258   0.112865  -0.523343
   27  H  4  S    0.003574   0.052134  -0.002604   0.024014  -0.054445
   28  H  4  X   -0.037519  -0.032295   0.001613  -0.018672   0.078302
   29  H  4  Y    0.000000   0.001067   0.021353  -0.000000   0.000000
   30  H  4  Z   -0.009251  -0.018530   0.000926   0.018769  -0.010566

                      6          7

    1  N  1  S    0.000000  -0.000000
    2  N  1  S    0.000000  -0.000000
    3  N  1  S   -0.000000   0.000000
    4  N  1  X   -0.930415  -0.002083
    5  N  1  Y   -0.002083   0.930415
    6  N  1  Z   -0.000000   0.000000
    7  N  1  X   -0.046866  -0.000105
    8  N  1  Y   -0.000105   0.046866
    9  N  1  Z   -0.000000   0.000000
   10  N  1 XX    0.001538   0.000003
   11  N  1 YY   -0.001538  -0.000003
   12  N  1 ZZ   -0.000000   0.000000
   13  N  1 XY   -0.000004   0.001776
   14  N  1 XZ    0.039985   0.000090
   15  N  1 YZ    0.000090  -0.039985
   16  H  2  S   -0.362630  -0.631354
   17  H  2  S   -0.065964  -0.114846
   18  H  2  X    0.002763  -0.037520
   19  H  2  Y    0.037435   0.040736
   20  H  2  Z    0.001882   0.003276
   21  H  3  S   -0.365454   0.629724
   22  H  3  S   -0.066477   0.114549
   23  H  3  X    0.002595   0.037532
   24  H  3  Y   -0.037617   0.040567
   25  H  3  Z    0.001896  -0.003268
   26  H  4  S    0.728084   0.001630
   27  H  4  S    0.132441   0.000297
   28  H  4  X   -0.062317  -0.000140
   29  H  4  Y    0.000055  -0.024345
   30  H  4  Z   -0.003778  -0.000008

NUMBER OF SUB ACTIVE SPACES:   1
ROTATE ACTIVE MOS TO DMOS IN EACH SUB-SPACE

SPACE  1:

OVERLAP BETWEEN ORTHONORMAL AND PRE-ORTHONORMAL REF. DMOS

             1           2           3           4           5

    1    0.9866751  -0.0117425  -0.0242978  -0.0045224   0.0022727
    2   -0.0117425   0.9781405  -0.0545147  -0.0107019   0.0101531
    3   -0.0242978  -0.0545147   0.9800155  -0.0328342   0.0575835
    4   -0.0045224  -0.0107019  -0.0328342   0.9970131  -0.0062897
    5    0.0022727   0.0101531   0.0575835  -0.0062897   1.0744577
    6   -0.0004630  -0.0061964  -0.0417227  -0.0040560  -0.0329087
    7   -0.0026657   0.0494006   0.0053770   0.0365159   0.0088838

             6           7

    1   -0.0004630  -0.0026657
    2   -0.0061964   0.0494006
    3   -0.0417227   0.0053770
    4   -0.0040560   0.0365159
    5   -0.0329087   0.0088838
    6    1.0257624  -0.0202560
    7   -0.0202560   1.0396567
REFERENCE DMOS AFTER ORTHONORMALIZATION:

                      1          2          3          4          5

    1  N  1  S    0.007647  -0.003491  -0.015418  -0.012039   0.261142
    2  N  1  S    0.445108  -0.007274  -0.041888  -0.179179   0.808703
    3  N  1  S    0.278769  -0.002249  -0.010572  -0.287801   0.132564
    4  N  1  X    0.004645   0.499110  -0.033799   0.001959  -0.030334
    5  N  1  Y    0.014900   0.008614   0.502071  -0.016098  -0.033432
    6  N  1  Z    0.092224   0.001416  -0.015286   0.600348   0.661462
    7  N  1  X    0.002529   0.215700  -0.000239   0.002529  -0.003292
    8  N  1  Y    0.005776   0.021008   0.217289   0.005794  -0.011891
    9  N  1  Z   -0.001946   0.006891   0.018932   0.383284  -0.097496
   10  N  1 XX   -0.000419   0.010741  -0.000631  -0.012285   0.005640
   11  N  1 YY   -0.000689  -0.011270  -0.000924  -0.012581   0.005759
   12  N  1 ZZ    0.001108   0.000530   0.001555   0.024866  -0.011399
   13  N  1 XY   -0.000332  -0.001458  -0.012806  -0.000504   0.000668
   14  N  1 XZ    0.000390   0.027499   0.001829   0.000540   0.000850
   15  N  1 YZ    0.000650   0.004915   0.027742   0.002388  -0.001185
   16  H  2  S    0.204799  -0.121462   0.371381   0.142705  -0.511620
   17  H  2  S    0.004560  -0.015474   0.048594   0.029026  -0.054074
   18  H  2  X    0.019890   0.013465   0.027431   0.011623  -0.037643
   19  H  2  Y   -0.033392   0.018485  -0.023247  -0.017805   0.065003
   20  H  2  Z   -0.009553   0.007859  -0.015478   0.018221  -0.008938
   21  H  3  S    0.188855  -0.257754  -0.328927   0.073386  -0.483524
   22  H  3  S    0.002502  -0.036815  -0.046592   0.017524  -0.050675
   23  H  3  X    0.018759   0.004609  -0.021195   0.007259  -0.035601
   24  H  3  Y    0.032506  -0.026687  -0.016445   0.013524  -0.063482
   25  H  3  Z   -0.008696   0.011737   0.017744   0.019598  -0.010657
   26  H  4  S    0.205669   0.411380   0.070016   0.120884  -0.472954
   27  H  4  S    0.004806   0.055498   0.009663   0.025257  -0.047640
   28  H  4  X   -0.038941  -0.035320  -0.008672  -0.019372   0.071830
   29  H  4  Y    0.000537   0.003568   0.022265   0.001639  -0.001007
   30  H  4  Z   -0.009476  -0.018753   0.000685   0.018519  -0.009690

                      6          7

    1  N  1  S    0.007658  -0.001394
    2  N  1  S    0.023720   0.001549
    3  N  1  S    0.002993   0.009910
    4  N  1  X   -0.907220  -0.043018
    5  N  1  Y    0.034957   0.893490
    6  N  1  Z    0.022509  -0.026051
    7  N  1  X   -0.044713  -0.011274
    8  N  1  Y    0.009357   0.043051
    9  N  1  Z   -0.001060  -0.013080
   10  N  1 XX    0.001669  -0.000089
   11  N  1 YY   -0.001452   0.000900
   12  N  1 ZZ   -0.000216  -0.000811
   13  N  1 XY   -0.000478   0.001845
   14  N  1 XZ    0.039242  -0.000491
   15  N  1 YZ    0.000449  -0.038901
   16  H  2  S   -0.366967  -0.610686
   17  H  2  S   -0.066250  -0.111818
   18  H  2  X    0.002010  -0.036866
   19  H  2  Y    0.038434   0.039157
   20  H  2  Z    0.001079   0.002291
   21  H  3  S   -0.374216   0.614400
   22  H  3  S   -0.066295   0.110702
   23  H  3  X    0.001304   0.036113
   24  H  3  Y   -0.038685   0.039770
   25  H  3  Z    0.002287  -0.004368
   26  H  4  S    0.700442  -0.004371
   27  H  4  S    0.128409  -0.000368
   28  H  4  X   -0.059100   0.000404
   29  H  4  Y    0.000486  -0.023739
   30  H  4  Z   -0.004006   0.000209

 -------------------------------------------
       MAXIMIZING MORMO OVERLAP TERM        
 -------------------------------------------
   SWEEP    VALUE       PROGRESS
     0     4.41910
     1     6.90812     2.48902295
     2     6.97527     0.06714200
     3     6.97529     0.00002448
     4     6.97529     0.00000000
     5     6.97529     0.00000000
 THE ROTATION IS DONE
ACTIVE ORBITALS AFTER MORMO:

                      1          2          3          4          5

    1  N  1  S    0.006825  -0.007153  -0.022015  -0.012220   0.231001
    2  N  1  S    0.432467  -0.020365  -0.050580  -0.186161   0.771128
    3  N  1  S    0.311047   0.029257   0.038660  -0.278947   0.171896
    4  N  1  X   -0.002749   0.481630  -0.048267  -0.007341  -0.022832
    5  N  1  Y    0.004354  -0.005382   0.482788  -0.030800  -0.015218
    6  N  1  Z    0.085628  -0.004996  -0.031943   0.599426   0.657729
    7  N  1  X    0.012338   0.229084   0.038619   0.012638  -0.012858
    8  N  1  Y    0.019152   0.058648   0.230949   0.043138  -0.043454
    9  N  1  Z    0.014512   0.019551   0.055062   0.383474  -0.091829
   10  N  1 XX   -0.000177   0.008435   0.006626  -0.009614  -0.003982
   11  N  1 YY   -0.000504  -0.008414  -0.007124  -0.013768   0.006081
   12  N  1 ZZ    0.000681  -0.000021   0.000498   0.023382  -0.002099
   13  N  1 XY   -0.003923  -0.010410  -0.019413  -0.001426   0.040133
   14  N  1 XZ    0.001195   0.022041   0.001463  -0.002071   0.010375
   15  N  1 YZ   -0.001173   0.004221   0.020826  -0.000607   0.038208
   16  H  2  S    0.188727  -0.155505   0.351721   0.122526  -0.496832
   17  H  2  S    0.002094  -0.007678   0.055183   0.031543  -0.060198
   18  H  2  X    0.024504  -0.002105   0.033674   0.010931  -0.042700
   19  H  2  Y   -0.026384   0.026051  -0.014462  -0.010955   0.048682
   20  H  2  Z   -0.004872   0.007603  -0.010082   0.020366  -0.013814
   21  H  3  S    0.188980  -0.231236  -0.323923   0.091435  -0.500291
   22  H  3  S    0.002634  -0.065502  -0.068665   0.019044  -0.059874
   23  H  3  X    0.012383   0.011233  -0.016743   0.009140  -0.035440
   24  H  3  Y    0.030725  -0.022303  -0.013799   0.017150  -0.055213
   25  H  3  Z   -0.013802   0.013640   0.023420   0.017752  -0.008532
   26  H  4  S    0.189689   0.384933   0.010740   0.111366  -0.458390
   27  H  4  S    0.004099   0.079068   0.028261   0.030655  -0.057539
   28  H  4  X   -0.031413  -0.032020   0.008824  -0.014881   0.060045
   29  H  4  Y    0.012379   0.020767   0.017708   0.005252  -0.011074
   30  H  4  Z   -0.006782  -0.015028   0.005950   0.019082  -0.017765

                      6          7

    1  N  1  S    0.009193   0.038041
    2  N  1  S    0.014764   0.089257
    3  N  1  S    0.014776  -0.107889
    4  N  1  X   -0.909769  -0.035832
    5  N  1  Y    0.029885   0.882317
    6  N  1  Z    0.038852  -0.062758
    7  N  1  X   -0.048565  -0.031412
    8  N  1  Y    0.026276   0.063118
    9  N  1  Z   -0.020549   0.012289
   10  N  1 XX   -0.011353  -0.040718
   11  N  1 YY    0.010408   0.032752
   12  N  1 ZZ    0.000944   0.007966
   13  N  1 XY   -0.039818   0.016940
   14  N  1 XZ    0.043227   0.018334
   15  N  1 YZ   -0.013586  -0.036473
   16  H  2  S   -0.374923  -0.588315
   17  H  2  S   -0.073506  -0.120552
   18  H  2  X   -0.018497  -0.041828
   19  H  2  Y    0.038814   0.033102
   20  H  2  Z   -0.017440  -0.002312
   21  H  3  S   -0.345030   0.605874
   22  H  3  S   -0.097440   0.139169
   23  H  3  X    0.022329   0.040627
   24  H  3  Y   -0.038302   0.024704
   25  H  3  Z    0.012129  -0.007554
   26  H  4  S    0.676573   0.034536
   27  H  4  S    0.162955  -0.003765
   28  H  4  X   -0.057148  -0.015540
   29  H  4  Y    0.021220  -0.024403
   30  H  4  Z    0.003208   0.019638

Actually Used Diabatic Molecualr Orbitals:

                      1          2          3          4          5

    1  N  1  S    0.006825  -0.007153  -0.022015  -0.012220   0.231001
    2  N  1  S    0.432467  -0.020365  -0.050580  -0.186161   0.771128
    3  N  1  S    0.311047   0.029257   0.038660  -0.278947   0.171896
    4  N  1  X   -0.002749   0.481630  -0.048267  -0.007341  -0.022832
    5  N  1  Y    0.004354  -0.005382   0.482788  -0.030800  -0.015218
    6  N  1  Z    0.085628  -0.004996  -0.031943   0.599426   0.657729
    7  N  1  X    0.012338   0.229084   0.038619   0.012638  -0.012858
    8  N  1  Y    0.019152   0.058648   0.230949   0.043138  -0.043454
    9  N  1  Z    0.014512   0.019551   0.055062   0.383474  -0.091829
   10  N  1 XX   -0.000177   0.008435   0.006626  -0.009614  -0.003982
   11  N  1 YY   -0.000504  -0.008414  -0.007124  -0.013768   0.006081
   12  N  1 ZZ    0.000681  -0.000021   0.000498   0.023382  -0.002099
   13  N  1 XY   -0.003923  -0.010410  -0.019413  -0.001426   0.040133
   14  N  1 XZ    0.001195   0.022041   0.001463  -0.002071   0.010375
   15  N  1 YZ   -0.001173   0.004221   0.020826  -0.000607   0.038208
   16  H  2  S    0.188727  -0.155505   0.351721   0.122526  -0.496832
   17  H  2  S    0.002094  -0.007678   0.055183   0.031543  -0.060198
[...]
       53    0.024553    0.024553  2-+200+
      249    0.024415   -0.024415  20+2200
      823    0.023523   -0.023523  20+2002
      285    0.021543   -0.021543  02+2200
      320    0.021222    0.021222  0+22200
       89    0.020959    0.020959  -+2200+
      876    0.020817    0.020817  ++2200-
      421   -0.020047   -0.020047  +22+0-0

 State #    3  Energy =     -55.788797738

      Det      Coef        Coefp    Occupancy (Ignoring core)
      ---      ----        ----    --------- --------- -----
       71    0.693361   -0.693361  2+22000
       36   -0.640137   -0.640137  22+2000
        1   -0.268389    0.268389  222+000
      822   -0.050466    0.050466  2+02002
      463    0.046016   -0.046016  20+2020
      122    0.043225    0.043225  +2-200+
      472   -0.029738   -0.029738  2+020-+
      823    0.028565   -0.028565  20+2002
       38   -0.027119    0.027119  2202+00
       88    0.027020   -0.027020  202200+
      107    0.026377   -0.026377  +22-+00
       16   -0.024499    0.024499  222000+
      320   -0.022511   -0.022511  0+22200
       54   -0.022406    0.022406  -2+200+
      285    0.021542   -0.021542  02+2200
      248   -0.021454    0.021454  2+02200
      157    0.021449   -0.021449  220+-0+
      108   -0.020886   -0.020886  +2-2+00
      460   -0.020830   -0.020830  -++2+-0
      841   -0.020818    0.020818  +2+200-
      809    0.020395   -0.020395  20+2+0-
      751   -0.020240    0.020240  2+20002
      111   -0.020032    0.020032  +22-0+0

 ---------------------------------------
    -DIABATIC STATES IN PROTOTYPES-     
 ---------------------------------------

     STATE:    1
 Group Ref#    Coefficients
     1    1    0.976166
     2    2   -0.002603
     3    3   -0.002108

WEIGHT OF LISTED PROTOTYPES:   95.29%

     STATE:    2
 Group Ref#    Coefficients
     1    1   -0.002603
     2    2    0.972632
     3    3    0.002703

WEIGHT OF LISTED PROTOTYPES:   94.60%

     STATE:    3
 Group Ref#    Coefficients
     1    1   -0.002108
     2    2    0.002703
     3    3    0.974944

WEIGHT OF LISTED PROTOTYPES:   95.05%

 --------------------------------------------------
 IN DIRECT MAX. DIABATIZATION FOR GMC-QDPT

 DIRECT MAXIMIZATION (DM) WITHOUT TRUNCATING ADIABATS
 EXPANSIONS INTO THE REFERENCE CONFIGURATION SPACE
 --------------------------------------------------

 -------------------------------------------
 - DM DIABT PT HAMILTONIAN MATRIX ELEMENTS -
 -------------------------------------------
                                            
 --- DIABATIC ENERGIES (DIAGONAL ELEMENT) ---       HARTREE            EV
 STATE #  1'S GMC-PT-LEVEL DIABATIC ENERGY=     -55.967515957       0.000000000
 STATE #  2'S GMC-PT-LEVEL DIABATIC ENERGY=     -55.781079477       5.073195030
 STATE #  3'S GMC-PT-LEVEL DIABATIC ENERGY=     -55.788797412       4.863179318

 --- DIABATIC COUPLINGS (OFF DIAGONAL ELEMENTS)---  HATREE            EV
 STATE #  1 &  2'S GMC-PT-LEVEL COUPLING  =       0.007954846       0.216462395
 STATE #  1 &  3'S GMC-PT-LEVEL COUPLING  =       0.038227532       1.040224133
 STATE #  2 &  3'S GMC-PT-LEVEL COUPLING  =      -0.065269392      -1.776070612

 ---------------------------------------
     - ROTATION TO DIABATIC STATES -    
 ---------------------------------------
 ROWS=ADIABATIC, COLUMNS=DIABATIC STATES

             1           2           3

    1   -0.9647682   0.1171633   0.2355738
    2    0.2492154   0.6939884   0.6754789
    3   -0.0843441   0.7103892  -0.6987369

 ---------------------------------------
          - DIABATIC STATES -           
 ---------------------------------------

 State #    1  Energy =     -55.967515957

      Det      Coef        Coefp    Occupancy (Ignoring core)
      ---      ----        ----    --------- --------- -----
        1    0.957333   -0.957333  222+000
        3    0.087552    0.087552  22-++00
      141   -0.084658   -0.084658  22++-00
      717   -0.073751   -0.073751  220+002
      393   -0.072393   -0.072393  202+020
       17    0.067587    0.067587  22-+00+
       18    0.066853   -0.066853  2-2+00+
        8   -0.064476    0.064476  2-2+0+0
      736   -0.062810    0.062810  2+2+00-
       16    0.061298   -0.061298  222000+
        7   -0.049868   -0.049868  22-+0+0
      351    0.048532    0.048532  22++0-0
      701   -0.039316   -0.039316  22++00-
      402    0.037809   -0.037809  2+-+0-+
      708    0.037675   -0.037675  2-++0+-
      215   -0.036110   -0.036110  022+200
      386    0.035012   -0.035012  2+2+0-0
      218    0.033970   -0.033970  +-2+-+0
      390    0.033861   -0.033861  -+2++-0
      705   -0.032968   -0.032968  -2+++0-
      227   -0.032856   -0.032856  +2-+-0+
       76    0.029463    0.029463  2+2-0+0
      212    0.029123    0.029123  +220200
       51   -0.028271    0.028271  22+-00+
      122    0.026252    0.026252  +2-200+
      179   -0.025733   -0.025733  202+200
        2    0.025515   -0.025515  2220+00
      113   -0.025371    0.025371  +-220+0
        4    0.025006   -0.025006  2-2++00
      773    0.024215   -0.024215  +2-++0-
      176   -0.023536    0.023536  2+2+-00
      387   -0.023200    0.023200  2+20+-0
      702    0.023106    0.023106  22+0+0-
      424   -0.022798   -0.022798  +-2++-0
      159    0.022609   -0.022609  -2++-0+
      184   -0.022282   -0.022282  -+2+-+0
     1051   -0.022002   -0.022002  2+++0--

 State #    2  Energy =     -55.781079477

      Det      Coef        Coefp    Occupancy (Ignoring core)
      ---      ----        ----    --------- --------- -----
       71   -0.959449    0.959449  2+22000
      246   -0.098016   -0.098016  2++2-00
       73    0.094932   -0.094932  2+-2+00
      822    0.074832   -0.074832  2+02002
      736   -0.074289    0.074289  2+2+00-
       86    0.071101    0.071101  2+2-00+
       77   -0.059850    0.059850  2+-20+0
      456    0.057162    0.057162  2++20-0
       88   -0.054255    0.054255  202200+
       36    0.046124    0.046124  22+2000
      813    0.042834   -0.042834  20+20+-
      806   -0.037889   -0.037889  2++200-
      111    0.037884   -0.037884  +22-0+0
      320    0.036226    0.036226  0+22200
      810   -0.034290   -0.034290  -++2+0-
      332   -0.033591    0.033591  ++-2-0+
      323   -0.033016    0.033016  +022-+0
      180   -0.030041    0.030041  -+2+200
      317    0.029977   -0.029977  ++2-200
       99   -0.029161    0.029161  20-20++
      177    0.029076   -0.029076  2+20200
      122    0.026955    0.026955  +2-200+
       87    0.026846   -0.026846  2+-200+
      183   -0.026243    0.026243  202+-+0
        6    0.026113   -0.026113  22200+0
      807   -0.025734    0.025734  2++-+0-
      192   -0.025352    0.025352  2+-+-0+
      391    0.024605   -0.024605  2+20020
      878    0.024250    0.024250  ++-2+0-
      264    0.023707   -0.023707  -++2-0+
      106   -0.022150   -0.022150  +222000
      113    0.021774   -0.021774  +-220+0
       90    0.021732    0.021732  2+--+0+
       38   -0.021703    0.021703  2202+00

 State #    3  Energy =     -55.788797412

      Det      Coef        Coefp    Occupancy (Ignoring core)
      ---      ----        ----    --------- --------- -----
       36   -0.959174   -0.959174  22+2000
       38   -0.085316    0.085316  2202+00
       53   -0.076381   -0.076381  2-+200+
      463    0.072738   -0.072738  20+2020
       51    0.071693   -0.071693  22+-00+
      701   -0.070491   -0.070491  22++00-
      806    0.068740    0.068740  2++200-
      106   -0.060990   -0.060990  +222000
       39   -0.054505   -0.054505  2-+2+00
       71   -0.046107    0.046107  2+22000
       42    0.043793   -0.043793  22020+0
      472   -0.042112   -0.042112  2+020-+
       41   -0.039871    0.039871  22+-0+0
      285    0.035767   -0.035767  02+2200
      288   -0.035311   -0.035311  +-+2-+0
      460   -0.035044   -0.035044  -++2+-0
      123    0.034030   -0.034030  +-2200+
      297    0.033473   -0.033473  +202-0+
      121   -0.033304    0.033304  +22-00+
       73    0.033152   -0.033152  2+-2+00
      145   -0.030478   -0.030478  -2++200
      282    0.030390    0.030390  +2+-200
      351    0.029931    0.029931  22++0-0
       64    0.029158   -0.029158  2-020++
      142    0.028838    0.028838  22+0200
      249    0.027867   -0.027867  20+2200
      157    0.026215   -0.026215  220+-0+
       86    0.026104    0.026104  2+2-00+
       43    0.025574    0.025574  2-+20+0
      456   -0.025402   -0.025402  2++20-0
      457   -0.025313    0.025313  2++-+-0
       16   -0.025265    0.025265  222000+
      148   -0.024773   -0.024773  2-++-+0
      112   -0.023532   -0.023532  +2-20+0
      494    0.023457   -0.023457  +-+2+-0
       55   -0.022216   -0.022216  220-+0+
      254    0.022196   -0.022196  -++2-+0
      246    0.021352    0.021352  2++2-00
      876   -0.020684   -0.020684  ++2200-
      716    0.020595    0.020595  22+0002
      843   -0.020348   -0.020348  +202+0-
      859    0.020063   -0.020063  02+2002

 ---------------------------------------
      - DIABATIC STATES IN CMO -        
 ---------------------------------------

 State #    1  Energy =     -55.967515957

      Det      Coef        Coefp    Occupancy (Ignoring core)
      ---      ----        ----    --------- --------- -----
        1    0.928019   -0.928019  222+000
       36   -0.294544   -0.294544  22+2000
       71    0.086768   -0.086768  2+22000
      717   -0.067053   -0.067053  220+002
      393   -0.056962   -0.056962  202+020
      143   -0.038871   -0.038871  220+200
        8   -0.038444    0.038444  2-2+0+0
      708    0.034240   -0.034240  2-++0+-
      753   -0.033134   -0.033134  202+002
      215   -0.029803   -0.029803  022+200
        3   -0.029596   -0.029596  22-++00
      106   -0.029455   -0.029455  +222000
      703    0.029298    0.029298  220++0-
       17    0.028122    0.028122  22-+00+
       16    0.027098   -0.027098  222000+
      402    0.026399   -0.026399  2+-+0-+
      716    0.026266    0.026266  22+0002
      719   -0.024548   -0.024548  -2++002
      122    0.024228    0.024228  +2-200+
      157   -0.023468    0.023468  220+-0+
      705   -0.023204   -0.023204  -2+++0-
      704   -0.023053    0.023053  2-+++0-
      213   -0.022606    0.022606  +2-+200
       76    0.022560    0.022560  2+2-0+0
       51   -0.021578    0.021578  22+-00+
      787    0.021408   -0.021408  +2-+002
      401    0.021093    0.021093  2+200-+
      113   -0.020746    0.020746  +-220+0
      368   -0.020569   -0.020569  2-++0-+
      741   -0.020266    0.020266  2+200+-

 State #    2  Energy =     -55.781079477

      Det      Coef        Coefp    Occupancy (Ignoring core)
      ---      ----        ----    --------- --------- -----
       71   -0.686215    0.686215  2+22000
       36   -0.684729   -0.684729  22+2000
        1   -0.153265    0.153265  222+000
      822    0.043145   -0.043145  2+02002
      248    0.042314   -0.042314  2+02200
      123   -0.041776    0.041776  +-2200+
      262    0.039068    0.039068  2+02-0+
      111    0.035430   -0.035430  +22-0+0
      463    0.033582   -0.033582  20+2020
      808   -0.026959    0.026959  2+02+0-
      250    0.026599    0.026599  -++2200
      813    0.025952   -0.025952  20+20+-
       18    0.025652   -0.025652  2-2+00+
       86   -0.025183   -0.025183  2+2-00+
       41    0.025154   -0.025154  22+-0+0
       53    0.024553    0.024553  2-+200+
      249    0.024415   -0.024415  20+2200
      823    0.023523   -0.023523  20+2002
      285    0.021543   -0.021543  02+2200
      320    0.021222    0.021222  0+22200
       89    0.020959    0.020959  -+2200+
      876    0.020817    0.020817  ++2200-
      421   -0.020047   -0.020047  +22+0-0

 State #    3  Energy =     -55.788797412

      Det      Coef        Coefp    Occupancy (Ignoring core)
      ---      ----        ----    --------- --------- -----
       71    0.693363   -0.693363  2+22000
       36   -0.640135   -0.640135  22+2000
        1   -0.268389    0.268389  222+000
      822   -0.050466    0.050466  2+02002
      463    0.046016   -0.046016  20+2020
      122    0.043225    0.043225  +2-200+
      472   -0.029738   -0.029738  2+020-+
      823    0.028565   -0.028565  20+2002
       38   -0.027119    0.027119  2202+00
       88    0.027020   -0.027020  202200+
      107    0.026377   -0.026377  +22-+00
       16   -0.024499    0.024499  222000+
      320   -0.022511   -0.022511  0+22200
       54   -0.022406    0.022406  -2+200+
      285    0.021542   -0.021542  02+2200
      248   -0.021454    0.021454  2+02200
      157    0.021449   -0.021449  220+-0+
      108   -0.020886   -0.020886  +2-2+00
      460   -0.020830   -0.020830  -++2+-0
      841   -0.020818    0.020818  +2+200-
      809    0.020395   -0.020395  20+2+0-
      751   -0.020240    0.020240  2+20002
      111   -0.020032    0.020032  +22-0+0

 ---------------------------------------
    -DIABATIC STATES IN PROTOTYPES-     
 ---------------------------------------

     STATE:    1
 Group Ref#    Coefficients
     1    1    0.976166
     2    2   -0.002598
     3    3   -0.002107

WEIGHT OF LISTED PROTOTYPES:   95.29%

     STATE:    2
 Group Ref#    Coefficients
     1    1   -0.002608
     2    2    0.972632
     3    3    0.002706

WEIGHT OF LISTED PROTOTYPES:   94.60%

     STATE:    3
 Group Ref#    Coefficients
     1    1   -0.002109
     2    2    0.002699
     3    3    0.974944

WEIGHT OF LISTED PROTOTYPES:   95.05%

     DIRECT MAX. DIABATIZATION FINISHED    
 CPU     0: STEP CPU TIME=     0.25 TOTAL CPU TIME=         13.8 (      0.2 MIN)
 TOTAL WALL CLOCK TIME=         13.8 SECONDS, CPU UTILIZATION IS    99.93%

DIABATS FOR SPIN-ORBIT CALCULATION ARE READY

TRANSITION DIPOLES BETWEEN ADIABATS (in A.U.):

STATE PAIR      X         Y         Z
    1    1 -0.038386 -0.251809  0.723962
    2    1  0.005403  0.027226 -0.127996
    2    2 -0.150550 -0.141766  0.289542
    3    1 -0.081897  0.066698  0.043743
    3    2 -0.224114  0.053126  0.001966
    3    3 -0.001903 -0.512169  0.269748


TRANSITION DIPOLES BETWEEN DIABATS (in A.U.):

STATE PAIR      X         Y         Z
    1    1 -0.051598 -0.251297  0.762335
    2    1  0.005336 -0.022877  0.003866
    2    2 -0.307726 -0.262291  0.273922
    3    1 -0.021722  0.018395  0.004164
    3    2 -0.075246  0.192860 -0.005510
    3    3  0.168485 -0.392157  0.246994

TRANSITION DIPOLES BETWEEN DIRECT MAX. DIABATS (in A.U.):

STATE PAIR      X         Y         Z
    1    1 -0.051598 -0.251297  0.762335
    2    1  0.005335 -0.022877  0.003863
    2    2 -0.307727 -0.262289  0.273922
    3    1 -0.021722  0.018396  0.004164
    3    2 -0.075244  0.192860 -0.005510
    3    3  0.168485 -0.392158  0.246994
 No $TRANST Group Found.
 Quit without doing spin-orbit coupling
 ..... DONE WITH MP2 ENERGY .....
 CPU     0: STEP CPU TIME=     0.00 TOTAL CPU TIME=         13.8 (      0.2 MIN)
 TOTAL WALL CLOCK TIME=         13.8 SECONDS, CPU UTILIZATION IS    99.93%
            100000000  WORDS OF DYNAMIC MEMORY USED
 EXECUTION OF GAMESS TERMINATED NORMALLY Wed Nov 16 18:44:55 2022
 DDI: 715512 bytes (0.7 MB / 0 MWords) used by master data server.

 ----------------------------------------
 CPU timing information for all processes
 ========================================
 0: 13.436 + 0.336 = 13.772
 ----------------------------------------
Note: The following floating-point exceptions are signalling: IEEE_DENORMAL
 ddikick.x: exited gracefully.
unset echo
----- accounting info -----
Files used on the master node io002 were:
-rw-r--r-- 1 bsonghao nooijen   20707 Nov 16 18:44 /scratch/bsonghao/nh3_diabatization_2d_at_mode_7_8_dist-0.5_-0.1.F05
-rw-r--r-- 1 bsonghao nooijen  363520 Nov 16 18:44 /scratch/bsonghao/nh3_diabatization_2d_at_mode_7_8_dist-0.5_-0.1.F09
-rw-r--r-- 1 bsonghao nooijen 1995920 Nov 16 18:44 /scratch/bsonghao/nh3_diabatization_2d_at_mode_7_8_dist-0.5_-0.1.F10
-rw-r--r-- 1 bsonghao nooijen  131264 Nov 16 18:44 /scratch/bsonghao/nh3_diabatization_2d_at_mode_7_8_dist-0.5_-0.1.F13
-rw-r--r-- 1 bsonghao nooijen  180312 Nov 16 18:44 /scratch/bsonghao/nh3_diabatization_2d_at_mode_7_8_dist-0.5_-0.1.F15
-rw-r--r-- 1 bsonghao nooijen       0 Nov 16 18:44 /scratch/bsonghao/nh3_diabatization_2d_at_mode_7_8_dist-0.5_-0.1.F16
-rw-r--r-- 1 bsonghao nooijen    9808 Nov 16 18:44 /scratch/bsonghao/nh3_diabatization_2d_at_mode_7_8_dist-0.5_-0.1.F70
-rw-r--r-- 1 bsonghao nooijen    9808 Nov 16 18:44 /scratch/bsonghao/nh3_diabatization_2d_at_mode_7_8_dist-0.5_-0.1.F71
-rw-r--r-- 1 bsonghao nooijen   19608 Nov 16 18:44 /scratch/bsonghao/nh3_diabatization_2d_at_mode_7_8_dist-0.5_-0.1.F72
-rw-r--r-- 1 bsonghao nooijen   19608 Nov 16 18:44 /scratch/bsonghao/nh3_diabatization_2d_at_mode_7_8_dist-0.5_-0.1.F73
-rw-r--r-- 1 bsonghao nooijen 1920824 Nov 16 18:44 /scratch/bsonghao/nh3_diabatization_2d_at_mode_7_8_dist-0.5_-0.1.F74
-rw-r--r-- 1 bsonghao nooijen       0 Nov 16 18:44 /scratch/bsonghao/nh3_diabatization_2d_at_mode_7_8_dist-0.5_-0.1.F75
-rw-r--r-- 1 bsonghao nooijen   58848 Nov 16 18:44 /scratch/bsonghao/nh3_diabatization_2d_at_mode_7_8_dist-0.5_-0.1.F76
-rw-r--r-- 1 bsonghao nooijen       0 Nov 16 18:44 /scratch/bsonghao/nh3_diabatization_2d_at_mode_7_8_dist-0.5_-0.1.F77
-rw-r--r-- 1 bsonghao nooijen    1864 Nov 16 18:44 /scratch/bsonghao/nh3_diabatization_2d_at_mode_7_8_dist-0.5_-0.1.F78
-rw-r--r-- 1 bsonghao nooijen   39208 Nov 16 18:44 /scratch/bsonghao/nh3_diabatization_2d_at_mode_7_8_dist-0.5_-0.1.F79
-rw-r--r-- 1 bsonghao nooijen     104 Nov 16 18:44 /scratch/bsonghao/nh3_diabatization_2d_at_mode_7_8_dist-0.5_-0.1.F80
-rw-r--r-- 1 bsonghao nooijen   13472 Nov 16 18:44 /scratch/bsonghao/nh3_diabatization_2d_at_mode_7_8_dist-0.5_-0.1.F81
-rw-r--r-- 1 bsonghao nooijen      16 Nov 16 18:44 /scratch/bsonghao/nh3_diabatization_2d_at_mode_7_8_dist-0.5_-0.1.F82
-rw-r--r-- 1 bsonghao nooijen   19216 Nov 16 18:44 /scratch/bsonghao/nh3_diabatization_2d_at_mode_7_8_dist-0.5_-0.1.F83
-rw-r--r-- 1 bsonghao nooijen   29712 Nov 16 18:44 /scratch/bsonghao/nh3_diabatization_2d_at_mode_7_8_dist-0.5_-0.1.F84
-rw-r--r-- 1 bsonghao nooijen  401576 Nov 16 18:44 /scratch/bsonghao/nh3_diabatization_2d_at_mode_7_8_dist-0.5_-0.1.F85
-rw-r--r-- 1 bsonghao nooijen  903672 Nov 16 18:44 /scratch/bsonghao/nh3_diabatization_2d_at_mode_7_8_dist-0.5_-0.1.F86
-rw-r--r-- 1 bsonghao nooijen     656 Nov 16 18:44 /scratch/bsonghao/nh3_diabatization_2d_at_mode_7_8_dist-0.5_-0.1.F87
-rw-r--r-- 1 bsonghao nooijen   34768 Nov 16 18:44 /scratch/bsonghao/nh3_diabatization_2d_at_mode_7_8_dist-0.5_-0.1.F88
-rw-r--r-- 1 bsonghao nooijen     240 Nov 16 18:44 /scratch/bsonghao/nh3_diabatization_2d_at_mode_7_8_dist-0.5_-0.1.F89
-rw-r--r-- 1 bsonghao nooijen       0 Nov 16 18:44 /scratch/bsonghao/nh3_diabatization_2d_at_mode_7_8_dist-0.5_-0.1.F90
-rw-r--r-- 1 bsonghao nooijen   13760 Nov 16 18:44 /scratch/bsonghao/nh3_diabatization_2d_at_mode_7_8_dist-0.5_-0.1.F91
-rw-r--r-- 1 bsonghao nooijen   22776 Nov 16 18:44 /scratch/bsonghao/nh3_diabatization_2d_at_mode_7_8_dist-0.5_-0.1.F92
-rw-r--r-- 1 bsonghao nooijen   23168 Nov 16 18:44 /scratch/bsonghao/nh3_diabatization_2d_at_mode_7_8_dist-0.5_-0.1.F93
-rw-r--r-- 1 bsonghao nooijen   22776 Nov 16 18:44 /scratch/bsonghao/nh3_diabatization_2d_at_mode_7_8_dist-0.5_-0.1.F94
-rw-r--r-- 1 bsonghao nooijen   13760 Nov 16 18:44 /scratch/bsonghao/nh3_diabatization_2d_at_mode_7_8_dist-0.5_-0.1.F95
-rw-r--r-- 1 bsonghao nooijen   29440 Nov 16 18:44 /scratch/bsonghao/nh3_diabatization_2d_at_mode_7_8_dist-0.5_-0.1.F96
-rw-r--r-- 1 bsonghao nooijen    1184 Nov 16 18:44 /scratch/bsonghao/nh3_diabatization_2d_at_mode_7_8_dist-0.5_-0.1.F97
-rw-r--r-- 1 bsonghao nooijen    9808 Nov 16 18:44 /scratch/bsonghao/nh3_diabatization_2d_at_mode_7_8_dist-0.5_-0.1.F98
-rw-r--r-- 1 bsonghao nooijen   30264 Nov 16 18:44 /scratch/bsonghao/nh3_diabatization_2d_at_mode_7_8_dist-0.5_-0.1.F99
ls: No match.
ls: No match.
ls: No match.
Wed 16 Nov 2022 06:44:58 PM EST
0.286u 0.045s 0:17.14 1.8%	0+0k 48+224io 0pf+0w
