----- GAMESS execution script 'rungms' -----
This job is running on host io002
under operating system Linux at Wed 16 Nov 2022 07:37:38 PM EST
Available scratch disk space (Kbyte units) at beginning of the job is
Filesystem       1K-blocks       Used   Available Use% Mounted on
/dev/sdc1      15378471580 3278917120 11318349060  23% /scratch
GAMESS temporary binary files will be written to /scratch/bsonghao
GAMESS supplementary output files will be written to /home/bsonghao/.gamess_ascii_files/267638
Copying input file nh3_diabatization_2d_at_mode_7_8_dist0.2_-0.1.inp to your run's scratch directory...
cp nh3_diabatization_2d_at_mode_7_8_dist0.2_-0.1.inp /scratch/bsonghao/nh3_diabatization_2d_at_mode_7_8_dist0.2_-0.1.F05
unset echo
/home/bjb2chen/gamess/ddikick.x /home/bjb2chen/gamess/gamess.00.x nh3_diabatization_2d_at_mode_7_8_dist0.2_-0.1 -ddi 1 1 io002 -scr /scratch/bsonghao

 Distributed Data Interface kickoff program.
 Initiating 1 compute processes on 1 nodes to run the following command:
 /home/bjb2chen/gamess/gamess.00.x nh3_diabatization_2d_at_mode_7_8_dist0.2_-0.1 

          ******************************************************
          *         GAMESS VERSION = 02 AUG 2018 (R2)         *
          *             FROM IOWA STATE UNIVERSITY             *
          * M.W.SCHMIDT, K.K.BALDRIDGE, J.A.BOATZ, S.T.ELBERT, *
          *   M.S.GORDON, J.H.JENSEN, S.KOSEKI, N.MATSUNAGA,   *
          *          K.A.NGUYEN, S.J.SU, T.L.WINDUS,           *
          *       TOGETHER WITH M.DUPUIS, J.A.MONTGOMERY       *
          *         J.COMPUT.CHEM.  14, 1347-1363(1993)        *
          **************** 64 BIT LINUX VERSION ****************

  SINCE 1993, STUDENTS AND POSTDOCS WORKING AT IOWA STATE UNIVERSITY
  AND ALSO IN THEIR VARIOUS JOBS AFTER LEAVING ISU HAVE MADE IMPORTANT
  CONTRIBUTIONS TO THE CODE:
     IVANA ADAMOVIC, CHRISTINE AIKENS, YURI ALEXEEV, POOJA ARORA,
     ANDREY ASADCHEV, ROB BELL, PRADIPTA BANDYOPADHYAY, JONATHAN BENTZ,
     BRETT BODE, KURT BRORSEN, CALEB CARLIN, GALINA CHABAN, WEI CHEN,
     CHEOL HO CHOI, PAUL DAY, ALBERT DEFUSCO, NUWAN DESILVA, TIM DUDLEY,
     DMITRI FEDOROV, ALEX FINDLATER, GRAHAM FLETCHER, MARK FREITAG,
     KURT GLAESEMANN, ANASTASIA GUININA,
     DAN KEMP, GRANT MERRILL, NORIYUKI MINEZAWA, JONATHAN MULLIN,
     TAKESHI NAGATA, SEAN NEDD, HEATHER NETZLOFF, BOSILJKA NJEGIC, RYAN OLSON,
     MIKE PAK, BUU PHAM,
     SPENCER PRUITT, LUKE ROSKOP, JIM SHOEMAKER, LYUDMILA SLIPCHENKO,
     TONY SMITH, SAROM SOK LEANG, JIE SONG, TETSUYA TAKETSUGU, SIMON WEBB,
     PENG XU, SOOHAENG YOO, FEDERICO ZAHARIEV

  ADDITIONAL CODE HAS BEEN PROVIDED BY COLLABORATORS IN OTHER GROUPS:
     IOWA STATE UNIVERSITY:
          JOE IVANIC, AARON WEST, LAIMUTIS BYTAUTAS, KLAUS RUEDENBERG
     UNIVERSITY OF TOKYO: KIMIHIKO HIRAO, TAKAHITO NAKAJIMA,
          TAKAO TSUNEDA, MUNEAKI KAMIYA, SUSUMU YANAGISAWA,
          KIYOSHI YAGI, MAHITO CHIBA, SEIKEN TOKURA, NAOAKI KAWAKAMI
     UNIVERSITY OF AARHUS: FRANK JENSEN
     UNIVERSITY OF IOWA: VISVALDAS KAIRYS, HUI LI
     NATIONAL INST. OF STANDARDS AND TECHNOLOGY: WALT STEVENS, DAVID GARMER
     UNIVERSITY OF PISA: BENEDETTA MENNUCCI, JACOPO TOMASI
     UNIVERSITY OF MEMPHIS: HENRY KURTZ, PRAKASHAN KORAMBATH
     UNIVERSITY OF ALBERTA: TOBY ZENG, MARIUSZ KLOBUKOWSKI
     UNIVERSITY OF NEW ENGLAND: MARK SPACKMAN
     MIE UNIVERSITY: HIROAKI UMEDA
     NAT. INST. OF ADVANCED INDUSTRIAL SCIENCE AND TECHNOLOGY: KAZUO KITAURA
     MICHIGAN STATE UNIVERSITY:
          KAROL KOWALSKI, MARTA WLOCH, JEFFREY GOUR, JESSE LUTZ,
          WEI LI, JUN SHEN, J. EMILIANO DEUSTUA, PIOTR PIECUCH
     UNIVERSITY OF MINNESOTA:
          YINAN SHU
     UNIVERSITY OF SILESIA: MONIKA MUSIAL, STANISLAW KUCHARSKI
     FACULTES UNIVERSITAIRES NOTRE-DAME DE LA PAIX:
          OLIVIER QUINET, BENOIT CHAMPAGNE
     UNIVERSITY OF CALIFORNIA - SANTA BARBARA: BERNARD KIRTMAN
     INSTITUTE FOR MOLECULAR SCIENCE:
          KAZUYA ISHIMURA, MICHIO KATOUDA, AND SHIGERU NAGASE
     UNIVERSITY OF NOTRE DAME: ANNA POMOGAEVA, DAN CHIPMAN
     KYUSHU UNIVERSITY:
          HARUYUKI NAKANO,
          FENG LONG GU, JACEK KORCHOWIEC, MARCIN MAKOWSKI, AND YURIKO AOKI,
          HIROTOSHI MORI AND EISAKU MIYOSHI
     PENNSYLVANIA STATE UNIVERSITY:
          TZVETELIN IORDANOV, CHET SWALINA, JONATHAN SKONE,
          SHARON HAMMES-SCHIFFER
     WASEDA UNIVERSITY:
          MASATO KOBAYASHI, TOMOKO AKAMA, TSUGUKI TOUMA,
          TAKESHI YOSHIKAWA, YASUHIRO IKABATA, JUNJI SEINO,
          YUYA NAKAJIMA, HIROMI NAKAI
     NANJING UNIVERSITY: SHUHUA LI
     UNIVERSITY OF NEBRASKA:
          PEIFENG SU, DEJUN SI, NANDUN THELLAMUREGE, YALI WANG, HUI LI
     UNIVERSITY OF ZURICH: ROBERTO PEVERATI, KIM BALDRIDGE
     N. COPERNICUS UNIVERSITY AND JACKSON STATE UNIVERSITY:
          MARIA BARYSZ
     UNIVERSITY OF COPENHAGEN: Jimmy Kromann, CASPER STEINMANN
     TOKYO INSTITUTE OF TECHNOLOGY: HIROYA NAKATA
     NAGOYA UNIVERSITY: YOSHIO NISHIMOTO, STEPHAN IRLE
     MOSCOW STATE UNIVERSITY: VLADIMIR MIRONOV

 EXECUTION OF GAMESS BEGUN Wed Nov 16 19:37:38 2022

            ECHO OF THE FIRST FEW INPUT CARDS -
 INPUT CARD> $system kdiag=3 mwords=100 memddi=1000 parall=.t. $end                         
 INPUT CARD> $contrl runtyp=energy ispher=1 $end                                            
 INPUT CARD> $contrl icut=9 itol=20 inttyp=rysquad qmttol=1.0d-05 nosym=1 $end              
 INPUT CARD> $scf    npunch=2 conv=1.0d-06 dirscf=.t.      $end                             
 INPUT CARD> $contrl scftyp=mcscf  mult=2 maxit=200 icharg=1 mplevl=2 $end                  
 INPUT CARD> $guess  guess=moread norb=29 purify=.t. $end                                   
 INPUT CARD> $basis  gbasis=ccd $end                                                        
 INPUT CARD> $mcscf  cistep=gmcci fullnr=.t. finci=mos                                      
 INPUT CARD>         acurcy=1.d-6 maxit=100 $end                                            
 INPUT CARD> $trans  dirtrf=.t. $end                                                        
 INPUT CARD> $mrmp   mrpt=gmcpt rdvecs=.f. $end                                             
 INPUT CARD> $gmcpt  nmofzc=0 nmodoc=1 nmoact=7 nelact=7 stsym(1)=A                         
 INPUT CARD>         reftyp=ormas nspace=1 mstart(1)=2 mine(1)=7 maxe(1)=7                  
 INPUT CARD>         kstate(1)=1,1,1                                                        
 INPUT CARD>         wstate(1)=1,1,1                                                        
 INPUT CARD>         iwgt=0 thrwgt=-1.0 krot=.f. kszdoe=.f. knospn=.f.                      
 INPUT CARD>         thrde=-1.0 edshft=0.02 $end                                            
 INPUT CARD> $data                                                                          
 INPUT CARD> NH3+ 3 states calculation at NH3 structure.                                    
 INPUT CARD> c1                                                                             
 INPUT CARD>N 7.0 0.006228917999999998 -0.012457805999999998 -0.1693806302                  
 INPUT CARD>H 1.0 -0.439814721 0.7813339368000001 0.3153801411                              
 INPUT CARD>H 1.0 -0.5926653529999999 -0.7541799978 0.22393719310000004                     
 INPUT CARD>H 1.0 0.945927582 0.14595148599999996 0.23006252310000003                       
 INPUT CARD>$end                                                                            
 INPUT CARD>--- OPTIMIZED RHF      MO-S --- GENERATED AT Mon Nov 14 16:47:08 2022           
 INPUT CARD>E=      -56.3825050291, E(NUC)=   11.8429239490                                 
 INPUT CARD> $VEC                                                                           
 INPUT CARD> 1  1-1.00134066E+00-2.25158504E-03 3.44925845E-03 0.00000000E+00 0.00000000E+00
 INPUT CARD> 1  2-2.13170927E-03 0.00000000E+00 0.00000000E+00 6.57129898E-04-6.87950443E-05
 INPUT CARD> 1  3-6.87950443E-05 1.37590089E-04 0.00000000E+00 0.00000000E+00 0.00000000E+00
 INPUT CARD> 1  4 3.25502815E-04-4.84772356E-04 3.62525460E-04-6.27912517E-04-3.45956485E-04
 INPUT CARD> 1  5 3.25502815E-04-4.84772356E-04 3.62525460E-04 6.27912517E-04-3.45956485E-04
 INPUT CARD> 1  6 3.25502815E-04-4.84772356E-04-7.25050921E-04 0.00000000E+00-3.45956485E-04
 INPUT CARD> 2  1 1.31286642E-02-4.05911371E-01-2.82090992E-01 0.00000000E+00 0.00000000E+00
 INPUT CARD> 2  2-7.71489043E-02 0.00000000E+00 0.00000000E+00 9.73717494E-03 6.62450916E-04
 INPUT CARD> 2  3 6.62450916E-04-1.32490183E-03 0.00000000E+00 0.00000000E+00 0.00000000E+00
 INPUT CARD> 2  4-1.96090317E-01-1.96656153E-02-1.74855877E-02 3.02859263E-02 8.68214399E-03
 INPUT CARD> 2  5-1.96090317E-01-1.96656153E-02-1.74855877E-02-3.02859263E-02 8.68214399E-03
 INPUT CARD> 2  6-1.96090317E-01-1.96656153E-02 3.49711754E-02 0.00000000E+00 8.68214399E-03
 INPUT CARD> 3  1 0.00000000E+00 0.00000000E+00 0.00000000E+00 4.48608762E-01 0.00000000E+00
 INPUT CARD> 3  2 0.00000000E+00 2.18692520E-01 0.00000000E+00 0.00000000E+00 1.30198027E-02
 INPUT CARD> 3  3-1.30198027E-02 0.00000000E+00 0.00000000E+00 2.71832968E-02 0.00000000E+00
 INPUT CARD> 3  4-1.85332726E-01-7.03958951E-02 8.47929477E-03 1.95242443E-02 8.32835058E-03
 INPUT CARD> 3  5-1.85332726E-01-7.03958951E-02 8.47929477E-03-1.95242443E-02 8.32835058E-03
 INPUT CARD> 3  6 3.70665453E-01 1.40791790E-01-2.53376884E-02 0.00000000E+00-1.66567012E-02
 INPUT CARD> 4  1 0.00000000E+00 0.00000000E+00 0.00000000E+00 0.00000000E+00 4.48608762E-01
 INPUT CARD> 4  2 0.00000000E+00 0.00000000E+00 2.18692520E-01 0.00000000E+00 0.00000000E+00
 INPUT CARD> 4  3 0.00000000E+00 0.00000000E+00-1.50339731E-02 0.00000000E+00 2.71832968E-02
 INPUT CARD> 4  4 3.21005698E-01 1.21929267E-01 1.95242443E-02-1.40653607E-02-1.44251263E-02
  100000000 WORDS OF MEMORY AVAILABLE

     BASIS OPTIONS
     -------------
     GBASIS=CCD          IGAUSS=       0      POLAR=NONE    
     NDFUNC=       0     NFFUNC=       0     DIFFSP=       F
     NPFUNC=       0      DIFFS=       F     BASNAM=        


     RUN TITLE
     ---------
  NH3+ 3 states calculation at NH3 structure.                                    

 THE POINT GROUP OF THE MOLECULE IS C1      
 THE ORDER OF THE PRINCIPAL AXIS IS     0

 ATOM      ATOMIC                      COORDINATES (BOHR)
           CHARGE         X                   Y                   Z
 N           7.0     0.0117709482       -0.0235418397       -0.3200829787
 H           1.0    -0.8311293081        1.4765070455        0.5959820486
 H           1.0    -1.1199751196       -1.4251935413        0.4231799334
 H           1.0     1.7875439342        0.2758083160        0.4347551287

          INTERNUCLEAR DISTANCES (ANGS.)
          ------------------------------

                1 N          2 H          3 H          4 H     

   1 N       0.0000000    1.0315296 *  1.0312735 *  1.0332869 *
   2 H       1.0315296 *  0.0000000    1.5458099 *  1.5268502 *
   3 H       1.0312735 *  1.5458099 *  0.0000000    1.7825662 *
   4 H       1.0332869 *  1.5268502 *  1.7825662 *  0.0000000  

  * ... LESS THAN  3.000


     ATOMIC BASIS SET
     ----------------
 THE CONTRACTED PRIMITIVE FUNCTIONS HAVE BEEN UNNORMALIZED
 THE CONTRACTED BASIS FUNCTIONS ARE NOW NORMALIZED TO UNITY

  SHELL TYPE  PRIMITIVE        EXPONENT          CONTRACTION COEFFICIENT(S)

 N         

      1   S       1          9046.0000000    0.000699617413
      1   S       2          1357.0000000    0.005386054630
      1   S       3           309.3000000    0.027391021189
      1   S       4            87.7300000    0.103150591982
      1   S       5            28.5600000    0.278570663317
      1   S       6            10.2100000    0.448294849454
      1   S       7             3.8380000    0.278085928395
      1   S       8             0.7466000    0.015431561233

      2   S       9          9046.0000000   -0.000304990096
      2   S      10          1357.0000000   -0.002408026379
      2   S      11           309.3000000   -0.011944448725
      2   S      12            87.7300000   -0.048925992909
      2   S      13            28.5600000   -0.134472724725
      2   S      14            10.2100000   -0.315112577700
      2   S      15             3.8380000   -0.242857832550
      2   S      16             0.7466000    1.094382206854

      3   S      17             0.2248000    1.000000000000

      4   P      18            13.5500000    0.058905676772
      4   P      19             2.9170000    0.320461106714
      4   P      20             0.7973000    0.753042061792

      5   P      21             0.2185000    1.000000000000

      6   D      22             0.8170000    1.000000000000

 H         

      7   S      23            13.0100000    0.033498726390
      7   S      24             1.9620000    0.234800801174
      7   S      25             0.4446000    0.813682957883

      8   S      26             0.1220000    1.000000000000

      9   P      27             0.7270000    1.000000000000

 H         

     10   S      28            13.0100000    0.033498726390
     10   S      29             1.9620000    0.234800801174
     10   S      30             0.4446000    0.813682957883

     11   S      31             0.1220000    1.000000000000

     12   P      32             0.7270000    1.000000000000

 H         

     13   S      33            13.0100000    0.033498726390
     13   S      34             1.9620000    0.234800801174
     13   S      35             0.4446000    0.813682957883

     14   S      36             0.1220000    1.000000000000

     15   P      37             0.7270000    1.000000000000

 TOTAL NUMBER OF BASIS SET SHELLS             =   15
 NUMBER OF CARTESIAN GAUSSIAN BASIS FUNCTIONS =   30
 NOTE: THIS RUN WILL RESTRICT THE MO VARIATION SPACE TO SPHERICAL HARMONICS.
 THE NUMBER OF ORBITALS KEPT IN THE VARIATIONAL SPACE WILL BE PRINTED LATER.
 NUMBER OF ELECTRONS                          =    9
 CHARGE OF MOLECULE                           =    1
 SPIN MULTIPLICITY                            =    2
 NUMBER OF OCCUPIED ORBITALS (ALPHA)          =    5
 NUMBER OF OCCUPIED ORBITALS (BETA )          =    4
 TOTAL NUMBER OF ATOMS                        =    4
 THE NUCLEAR REPULSION ENERGY IS       11.7536103093

     $CONTRL OPTIONS
     ---------------
 SCFTYP=MCSCF        RUNTYP=ENERGY       EXETYP=RUN     
 MPLEVL=       2     CITYP =NONE         CCTYP =NONE         VBTYP =NONE    
 DFTTYP=NONE         TDDFT =NONE    
 MULT  =       2     ICHARG=       1     NZVAR =       0     COORD =UNIQUE  
 PP    =NONE         RELWFN=NONE         LOCAL =NONE         NUMGRD=       F
 ISPHER=       1     NOSYM =       1     MAXIT =     200     UNITS =ANGS    
 PLTORB=       F     MOLPLT=       F     AIMPAC=       F     FRIEND=        
 NPRINT=       7     IREST =       0     GEOM  =INPUT   
 NORMF =       0     NORMP =       0     ITOL  =      20     ICUT  =       9
 INTTYP=RYSQUAD      GRDTYP=BEST         QMTTOL= 1.0E-05

     $SYSTEM OPTIONS
     ---------------
  REPLICATED MEMORY=   100000000 WORDS (ON EVERY NODE).
 DISTRIBUTED MEMDDI=        1000 MILLION WORDS IN AGGREGATE,
 MEMDDI DISTRIBUTED OVER   1 PROCESSORS IS  1000000000 WORDS/PROCESSOR.
 TOTAL MEMORY REQUESTED ON EACH PROCESSOR=  1100000000 WORDS.
 TIMLIM=      525600.00 MINUTES, OR     365.0 DAYS.
 PARALL= T  BALTYP=  DLB     KDIAG=    3  COREFL= F
 MXSEQ2=     300 MXSEQ3=     150  mem10=         0

          ----------------
          PROPERTIES INPUT
          ----------------

     MOMENTS            FIELD           POTENTIAL          DENSITY
 IEMOM =       1   IEFLD =       0   IEPOT =       0   IEDEN =       0
 WHERE =COMASS     WHERE =NUCLEI     WHERE =NUCLEI     WHERE =NUCLEI  
 OUTPUT=BOTH       OUTPUT=BOTH       OUTPUT=BOTH       OUTPUT=BOTH    
 IEMINT=       0   IEFINT=       0                     IEDINT=       0
                                                       MORB  =       0

     -------------------------------
     INTEGRAL TRANSFORMATION OPTIONS
     -------------------------------
     NWORD  =            0
     CUTOFF = 1.0E-09     MPTRAN =       0
     DIRTRF =       T     AOINTS =DUP     

          ----------------------
          MCSCF INPUT PARAMETERS
          ----------------------
 CONVERGER SELECTION: FOCAS = F  SOSCF = F  FULLNR = T  QUD = F  JACOBI = F
 SECULAR EQUATION METHOD CISTEP = GMCCI   
 --- GENERAL INPUT OPTIONS:
 MAXIT =     100  MICIT =       1  ACURCY= 1.000E-06
 DAMP  =   0.000  CANONC=       T  ENGTOL= 1.000E-10
 EKT   =       F  NPUNCH=       2  NWORD =         0
 REGENERATE CI AFTER CONVERGENCE = NONE    
 DIABATIZATION AFTER CONVERGENCE =        F
 --- INPUT FOR FULLNR CONVERGER:
 METHOD=DM2       FORS  =       F  DROPC =       T
 LINSER=       F  FCORE =       F  NORB  =      30

          ----------------------
          INTEGRAL INPUT OPTIONS
          ----------------------
 NOPK  =       1 NORDER=       0 SCHWRZ=       T

 ------------------------------------------
 MULTIREFERENCE PERTURBATION THEORY CONTROL
 ------------------------------------------
 MRPT=GMCPT    READ CONVERGED MCSCF VECTORS= F


     ------------------------------------------
     THE POINT GROUP IS C1 , NAXIS= 1, ORDER= 1
     ------------------------------------------

 -- VARIATIONAL SPACE WILL BE RESTRICTED TO PURE SPHERICAL HARMONICS ONLY --
 AFTER EXCLUDING CONTAMINANT COMBINATIONS FROM THE CARTESIAN GAUSSIAN BASIS
 SET, THE NUMBER OF SPHERICAL HARMONICS KEPT IN THE VARIATION SPACE IS   29

     DIMENSIONS OF THE SYMMETRY SUBSPACES ARE
 A   =   29

 ..... DONE SETTING UP THE RUN .....
 CPU     0: STEP CPU TIME=     0.04 TOTAL CPU TIME=          0.0 (      0.0 MIN)
 TOTAL WALL CLOCK TIME=          0.0 SECONDS, CPU UTILIZATION IS   100.00%

          ********************
          1 ELECTRON INTEGRALS
          ********************
 TIME TO DO   DIPOLE INTEGRALS=      0.00
 ...... END OF ONE-ELECTRON INTEGRALS ......
 CPU     0: STEP CPU TIME=     0.00 TOTAL CPU TIME=          0.0 (      0.0 MIN)
 TOTAL WALL CLOCK TIME=          0.1 SECONDS, CPU UTILIZATION IS    80.00%

          -------------
          GUESS OPTIONS
          -------------
          GUESS =MOREAD            NORB  =      29          NORDER=       0
          MIX   =       F          PRTMO =       F          PUNMO =       F
          TOLZ  = 1.0E-08          TOLE  = 1.0E-05
          SYMDEN=       F          PURIFY=       T

 INITIAL GUESS ORBITALS GENERATED BY MOREAD   ROUTINE.

 STATISTICS FOR GENERATION OF SYMMETRY ORBITAL -Q- MATRIX
 NUMBER OF CARTESIAN ATOMIC ORBITALS=         30
 NUMBER OF SPHERICAL CONTAMINANTS DROPPED=     1
 NUMBER OF LINEARLY DEPENDENT MOS DROPPED=     0
 TOTAL NUMBER OF MOS IN VARIATION SPACE=      29
 ORBITAL PURIFICATION WILL OCCUR

 SYMMETRIES FOR INITIAL GUESS ORBITALS FOLLOW.   BOTH SET(S).
     5 ORBITALS ARE OCCUPIED (    1 CORE ORBITALS).
     1=A        2=A        3=A        4=A        5=A        6=A        7=A   
     8=A        9=A       10=A       11=A       12=A       13=A       14=A   
    15=A       16=A       17=A       18=A       19=A       20=A       21=A   
    22=A       23=A       24=A       25=A       26=A       27=A       28=A   
    29=A   
 ...... END OF INITIAL ORBITAL SELECTION ......
 CPU     0: STEP CPU TIME=     0.00 TOTAL CPU TIME=          0.0 (      0.0 MIN)
 TOTAL WALL CLOCK TIME=          0.1 SECONDS, CPU UTILIZATION IS    80.00%

                    ----------------------
                    AO INTEGRAL TECHNOLOGY
                    ----------------------
     S,P,L SHELL ROTATED AXIS INTEGRALS, REPROGRAMMED BY
        KAZUYA ISHIMURA (IMS) AND JOSE SIERRA (SYNSTAR).
     S,P,D,L SHELL ROTATED AXIS INTEGRALS PROGRAMMED BY
        KAZUYA ISHIMURA (INSTITUTE FOR MOLECULAR SCIENCE).
     S,P,D,F,G SHELL TO TOTAL QUARTET ANGULAR MOMENTUM SUM 5,
        ERIC PROGRAM BY GRAHAM FLETCHER (ELORET AND NASA ADVANCED
        SUPERCOMPUTING DIVISION, AMES RESEARCH CENTER).
     S,P,D,F,G,L SHELL GENERAL RYS QUADRATURE PROGRAMMED BY
        MICHEL DUPUIS (PACIFIC NORTHWEST NATIONAL LABORATORY).

          --------------------
          2 ELECTRON INTEGRALS
          --------------------

 DIRECT SCF METHOD SKIPS INTEGRAL STORAGE ON DISK.
 DIRECT TRANSFORMATION SKIPS AO INTEGRAL STORAGE ON DISK.
  ...... END OF TWO-ELECTRON INTEGRALS .....
 STEP CPU TIME =     0.03 TOTAL CPU TIME =          0.1 (      0.0 MIN)
 TOTAL WALL CLOCK TIME=          0.1 SECONDS, CPU UTILIZATION IS    87.50%
 DDI: Creating Array [0] - 900 x 36 = 32400 words.
 DDI: Creating Array [1] - 21 x 288 = 6048 words.
 DDI: Creating Array [2] - 36 x 36 = 1296 words.
 DDI: Creating Array [3] - 465 x 36 = 16740 words.

          -----------------
          MCSCF CALCULATION
          -----------------

 ----- NUCLEAR ENERGY ----- =        11.7536103093

     -------------------------------------------------
     GMC-PT/GMC-QDPT or general MCSCF input parameters
     -------------------------------------------------
 # of frozen core orbs. =         0 ->         0
 # of doubly occ. orbs. =         1
 # of active      orbs. =         7
 # of virtual     orbs. =        21
 # of active electrons  =         7
 # of states in CI      =         3
 Highest state in CI    =         3
 kstate =  1 1 1
 avecoe =  0.333 0.333 0.333
 State symmetry           = A           
 Assigned symmetry number = 1

 <<<Act. MO sym.: 1111111

 <<<Division of 1-ext.:  0
 <<<Division of 2-ext.:  0

 *** Reference space

 Reference type: ORMAS (= Occupation restricted multiple active space)
 # of orbitals          =  7
 # of minimum electrons =  7
 # of maximum electrons =  7
 State symmetry    =    1 (input)
 2*Sz              =    1 (input)
 Spin multiplicity =    2 (input)
 Dimension of reference space =      1225  (from      3432 walks)

 Dimension of reference space =      1225  (from      1225 walks)

 <<<Ionized spaces for Ref-CI:
      0:         1225 /   -1-0:         1960 /  0-1-0:         2891

 EVALUATING EXCHANGE INTEGRALS FOR DIRECT INTEGRAL TRANSFORMATION
 SCHWARZ INEQUALITY OVERHEAD:       465 INTEGRALS, T=        0.00

     --------------------------------------------
     PARTIAL TWO ELECTRON INTEGRAL TRANSFORMATION
     --------------------------------------------

 NUMBER OF CORE MOLECULAR ORBITALS     =    1
 NUMBER OF OCCUPIED MOLECULAR ORBITALS =    8
 TOTAL NUMBER OF MOLECULAR ORBITALS    =   29
 TOTAL NUMBER OF ATOMIC ORBITALS       =   30
 THRESHOLD FOR KEEPING TRANSFORMED 2E- INTEGRALS = 1.000E-09

 -------------------------------     ------------------------------
 DISTRIBUTED DATA TRANSFORMATION     PROGRAM WRITTEN BY G. FLETCHER
 -------------------------------     ------------------------------

 THE DISTRIBUTED MEMORY REQUIRED FOR THIS STEP IS MEMDDI=         1 MWORDS
 CREATING DISTRIBUTED STORAGE FOR [VIR OCC|VIR OCC] INTEGRALS
 CREATING DISTRIBUTED STORAGE FOR [VIR OCC|OCC OCC] INTEGRALS
 CREATING DISTRIBUTED STORAGE FOR [OCC OCC|OCC OCC] INTEGRALS
 CREATING DISTRIBUTED STORAGE FOR [VIR VIR|OCC OCC] INTEGRALS
 FOR    1 PROCESSORS, THE REPLICATED MEMORY NEEDED IS       73700 WORDS.
 SCHWARZ INEQUALITY OVERHEAD:       465 INTEGRALS, T=        0.00

      DIRECT 4-INDEX TRANSFORMATION 
      SCHWARZ INEQUALITY TEST SKIPPED          0 INTEGRAL BLOCKS
 ----- FROZEN CORE ENERGY =       -47.8086603810
 ... END OF INTEGRAL TRANSFORMATION ...
 CPU     0: STEP CPU TIME=     0.21 TOTAL CPU TIME=          0.3 (      0.0 MIN)
 TOTAL WALL CLOCK TIME=          0.3 SECONDS, CPU UTILIZATION IS    93.33%

     --------------------------------     -----------------------------
     MCHF NEWTON-RAPHSON OPTIMIZATION     CODE WRITTEN BY MICHEL DUPUIS
     --------------------------------     -----------------------------
     PARALLEL VERSION WRITTEN BY G. FLETCHER (ELORET)
     NASA ADVANCED SUPERCOMPUTING DIVISION, AMES RESEARCH CENTER

 NUMBER OF INDEPENDENT ORBITAL ROTATION PARAMETERS =   175
 ..... DONE SOLVING NEWTON-RAPHSON EQUATIONS .....
 CPU     0: STEP CPU TIME=     0.74 TOTAL CPU TIME=          1.0 (      0.0 MIN)
 TOTAL WALL CLOCK TIME=          1.0 SECONDS, CPU UTILIZATION IS    99.03%
 ..... DONE WITH NTN-RPH ORBITAL ROTATIONS ..... 
 CPU     0: STEP CPU TIME=     0.00 TOTAL CPU TIME=          1.0 (      0.0 MIN)
 TOTAL WALL CLOCK TIME=          1.0 SECONDS, CPU UTILIZATION IS    99.03%
 MAXIMUM MEMORY USED BY NTN-RPH CODE WAS     57645 WORDS.

 ITER     TOTAL ENERGY      DEL(E)  LAGRANGIAN ASYMMETRY   SQCDF  MICIT   DAMP
   1      -55.680245977 -0.680245977  0.130051   12    5 1.694E-01  1   0.0000
   2      -55.716602296 -0.036356319  0.024859   12    5 4.517E-01  1   0.0000
   3      -55.748452889 -0.031850593  0.012301   12    5 2.107E-01  1   0.0263
   4      -55.761636785 -0.013183895  0.004079   11    6 3.700E-02  1   0.0045
   5      -55.763222558 -0.001585773  0.000740   12    5 1.088E-03  1   0.0000
   6      -55.763269921 -0.000047363  0.000245   12    5 8.647E-05  1   0.0000
   7      -55.763274502 -0.000004581  0.000109   12    5 1.157E-05  1   0.0000
   8      -55.763275160 -0.000000658  0.000048   12    5 1.721E-06  1   0.0000
   9      -55.763275261 -0.000000102  0.000020   12    5 2.738E-07  1   0.0000
  10      -55.763275278 -0.000000017  0.000008   12    5 4.743E-08  1   0.0000
  11      -55.763275281 -0.000000003  0.000004   22    4 9.525E-09  1   0.0000
  12      -55.763275282 -0.000000001  0.000001   12    8 2.172E-09  1   0.0000
  13      -55.763275282 -0.000000000  0.000001   12    8 5.756E-10  1   0.0000

          --------------------
          LAGRANGIAN CONVERGED
          --------------------

 FINAL MCSCF ENERGY IS      -55.7632752820 AFTER  13 ITERATIONS

 -MCCI- BASED ON OPTIMIZED ORBITALS
 ----------------------------------

 PLEASE NOTE: IF THE ACTIVE ORBITALS ARE CANONICALIZED BELOW,
 THE FOLLOWING CI EXPANSION COEFFICIENTS AND THE DENSITY DO NOT
 CORRESPOND TO THE PRINTED ORBITALS.  THE PRINTED EXPANSIONS MATCH
 THE ORBITALS USED DURING THE LAST ITERATION.  IF YOU WISH TO SEE
 CI EXPANSIONS BASED ON THE CANONICAL (OR NATURAL) ORBITALS, YOU
 MUST RUN A CI CALCULATION WITH THAT ORBITAL CHOICE READ IN $VEC.

 Averaged energy =     -55.763275282

 State #    1  Energy =     -55.906161157  S =  0.500

      Det      Coef    Occupancy (Ignoring core)
      ---      ----    --------- --------- -----
        1   -0.951190  11110001110000
        2   -0.056427  11101001110000
        5    0.059589  01111001110000
        8    0.129170  10110101110000
       17   -0.124868  11010011110000
       36   -0.073317  11110001101000
      386   -0.103909  11110001010010
      393   -0.055702  10110101010010
      701    0.096029  11110001100001
      717   -0.063126  11010011100001

 State #    2  Energy =     -55.722870887  S =  0.500

      Det      Coef    Occupancy (Ignoring core)
      ---      ----    --------- --------- -----
        1   -0.079783  11110001110000
       36    0.830196  11110001101000
       43   -0.079984  10110101101000
       52    0.055897  11010011101000
       71    0.495140  11110001011000
      456    0.086398  11110001001010
      463    0.050945  10110101001010
      806    0.050072  11110001001001

 State #    3  Energy =     -55.660793802  S =  0.500

      Det      Coef    Occupancy (Ignoring core)
      ---      ----    --------- --------- -----
       36   -0.497054  11110001101000
       71    0.834464  11110001011000
       78   -0.054434  10110101011000
       87    0.070876  11010011011000
      316    0.054747  11110000011100
      806    0.081270  11110001001001
      822   -0.058301  11010011001001

 DENSITY MATRIX OVER ACTIVE MO-S

             1           2           3           4           5

    1    1.9799534
    2   -0.0031823   1.6371415
    3    0.0062893  -0.0003446   1.6375489
    4    0.0037008  -0.0003479   0.0006196   1.6557201
    5    0.0934988   0.0030586  -0.0056958   0.0446890   0.0236598
    6    0.0006677  -0.1438980  -0.0100506  -0.0049729  -0.0007486
    7   -0.0020588  -0.0062066  -0.1350112   0.0100698   0.0013498

             6           7

    6    0.0327423
    7   -0.0003305   0.0332339

 FORMING THE "STANDARD FOCK OPERATOR" IN DIRECT AO INTEGRAL MODE...
 ONLY THE    1 CORE AND   21 VIRTUAL ORBITALS WILL BE CANONICALIZED

          ----------------------
          MCSCF NATURAL ORBITALS
          ----------------------

                      1          2          3          4          5
                  -15.9872     1.9847     1.6569     1.6506     1.6481
                     A          A          A          A          A   
    1  N  1  S    1.001349   0.008511  -0.011394  -0.000119  -0.001237
    2  N  1  S   -0.001765   0.439249  -0.183127  -0.004673  -0.038414
    3  N  1  S   -0.006400   0.280668  -0.287497  -0.006577  -0.056530
    4  N  1  X    0.000003  -0.008355   0.021150   0.416552  -0.276076
    5  N  1  Y   -0.000015   0.015996  -0.047385   0.266292   0.431186
    6  N  1  Z    0.001163   0.097904   0.594222   0.006244   0.030737
    7  N  1  X   -0.000023   0.001761   0.016913   0.160047  -0.127062
    8  N  1  Y    0.000042  -0.003215  -0.034984   0.102492   0.198778
    9  N  1  Z   -0.000428   0.003898   0.382297   0.002752   0.005464
   10  N  1 XX    0.000172  -0.000454  -0.012008   0.005873  -0.007644
   11  N  1 YY    0.000006  -0.000767  -0.012481  -0.006175   0.006085
   12  N  1 ZZ   -0.000178   0.001221   0.024488   0.000302   0.001559
   13  N  1 XY    0.000195   0.000466   0.000584  -0.004722  -0.012765
   14  N  1 XZ   -0.000040  -0.000256   0.000103   0.020560  -0.014079
   15  N  1 YZ    0.000075   0.000602  -0.000570   0.013243   0.022104
   16  H  2  S   -0.002042   0.204764   0.092052   0.019591   0.382429
   17  H  2  S    0.000381   0.006413   0.021029   0.002486   0.063056
   18  H  2  X   -0.000479   0.017840   0.008748   0.020098   0.013887
   19  H  2  Y    0.000847  -0.031746  -0.015522   0.009538  -0.026742
   20  H  2  Z    0.000467  -0.012222   0.019651  -0.000788  -0.019240
   21  H  3  S   -0.002071   0.188229   0.116862  -0.339306  -0.152607
   22  H  3  S    0.000522   0.001818   0.026224  -0.042024  -0.025823
   23  H  3  X   -0.000614   0.022217   0.010677  -0.012730  -0.022414
   24  H  3  Y   -0.000852   0.029691   0.013812  -0.029180   0.002146
   25  H  3  Z    0.000430  -0.007269   0.018655   0.015960   0.008200
   26  H  4  S   -0.002059   0.188725   0.111577   0.326245  -0.182208
   27  H  4  S    0.000511   0.001940   0.025743   0.040664  -0.030695
   28  H  4  X    0.001035  -0.036612  -0.016920  -0.030861   0.011884
   29  H  4  Y    0.000113  -0.004805  -0.002454   0.005109   0.020271
   30  H  4  Z    0.000433  -0.007553   0.018917  -0.014994   0.009614

                      6          7          8
                    0.0229     0.0189     0.0178
                     A          A          A   
    1  N  1  S   -0.063117  -0.001749   0.261430
    2  N  1  S   -0.191971  -0.003828   0.824525
    3  N  1  S    0.014419   0.004868   0.155392
    4  N  1  X   -0.455954   0.805174  -0.098757
    5  N  1  Y    0.732800   0.500442   0.157081
    6  N  1  Z   -0.063879   0.006117   0.691371
    7  N  1  X   -0.010175   0.055935  -0.017038
    8  N  1  Y    0.016523   0.035330   0.031832
    9  N  1  Z    0.016468   0.000035  -0.104115
   10  N  1 XX    0.012630   0.015869  -0.001237
   11  N  1 YY   -0.011684  -0.015492   0.011694
   12  N  1 ZZ   -0.000946  -0.000377  -0.010456
   13  N  1 XY    0.023985  -0.010811  -0.016027
   14  N  1 XZ    0.015074  -0.042252   0.012031
   15  N  1 YZ   -0.023837  -0.026320  -0.022442
   16  H  2  S   -0.632469  -0.025499  -0.620977
   17  H  2  S   -0.132413  -0.004306  -0.077817
   18  H  2  X   -0.020973  -0.030126  -0.041563
   19  H  2  Y    0.038841  -0.014693   0.072682
   20  H  2  Z    0.011556  -0.000393  -0.008964
   21  H  3  S    0.420763   0.640742  -0.459708
   22  H  3  S    0.072989   0.119298  -0.044623
   23  H  3  X    0.038589   0.026429  -0.036298
   24  H  3  Y    0.021457   0.052761  -0.059888
   25  H  3  Z   -0.005029   0.004484  -0.012617
   26  H  4  S    0.460358  -0.620069  -0.445092
   27  H  4  S    0.081447  -0.115967  -0.042266
   28  H  4  X   -0.041164   0.057349   0.068812
   29  H  4  Y   -0.023407  -0.005087   0.001449
   30  H  4  Z   -0.005573  -0.004806  -0.012950

          ------------------------
          MCSCF OPTIMIZED ORBITALS
          ------------------------

                      1          2          3          4          5
                  -15.9872     0.0000     0.0000     0.0000     0.0000
                     A          A          A          A          A   
    1  N  1  S    1.001349  -0.004000  -0.000920   0.002294  -0.018714
    2  N  1  S   -0.001765   0.402567   0.004748  -0.009530  -0.200507
    3  N  1  S   -0.006400   0.279343   0.016287  -0.033262  -0.288999
    4  N  1  X    0.000003  -0.002397   0.415335  -0.026905   0.007666
    5  N  1  Y   -0.000015   0.004424  -0.005478   0.432027  -0.015482
    6  N  1  Z    0.001163   0.053540   0.000505  -0.001386   0.577953
    7  N  1  X   -0.000023   0.004559   0.197269  -0.028350   0.011833
    8  N  1  Y    0.000042  -0.008392  -0.017723   0.220801  -0.023212
    9  N  1  Z   -0.000428   0.001982   0.007153  -0.014810   0.384721
   10  N  1 XX    0.000172   0.000046   0.007965  -0.004446  -0.012181
   11  N  1 YY    0.000006  -0.001282  -0.007829   0.004101  -0.012625
   12  N  1 ZZ   -0.000178   0.001236  -0.000136   0.000345   0.024806
   13  N  1 XY    0.000195   0.001653   0.004306  -0.014365   0.000491
   14  N  1 XZ   -0.000040  -0.000444   0.028777  -0.000562  -0.000624
   15  N  1 YZ    0.000075   0.001029   0.000882   0.028702   0.001147
   16  H  2  S   -0.002042   0.219738  -0.206946   0.383533   0.126318
   17  H  2  S    0.000381   0.007477  -0.035403   0.063823   0.025230
   18  H  2  X   -0.000479   0.019158   0.011308   0.025164   0.010883
   19  H  2  Y    0.000847  -0.034032   0.024969  -0.020092  -0.018902
   20  H  2  Z    0.000467  -0.011645   0.010194  -0.018777   0.018652
   21  H  3  S   -0.002071   0.213864  -0.245642  -0.363234   0.124184
   22  H  3  S    0.000522   0.004503  -0.028678  -0.055285   0.026257
   23  H  3  X   -0.000614   0.024445   0.000011  -0.029450   0.011005
   24  H  3  Y   -0.000852   0.032346  -0.029550  -0.016931   0.015897
   25  H  3  Z    0.000430  -0.007234   0.009189   0.014294   0.019396
   26  H  4  S   -0.002059   0.214007   0.437717   0.010500   0.124360
   27  H  4  S    0.000511   0.004638   0.063185  -0.006470   0.026392
   28  H  4  X    0.001035  -0.039990  -0.038274  -0.005835  -0.019412
   29  H  4  Y    0.000113  -0.005414  -0.006634   0.021774  -0.001628
   30  H  4  Z    0.000433  -0.007479  -0.017200   0.000004   0.019390

                      6          7          8          9         10
                    0.0000     0.0000     0.0000     0.1559     0.1990
                     A          A          A          A          A   
    1  N  1  S    0.267765   0.007780  -0.020140  -0.163170  -0.006207
    2  N  1  S    0.859405   0.022590  -0.056737  -0.254183  -0.011597
    3  N  1  S    0.157084  -0.015286   0.034825   1.606056   0.040514
    4  N  1  X   -0.020813   0.970792  -0.006452   0.010642  -0.082479
    5  N  1  Y    0.041586   0.066951   0.937175  -0.019884  -0.054678
    6  N  1  Z    0.712195  -0.018391   0.036389  -0.242257  -0.011949
    7  N  1  X   -0.013909   0.072602   0.015075  -0.036050   0.544125
    8  N  1  Y    0.027204   0.019829   0.054555   0.072600   0.453801
    9  N  1  Z   -0.094944   0.002246  -0.003254   0.565355   0.032044
   10  N  1 XX   -0.003410   0.008406   0.018339   0.038803   0.041274
   11  N  1 YY    0.012875  -0.009466  -0.015820   0.007549  -0.042639
   12  N  1 ZZ   -0.009466   0.001060  -0.002519  -0.046352   0.001364
   13  N  1 XY   -0.019514  -0.019568   0.011970   0.036771  -0.053188
   14  N  1 XZ    0.009329  -0.042683  -0.006350  -0.012409   0.079912
   15  N  1 YZ   -0.018639  -0.009188  -0.034211   0.024484   0.070446
   16  H  2  S   -0.503334   0.322839  -0.609575   0.162441   0.134069
   17  H  2  S   -0.055537   0.064809  -0.121528  -0.712150  -0.474308
   18  H  2  X   -0.036860  -0.011408  -0.036485  -0.047709  -0.044396
   19  H  2  Y    0.063724  -0.035770   0.034341   0.090117   0.001185
   20  H  2  Z   -0.010635  -0.004415   0.006911   0.043092   0.017805
   21  H  3  S   -0.502633   0.367014   0.587919   0.288422  -0.514899
   22  H  3  S   -0.053828   0.069198   0.111355  -0.924096   1.812114
   23  H  3  X   -0.040227   0.006991   0.039041  -0.077166   0.045747
   24  H  3  Y   -0.060331   0.037756   0.035140  -0.083804   0.080057
   25  H  3  Z   -0.011521   0.008379  -0.002681   0.015460  -0.075619
   26  H  4  S   -0.501377  -0.690588   0.031046   0.284422   0.372885
   27  H  4  S   -0.054114  -0.131942   0.006432  -0.922158  -1.371616
   28  H  4  X    0.072343   0.061053   0.001662   0.109240   0.078692
   29  H  4  Y    0.004673   0.006446  -0.020701   0.028420  -0.017470
   30  H  4  Z   -0.011828  -0.001869  -0.009105   0.017939   0.067612

                     11         12         13         14         15
                    0.2001     0.5431     0.5790     0.6221     0.8297
                     A          A          A          A          A   
    1  N  1  S    0.024562   0.035725  -0.000326   0.099260  -0.019890
    2  N  1  S    0.045516   0.029871  -0.008887   0.367393  -0.044534
    3  N  1  S   -0.171012  -0.321386  -0.033566   0.159737   0.091080
    4  N  1  X   -0.027302   0.291285  -0.436615   0.052724  -0.080107
    5  N  1  Y    0.004244  -0.502214  -0.236669  -0.141959  -0.049205
    6  N  1  Z    0.043921   0.249240   0.035843  -0.646786   0.013618
    7  N  1  X    0.379301  -0.823660   1.690733  -0.232288   0.523800
    8  N  1  Y   -0.335358   1.441982   0.933058   0.643920   0.323707
    9  N  1  Z   -0.118047  -0.333755  -0.057392   1.066863   0.007132
   10  N  1 XX    0.055327   0.001238  -0.033783  -0.043716   0.128463
   11  N  1 YY   -0.051850   0.011719   0.037117  -0.029397  -0.123839
   12  N  1 ZZ   -0.003477  -0.012957  -0.003334   0.073113  -0.004625
   13  N  1 XY    0.072381  -0.008152   0.025084  -0.013785  -0.089486
   14  N  1 XZ    0.063063  -0.020453   0.010609   0.010343  -0.129698
   15  N  1 YZ   -0.061261   0.035707   0.006376  -0.022884  -0.079290
   16  H  2  S   -0.576751  -0.348490   0.036631  -0.759387  -0.008037
   17  H  2  S    2.008973  -0.986598   0.026835  -0.249066  -0.020567
   18  H  2  X    0.039768  -0.057222   0.080207  -0.007355  -0.443937
   19  H  2  Y   -0.088437   0.111432   0.044699   0.012143  -0.227923
   20  H  2  Z   -0.066259   0.082268  -0.006249   0.051073  -0.011078
   21  H  3  S    0.190145   0.388641   0.656265  -0.344993   0.131855
   22  H  3  S   -0.541375   0.543788   0.769344   0.337256   0.180447
   23  H  3  X   -0.038658   0.009023   0.166276   0.047807  -0.086251
   24  H  3  Y    0.015095   0.073281   0.044632   0.056273   0.322502
   25  H  3  Z    0.001403  -0.068008  -0.032460   0.051993   0.286507
   26  H  4  S    0.407546   0.378579  -0.611725  -0.427189  -0.138755
   27  H  4  S   -1.312754   0.546688  -0.796425   0.248827  -0.208604
   28  H  4  X    0.046990  -0.066711   0.124170  -0.050954   0.258316
   29  H  4  Y    0.034897   0.028801   0.126674  -0.007074  -0.262705
   30  H  4  Z    0.033195  -0.069345   0.028254   0.046102  -0.278142

                     16         17         18         19         20
                    0.9580     0.9693     1.3447     1.4973     1.5574
                     A          A          A          A          A   
    1  N  1  S   -0.557307  -0.078331  -0.001702  -0.617141  -0.124046
    2  N  1  S   -1.184719  -0.167373  -0.003497  -1.267710  -0.244216
    3  N  1  S    2.415143   0.483407   0.005817   2.440880   0.641668
    4  N  1  X    0.023066   0.031768   0.139232   0.001099  -0.070723
    5  N  1  Y   -0.044391  -0.047675   0.075514  -0.001932   0.113855
    6  N  1  Z    0.181384   0.040782  -0.000487  -0.025140   0.019194
    7  N  1  X   -0.112767  -0.223649  -0.553982   0.005466  -0.084934
    8  N  1  Y    0.209236   0.342891  -0.313960  -0.092263   0.809492
    9  N  1  Z   -0.035201   0.222744   0.000754   1.006058   0.307289
   10  N  1 XX   -0.106834  -0.036713  -0.044424   0.149729  -0.000793
   11  N  1 YY   -0.099319   0.121474   0.045132   0.143890  -0.012970
   12  N  1 ZZ    0.206153  -0.084761  -0.000708  -0.293620   0.013763
   13  N  1 XY    0.000038  -0.142384   0.028954   0.007012   0.009494
   14  N  1 XZ    0.025535   0.121321   0.000444   0.000326   0.054836
   15  N  1 YZ   -0.041388  -0.189842   0.001464   0.005992  -0.153267
   16  H  2  S   -0.428527  -0.184413  -0.004534  -0.650680  -0.386876
   17  H  2  S   -0.359959  -0.204122   0.000045  -0.208301  -0.315638
   18  H  2  X    0.036230  -0.165627  -0.269903  -0.023946  -0.213520
   19  H  2  Y   -0.045442   0.323431  -0.164619   0.130816  -0.147580
   20  H  2  Z    0.265618  -0.478945   0.003383  -0.325551   0.613899
   21  H  3  S   -0.318670  -0.024520  -0.280125  -0.707007   0.025780
   22  H  3  S   -0.321938  -0.014060  -0.118512  -0.219729   0.136558
   23  H  3  X    0.046276   0.294475   0.618173  -0.199135   0.309767
   24  H  3  Y    0.016592  -0.262950  -0.227302   0.149804  -0.421202
   25  H  3  Z    0.331349   0.103962   0.254559  -0.375134  -0.610926
   26  H  4  S   -0.324685  -0.011401   0.282135  -0.676227  -0.210216
   27  H  4  S   -0.318470  -0.000263   0.116052  -0.198610   0.003131
   28  H  4  X   -0.045466   0.065297   0.117820  -0.018059   0.089479
   29  H  4  Y   -0.022375  -0.362833   0.643583   0.251788  -0.450835
   30  H  4  Z    0.340553   0.132507  -0.260739  -0.411141  -0.249227

                     21         22         23         24         25
                    1.5740     1.8242     1.8724     2.0740     2.2523
                     A          A          A          A          A   
    1  N  1  S    0.011319   0.083148  -0.000499   0.060326  -0.123736
    2  N  1  S    0.020393   0.164205   0.000219   0.250202  -0.271437
    3  N  1  S   -0.090029  -0.411690   0.007408   1.963751   0.027799
    4  N  1  X    0.039157  -0.226828   0.529929  -0.027606   0.024689
    5  N  1  Y   -0.046491   0.405148   0.314699   0.047944  -0.067818
    6  N  1  Z   -0.007625   0.029347   0.003590   0.380465  -0.073353
    7  N  1  X    0.933599   0.107620   0.040235   0.076600  -0.111774
    8  N  1  Y    0.265915  -0.162006   0.028972  -0.136668   0.192622
    9  N  1  Z   -0.048230  -0.155096   0.005476   0.849652   0.333959
   10  N  1 XX    0.012909   0.054365  -0.218065  -0.217016  -0.158064
   11  N  1 YY    0.005857  -0.157642   0.210055  -0.149197  -0.559762
   12  N  1 ZZ   -0.018766   0.103278   0.008010   0.366213   0.717827
   13  N  1 XY   -0.008954   0.214227   0.145970  -0.072537   0.501104
   14  N  1 XZ   -0.119607   0.070054  -0.163901   0.060199  -0.266495
   15  N  1 YZ    0.001349  -0.124589  -0.094511  -0.095394   0.509610
   16  H  2  S    0.079864   0.280322  -0.002572  -0.533088  -0.079154
   17  H  2  S    0.102073  -0.402979  -0.000693  -0.200430   0.010910
   18  H  2  X   -0.687780  -0.449883   0.100543  -0.349215  -0.047962
   19  H  2  Y   -0.396663   0.730994   0.061253   0.638279   0.035449
   20  H  2  Z   -0.224351   0.227678   0.006907   0.067034  -0.684839
   21  H  3  S    0.323369   0.034675  -0.049674  -0.575347  -0.006126
   22  H  3  S    0.164763   0.267603   0.358588  -0.349214   0.027387
   23  H  3  X   -0.168580   0.192925   0.295046  -0.725943   0.299129
   24  H  3  Y   -0.046061   0.444639   0.645965  -0.506819  -0.185094
   25  H  3  Z   -0.408253  -0.037793  -0.374016  -0.105534  -0.221357
   26  H  4  S   -0.320991   0.028881   0.046421  -0.573238   0.000377
   27  H  4  S   -0.239279   0.267670  -0.361108  -0.342836   0.042887
   28  H  4  X   -0.204010  -0.493605   0.715336   0.787898  -0.001362
   29  H  4  Y    0.215945   0.071568  -0.071608   0.393890  -0.382516
   30  H  4  Z    0.661110  -0.018376   0.365511  -0.100376  -0.257386

                     26         27         28         29
                    2.3724     2.5149     2.7729     2.9496
                     A          A          A          A   
    1  N  1  S   -0.003482  -0.002748  -0.004712   0.033198
    2  N  1  S   -0.002694   0.131919  -0.009944   0.095237
    3  N  1  S    0.077200   2.062448  -0.007587   0.310655
    4  N  1  X    0.089338  -0.082776   0.571723   0.314861
    5  N  1  Y    0.060177   0.136565   0.339162  -0.540107
    6  N  1  Z    0.010595   0.326354  -0.002238   0.035429
    7  N  1  X   -0.272983  -0.276357   1.253225   0.528281
    8  N  1  Y   -0.101734   0.530978   0.746496  -0.908445
    9  N  1  Z    0.028451   0.442657   0.005429  -0.046178
   10  N  1 XX    0.777205   0.496776   0.581360   0.694939
   11  N  1 YY   -0.771135   0.263052  -0.591628  -0.446696
   12  N  1 ZZ   -0.006070  -0.759828   0.010268  -0.248242
   13  N  1 XY   -0.464006   0.367650  -0.394888   1.116931
   14  N  1 XZ   -0.586533  -0.333747   1.030143   0.450155
   15  N  1 YZ   -0.256859   0.665067   0.611051  -0.765070
   16  H  2  S   -0.042803  -1.040374  -0.013625   1.245568
   17  H  2  S   -0.025445  -0.427909  -0.002855   0.442505
   18  H  2  X    0.510125  -0.366816  -0.135474   0.446417
   19  H  2  Y    0.331828   0.593503  -0.073685  -0.802095
   20  H  2  Z   -0.011852   0.424661  -0.002423  -0.487459
   21  H  3  S   -0.047356  -0.598851   1.207879  -0.798648
   22  H  3  S    0.003217  -0.120803   0.468736  -0.269199
   23  H  3  X    0.338230   0.001499   0.561725  -0.394921
   24  H  3  Y   -0.210258  -0.487577   0.670167  -0.500778
   25  H  3  Z   -0.285014   0.476314  -0.280088   0.361087
   26  H  4  S    0.014447  -0.608012  -1.185922  -0.813856
   27  H  4  S   -0.005031  -0.121559  -0.461016  -0.276698
   28  H  4  X    0.014699   0.419148   0.839808   0.646827
   29  H  4  Y    0.318654  -0.275059   0.158102   0.106050
   30  H  4  Z    0.308037   0.448552   0.275711   0.373075
 .....DONE WITH MCSCF ITERATIONS.....
 CPU     0: STEP CPU TIME=     8.20 TOTAL CPU TIME=          9.2 (      0.2 MIN)
 TOTAL WALL CLOCK TIME=          9.2 SECONDS, CPU UTILIZATION IS    99.89%

     ----------------------------------------------------------------
     PROPERTY VALUES FOR THE MCSCF SELF-CONSISTENT FIELD WAVEFUNCTION
     ----------------------------------------------------------------

          -----------------
          ENERGY COMPONENTS
          -----------------

         WAVEFUNCTION NORMALIZATION =       1.0000000000

                ONE ELECTRON ENERGY =     -94.9020990378
                TWO ELECTRON ENERGY =      27.3852134465
           NUCLEAR REPULSION ENERGY =      11.7536103093
                                      ------------------
                       TOTAL ENERGY =     -55.7632752820

 ELECTRON-ELECTRON POTENTIAL ENERGY =      27.3852134465
  NUCLEUS-ELECTRON POTENTIAL ENERGY =    -150.8332543084
   NUCLEUS-NUCLEUS POTENTIAL ENERGY =      11.7536103093
                                      ------------------
             TOTAL POTENTIAL ENERGY =    -111.6944305526
               TOTAL KINETIC ENERGY =      55.9311552706
                 VIRIAL RATIO (V/T) =       1.9969984530

          ---------------------------------------
          MULLIKEN AND LOWDIN POPULATION ANALYSES
          ---------------------------------------

     ATOMIC MULLIKEN POPULATION IN EACH MOLECULAR ORBITAL

                      1          2          3          4          5

                  2.000000   1.984657   1.656931   1.650615   1.648104

    1             2.001045   1.291994   1.545668   0.941079   1.030008
    2            -0.000353   0.257047   0.031649   0.010722   0.431368
    3            -0.000348   0.217176   0.041310   0.363113   0.078540
    4            -0.000344   0.218439   0.038303   0.335701   0.108189

                      6          7          8

                  0.022945   0.018907   0.017841

    1             0.011524   0.010084   0.009591
    2             0.005704  -0.000001   0.003994
    3             0.002600   0.004553   0.002193
    4             0.003115   0.004270   0.002063
 WARNING! MCSCF POPULATIONS SHOWN ABOVE ARE FOR THE NATURAL ORBITALS.
 IGNORE THE ABOVE DATA FOR MCSCF FUNCTIONS WHICH ARE NOT OF -FORS- TYPE.
 THE FOLLOWING POPULATIONS ARE CORRECT FOR ANY MCSCF WAVEFUNCTION.

               ----- POPULATIONS IN EACH AO -----
                             MULLIKEN      LOWDIN
              1  N  1  S      2.00278     1.89302
              2  N  1  S      0.82829     0.57618
              3  N  1  S      0.61199     0.38788
              4  N  1  X      0.68528     0.60821
              5  N  1  Y      0.69735     0.62599
              6  N  1  Z      0.89036     0.83113
              7  N  1  X      0.28225     0.38568
              8  N  1  Y      0.30771     0.39717
              9  N  1  Z      0.51554     0.55265
             10  N  1 XX      0.00057     0.17151
             11  N  1 YY      0.00214     0.16285
             12  N  1 ZZ      0.00345     0.14189
             13  N  1 XY      0.00661     0.01207
             14  N  1 XZ      0.00666     0.01244
             15  N  1 YZ      0.00000     0.01225
             16  H  2  S      0.63897     0.49460
             17  H  2  S      0.04123     0.14048
             18  H  2  X      0.01536     0.02812
             19  H  2  Y      0.02780     0.04719
             20  H  2  Z      0.01678     0.04224
             21  H  3  S      0.61826     0.47974
             22  H  3  S      0.03234     0.14124
             23  H  3  X      0.01874     0.03515
             24  H  3  Y      0.02583     0.04371
             25  H  3  Z      0.01396     0.03744
             26  H  4  S      0.61817     0.48104
             27  H  4  S      0.03305     0.14139
             28  H  4  X      0.03542     0.05811
             29  H  4  Y      0.00901     0.02100
             30  H  4  Z      0.01409     0.03765

          ----- MULLIKEN ATOMIC OVERLAP POPULATIONS -----
          (OFF-DIAGONAL ELEMENTS NEED TO BE MULTIPLIED BY 2)

             1           2           3           4

    1    5.8928574
    2    0.3139326   0.4364322
    3    0.3176632  -0.0050643   0.4021743
    4    0.3165409  -0.0051689  -0.0056355   0.4040000

          TOTAL MULLIKEN AND LOWDIN ATOMIC POPULATIONS
       ATOM         MULL.POP.    CHARGE          LOW.POP.     CHARGE
    1 N             6.840994    0.159006         6.770919    0.229081
    2 H             0.740132    0.259868         0.752624    0.247376
    3 H             0.709138    0.290862         0.737265    0.262735
    4 H             0.709736    0.290264         0.739191    0.260809

          MULLIKEN SPHERICAL HARMONIC POPULATIONS
       ATOM           S       P       D      F      G      H      I    TOTAL
    1 N             3.44    3.38    0.02   0.00   0.00   0.00   0.00    6.84
    2 H             0.68    0.06    0.00   0.00   0.00   0.00   0.00    0.74
    3 H             0.65    0.06    0.00   0.00   0.00   0.00   0.00    0.71
    4 H             0.65    0.06    0.00   0.00   0.00   0.00   0.00    0.71

          ---------------------
          ELECTROSTATIC MOMENTS
          ---------------------

 POINT   1           X           Y           Z (BOHR)    CHARGE
                -0.000001    0.000001   -0.177185        1.00 (A.U.)
         DX          DY          DZ         /D/  (DEBYE)
    -0.100491    0.202030    2.144312    2.156152
 ...... END OF PROPERTY EVALUATION ......
 CPU     0: STEP CPU TIME=     0.01 TOTAL CPU TIME=          9.2 (      0.2 MIN)
 TOTAL WALL CLOCK TIME=          9.2 SECONDS, CPU UTILIZATION IS   100.00%

     -------------------------------------------------
     GMC-PT/GMC-QDPT or general MCSCF input parameters
     -------------------------------------------------
 # of frozen core orbs. =         0 ->         0
 # of doubly occ. orbs. =         1
 # of active      orbs. =         7
 # of virtual     orbs. =        21
 # of active electrons  =         7
 # of states in CI      =         3
 Highest state in CI    =         3
 kstate =  1 1 1
 avecoe =  0.333 0.333 0.333
 State symmetry           = A           
 Assigned symmetry number = 1

 <<<Act. MO sym.: 1111111

 <<<Division of 1-ext.:  0
 <<<Division of 2-ext.:  0

     ------------------------
     Orbital canonicalization
     ------------------------

 MOs are canonicalized for core, virtual, and invariant-active orbital spaces.
 This is a part of the GMC-QDPT calculation.
 SCHWARZ INEQUALITY OVERHEAD:       465 INTEGRALS, T=        0.00
 DIRECT TRANSFORMATION SKIPS AO INTEGRAL STORAGE ON DISK.

 Averaged energy =     -55.763275282

 State #    1  Energy =     -55.906161157  S =  0.500
 State #    2  Energy =     -55.722870887  S =  0.500
 State #    3  Energy =     -55.660793802  S =  0.500

 Orbital energies for filled orbital space
  -15.987225
 Orbital energies for active orbital space
   -1.536324  -0.972315  -0.907520  -0.760309   0.433315
    0.412222   0.316862
 Orbital energies for external orbital space
    0.155852   0.199034   0.200071   0.543133   0.578986
    0.622100   0.829714   0.957965   0.969341   1.344685
    1.497260   1.557394   1.573957   1.824242   1.872384
    2.074047   2.252320   2.372446   2.514924   2.772866
    2.949645

 Zero values mean non-canonical orbitals.
 ... done with orbital canonicalization ...
 CPU     0: STEP CPU TIME=     0.58 TOTAL CPU TIME=          9.8 (      0.2 MIN)
 TOTAL WALL CLOCK TIME=          9.8 SECONDS, CPU UTILIZATION IS    99.80%

     --------------------------------------------
     PARTIAL TWO ELECTRON INTEGRAL TRANSFORMATION
     --------------------------------------------

 NUMBER OF CORE MOLECULAR ORBITALS     =    0
 NUMBER OF OCCUPIED MOLECULAR ORBITALS =    8
 TOTAL NUMBER OF MOLECULAR ORBITALS    =   29
 TOTAL NUMBER OF ATOMIC ORBITALS       =   30
 THRESHOLD FOR KEEPING TRANSFORMED 2E- INTEGRALS = 1.000E-09
 AO INTEGRALS WILL BE CALCULATED IN DIRECT MODE...
 DIRECT TRANSFORMATION SKIPS AO INTEGRAL STORAGE ON DISK.
 SCHWARZ INEQUALITY OVERHEAD:       465 INTEGRALS, T=        0.00

 PLAN A: REQUIREMENTS FOR FULLY IN-MEMORY TRANSFORMATION:
 # OF WORDS AVAILABLE =            100000000
 # OF WORDS NEEDED    =               221798

 PARALLEL ONLY WORKS WITH THE SEGMENTED ALGORITHM.
 ADJUSTING MEMORY TO USE SEGMENTED ALGORITHM.


 PLAN B: REQUIREMENTS FOR THE SEGMENTED TRANSFORMATION:
       MINIMUM=         124148 WORDS FOR 1 MOLECULAR ORBITAL PER PASS
       MAXIMUM=         221798 WORDS FOR ALL MOLECULAR ORBITALS IN 1 PASS
              (          13950 EXTRA WORDS INCLUDES 1 EXTRA ORBITAL/PASS)
 THIS RUN USES=         221798 WORDS,
 DISTRIBUTING   1 PASSES EACH CONTAINING     8 ORBITALS OVER   1 PROCESSORS.

 CHOOSING SEGMENTED PARTIAL TRANSFORMATION...
 DIRECT TRANSFORMATION SKIPS AO INTEGRAL STORAGE ON DISK.
 PASS #   1 TOOK        0.04 SECONDS.
 TOTAL NUMBER OF TRANSFORMED 2E- INTEGRALS KEPT =        29226
 ... END OF INTEGRAL TRANSFORMATION ...
 CPU     0: STEP CPU TIME=     0.05 TOTAL CPU TIME=          9.9 (      0.2 MIN)
 TOTAL WALL CLOCK TIME=          9.9 SECONDS, CPU UTILIZATION IS    99.90%

     --------     ------------------------------------------
     GMC-QDPT     Program written by H.Nakano (Kyushu Univ.)
     --------     ------------------------------------------

 *** Reference space

 Reference type: ORMAS (= Occupation restricted multiple active space)
 # of orbitals          =  7
 # of minimum electrons =  7
 # of maximum electrons =  7
 State symmetry    =    1 (input)
 2*Sz              =    1 (input)
 Spin multiplicity =    2 (input)
 Dimension of reference space =      1225  (from      3432 walks)

 Dimension of reference space =      1225  (from      1225 walks)

 <<<Ionized spaces for Ref-CI:
      0:         1225 /   -1-0:         1960 /  0-1-0:         2891

 ***                    ***
 *** Reference space CI ***
 ***                    ***

 Converged after   32 iterations

 Reference wavefunctions:

 State #    1  Energy =     -55.906161157  S =  0.500

      Det      Coef    Occupancy (Ignoring core)
      ---      ----    --------- --------- -----
        1   -0.979948  11110001110000
      393   -0.066046  10110101010010
      717   -0.070211  11010011100001

 State #    2  Energy =     -55.722870887  S =  0.500

      Det      Coef    Occupancy (Ignoring core)
      ---      ----    --------- --------- -----
       36    0.984248  11110001101000
      463    0.065734  10110101001010

 State #    3  Energy =     -55.660793802  S =  0.500

      Det      Coef    Occupancy (Ignoring core)
      ---      ----    --------- --------- -----
       71   -0.982873  11110001011000
      822    0.070024  11010011001001

 Davidson method: CPU/Wall time =           0.44 /           0.43 sec.

 Oscillator strength (invalid if E(1)/=E(GS)):
 -----------------------------------------
   State                        f
 -----------------------------------------
     2     F(REF-CI)=        0.0004352025
     3     F(REF-CI)=        0.0003741391
 -----------------------------------------

 Dipole moment matrix elements, x, y, z, in A.U.

 Dimension of ionized spaces for PT:
 (N-2) space:         1715 /  (N-1) space:         2842 /  N space:         2891
 (N+1) space:         2842 /  (N+2) space:         1715

 <<<Ionized spaces for internal:
         0:         1225 /      -1-0:         1960 /     0-1-0:         2891
  -1-0-1-0:         2842 / 0-1-0-1-0:         3381

 Diagonal elements of averaged one-particle density matrix:
       2       3       4       5       6       7       8
  0.9943  0.9893  0.9885  0.9933  0.0098  0.0112  0.0136
  0.9902  0.6611  0.6594  0.6636  0.0082  0.0079  0.0096

 Orbital energies:
 -------- Doubly-occupied orbitals (highest several orbs.) -------
             1
 -1.598722D+01
 -------- Active orbitals ----------------------------------------
             2            3            4            5            6
 -1.536324D+00-9.723146D-01-9.075199D-01-7.603086D-01 4.333151D-01
             7            8
  4.122219D-01 3.168620D-01
 -------- External orbitals (lowest several orbs.) ---------------
             9           10           11           12           13
  1.558516D-01 1.990344D-01 2.000708D-01 5.431330D-01 5.789855D-01
            14           15           16           17           18
  6.221002D-01 8.297138D-01 9.579650D-01 9.693409D-01 1.344685D+00

 *** Quasi-degeneracy checking

 === Det (|Ci| > 1.0D-01 and dE < 5.0D-03)

 # of small denominators (single excitations)
 State       dEmin  dE < 5.0D-03  dE < 5.0D-04  dE < 5.0D-05  dE < 5.0D-06
 ----- ----------- ------------- ------------- ------------- -------------
     1    5.00D-03             0             0             0             0
     2    5.00D-03             0             0             0             0
     3    5.00D-03             0             0             0             0

 # of small denominators (double excitations)
 State       dEmin  dE < 5.0D-03  dE < 5.0D-04  dE < 5.0D-05  dE < 5.0D-06
 ----- ----------- ------------- ------------- ------------- -------------
     1    5.00D-03             0             0             0             0
     2    5.00D-03             0             0             0             0
     3    5.00D-03             0             0             0             0

 *** Zeroth-Order Setup (Granovsky's zeroth-order vectors)
 Zeroth-order effective Hamiltonian
  (= Sum_i e(i)*<I|a+(i)a(i)|J> ):
                   1            2            3
     1 -7.493445D+00
     2  4.735855D-03-7.366632D+00
     3  2.322839D-04 1.172373D-04-7.297851D+00

 Zeroth-order vectors:
 State #    1
       MC st            1           2           3
       Coeff   -9.993D-01   3.727D-02   1.163D-03
 State #    2
       MC st            2           1           3
       Coeff   -9.993D-01  -3.726D-02   1.834D-03
 State #    3
       MC st            3           2           1
       Coeff    1.000D+00   1.789D-03   1.231D-03

 *** GMC-QDPT computation

 (Integral reading:  CPU/Wall time =           0.00 /           0.00 sec.)

 One-external:
   0 -ionized terms: CPU/Wall time =           0.03 /           0.03 sec.
 (-1)-ionized terms: CPU/Wall time =           0.09 /           0.09 sec.
 (+1)-ionized terms: CPU/Wall time =           0.02 /           0.02 sec.
 (+1)-ionized terms: CPU/Wall time =           0.01 /           0.01 sec.
 (+2)-ionized terms: CPU/Wall time =           0.00 /           0.00 sec.

 Internal:
 # of macro loops for internal contribution =         1 (input)
 Loop:    1
 Dimension of internal CISD space     =         0  (after screening)
 Space construction: CPU/Wall time =           0.02 /           0.02 sec.
 Internal terms:     CPU/Wall time =           0.00 /           0.00 sec.

 Two-external:
   0 -ionized terms: CPU/Wall time =           0.06 /           0.06 sec.
 (-1)-ionized terms: CPU/Wall time =           0.93 /           0.93 sec.
 (-2)-ionized terms: CPU/Wall time =           0.17 /           0.17 sec.

 Total time:         CPU/Wall time =           1.33 /           1.33 sec.

 ***                  ***
 *** GMC-QDPT Results ***
 ***                  ***

 Diagonal elements of effective Hamiltonian:
 Heff(  1) =   -56.00343631
 Heff(  2) =   -55.83242890
 Heff(  3) =   -55.77147344

 Off-diagonal elements of effective Hamiltonian:
                   1            2
     2 -6.084207D-03
     3  2.641839D-04 1.106261D-04

 ******** GMC-QDPT energies ********
 ----------------------------------------------------------------------------
   State                        1st order                           2nd order
 ----------------------------------------------------------------------------
     1     E(REF-CI)=      -55.9061611568   E(GMC-QDPT2)=      -56.0036528162
     2     E(REF-CI)=      -55.7228708869   E(GMC-QDPT2)=      -55.8322128742
     3     E(REF-CI)=      -55.6607938023   E(GMC-QDPT2)=      -55.7714729621
 ----------------------------------------------------------------------------

 Excitation energies (invalid if E(1)/=E(GS)):
 ----------------------------------------------------------------------------
   State                        1st order                           2nd order
 ----------------------------------------------------------------------------

     TZ Sorted GMC-PT ENERGIES:
         1      -56.0036528162
         2      -55.8322128742
         3      -55.7714729621
     2     E(REF-CI)=        4.9875849 eV   E(GMC-QDPT2)=        4.6651208 eV
     3     E(REF-CI)=        6.6767892 eV   E(GMC-QDPT2)=        6.3179389 eV
 ----------------------------------------------------------------------------

 Main characters of perturbed GMC-QDPT states:

 State #    1  Energy =     -56.003652816  S =  0.500

      Det      Coef    Occupancy (Ignoring core)
      ---      ----    --------- --------- -----
        1   -0.979978  11110001110000
      393   -0.066045  10110101010010
      717   -0.070212  11010011100001

 State #    2  Energy =     -55.832212874  S =  0.500

      Det      Coef    Occupancy (Ignoring core)
      ---      ----    --------- --------- -----
       36    0.984276  11110001101000
      463    0.065736  10110101001010

 State #    3  Energy =     -55.771472962  S =  0.500

      Det      Coef    Occupancy (Ignoring core)
      ---      ----    --------- --------- -----
       71   -0.982874  11110001011000
      822    0.070024  11010011001001

 <<<Max |V/de| = 3.064D-02  Thresh = 1.000D+00

 Oscillator strength (invalid if E(1)/=E(GS)):
 ----------------------------------------------------------------------------
   State                        1st order                           2nd order
 ----------------------------------------------------------------------------
     2     F(REF-CI)=        0.0004352025     F(GMC-PT2)=        0.0004201496
     3     F(REF-CI)=        0.0003741391     F(GMC-PT2)=        0.0003611151
 ----------------------------------------------------------------------------

 Dipole moment matrix elements, x, y, z, in A.U.
States    1    1       -0.0537059435        0.1087191289        0.7710152613
States    1    2       -0.0097839022        0.0167679096        0.0574384694
States    1    3       -0.0410152539       -0.0251808645        0.0040817152
States    2    1       -0.0097839022        0.0167679096        0.0574384694
States    2    2        0.0125056337       -0.0498306310        0.2558404471
States    2    3        0.2409573344        0.1217894290       -0.0001352874
States    3    1       -0.0410152539       -0.0251808645        0.0040817152
States    3    2        0.2409573344        0.1217894290       -0.0001352874
States    3    3       -0.1543286761        0.3309350977        0.2544551983

 Oscillator strength (valid only when positive): 
 ----------------------------------------------------------------------------
  States                        1st order                           2nd order
 ----------------------------------------------------------------------------
  1  1     F(REF-CI)=        0.0000000000     F(GMC-PT2)=        0.0000000000
  1  2     F(REF-CI)=       -0.0004352025     F(GMC-PT2)=       -0.0004201496
  1  3     F(REF-CI)=       -0.0003741391     F(GMC-PT2)=       -0.0003611151
  2  1     F(REF-CI)=        0.0004352025     F(GMC-PT2)=        0.0004201496
  2  2     F(REF-CI)=        0.0000000000     F(GMC-PT2)=        0.0000000000
  2  3     F(REF-CI)=       -0.0030185979     F(GMC-PT2)=       -0.0029516811
  3  1     F(REF-CI)=        0.0003741391     F(GMC-PT2)=        0.0003611151
  3  2     F(REF-CI)=        0.0030185979     F(GMC-PT2)=        0.0029516811
  3  3     F(REF-CI)=        0.0000000000     F(GMC-PT2)=        0.0000000000
 CPU     0: STEP CPU TIME=     1.83 TOTAL CPU TIME=         11.7 (      0.2 MIN)
 TOTAL WALL CLOCK TIME=         11.7 SECONDS, CPU UTILIZATION IS    99.91%

     !!! DIABATIZATION FOR REF CI STATES !!!

 *******************************************************
          $DMO GROUP FOUND IN THE INPUT.
        DIABATIZATION OF ADIABATIC STATES BEGINS.
     PROGRAMMED BY TAO ZENG (CARLETON UNIVERSITY).
               Email: toby.zeng@carleton.ca
     See T. Zeng, J. Chem. Phys. 2017, 146, 144103
 *******************************************************

 *************************************************************************
     STEP 1: TRANSFORMATION OF ADIABATIC STATES TO THE DMO REPRESENTATION
         See Atchity and Ruedenberg, J. Chem. Phys. 1999, 111, 2910
 *************************************************************************

Read in Diabatic Molecualr Orbitals:

                      1          2          3          4          5

    1  N  1  S    0.008609   0.000000   0.000000  -0.013219   0.279491
    2  N  1  S    0.442914  -0.000000   0.000000  -0.184329   0.867803
    3  N  1  S    0.276913   0.000000  -0.000000  -0.288315   0.144236
    4  N  1  X   -0.000000   0.493155  -0.024636  -0.000000  -0.000000
    5  N  1  Y    0.000000   0.024636   0.493155  -0.000000   0.000000
    6  N  1  Z    0.090197   0.000000   0.000000   0.593421   0.705309
    7  N  1  X   -0.000000   0.210628  -0.010522   0.000000   0.000000
    8  N  1  Y    0.000000   0.010522   0.210628  -0.000000  -0.000000
    9  N  1  Z   -0.004381   0.000000   0.000000   0.381592  -0.106092
   10  N  1 XX   -0.000457   0.010719  -0.000535  -0.012387   0.006153
   11  N  1 YY   -0.000457  -0.010719   0.000535  -0.012387   0.006153
   12  N  1 ZZ    0.000914  -0.000000   0.000000   0.024773  -0.012306
   13  N  1 XY    0.000000  -0.000618  -0.012377  -0.000000   0.000000
   14  N  1 XZ   -0.000000   0.026529  -0.001325  -0.000000   0.000000
   15  N  1 YZ    0.000000   0.001325   0.026529  -0.000000   0.000000
   16  H  2  S    0.194462  -0.176074   0.343485   0.112865  -0.523343
   17  H  2  S    0.003574  -0.023812   0.046452   0.024014  -0.054445
   18  H  2  X    0.018760   0.009101   0.022834   0.009336  -0.039151
   19  H  2  Y   -0.032493   0.022287  -0.020044  -0.016171   0.067811
   20  H  2  Z   -0.009251   0.008464  -0.016511   0.018769  -0.010566
   21  H  3  S    0.194462  -0.209430  -0.324227   0.112865  -0.523343
   22  H  3  S    0.003574  -0.028322  -0.043847   0.024014  -0.054445
   23  H  3  X    0.018760   0.006781  -0.023627   0.009336  -0.039151
   24  H  3  Y    0.032493  -0.024174  -0.017723   0.016171  -0.067811
   25  H  3  Z   -0.009251   0.010067   0.015585   0.018769  -0.010566
   26  H  4  S    0.194462   0.385503  -0.019258   0.112865  -0.523343
   27  H  4  S    0.003574   0.052134  -0.002604   0.024014  -0.054445
   28  H  4  X   -0.037519  -0.032295   0.001613  -0.018672   0.078302
   29  H  4  Y    0.000000   0.001067   0.021353  -0.000000   0.000000
   30  H  4  Z   -0.009251  -0.018530   0.000926   0.018769  -0.010566

                      6          7

    1  N  1  S    0.000000  -0.000000
    2  N  1  S    0.000000  -0.000000
    3  N  1  S   -0.000000   0.000000
    4  N  1  X   -0.930415  -0.002083
    5  N  1  Y   -0.002083   0.930415
    6  N  1  Z   -0.000000   0.000000
    7  N  1  X   -0.046866  -0.000105
    8  N  1  Y   -0.000105   0.046866
    9  N  1  Z   -0.000000   0.000000
   10  N  1 XX    0.001538   0.000003
   11  N  1 YY   -0.001538  -0.000003
   12  N  1 ZZ   -0.000000   0.000000
   13  N  1 XY   -0.000004   0.001776
   14  N  1 XZ    0.039985   0.000090
   15  N  1 YZ    0.000090  -0.039985
   16  H  2  S   -0.362630  -0.631354
   17  H  2  S   -0.065964  -0.114846
   18  H  2  X    0.002763  -0.037520
   19  H  2  Y    0.037435   0.040736
   20  H  2  Z    0.001882   0.003276
   21  H  3  S   -0.365454   0.629724
   22  H  3  S   -0.066477   0.114549
   23  H  3  X    0.002595   0.037532
   24  H  3  Y   -0.037617   0.040567
   25  H  3  Z    0.001896  -0.003268
   26  H  4  S    0.728084   0.001630
   27  H  4  S    0.132441   0.000297
   28  H  4  X   -0.062317  -0.000140
   29  H  4  Y    0.000055  -0.024345
   30  H  4  Z   -0.003778  -0.000008

NUMBER OF SUB ACTIVE SPACES:   1
ROTATE ACTIVE MOS TO DMOS IN EACH SUB-SPACE

SPACE  1:

OVERLAP BETWEEN ORTHONORMAL AND PRE-ORTHONORMAL REF. DMOS

             1           2           3           4           5

    1    0.9973746  -0.0049728   0.0107258  -0.0009036   0.0003703
    2   -0.0049728   1.0089675   0.0214881  -0.0064065   0.0114675
    3    0.0107258   0.0214881   0.9824391   0.0143285  -0.0265704
    4   -0.0009036  -0.0064065   0.0143285   0.9993768  -0.0012737
    5    0.0003703   0.0114675  -0.0265704  -0.0012737   1.0157874
    6    0.0010099   0.0088691   0.0183674  -0.0072191  -0.0046453
    7    0.0021237  -0.0184004   0.0112452  -0.0148589  -0.0061133

             6           7

    1    0.0010099   0.0021237
    2    0.0088691  -0.0184004
    3    0.0183674   0.0112452
    4   -0.0072191  -0.0148589
    5   -0.0046453  -0.0061133
    6    1.0006800   0.0116599
    7    0.0116599   1.0127216
REFERENCE DMOS AFTER ORTHONORMALIZATION:

                      1          2          3          4          5

    1  N  1  S    0.008416  -0.003318   0.007583  -0.012972   0.275377
    2  N  1  S    0.443320  -0.009137   0.021098  -0.183285   0.854595
    3  N  1  S    0.277272  -0.002241   0.005135  -0.288224   0.141659
    4  N  1  X    0.003595   0.497828  -0.018978  -0.003029  -0.010286
    5  N  1  Y   -0.007060   0.030614   0.491710   0.006599   0.017930
    6  N  1  Z    0.090567  -0.003707   0.008949   0.594845   0.695443
    7  N  1  X    0.001244   0.209620  -0.014551   0.001265  -0.002941
    8  N  1  Y   -0.002362   0.006622   0.214046  -0.002399   0.005766
    9  N  1  Z   -0.003910   0.003845  -0.008532   0.381934  -0.104187
   10  N  1 XX   -0.000416   0.010475  -0.000457  -0.012303   0.005919
   11  N  1 YY   -0.000536  -0.010794   0.001169  -0.012489   0.006186
   12  N  1 ZZ    0.000951   0.000319  -0.000712   0.024792  -0.012104
   13  N  1 XY    0.000130  -0.000306  -0.012630   0.000208  -0.000314
   14  N  1 XZ    0.000118   0.026009  -0.002676   0.000494  -0.000180
   15  N  1 YZ   -0.000212  -0.000011   0.027488  -0.000985   0.000479
   16  H  2  S    0.192274  -0.182918   0.350333   0.094306  -0.509369
   17  H  2  S    0.003282  -0.025382   0.048585   0.020943  -0.052999
   18  H  2  X    0.018712   0.008429   0.022073   0.008511  -0.038269
   19  H  2  Y   -0.032420   0.021913  -0.019679  -0.014828   0.066404
   20  H  2  Z   -0.009030   0.009014  -0.017563   0.019141  -0.010903
   21  H  3  S    0.197136  -0.177954  -0.344443   0.122893  -0.520042
   22  H  3  S    0.003829  -0.023627  -0.046051   0.025685  -0.054125
   23  H  3  X    0.019074   0.008540  -0.026125   0.010312  -0.039080
   24  H  3  Y    0.032676  -0.021448  -0.019733   0.016594  -0.066954
   25  H  3  Z   -0.009365   0.009771   0.015212   0.018571  -0.010098
   26  H  4  S    0.197102   0.384592  -0.059450   0.120986  -0.517722
   27  H  4  S    0.003837   0.051471  -0.008108   0.025361  -0.053759
   28  H  4  X   -0.037833  -0.032784   0.006300  -0.019364   0.077328
   29  H  4  Y   -0.000185   0.000136   0.022035  -0.000676   0.000428
   30  H  4  Z   -0.009352  -0.018169   0.000963   0.018603  -0.010162

                      6          7

    1  N  1  S    0.001051   0.001298
    2  N  1  S    0.001878   0.001118
    3  N  1  S   -0.001729  -0.004033
    4  N  1  X   -0.934128   0.017839
    5  N  1  Y   -0.021894   0.914296
    6  N  1  Z    0.007151   0.012487
    7  N  1  X   -0.048482   0.004423
    8  N  1  Y   -0.004594   0.044078
    9  N  1  Z    0.002339   0.005121
   10  N  1 XX    0.001391   0.000039
   11  N  1 YY   -0.001519  -0.000340
   12  N  1 ZZ    0.000128   0.000301
   13  N  1 XY    0.000208   0.001887
   14  N  1 XZ    0.039778   0.000139
   15  N  1 YZ    0.000044  -0.039800
   16  H  2  S   -0.361747  -0.628566
   17  H  2  S   -0.065359  -0.113671
   18  H  2  X    0.002581  -0.037315
   19  H  2  Y    0.037336   0.040662
   20  H  2  Z    0.002175   0.003803
   21  H  3  S   -0.366314   0.624873
   22  H  3  S   -0.066776   0.114003
   23  H  3  X    0.002436   0.037353
   24  H  3  Y   -0.037730   0.040092
   25  H  3  Z    0.001661  -0.003006
   26  H  4  S    0.723552  -0.000836
   27  H  4  S    0.131975  -0.000162
   28  H  4  X   -0.061844   0.000171
   29  H  4  Y   -0.000071  -0.024287
   30  H  4  Z   -0.003535  -0.000077

 -------------------------------------------
       MAXIMIZING MORMO OVERLAP TERM        
 -------------------------------------------
   SWEEP    VALUE       PROGRESS
     0     5.81768
     1     6.98434     1.16666355
     2     6.99475     0.01040544
     3     6.99475     0.00000036
     4     6.99475     0.00000000
     5     6.99475     0.00000000
 THE ROTATION IS DONE
FLIPPING SIGN FOR ORBITAL   7
ACTIVE ORBITALS AFTER MORMO:

                      1          2          3          4          5

    1  N  1  S    0.008274  -0.004693   0.010570  -0.012898   0.268124
    2  N  1  S    0.440893  -0.010800   0.023877  -0.184478   0.844987
    3  N  1  S    0.284918   0.009343  -0.019136  -0.286571   0.150928
    4  N  1  X    0.001104   0.496398  -0.014338  -0.006143  -0.006999
    5  N  1  Y   -0.002554   0.034826   0.485379   0.012214   0.011708
    6  N  1  Z    0.089272  -0.006257   0.014589   0.594823   0.694417
    7  N  1  X    0.005476   0.202642  -0.031365   0.009216  -0.010277
    8  N  1  Y   -0.010071  -0.009911   0.225306  -0.018050   0.019918
    9  N  1  Z   -0.000008   0.011109  -0.024676   0.381837  -0.102877
   10  N  1 XX   -0.000146   0.009002  -0.003336  -0.012053  -0.003134
   11  N  1 YY   -0.000800  -0.009213   0.003818  -0.012445   0.013159
   12  N  1 ZZ    0.000946   0.000211  -0.000482   0.024498  -0.010025
   13  N  1 XY    0.000859   0.002875  -0.014916   0.000241  -0.019382
   14  N  1 XZ    0.000099   0.024664  -0.002418  -0.000333   0.009610
   15  N  1 YZ   -0.000016   0.000096   0.025873   0.000457  -0.019037
   16  H  2  S    0.194690  -0.178849   0.346164   0.103471  -0.517677
   17  H  2  S    0.004763  -0.030548   0.057382   0.021717  -0.056315
   18  H  2  X    0.017413   0.010389   0.021310   0.009488  -0.037985
   19  H  2  Y   -0.031010   0.021360  -0.017632  -0.016539   0.065756
   20  H  2  Z   -0.011782   0.009871  -0.019509   0.018306  -0.009895
   21  H  3  S    0.192138  -0.198398  -0.331051   0.116741  -0.514184
   22  H  3  S    0.002293  -0.019927  -0.048744   0.026117  -0.054666
   23  H  3  X    0.022811   0.001530  -0.028329   0.010259  -0.041222
   24  H  3  Y    0.029571  -0.024788  -0.015182   0.014634  -0.062320
   25  H  3  Z   -0.007732   0.010468   0.013296   0.019161  -0.011814
   26  H  4  S    0.192368   0.384643  -0.033202   0.115793  -0.512122
   27  H  4  S    0.002456   0.052551  -0.013269   0.025991  -0.054679
   28  H  4  X   -0.036772  -0.033942  -0.000873  -0.017837   0.074485
   29  H  4  Y   -0.005388  -0.006163   0.021045  -0.001635   0.004565
   30  H  4  Z   -0.007967  -0.017180  -0.000887   0.019087  -0.012003

                      6          7

    1  N  1  S   -0.006491  -0.015342
    2  N  1  S   -0.015796  -0.036387
    3  N  1  S    0.021696   0.045185
    4  N  1  X   -0.932326   0.016308
    5  N  1  Y   -0.020373   0.913199
    6  N  1  Z    0.018441   0.034518
    7  N  1  X   -0.055960   0.013104
    8  N  1  Y   -0.013242   0.043886
    9  N  1  Z   -0.006918  -0.012311
   10  N  1 XX   -0.007002   0.018812
   11  N  1 YY    0.008486  -0.015641
   12  N  1 ZZ   -0.001484  -0.003170
   13  N  1 XY    0.019798   0.011646
   14  N  1 XZ    0.044728  -0.008427
   15  N  1 YZ    0.008499  -0.036401
   16  H  2  S   -0.356831  -0.622554
   17  H  2  S   -0.071152  -0.122958
   18  H  2  X    0.011212  -0.039276
   19  H  2  Y    0.039101   0.034743
   20  H  2  Z    0.004757   0.006916
   21  H  3  S   -0.377270   0.616610
   22  H  3  S   -0.069099   0.115978
   23  H  3  X   -0.006570   0.040053
   24  H  3  Y   -0.039701   0.036953
   25  H  3  Z   -0.007608  -0.004080
   26  H  4  S    0.721278  -0.015706
   27  H  4  S    0.136091  -0.000956
   28  H  4  X   -0.063435   0.006604
   29  H  4  Y   -0.007177  -0.021379
   30  H  4  Z   -0.000238  -0.009282

Actually Used Diabatic Molecualr Orbitals:

                      1          2          3          4          5

    1  N  1  S    0.008274  -0.004693   0.010570  -0.012898   0.268124
    2  N  1  S    0.440893  -0.010800   0.023877  -0.184478   0.844987
    3  N  1  S    0.284918   0.009343  -0.019136  -0.286571   0.150928
    4  N  1  X    0.001104   0.496398  -0.014338  -0.006143  -0.006999
    5  N  1  Y   -0.002554   0.034826   0.485379   0.012214   0.011708
    6  N  1  Z    0.089272  -0.006257   0.014589   0.594823   0.694417
    7  N  1  X    0.005476   0.202642  -0.031365   0.009216  -0.010277
    8  N  1  Y   -0.010071  -0.009911   0.225306  -0.018050   0.019918
    9  N  1  Z   -0.000008   0.011109  -0.024676   0.381837  -0.102877
   10  N  1 XX   -0.000146   0.009002  -0.003336  -0.012053  -0.003134
   11  N  1 YY   -0.000800  -0.009213   0.003818  -0.012445   0.013159
   12  N  1 ZZ    0.000946   0.000211  -0.000482   0.024498  -0.010025
   13  N  1 XY    0.000859   0.002875  -0.014916   0.000241  -0.019382
   14  N  1 XZ    0.000099   0.024664  -0.002418  -0.000333   0.009610
   15  N  1 YZ   -0.000016   0.000096   0.025873   0.000457  -0.019037
   16  H  2  S    0.194690  -0.178849   0.346164   0.103471  -0.517677
   17  H  2  S    0.004763  -0.030548   0.057382   0.021717  -0.056315
   18  H  2  X    0.017413   0.010389   0.021310   0.009488  -0.037985
   19  H  2  Y   -0.031010   0.021360  -0.017632  -0.016539   0.065756
   20  H  2  Z   -0.011782   0.009871  -0.019509   0.018306  -0.009895
   21  H  3  S    0.192138  -0.198398  -0.331051   0.116741  -0.514184
   22  H  3  S    0.002293  -0.019927  -0.048744   0.026117  -0.054666
   23  H  3  X    0.022811   0.001530  -0.028329   0.010259  -0.041222
[...]
      463   -0.034210    0.034210  20+2020
      813   -0.034120    0.034120  20+20+-
      123   -0.031362    0.031362  +-2200+
      248    0.027735   -0.027735  2+02200
      320    0.027599    0.027599  0+22200
      810    0.025940    0.025940  -++2+0-
      332    0.025133   -0.025133  ++-2-0+
       41   -0.024682    0.024682  22+-0+0
      323   -0.024433    0.024433  +022-+0
      262    0.022178    0.022178  2+02-0+
      391    0.022010   -0.022010  2+20020
       73    0.021764   -0.021764  2+-2+00
       86   -0.021350   -0.021350  2+2-00+
      177    0.020746   -0.020746  2+20200
      317    0.020738   -0.020738  ++2-200
      180   -0.020640    0.020640  -+2+200
      421   -0.020639   -0.020639  +22+0-0
      472   -0.020594   -0.020594  2+020-+
       39   -0.020257   -0.020257  2-+2+00
      808   -0.020058    0.020058  2+02+0-

 State #    3  Energy =     -55.816484672

      Det      Coef        Coefp    Occupancy (Ignoring core)
      ---      ----        ----    --------- --------- -----
       36   -0.826602   -0.826602  22+2000
       71   -0.523620    0.523620  2+22000
        1    0.104184   -0.104184  222+000
      463    0.055557   -0.055557  20+2020
      822    0.037281   -0.037281  2+02002
      472    0.035014    0.035014  2+020-+
      122    0.030697    0.030697  +2-200+
      285    0.027844   -0.027844  02+2200
      121    0.026980   -0.026980  +22-00+
       38    0.026876   -0.026876  2202+00
      460   -0.025100   -0.025100  -++2+-0
      297   -0.024827    0.024827  +202-0+
      288   -0.024529   -0.024529  +-+2-+0
      157   -0.023996    0.023996  220+-0+
       16    0.023466   -0.023466  222000+
      142    0.023258    0.023258  22+0200
      111    0.022511   -0.022511  +22-0+0
      145   -0.021837   -0.021837  -2++200
      823    0.021112   -0.021112  20+2002
       88   -0.020581    0.020581  202200+
      813   -0.020181    0.020181  20+20+-

 ---------------------------------------
    -DIABATIC STATES IN PROTOTYPES-     
 ---------------------------------------

     STATE:    1
 Group Ref#    Coefficients
     1    1    0.993324
     2    2   -0.000446
     3    3    0.000847

WEIGHT OF LISTED PROTOTYPES:   98.67%

     STATE:    2
 Group Ref#    Coefficients
     1    1   -0.000446
     2    2    0.992218
     3    3   -0.000994

WEIGHT OF LISTED PROTOTYPES:   98.45%

     STATE:    3
 Group Ref#    Coefficients
     1    1    0.000847
     2    2   -0.000994
     3    3    0.992892

WEIGHT OF LISTED PROTOTYPES:   98.58%

 --------------------------------------------------
 IN DIRECT MAX. DIABATIZATION FOR GMC-QDPT

 DIRECT MAXIMIZATION (DM) WITHOUT TRUNCATING ADIABATS
 EXPANSIONS INTO THE REFERENCE CONFIGURATION SPACE
 --------------------------------------------------

 -------------------------------------------
 - DM DIABT PT HAMILTONIAN MATRIX ELEMENTS -
 -------------------------------------------
                                            
 --- DIABATIC ENERGIES (DIAGONAL ELEMENT) ---       HARTREE            EV
 STATE #  1'S GMC-PT-LEVEL DIABATIC ENERGY=     -56.001785287       0.000000000
 STATE #  2'S GMC-PT-LEVEL DIABATIC ENERGY=     -55.789068707       5.788312952
 STATE #  3'S GMC-PT-LEVEL DIABATIC ENERGY=     -55.816484659       5.042286914

 --- DIABATIC COUPLINGS (OFF DIAGONAL ELEMENTS)---  HATREE            EV
 STATE #  1 &  2'S GMC-PT-LEVEL COUPLING  =       0.007980368       0.217156870
 STATE #  1 &  3'S GMC-PT-LEVEL COUPLING  =      -0.015930367      -0.433487368
 STATE #  2 &  3'S GMC-PT-LEVEL COUPLING  =       0.028128864       0.765425365

 ---------------------------------------
     - ROTATION TO DIABATIC STATES -    
 ---------------------------------------
 ROWS=ADIABATIC, COLUMNS=DIABATIC STATES

             1           2           3

    1    0.9945484  -0.0490497   0.0920201
    2    0.1040104   0.5296164  -0.8418363
    3    0.0074435  -0.8468179  -0.5318308

 ---------------------------------------
          - DIABATIC STATES -           
 ---------------------------------------

 State #    1  Energy =     -56.001785287

      Det      Coef        Coefp    Occupancy (Ignoring core)
      ---      ----        ----    --------- --------- -----
        1    0.976645   -0.976645  222+000
      717   -0.073464   -0.073464  220+002
      393   -0.069702   -0.069702  202+020
       17    0.060968    0.060968  22-+00+
        8   -0.038036    0.038036  2-2+0+0
      402    0.037557   -0.037557  2+-+0-+
      708    0.036951   -0.036951  2-++0+-
        3   -0.035841   -0.035841  22-++00
      141    0.034753    0.034753  22++-00
      215   -0.034152   -0.034152  022+200
      227   -0.032911   -0.032911  +2-+-0+
      701   -0.032897   -0.032897  22++00-
      705   -0.032678   -0.032678  -2+++0-
      218    0.032511   -0.032511  +-2+-+0
      390    0.032324   -0.032324  -+2++-0
        2    0.028929   -0.028929  2220+00
       51   -0.028070    0.028070  22+-00+
      212    0.027933    0.027933  +220200
       76    0.026899    0.026899  2+2-0+0
      122    0.026224    0.026224  +2-200+
      113   -0.024753    0.024753  +-220+0
      106   -0.023217   -0.023217  +222000
        7    0.023045    0.023045  22-+0+0
      179   -0.022957   -0.022957  202+200
       16   -0.022929    0.022929  222000+
      773    0.022488   -0.022488  +2-++0-
      702    0.022002    0.022002  22+0+0-
      159    0.021761   -0.021761  -2++-0+
      387   -0.021681    0.021681  2+20+-0
      424   -0.021257   -0.021257  +-2++-0
      143   -0.020985   -0.020985  220+200
      184   -0.020798   -0.020798  -+2+-+0
      351   -0.020625   -0.020625  22++0-0
      368   -0.020279   -0.020279  2-++0-+
      742   -0.020088   -0.020088  2+-+0+-

 State #    2  Energy =     -55.789068707

      Det      Coef        Coefp    Occupancy (Ignoring core)
      ---      ----        ----    --------- --------- -----
       71   -0.979099    0.979099  2+22000
      822    0.073576   -0.073576  2+02002
       36    0.047127    0.047127  22+2000
      111    0.040508   -0.040508  +22-0+0
      813    0.040484   -0.040484  20+20+-
      246    0.039101    0.039101  2++2-00
       73   -0.035398    0.035398  2+-2+00
      320    0.033959    0.033959  0+22200
      810   -0.033422   -0.033422  -++2+0-
      332   -0.033039    0.033039  ++-2-0+
      323   -0.031496    0.031496  +022-+0
      806   -0.029259   -0.029259  2++200-
      122    0.028231    0.028231  +2-200+
      180   -0.028156    0.028156  -+2+200
      317    0.027974   -0.027974  ++2-200
      736    0.027780   -0.027780  2+2+00-
       38   -0.027196    0.027196  2202+00
      177    0.026165   -0.026165  2+20200
        6    0.025870   -0.025870  22200+0
       86   -0.025605   -0.025605  2+2-00+
       78   -0.024566    0.024566  20220+0
      391    0.024443   -0.024443  2+20020
       99   -0.024129    0.024129  20-20++
      113    0.024016   -0.024016  +-220+0
      183   -0.024003    0.024003  202+-+0
      192   -0.023749    0.023749  2+-+-0+
      807   -0.023747    0.023747  2++-+0-
       51    0.023376   -0.023376  22+-00+
      456   -0.023186   -0.023186  2++20-0
       77    0.023097   -0.023097  2+-20+0
      248    0.022979   -0.022979  2+02200
      878    0.022318    0.022318  ++-2+0-
      264    0.021795   -0.021795  -++2-0+
      421   -0.021687   -0.021687  +22+0-0
      751    0.020831   -0.020831  2+20002
       87    0.020348   -0.020348  2+-200+

 State #    3  Energy =     -55.816484659

      Det      Coef        Coefp    Occupancy (Ignoring core)
      ---      ----        ----    --------- --------- -----
       36   -0.979087   -0.979087  22+2000
      463    0.068842   -0.068842  20+2020
       71   -0.047223    0.047223  2+22000
       39   -0.042715   -0.042715  2-+2+00
      472   -0.040565   -0.040565  2+020-+
       38    0.038266   -0.038266  2202+00
      121   -0.037993    0.037993  +22-00+
       41   -0.035532    0.035532  22+-0+0
      285    0.033637   -0.033637  02+2200
      460   -0.032821   -0.032821  -++2+-0
      297    0.032708   -0.032708  +202-0+
      288   -0.032280   -0.032280  +-+2-+0
      145   -0.028267   -0.028267  -2++200
       51   -0.028115    0.028115  22+-00+
      282    0.028022    0.028022  +2+-200
      123    0.027841   -0.027841  +-2200+
      701    0.027526    0.027526  22++00-
      142    0.026126    0.026126  22+0200
      106    0.026099    0.026099  +222000
       16   -0.025347    0.025347  222000+
      157    0.025196   -0.025196  220+-0+
      351    0.025061    0.025061  22++0-0
       53    0.024702    0.024702  2-+200+
      249    0.024259   -0.024259  20+2200
       64    0.024046   -0.024046  2-020++
      716    0.023938    0.023938  22+0002
      806   -0.023444   -0.023444  2++200-
       73    0.023212   -0.023212  2+-2+00
      112   -0.023197   -0.023197  +2-20+0
      457   -0.022941    0.022941  2++-+-0
      148   -0.022712   -0.022712  2-++-+0
      494    0.021222   -0.021222  +-+2+-0
      356    0.020936    0.020936  22+0020
       86    0.020588    0.020588  2+2-00+
      254    0.020194   -0.020194  -++2-+0

 ---------------------------------------
      - DIABATIC STATES IN CMO -        
 ---------------------------------------

 State #    1  Energy =     -56.001785287

      Det      Coef        Coefp    Occupancy (Ignoring core)
      ---      ----        ----    --------- --------- -----
        1    0.972931   -0.972931  222+000
       36    0.117431    0.117431  22+2000
      717   -0.069798   -0.069798  220+002
      393   -0.065771   -0.065771  202+020
        8   -0.044423    0.044423  2-2+0+0
       17   -0.042269   -0.042269  22-+00+
      708   -0.039609    0.039609  2-++0+-
      402   -0.037302    0.037302  2+-+0-+
      215   -0.032990   -0.032990  022+200
      705    0.031130    0.031130  -2+++0-
      143   -0.029716   -0.029716  220+200
      218    0.029519   -0.029519  +-2+-+0
      227    0.029402    0.029402  +2-+-0+
      390    0.028987   -0.028987  -+2++-0
        2    0.027371   -0.027371  2220+00
       51    0.027123   -0.027123  22+-00+
       76    0.025804    0.025804  2+2-0+0
      106   -0.025700   -0.025700  +222000
      122   -0.025302   -0.025302  +2-200+
      113   -0.024476    0.024476  +-220+0
      212    0.024011    0.024011  +220200
      753   -0.023861   -0.023861  202+002
      368    0.023707    0.023707  2-++0-+
      703    0.022920    0.022920  220++0-
      702   -0.022411   -0.022411  22+0+0-
      742    0.021620    0.021620  2+-+0+-
      157   -0.020722    0.020722  220+-0+
      159   -0.020110    0.020110  -2++-0+

 State #    2  Energy =     -55.789068707

      Det      Coef        Coefp    Occupancy (Ignoring core)
      ---      ----        ----    --------- --------- -----
       71   -0.831746    0.831746  2+22000
       36    0.521507    0.521507  22+2000
      822    0.059271   -0.059271  2+02002
        1   -0.056350    0.056350  222+000
      111    0.037262   -0.037262  +22-0+0
      463   -0.034210    0.034210  20+2020
      813   -0.034120    0.034120  20+20+-
      123   -0.031362    0.031362  +-2200+
      248    0.027735   -0.027735  2+02200
      320    0.027599    0.027599  0+22200
      810    0.025940    0.025940  -++2+0-
      332    0.025133   -0.025133  ++-2-0+
       41   -0.024682    0.024682  22+-0+0
      323   -0.024433    0.024433  +022-+0
      262    0.022178    0.022178  2+02-0+
      391    0.022010   -0.022010  2+20020
       73    0.021764   -0.021764  2+-2+00
       86   -0.021350   -0.021350  2+2-00+
      177    0.020746   -0.020746  2+20200
      317    0.020738   -0.020738  ++2-200
      180   -0.020640    0.020640  -+2+200
      421   -0.020639   -0.020639  +22+0-0
      472   -0.020594   -0.020594  2+020-+
       39   -0.020257   -0.020257  2-+2+00
      808   -0.020058    0.020058  2+02+0-

 State #    3  Energy =     -55.816484659

      Det      Coef        Coefp    Occupancy (Ignoring core)
      ---      ----        ----    --------- --------- -----
       36   -0.826601   -0.826601  22+2000
       71   -0.523620    0.523620  2+22000
        1    0.104184   -0.104184  222+000
      463    0.055557   -0.055557  20+2020
      822    0.037281   -0.037281  2+02002
      472    0.035014    0.035014  2+020-+
      122    0.030697    0.030697  +2-200+
      285    0.027844   -0.027844  02+2200
      121    0.026980   -0.026980  +22-00+
       38    0.026876   -0.026876  2202+00
      460   -0.025100   -0.025100  -++2+-0
      297   -0.024827    0.024827  +202-0+
      288   -0.024529   -0.024529  +-+2-+0
      157   -0.023996    0.023996  220+-0+
       16    0.023466   -0.023466  222000+
      142    0.023258    0.023258  22+0200
      111    0.022511   -0.022511  +22-0+0
      145   -0.021837   -0.021837  -2++200
      823    0.021112   -0.021112  20+2002
       88   -0.020581    0.020581  202200+
      813   -0.020181    0.020181  20+20+-

 ---------------------------------------
    -DIABATIC STATES IN PROTOTYPES-     
 ---------------------------------------

     STATE:    1
 Group Ref#    Coefficients
     1    1    0.993324
     2    2   -0.000446
     3    3    0.000847

WEIGHT OF LISTED PROTOTYPES:   98.67%

     STATE:    2
 Group Ref#    Coefficients
     1    1   -0.000446
     2    2    0.992218
     3    3   -0.000995

WEIGHT OF LISTED PROTOTYPES:   98.45%

     STATE:    3
 Group Ref#    Coefficients
     1    1    0.000848
     2    2   -0.000994
     3    3    0.992892

WEIGHT OF LISTED PROTOTYPES:   98.58%

     DIRECT MAX. DIABATIZATION FINISHED    
 CPU     0: STEP CPU TIME=     0.25 TOTAL CPU TIME=         11.9 (      0.2 MIN)
 TOTAL WALL CLOCK TIME=         11.9 SECONDS, CPU UTILIZATION IS   100.00%

DIABATS FOR SPIN-ORBIT CALCULATION ARE READY

TRANSITION DIPOLES BETWEEN ADIABATS (in A.U.):

STATE PAIR      X         Y         Z
    1    1 -0.053706  0.108719  0.771015
    2    1 -0.009784  0.016768  0.057438
    2    2  0.012506 -0.049831  0.255840
    3    1 -0.041015 -0.025181  0.004082
    3    2  0.240957  0.121789 -0.000135
    3    3 -0.154329  0.330935  0.254455


TRANSITION DIPOLES BETWEEN DIABATS (in A.U.):

STATE PAIR      X         Y         Z
    1    1 -0.055254  0.110301  0.777357
    2    1  0.013463  0.009582  0.001411
    2    2 -0.326323  0.111393  0.253563
    3    1  0.009526  0.004926 -0.002535
    3    2  0.030313  0.226100  0.001952
    3    3  0.186047  0.168130  0.250391

TRANSITION DIPOLES BETWEEN DIRECT MAX. DIABATS (in A.U.):

STATE PAIR      X         Y         Z
    1    1 -0.055254  0.110301  0.777357
    2    1  0.013463  0.009582  0.001411
    2    2 -0.326323  0.111393  0.253563
    3    1  0.009526  0.004926 -0.002535
    3    2  0.030313  0.226100  0.001952
    3    3  0.186047  0.168130  0.250391
 No $TRANST Group Found.
 Quit without doing spin-orbit coupling
 ..... DONE WITH MP2 ENERGY .....
 CPU     0: STEP CPU TIME=     0.00 TOTAL CPU TIME=         11.9 (      0.2 MIN)
 TOTAL WALL CLOCK TIME=         11.9 SECONDS, CPU UTILIZATION IS    99.92%
            100000000  WORDS OF DYNAMIC MEMORY USED
 EXECUTION OF GAMESS TERMINATED NORMALLY Wed Nov 16 19:37:50 2022
 DDI: 715512 bytes (0.7 MB / 0 MWords) used by master data server.

 ----------------------------------------
 CPU timing information for all processes
 ========================================
 0: 11.666 + 0.280 = 11.946
 ----------------------------------------
Note: The following floating-point exceptions are signalling: IEEE_DENORMAL
 ddikick.x: exited gracefully.
unset echo
----- accounting info -----
Files used on the master node io002 were:
-rw-r--r-- 1 bsonghao nooijen   20732 Nov 16 19:37 /scratch/bsonghao/nh3_diabatization_2d_at_mode_7_8_dist0.2_-0.1.F05
-rw-r--r-- 1 bsonghao nooijen  363520 Nov 16 19:37 /scratch/bsonghao/nh3_diabatization_2d_at_mode_7_8_dist0.2_-0.1.F09
-rw-r--r-- 1 bsonghao nooijen 1995920 Nov 16 19:37 /scratch/bsonghao/nh3_diabatization_2d_at_mode_7_8_dist0.2_-0.1.F10
-rw-r--r-- 1 bsonghao nooijen  131264 Nov 16 19:37 /scratch/bsonghao/nh3_diabatization_2d_at_mode_7_8_dist0.2_-0.1.F13
-rw-r--r-- 1 bsonghao nooijen  180312 Nov 16 19:37 /scratch/bsonghao/nh3_diabatization_2d_at_mode_7_8_dist0.2_-0.1.F15
-rw-r--r-- 1 bsonghao nooijen       0 Nov 16 19:37 /scratch/bsonghao/nh3_diabatization_2d_at_mode_7_8_dist0.2_-0.1.F16
-rw-r--r-- 1 bsonghao nooijen    9808 Nov 16 19:37 /scratch/bsonghao/nh3_diabatization_2d_at_mode_7_8_dist0.2_-0.1.F70
-rw-r--r-- 1 bsonghao nooijen    9808 Nov 16 19:37 /scratch/bsonghao/nh3_diabatization_2d_at_mode_7_8_dist0.2_-0.1.F71
-rw-r--r-- 1 bsonghao nooijen   19608 Nov 16 19:37 /scratch/bsonghao/nh3_diabatization_2d_at_mode_7_8_dist0.2_-0.1.F72
-rw-r--r-- 1 bsonghao nooijen   19608 Nov 16 19:37 /scratch/bsonghao/nh3_diabatization_2d_at_mode_7_8_dist0.2_-0.1.F73
-rw-r--r-- 1 bsonghao nooijen 1920824 Nov 16 19:37 /scratch/bsonghao/nh3_diabatization_2d_at_mode_7_8_dist0.2_-0.1.F74
-rw-r--r-- 1 bsonghao nooijen       0 Nov 16 19:37 /scratch/bsonghao/nh3_diabatization_2d_at_mode_7_8_dist0.2_-0.1.F75
-rw-r--r-- 1 bsonghao nooijen   58848 Nov 16 19:37 /scratch/bsonghao/nh3_diabatization_2d_at_mode_7_8_dist0.2_-0.1.F76
-rw-r--r-- 1 bsonghao nooijen       0 Nov 16 19:37 /scratch/bsonghao/nh3_diabatization_2d_at_mode_7_8_dist0.2_-0.1.F77
-rw-r--r-- 1 bsonghao nooijen    1864 Nov 16 19:37 /scratch/bsonghao/nh3_diabatization_2d_at_mode_7_8_dist0.2_-0.1.F78
-rw-r--r-- 1 bsonghao nooijen   39208 Nov 16 19:37 /scratch/bsonghao/nh3_diabatization_2d_at_mode_7_8_dist0.2_-0.1.F79
-rw-r--r-- 1 bsonghao nooijen     104 Nov 16 19:37 /scratch/bsonghao/nh3_diabatization_2d_at_mode_7_8_dist0.2_-0.1.F80
-rw-r--r-- 1 bsonghao nooijen   13472 Nov 16 19:37 /scratch/bsonghao/nh3_diabatization_2d_at_mode_7_8_dist0.2_-0.1.F81
-rw-r--r-- 1 bsonghao nooijen      16 Nov 16 19:37 /scratch/bsonghao/nh3_diabatization_2d_at_mode_7_8_dist0.2_-0.1.F82
-rw-r--r-- 1 bsonghao nooijen   19216 Nov 16 19:37 /scratch/bsonghao/nh3_diabatization_2d_at_mode_7_8_dist0.2_-0.1.F83
-rw-r--r-- 1 bsonghao nooijen   29712 Nov 16 19:37 /scratch/bsonghao/nh3_diabatization_2d_at_mode_7_8_dist0.2_-0.1.F84
-rw-r--r-- 1 bsonghao nooijen  401576 Nov 16 19:37 /scratch/bsonghao/nh3_diabatization_2d_at_mode_7_8_dist0.2_-0.1.F85
-rw-r--r-- 1 bsonghao nooijen  903672 Nov 16 19:37 /scratch/bsonghao/nh3_diabatization_2d_at_mode_7_8_dist0.2_-0.1.F86
-rw-r--r-- 1 bsonghao nooijen     656 Nov 16 19:37 /scratch/bsonghao/nh3_diabatization_2d_at_mode_7_8_dist0.2_-0.1.F87
-rw-r--r-- 1 bsonghao nooijen   22736 Nov 16 19:37 /scratch/bsonghao/nh3_diabatization_2d_at_mode_7_8_dist0.2_-0.1.F88
-rw-r--r-- 1 bsonghao nooijen     240 Nov 16 19:37 /scratch/bsonghao/nh3_diabatization_2d_at_mode_7_8_dist0.2_-0.1.F89
-rw-r--r-- 1 bsonghao nooijen       0 Nov 16 19:37 /scratch/bsonghao/nh3_diabatization_2d_at_mode_7_8_dist0.2_-0.1.F90
-rw-r--r-- 1 bsonghao nooijen   13760 Nov 16 19:37 /scratch/bsonghao/nh3_diabatization_2d_at_mode_7_8_dist0.2_-0.1.F91
-rw-r--r-- 1 bsonghao nooijen   22776 Nov 16 19:37 /scratch/bsonghao/nh3_diabatization_2d_at_mode_7_8_dist0.2_-0.1.F92
-rw-r--r-- 1 bsonghao nooijen   23168 Nov 16 19:37 /scratch/bsonghao/nh3_diabatization_2d_at_mode_7_8_dist0.2_-0.1.F93
-rw-r--r-- 1 bsonghao nooijen   22776 Nov 16 19:37 /scratch/bsonghao/nh3_diabatization_2d_at_mode_7_8_dist0.2_-0.1.F94
-rw-r--r-- 1 bsonghao nooijen   13760 Nov 16 19:37 /scratch/bsonghao/nh3_diabatization_2d_at_mode_7_8_dist0.2_-0.1.F95
-rw-r--r-- 1 bsonghao nooijen   29440 Nov 16 19:37 /scratch/bsonghao/nh3_diabatization_2d_at_mode_7_8_dist0.2_-0.1.F96
-rw-r--r-- 1 bsonghao nooijen    1184 Nov 16 19:37 /scratch/bsonghao/nh3_diabatization_2d_at_mode_7_8_dist0.2_-0.1.F97
-rw-r--r-- 1 bsonghao nooijen    9808 Nov 16 19:37 /scratch/bsonghao/nh3_diabatization_2d_at_mode_7_8_dist0.2_-0.1.F98
-rw-r--r-- 1 bsonghao nooijen   30264 Nov 16 19:37 /scratch/bsonghao/nh3_diabatization_2d_at_mode_7_8_dist0.2_-0.1.F99
ls: No match.
ls: No match.
ls: No match.
Wed 16 Nov 2022 07:37:53 PM EST
0.286u 0.046s 0:15.33 2.0%	0+0k 48+224io 0pf+0w
