----- GAMESS execution script 'rungms' -----
This job is running on host io002
under operating system Linux at Wed 16 Nov 2022 07:49:14 PM EST
Available scratch disk space (Kbyte units) at beginning of the job is
Filesystem       1K-blocks       Used   Available Use% Mounted on
/dev/sdc1      15378471580 3278917120 11318349060  23% /scratch
GAMESS temporary binary files will be written to /scratch/bsonghao
GAMESS supplementary output files will be written to /home/bsonghao/.gamess_ascii_files/267638
Copying input file nh3_diabatization_2d_at_mode_7_8_dist0.3_0.8.inp to your run's scratch directory...
cp nh3_diabatization_2d_at_mode_7_8_dist0.3_0.8.inp /scratch/bsonghao/nh3_diabatization_2d_at_mode_7_8_dist0.3_0.8.F05
unset echo
/home/bjb2chen/gamess/ddikick.x /home/bjb2chen/gamess/gamess.00.x nh3_diabatization_2d_at_mode_7_8_dist0.3_0.8 -ddi 1 1 io002 -scr /scratch/bsonghao

 Distributed Data Interface kickoff program.
 Initiating 1 compute processes on 1 nodes to run the following command:
 /home/bjb2chen/gamess/gamess.00.x nh3_diabatization_2d_at_mode_7_8_dist0.3_0.8 

          ******************************************************
          *         GAMESS VERSION = 02 AUG 2018 (R2)         *
          *             FROM IOWA STATE UNIVERSITY             *
          * M.W.SCHMIDT, K.K.BALDRIDGE, J.A.BOATZ, S.T.ELBERT, *
          *   M.S.GORDON, J.H.JENSEN, S.KOSEKI, N.MATSUNAGA,   *
          *          K.A.NGUYEN, S.J.SU, T.L.WINDUS,           *
          *       TOGETHER WITH M.DUPUIS, J.A.MONTGOMERY       *
          *         J.COMPUT.CHEM.  14, 1347-1363(1993)        *
          **************** 64 BIT LINUX VERSION ****************

  SINCE 1993, STUDENTS AND POSTDOCS WORKING AT IOWA STATE UNIVERSITY
  AND ALSO IN THEIR VARIOUS JOBS AFTER LEAVING ISU HAVE MADE IMPORTANT
  CONTRIBUTIONS TO THE CODE:
     IVANA ADAMOVIC, CHRISTINE AIKENS, YURI ALEXEEV, POOJA ARORA,
     ANDREY ASADCHEV, ROB BELL, PRADIPTA BANDYOPADHYAY, JONATHAN BENTZ,
     BRETT BODE, KURT BRORSEN, CALEB CARLIN, GALINA CHABAN, WEI CHEN,
     CHEOL HO CHOI, PAUL DAY, ALBERT DEFUSCO, NUWAN DESILVA, TIM DUDLEY,
     DMITRI FEDOROV, ALEX FINDLATER, GRAHAM FLETCHER, MARK FREITAG,
     KURT GLAESEMANN, ANASTASIA GUININA,
     DAN KEMP, GRANT MERRILL, NORIYUKI MINEZAWA, JONATHAN MULLIN,
     TAKESHI NAGATA, SEAN NEDD, HEATHER NETZLOFF, BOSILJKA NJEGIC, RYAN OLSON,
     MIKE PAK, BUU PHAM,
     SPENCER PRUITT, LUKE ROSKOP, JIM SHOEMAKER, LYUDMILA SLIPCHENKO,
     TONY SMITH, SAROM SOK LEANG, JIE SONG, TETSUYA TAKETSUGU, SIMON WEBB,
     PENG XU, SOOHAENG YOO, FEDERICO ZAHARIEV

  ADDITIONAL CODE HAS BEEN PROVIDED BY COLLABORATORS IN OTHER GROUPS:
     IOWA STATE UNIVERSITY:
          JOE IVANIC, AARON WEST, LAIMUTIS BYTAUTAS, KLAUS RUEDENBERG
     UNIVERSITY OF TOKYO: KIMIHIKO HIRAO, TAKAHITO NAKAJIMA,
          TAKAO TSUNEDA, MUNEAKI KAMIYA, SUSUMU YANAGISAWA,
          KIYOSHI YAGI, MAHITO CHIBA, SEIKEN TOKURA, NAOAKI KAWAKAMI
     UNIVERSITY OF AARHUS: FRANK JENSEN
     UNIVERSITY OF IOWA: VISVALDAS KAIRYS, HUI LI
     NATIONAL INST. OF STANDARDS AND TECHNOLOGY: WALT STEVENS, DAVID GARMER
     UNIVERSITY OF PISA: BENEDETTA MENNUCCI, JACOPO TOMASI
     UNIVERSITY OF MEMPHIS: HENRY KURTZ, PRAKASHAN KORAMBATH
     UNIVERSITY OF ALBERTA: TOBY ZENG, MARIUSZ KLOBUKOWSKI
     UNIVERSITY OF NEW ENGLAND: MARK SPACKMAN
     MIE UNIVERSITY: HIROAKI UMEDA
     NAT. INST. OF ADVANCED INDUSTRIAL SCIENCE AND TECHNOLOGY: KAZUO KITAURA
     MICHIGAN STATE UNIVERSITY:
          KAROL KOWALSKI, MARTA WLOCH, JEFFREY GOUR, JESSE LUTZ,
          WEI LI, JUN SHEN, J. EMILIANO DEUSTUA, PIOTR PIECUCH
     UNIVERSITY OF MINNESOTA:
          YINAN SHU
     UNIVERSITY OF SILESIA: MONIKA MUSIAL, STANISLAW KUCHARSKI
     FACULTES UNIVERSITAIRES NOTRE-DAME DE LA PAIX:
          OLIVIER QUINET, BENOIT CHAMPAGNE
     UNIVERSITY OF CALIFORNIA - SANTA BARBARA: BERNARD KIRTMAN
     INSTITUTE FOR MOLECULAR SCIENCE:
          KAZUYA ISHIMURA, MICHIO KATOUDA, AND SHIGERU NAGASE
     UNIVERSITY OF NOTRE DAME: ANNA POMOGAEVA, DAN CHIPMAN
     KYUSHU UNIVERSITY:
          HARUYUKI NAKANO,
          FENG LONG GU, JACEK KORCHOWIEC, MARCIN MAKOWSKI, AND YURIKO AOKI,
          HIROTOSHI MORI AND EISAKU MIYOSHI
     PENNSYLVANIA STATE UNIVERSITY:
          TZVETELIN IORDANOV, CHET SWALINA, JONATHAN SKONE,
          SHARON HAMMES-SCHIFFER
     WASEDA UNIVERSITY:
          MASATO KOBAYASHI, TOMOKO AKAMA, TSUGUKI TOUMA,
          TAKESHI YOSHIKAWA, YASUHIRO IKABATA, JUNJI SEINO,
          YUYA NAKAJIMA, HIROMI NAKAI
     NANJING UNIVERSITY: SHUHUA LI
     UNIVERSITY OF NEBRASKA:
          PEIFENG SU, DEJUN SI, NANDUN THELLAMUREGE, YALI WANG, HUI LI
     UNIVERSITY OF ZURICH: ROBERTO PEVERATI, KIM BALDRIDGE
     N. COPERNICUS UNIVERSITY AND JACKSON STATE UNIVERSITY:
          MARIA BARYSZ
     UNIVERSITY OF COPENHAGEN: Jimmy Kromann, CASPER STEINMANN
     TOKYO INSTITUTE OF TECHNOLOGY: HIROYA NAKATA
     NAGOYA UNIVERSITY: YOSHIO NISHIMOTO, STEPHAN IRLE
     MOSCOW STATE UNIVERSITY: VLADIMIR MIRONOV

 EXECUTION OF GAMESS BEGUN Wed Nov 16 19:49:14 2022

            ECHO OF THE FIRST FEW INPUT CARDS -
 INPUT CARD> $system kdiag=3 mwords=100 memddi=1000 parall=.t. $end                         
 INPUT CARD> $contrl runtyp=energy ispher=1 $end                                            
 INPUT CARD> $contrl icut=9 itol=20 inttyp=rysquad qmttol=1.0d-05 nosym=1 $end              
 INPUT CARD> $scf    npunch=2 conv=1.0d-06 dirscf=.t.      $end                             
 INPUT CARD> $contrl scftyp=mcscf  mult=2 maxit=200 icharg=1 mplevl=2 $end                  
 INPUT CARD> $guess  guess=moread norb=29 purify=.t. $end                                   
 INPUT CARD> $basis  gbasis=ccd $end                                                        
 INPUT CARD> $mcscf  cistep=gmcci fullnr=.t. finci=mos                                      
 INPUT CARD>         acurcy=1.d-6 maxit=100 $end                                            
 INPUT CARD> $trans  dirtrf=.t. $end                                                        
 INPUT CARD> $mrmp   mrpt=gmcpt rdvecs=.f. $end                                             
 INPUT CARD> $gmcpt  nmofzc=0 nmodoc=1 nmoact=7 nelact=7 stsym(1)=A                         
 INPUT CARD>         reftyp=ormas nspace=1 mstart(1)=2 mine(1)=7 maxe(1)=7                  
 INPUT CARD>         kstate(1)=1,1,1                                                        
 INPUT CARD>         wstate(1)=1,1,1                                                        
 INPUT CARD>         iwgt=0 thrwgt=-1.0 krot=.f. kszdoe=.f. knospn=.f.                      
 INPUT CARD>         thrde=-1.0 edshft=0.02 $end                                            
 INPUT CARD> $data                                                                          
 INPUT CARD> NH3+ 3 states calculation at NH3 structure.                                    
 INPUT CARD> c1                                                                             
 INPUT CARD>N 7.0 -0.049831344 -0.018686709000000003 -0.1693811162                          
 INPUT CARD>H 1.0 0.056617321000000054 1.1320361718 0.21945494610000005                     
 INPUT CARD>H 1.0 -0.17265864600000003 -1.0913052538 0.0822905051                           
 INPUT CARD>H 1.0 0.808461204 0.21892724800000002 0.46764184910000006                       
 INPUT CARD>$end                                                                            
 INPUT CARD>--- OPTIMIZED RHF      MO-S --- GENERATED AT Mon Nov 14 16:47:08 2022           
 INPUT CARD>E=      -56.3825050291, E(NUC)=   11.8429239490                                 
 INPUT CARD> $VEC                                                                           
 INPUT CARD> 1  1-1.00134066E+00-2.25158504E-03 3.44925845E-03 0.00000000E+00 0.00000000E+00
 INPUT CARD> 1  2-2.13170927E-03 0.00000000E+00 0.00000000E+00 6.57129898E-04-6.87950443E-05
 INPUT CARD> 1  3-6.87950443E-05 1.37590089E-04 0.00000000E+00 0.00000000E+00 0.00000000E+00
 INPUT CARD> 1  4 3.25502815E-04-4.84772356E-04 3.62525460E-04-6.27912517E-04-3.45956485E-04
 INPUT CARD> 1  5 3.25502815E-04-4.84772356E-04 3.62525460E-04 6.27912517E-04-3.45956485E-04
 INPUT CARD> 1  6 3.25502815E-04-4.84772356E-04-7.25050921E-04 0.00000000E+00-3.45956485E-04
 INPUT CARD> 2  1 1.31286642E-02-4.05911371E-01-2.82090992E-01 0.00000000E+00 0.00000000E+00
 INPUT CARD> 2  2-7.71489043E-02 0.00000000E+00 0.00000000E+00 9.73717494E-03 6.62450916E-04
 INPUT CARD> 2  3 6.62450916E-04-1.32490183E-03 0.00000000E+00 0.00000000E+00 0.00000000E+00
 INPUT CARD> 2  4-1.96090317E-01-1.96656153E-02-1.74855877E-02 3.02859263E-02 8.68214399E-03
 INPUT CARD> 2  5-1.96090317E-01-1.96656153E-02-1.74855877E-02-3.02859263E-02 8.68214399E-03
 INPUT CARD> 2  6-1.96090317E-01-1.96656153E-02 3.49711754E-02 0.00000000E+00 8.68214399E-03
 INPUT CARD> 3  1 0.00000000E+00 0.00000000E+00 0.00000000E+00 4.48608762E-01 0.00000000E+00
 INPUT CARD> 3  2 0.00000000E+00 2.18692520E-01 0.00000000E+00 0.00000000E+00 1.30198027E-02
 INPUT CARD> 3  3-1.30198027E-02 0.00000000E+00 0.00000000E+00 2.71832968E-02 0.00000000E+00
 INPUT CARD> 3  4-1.85332726E-01-7.03958951E-02 8.47929477E-03 1.95242443E-02 8.32835058E-03
 INPUT CARD> 3  5-1.85332726E-01-7.03958951E-02 8.47929477E-03-1.95242443E-02 8.32835058E-03
 INPUT CARD> 3  6 3.70665453E-01 1.40791790E-01-2.53376884E-02 0.00000000E+00-1.66567012E-02
 INPUT CARD> 4  1 0.00000000E+00 0.00000000E+00 0.00000000E+00 0.00000000E+00 4.48608762E-01
 INPUT CARD> 4  2 0.00000000E+00 0.00000000E+00 2.18692520E-01 0.00000000E+00 0.00000000E+00
 INPUT CARD> 4  3 0.00000000E+00 0.00000000E+00-1.50339731E-02 0.00000000E+00 2.71832968E-02
 INPUT CARD> 4  4 3.21005698E-01 1.21929267E-01 1.95242443E-02-1.40653607E-02-1.44251263E-02
  100000000 WORDS OF MEMORY AVAILABLE

     BASIS OPTIONS
     -------------
     GBASIS=CCD          IGAUSS=       0      POLAR=NONE    
     NDFUNC=       0     NFFUNC=       0     DIFFSP=       F
     NPFUNC=       0      DIFFS=       F     BASNAM=        


     RUN TITLE
     ---------
  NH3+ 3 states calculation at NH3 structure.                                    

 THE POINT GROUP OF THE MOLECULE IS C1      
 THE ORDER OF THE PRINCIPAL AXIS IS     0

 ATOM      ATOMIC                      COORDINATES (BOHR)
           CHARGE         X                   Y                   Z
 N           7.0    -0.0941675858       -0.0353127596       -0.3200838971
 H           1.0     0.1069912228        2.1392381729        0.4147097148
 H           1.0    -0.3262775304       -2.0622678986        0.1555065060
 H           1.0     1.5277701473        0.4137125100        0.8837149552

          INTERNUCLEAR DISTANCES (ANGS.)
          ------------------------------

                1 N          2 H          3 H          4 H     

   1 N       0.0000000    1.2192981 *  1.1085737 *  1.0949542 *
   2 H       1.2192981 *  0.0000000    2.2393367 *  1.2085669 *
   3 H       1.1085737 *  2.2393367 *  0.0000000    1.6816067 *
   4 H       1.0949542 *  1.2085669 *  1.6816067 *  0.0000000  

  * ... LESS THAN  3.000


     ATOMIC BASIS SET
     ----------------
 THE CONTRACTED PRIMITIVE FUNCTIONS HAVE BEEN UNNORMALIZED
 THE CONTRACTED BASIS FUNCTIONS ARE NOW NORMALIZED TO UNITY

  SHELL TYPE  PRIMITIVE        EXPONENT          CONTRACTION COEFFICIENT(S)

 N         

      1   S       1          9046.0000000    0.000699617413
      1   S       2          1357.0000000    0.005386054630
      1   S       3           309.3000000    0.027391021189
      1   S       4            87.7300000    0.103150591982
      1   S       5            28.5600000    0.278570663317
      1   S       6            10.2100000    0.448294849454
      1   S       7             3.8380000    0.278085928395
      1   S       8             0.7466000    0.015431561233

      2   S       9          9046.0000000   -0.000304990096
      2   S      10          1357.0000000   -0.002408026379
      2   S      11           309.3000000   -0.011944448725
      2   S      12            87.7300000   -0.048925992909
      2   S      13            28.5600000   -0.134472724725
      2   S      14            10.2100000   -0.315112577700
      2   S      15             3.8380000   -0.242857832550
      2   S      16             0.7466000    1.094382206854

      3   S      17             0.2248000    1.000000000000

      4   P      18            13.5500000    0.058905676772
      4   P      19             2.9170000    0.320461106714
      4   P      20             0.7973000    0.753042061792

      5   P      21             0.2185000    1.000000000000

      6   D      22             0.8170000    1.000000000000

 H         

      7   S      23            13.0100000    0.033498726390
      7   S      24             1.9620000    0.234800801174
      7   S      25             0.4446000    0.813682957883

      8   S      26             0.1220000    1.000000000000

      9   P      27             0.7270000    1.000000000000

 H         

     10   S      28            13.0100000    0.033498726390
     10   S      29             1.9620000    0.234800801174
     10   S      30             0.4446000    0.813682957883

     11   S      31             0.1220000    1.000000000000

     12   P      32             0.7270000    1.000000000000

 H         

     13   S      33            13.0100000    0.033498726390
     13   S      34             1.9620000    0.234800801174
     13   S      35             0.4446000    0.813682957883

     14   S      36             0.1220000    1.000000000000

     15   P      37             0.7270000    1.000000000000

 TOTAL NUMBER OF BASIS SET SHELLS             =   15
 NUMBER OF CARTESIAN GAUSSIAN BASIS FUNCTIONS =   30
 NOTE: THIS RUN WILL RESTRICT THE MO VARIATION SPACE TO SPHERICAL HARMONICS.
 THE NUMBER OF ORBITALS KEPT IN THE VARIATIONAL SPACE WILL BE PRINTED LATER.
 NUMBER OF ELECTRONS                          =    9
 CHARGE OF MOLECULE                           =    1
 SPIN MULTIPLICITY                            =    2
 NUMBER OF OCCUPIED ORBITALS (ALPHA)          =    5
 NUMBER OF OCCUPIED ORBITALS (BETA )          =    4
 TOTAL NUMBER OF ATOMS                        =    4
 THE NUCLEAR REPULSION ENERGY IS       10.7513182231

     $CONTRL OPTIONS
     ---------------
 SCFTYP=MCSCF        RUNTYP=ENERGY       EXETYP=RUN     
 MPLEVL=       2     CITYP =NONE         CCTYP =NONE         VBTYP =NONE    
 DFTTYP=NONE         TDDFT =NONE    
 MULT  =       2     ICHARG=       1     NZVAR =       0     COORD =UNIQUE  
 PP    =NONE         RELWFN=NONE         LOCAL =NONE         NUMGRD=       F
 ISPHER=       1     NOSYM =       1     MAXIT =     200     UNITS =ANGS    
 PLTORB=       F     MOLPLT=       F     AIMPAC=       F     FRIEND=        
 NPRINT=       7     IREST =       0     GEOM  =INPUT   
 NORMF =       0     NORMP =       0     ITOL  =      20     ICUT  =       9
 INTTYP=RYSQUAD      GRDTYP=BEST         QMTTOL= 1.0E-05

     $SYSTEM OPTIONS
     ---------------
  REPLICATED MEMORY=   100000000 WORDS (ON EVERY NODE).
 DISTRIBUTED MEMDDI=        1000 MILLION WORDS IN AGGREGATE,
 MEMDDI DISTRIBUTED OVER   1 PROCESSORS IS  1000000000 WORDS/PROCESSOR.
 TOTAL MEMORY REQUESTED ON EACH PROCESSOR=  1100000000 WORDS.
 TIMLIM=      525600.00 MINUTES, OR     365.0 DAYS.
 PARALL= T  BALTYP=  DLB     KDIAG=    3  COREFL= F
 MXSEQ2=     300 MXSEQ3=     150  mem10=         0

          ----------------
          PROPERTIES INPUT
          ----------------

     MOMENTS            FIELD           POTENTIAL          DENSITY
 IEMOM =       1   IEFLD =       0   IEPOT =       0   IEDEN =       0
 WHERE =COMASS     WHERE =NUCLEI     WHERE =NUCLEI     WHERE =NUCLEI  
 OUTPUT=BOTH       OUTPUT=BOTH       OUTPUT=BOTH       OUTPUT=BOTH    
 IEMINT=       0   IEFINT=       0                     IEDINT=       0
                                                       MORB  =       0

     -------------------------------
     INTEGRAL TRANSFORMATION OPTIONS
     -------------------------------
     NWORD  =            0
     CUTOFF = 1.0E-09     MPTRAN =       0
     DIRTRF =       T     AOINTS =DUP     

          ----------------------
          MCSCF INPUT PARAMETERS
          ----------------------
 CONVERGER SELECTION: FOCAS = F  SOSCF = F  FULLNR = T  QUD = F  JACOBI = F
 SECULAR EQUATION METHOD CISTEP = GMCCI   
 --- GENERAL INPUT OPTIONS:
 MAXIT =     100  MICIT =       1  ACURCY= 1.000E-06
 DAMP  =   0.000  CANONC=       T  ENGTOL= 1.000E-10
 EKT   =       F  NPUNCH=       2  NWORD =         0
 REGENERATE CI AFTER CONVERGENCE = NONE    
 DIABATIZATION AFTER CONVERGENCE =        F
 --- INPUT FOR FULLNR CONVERGER:
 METHOD=DM2       FORS  =       F  DROPC =       T
 LINSER=       F  FCORE =       F  NORB  =      30

          ----------------------
          INTEGRAL INPUT OPTIONS
          ----------------------
 NOPK  =       1 NORDER=       0 SCHWRZ=       T

 ------------------------------------------
 MULTIREFERENCE PERTURBATION THEORY CONTROL
 ------------------------------------------
 MRPT=GMCPT    READ CONVERGED MCSCF VECTORS= F


     ------------------------------------------
     THE POINT GROUP IS C1 , NAXIS= 1, ORDER= 1
     ------------------------------------------

 -- VARIATIONAL SPACE WILL BE RESTRICTED TO PURE SPHERICAL HARMONICS ONLY --
 AFTER EXCLUDING CONTAMINANT COMBINATIONS FROM THE CARTESIAN GAUSSIAN BASIS
 SET, THE NUMBER OF SPHERICAL HARMONICS KEPT IN THE VARIATION SPACE IS   29

     DIMENSIONS OF THE SYMMETRY SUBSPACES ARE
 A   =   29

 ..... DONE SETTING UP THE RUN .....
 CPU     0: STEP CPU TIME=     0.04 TOTAL CPU TIME=          0.0 (      0.0 MIN)
 TOTAL WALL CLOCK TIME=          0.1 SECONDS, CPU UTILIZATION IS    80.00%

          ********************
          1 ELECTRON INTEGRALS
          ********************
 TIME TO DO   DIPOLE INTEGRALS=      0.00
 ...... END OF ONE-ELECTRON INTEGRALS ......
 CPU     0: STEP CPU TIME=     0.00 TOTAL CPU TIME=          0.0 (      0.0 MIN)
 TOTAL WALL CLOCK TIME=          0.1 SECONDS, CPU UTILIZATION IS    80.00%

          -------------
          GUESS OPTIONS
          -------------
          GUESS =MOREAD            NORB  =      29          NORDER=       0
          MIX   =       F          PRTMO =       F          PUNMO =       F
          TOLZ  = 1.0E-08          TOLE  = 1.0E-05
          SYMDEN=       F          PURIFY=       T

 INITIAL GUESS ORBITALS GENERATED BY MOREAD   ROUTINE.

 STATISTICS FOR GENERATION OF SYMMETRY ORBITAL -Q- MATRIX
 NUMBER OF CARTESIAN ATOMIC ORBITALS=         30
 NUMBER OF SPHERICAL CONTAMINANTS DROPPED=     1
 NUMBER OF LINEARLY DEPENDENT MOS DROPPED=     0
 TOTAL NUMBER OF MOS IN VARIATION SPACE=      29
 ORBITAL PURIFICATION WILL OCCUR

 SYMMETRIES FOR INITIAL GUESS ORBITALS FOLLOW.   BOTH SET(S).
     5 ORBITALS ARE OCCUPIED (    1 CORE ORBITALS).
     1=A        2=A        3=A        4=A        5=A        6=A        7=A   
     8=A        9=A       10=A       11=A       12=A       13=A       14=A   
    15=A       16=A       17=A       18=A       19=A       20=A       21=A   
    22=A       23=A       24=A       25=A       26=A       27=A       28=A   
    29=A   
 ...... END OF INITIAL ORBITAL SELECTION ......
 CPU     0: STEP CPU TIME=     0.00 TOTAL CPU TIME=          0.0 (      0.0 MIN)
 TOTAL WALL CLOCK TIME=          0.1 SECONDS, CPU UTILIZATION IS    80.00%

                    ----------------------
                    AO INTEGRAL TECHNOLOGY
                    ----------------------
     S,P,L SHELL ROTATED AXIS INTEGRALS, REPROGRAMMED BY
        KAZUYA ISHIMURA (IMS) AND JOSE SIERRA (SYNSTAR).
     S,P,D,L SHELL ROTATED AXIS INTEGRALS PROGRAMMED BY
        KAZUYA ISHIMURA (INSTITUTE FOR MOLECULAR SCIENCE).
     S,P,D,F,G SHELL TO TOTAL QUARTET ANGULAR MOMENTUM SUM 5,
        ERIC PROGRAM BY GRAHAM FLETCHER (ELORET AND NASA ADVANCED
        SUPERCOMPUTING DIVISION, AMES RESEARCH CENTER).
     S,P,D,F,G,L SHELL GENERAL RYS QUADRATURE PROGRAMMED BY
        MICHEL DUPUIS (PACIFIC NORTHWEST NATIONAL LABORATORY).

          --------------------
          2 ELECTRON INTEGRALS
          --------------------

 DIRECT SCF METHOD SKIPS INTEGRAL STORAGE ON DISK.
 DIRECT TRANSFORMATION SKIPS AO INTEGRAL STORAGE ON DISK.
  ...... END OF TWO-ELECTRON INTEGRALS .....
 STEP CPU TIME =     0.02 TOTAL CPU TIME =          0.1 (      0.0 MIN)
 TOTAL WALL CLOCK TIME=          0.1 SECONDS, CPU UTILIZATION IS    75.00%
 DDI: Creating Array [0] - 900 x 36 = 32400 words.
 DDI: Creating Array [1] - 21 x 288 = 6048 words.
 DDI: Creating Array [2] - 36 x 36 = 1296 words.
 DDI: Creating Array [3] - 465 x 36 = 16740 words.

          -----------------
          MCSCF CALCULATION
          -----------------

 ----- NUCLEAR ENERGY ----- =        10.7513182231

     -------------------------------------------------
     GMC-PT/GMC-QDPT or general MCSCF input parameters
     -------------------------------------------------
 # of frozen core orbs. =         0 ->         0
 # of doubly occ. orbs. =         1
 # of active      orbs. =         7
 # of virtual     orbs. =        21
 # of active electrons  =         7
 # of states in CI      =         3
 Highest state in CI    =         3
 kstate =  1 1 1
 avecoe =  0.333 0.333 0.333
 State symmetry           = A           
 Assigned symmetry number = 1

 <<<Act. MO sym.: 1111111

 <<<Division of 1-ext.:  0
 <<<Division of 2-ext.:  0

 *** Reference space

 Reference type: ORMAS (= Occupation restricted multiple active space)
 # of orbitals          =  7
 # of minimum electrons =  7
 # of maximum electrons =  7
 State symmetry    =    1 (input)
 2*Sz              =    1 (input)
 Spin multiplicity =    2 (input)
 Dimension of reference space =      1225  (from      3432 walks)

 Dimension of reference space =      1225  (from      1225 walks)

 <<<Ionized spaces for Ref-CI:
      0:         1225 /   -1-0:         1960 /  0-1-0:         2891

 EVALUATING EXCHANGE INTEGRALS FOR DIRECT INTEGRAL TRANSFORMATION
 SCHWARZ INEQUALITY OVERHEAD:       465 INTEGRALS, T=        0.01

     --------------------------------------------
     PARTIAL TWO ELECTRON INTEGRAL TRANSFORMATION
     --------------------------------------------

 NUMBER OF CORE MOLECULAR ORBITALS     =    1
 NUMBER OF OCCUPIED MOLECULAR ORBITALS =    8
 TOTAL NUMBER OF MOLECULAR ORBITALS    =   29
 TOTAL NUMBER OF ATOMIC ORBITALS       =   30
 THRESHOLD FOR KEEPING TRANSFORMED 2E- INTEGRALS = 1.000E-09

 -------------------------------     ------------------------------
 DISTRIBUTED DATA TRANSFORMATION     PROGRAM WRITTEN BY G. FLETCHER
 -------------------------------     ------------------------------

 THE DISTRIBUTED MEMORY REQUIRED FOR THIS STEP IS MEMDDI=         1 MWORDS
 CREATING DISTRIBUTED STORAGE FOR [VIR OCC|VIR OCC] INTEGRALS
 CREATING DISTRIBUTED STORAGE FOR [VIR OCC|OCC OCC] INTEGRALS
 CREATING DISTRIBUTED STORAGE FOR [OCC OCC|OCC OCC] INTEGRALS
 CREATING DISTRIBUTED STORAGE FOR [VIR VIR|OCC OCC] INTEGRALS
 FOR    1 PROCESSORS, THE REPLICATED MEMORY NEEDED IS       73700 WORDS.
 SCHWARZ INEQUALITY OVERHEAD:       465 INTEGRALS, T=        0.01

      DIRECT 4-INDEX TRANSFORMATION 
      SCHWARZ INEQUALITY TEST SKIPPED          0 INTEGRAL BLOCKS
 ----- FROZEN CORE ENERGY =       -47.5211734941
 ... END OF INTEGRAL TRANSFORMATION ...
 CPU     0: STEP CPU TIME=     0.23 TOTAL CPU TIME=          0.3 (      0.0 MIN)
 TOTAL WALL CLOCK TIME=          0.3 SECONDS, CPU UTILIZATION IS    96.67%

     --------------------------------     -----------------------------
     MCHF NEWTON-RAPHSON OPTIMIZATION     CODE WRITTEN BY MICHEL DUPUIS
     --------------------------------     -----------------------------
     PARALLEL VERSION WRITTEN BY G. FLETCHER (ELORET)
     NASA ADVANCED SUPERCOMPUTING DIVISION, AMES RESEARCH CENTER

 NUMBER OF INDEPENDENT ORBITAL ROTATION PARAMETERS =   175
 ..... DONE SOLVING NEWTON-RAPHSON EQUATIONS .....
 CPU     0: STEP CPU TIME=     0.87 TOTAL CPU TIME=          1.2 (      0.0 MIN)
 TOTAL WALL CLOCK TIME=          1.2 SECONDS, CPU UTILIZATION IS    99.15%
 ..... DONE WITH NTN-RPH ORBITAL ROTATIONS ..... 
 CPU     0: STEP CPU TIME=     0.00 TOTAL CPU TIME=          1.2 (      0.0 MIN)
 TOTAL WALL CLOCK TIME=          1.2 SECONDS, CPU UTILIZATION IS    99.15%
 MAXIMUM MEMORY USED BY NTN-RPH CODE WAS     57645 WORDS.

 ITER     TOTAL ENERGY      DEL(E)  LAGRANGIAN ASYMMETRY   SQCDF  MICIT   DAMP
   1      -55.560835975 -0.560835975  0.129152    9    3 8.973E-02  1   0.0000
   2      -55.633344229 -0.072508254  0.020058   12    5 4.586E-01  1   0.0000
   3      -55.670997298 -0.037653069  0.014855   11    6 2.288E-01  1   0.0153
   4      -55.688619233 -0.017621936  0.005217   13    7 4.594E-02  1   0.0066
   5      -55.691132081 -0.002512847  0.001554   13    5 1.472E-03  1   0.0000
   6      -55.691236899 -0.000104819  0.000693   13    5 1.636E-04  1   0.0000
   7      -55.691251610 -0.000014711  0.000317   13    5 3.837E-05  1   0.0000
   8      -55.691254970 -0.000003359  0.000151   13    5 1.018E-05  1   0.0000
   9      -55.691255825 -0.000000855  0.000072   13    5 2.864E-06  1   0.0000
  10      -55.691256056 -0.000000231  0.000035   22    5 8.396E-07  1   0.0000
  11      -55.691256121 -0.000000065  0.000018   22    5 2.548E-07  1   0.0000
  12      -55.691256140 -0.000000019  0.000009   22    5 7.979E-08  1   0.0000
  13      -55.691256146 -0.000000006  0.000005   22    5 2.572E-08  1   0.0000
  14      -55.691256148 -0.000000002  0.000002   22    5 8.536E-09  1   0.0000
  15      -55.691256148 -0.000000001  0.000001   22    5 2.898E-09  1   0.0000
  16      -55.691256148 -0.000000000  0.000001   12    8 1.004E-09  1   0.0000

          --------------------
          LAGRANGIAN CONVERGED
          --------------------

 FINAL MCSCF ENERGY IS      -55.6912561483 AFTER  16 ITERATIONS

 -MCCI- BASED ON OPTIMIZED ORBITALS
 ----------------------------------

 PLEASE NOTE: IF THE ACTIVE ORBITALS ARE CANONICALIZED BELOW,
 THE FOLLOWING CI EXPANSION COEFFICIENTS AND THE DENSITY DO NOT
 CORRESPOND TO THE PRINTED ORBITALS.  THE PRINTED EXPANSIONS MATCH
 THE ORBITALS USED DURING THE LAST ITERATION.  IF YOU WISH TO SEE
 CI EXPANSIONS BASED ON THE CANONICAL (OR NATURAL) ORBITALS, YOU
 MUST RUN A CI CALCULATION WITH THAT ORBITAL CHOICE READ IN $VEC.

 Averaged energy =     -55.691256148

 State #    1  Energy =     -55.828900962  S =  0.500

      Det      Coef    Occupancy (Ignoring core)
      ---      ----    --------- --------- -----
        1    0.847954  11110001110000
        2    0.051748  11101001110000
        4   -0.062466  10111001110000
        5   -0.076959  01111001110000
        6    0.062484  11100101110000
        8   -0.161604  10110101110000
       17    0.118103  11010011110000
       71   -0.384855  11110001011000
       76   -0.065646  11100101011000
       78    0.068321  10110101011000
      211    0.054441  11110000110100
      386    0.095958  11110001010010
      393    0.072335  10110101010010
      701   -0.097926  11110001100001

 State #    2  Energy =     -55.708504715  S =  0.500

      Det      Coef    Occupancy (Ignoring core)
      ---      ----    --------- --------- -----
        1    0.361539  11110001110000
        8   -0.056486  10110101110000
       17    0.059145  11010011110000
       36    0.366853  11110001101000
       43   -0.057608  10110101101000
       71    0.780992  11110001011000
       74   -0.101320  10111001011000
       75   -0.066691  01111001011000
       76    0.061475  11100101011000
       78   -0.122311  10110101011000
       87    0.088814  11010011011000
      106    0.050747  11110000111000
      113   -0.052424  10110100111000
      386    0.117960  11110001010010
      806    0.068882  11110001001001

 State #    3  Energy =     -55.536362768  S =  0.500

      Det      Coef    Occupancy (Ignoring core)
      ---      ----    --------- --------- -----
        1    0.112359  11110001110000
       36   -0.870060  11110001101000
       43    0.104164  10110101101000
       71    0.345585  11110001011000
      246   -0.074672  11110001001100
      281   -0.083056  11110000101100
      351   -0.059492  11110001100010
      456   -0.134165  11110001001010
      463   -0.071245  10110101001010

 DENSITY MATRIX OVER ACTIVE MO-S

             1           2           3           4           5

    1    1.9695272
    2    0.0382254   1.6024857
    3   -0.0025177   0.0096674   1.6308259
    4   -0.0059171   0.0168184  -0.0040880   1.6433344
    5    0.1185242  -0.1210449   0.0024735   0.0252103   0.0483860
    6    0.0193700  -0.2124219   0.0230542   0.1153623   0.0251527
    7   -0.0132846   0.0063491  -0.1375733  -0.0039674  -0.0055996

             6           7

    6    0.0708887
    7   -0.0069307   0.0345520

 FORMING THE "STANDARD FOCK OPERATOR" IN DIRECT AO INTEGRAL MODE...
 ONLY THE    1 CORE AND   21 VIRTUAL ORBITALS WILL BE CANONICALIZED

          ----------------------
          MCSCF NATURAL ORBITALS
          ----------------------

                      1          2          3          4          5
                  -15.9747     1.9795     1.6529     1.6463     1.6350
                     A          A          A          A          A   
    1  N  1  S    1.001004   0.009503  -0.007420  -0.003735  -0.003496
    2  N  1  S   -0.002033   0.432135  -0.140274  -0.126329  -0.074360
    3  N  1  S   -0.006434   0.342672  -0.233637  -0.174408  -0.116814
    4  N  1  X    0.000147   0.063925  -0.150713   0.221252   0.476585
    5  N  1  Y   -0.000139   0.004558  -0.157524   0.353309  -0.260009
    6  N  1  Z    0.001055   0.080621   0.556404   0.168081  -0.024427
    7  N  1  X   -0.000097   0.011454  -0.120514   0.095198   0.285966
    8  N  1  Y   -0.000029   0.005484  -0.077620   0.130338  -0.141669
    9  N  1  Z   -0.000576   0.016251   0.379986   0.085849  -0.051023
   10  N  1 XX   -0.000067  -0.002765  -0.013519   0.004380   0.014748
   11  N  1 YY    0.000155   0.003646  -0.007719  -0.011694  -0.013795
   12  N  1 ZZ   -0.000089  -0.000881   0.021238   0.007313  -0.000952
   13  N  1 XY    0.000135   0.002336  -0.000542   0.002950  -0.001377
   14  N  1 XZ    0.000145   0.003390   0.001729   0.012628   0.019620
   15  N  1 YZ   -0.000010   0.002160  -0.005669   0.014483  -0.010398
   16  H  2  S   -0.001140   0.151490   0.014166   0.235694  -0.255063
   17  H  2  S    0.000310  -0.000524   0.018925   0.030357  -0.106466
   18  H  2  X    0.000031  -0.000091  -0.003338   0.010677   0.018465
   19  H  2  Y    0.000578  -0.026347  -0.001167  -0.030762   0.024740
   20  H  2  Z    0.000265  -0.004870   0.022981  -0.000045   0.005504
   21  H  3  S   -0.001475   0.156046   0.192714  -0.299397   0.068055
   22  H  3  S    0.000591   0.000637   0.044741  -0.044003  -0.008853
   23  H  3  X   -0.000117   0.007238  -0.001041   0.002180   0.021777
   24  H  3  Y   -0.000803   0.029817   0.022041  -0.034839   0.010111
   25  H  3  Z    0.000228  -0.002052   0.017363   0.013685  -0.001887
   26  H  4  S   -0.001687   0.218537   0.089487   0.266770   0.264533
   27  H  4  S    0.000300   0.010389   0.029883   0.054522   0.109847
   28  H  4  X    0.000803  -0.031853  -0.019661  -0.021948  -0.009450
   29  H  4  Y    0.000186  -0.006713  -0.004953   0.015929  -0.017047
   30  H  4  Z    0.000566  -0.019771   0.019138  -0.010766  -0.021096

                      6          7          8
                    0.0387     0.0267     0.0209
                     A          A          A   
    1  N  1  S   -0.133651  -0.088833  -0.103012
    2  N  1  S   -0.468922  -0.356989  -0.323656
    3  N  1  S   -0.013892  -0.229533  -0.022046
    4  N  1  X    0.482063  -0.565169   0.007541
    5  N  1  Y   -0.209869  -0.226679   0.855958
    6  N  1  Z   -0.240132  -0.548746  -0.208936
    7  N  1  X   -0.100565  -0.068901   0.000252
    8  N  1  Y    0.022008  -0.086399   0.067479
    9  N  1  Z    0.070238   0.010498   0.079499
   10  N  1 XX   -0.069693   0.009220  -0.009065
   11  N  1 YY    0.077009  -0.008879   0.023791
   12  N  1 ZZ   -0.007316  -0.000341  -0.014726
   13  N  1 XY    0.017966   0.026447  -0.042374
   14  N  1 XZ    0.010663   0.043336   0.020458
   15  N  1 YZ    0.013997   0.022567  -0.044500
   16  H  2  S    0.638242   0.190671  -0.338869
   17  H  2  S    0.208120  -0.011435  -0.123309
   18  H  2  X   -0.024549   0.030891  -0.009588
   19  H  2  Y   -0.061328  -0.022816   0.028438
   20  H  2  Z    0.007575   0.032586  -0.009613
   21  H  3  S    0.395812   0.038266   0.706316
   22  H  3  S    0.080935  -0.026602   0.157138
   23  H  3  X   -0.012773   0.006446   0.016165
   24  H  3  Y    0.040251   0.012715   0.069609
   25  H  3  Z   -0.001191   0.006178   0.032286
   26  H  4  S   -0.278427   0.763824   0.112162
   27  H  4  S   -0.163254   0.189041   0.051311
   28  H  4  X   -0.007516  -0.048483  -0.012721
   29  H  4  Y    0.022666   0.021808  -0.045920
   30  H  4  Z    0.026121  -0.005212  -0.002263

          ------------------------
          MCSCF OPTIMIZED ORBITALS
          ------------------------

                      1          2          3          4          5
                  -15.9747     0.0000     0.0000     0.0000     0.0000
                     A          A          A          A          A   
    1  N  1  S    1.001004  -0.001711   0.017483   0.003990  -0.014633
    2  N  1  S   -0.002033   0.395859  -0.004472  -0.008982  -0.194694
    3  N  1  S   -0.006434   0.341268  -0.132312  -0.001361  -0.268383
    4  N  1  X    0.000147   0.025385   0.440727  -0.048377  -0.035199
    5  N  1  Y   -0.000139  -0.003959   0.003336   0.388408  -0.024220
    6  N  1  Z    0.001055   0.050003   0.021531  -0.003340   0.581580
    7  N  1  X   -0.000097  -0.020114   0.312692  -0.063738  -0.095770
    8  N  1  Y   -0.000029   0.006456  -0.037489   0.198197  -0.022915
    9  N  1  Z   -0.000576   0.027953  -0.061495  -0.012363   0.392713
   10  N  1 XX   -0.000067  -0.007372   0.026918  -0.003437  -0.016634
   11  N  1 YY    0.000155   0.008659  -0.028590   0.002243  -0.005155
   12  N  1 ZZ   -0.000089  -0.001287   0.001672   0.001194   0.021789
   13  N  1 XY    0.000135   0.003622   0.000670   0.007204   0.000056
   14  N  1 XZ    0.000145   0.004107   0.021864  -0.003325   0.004377
   15  N  1 YZ   -0.000010   0.003085   0.001151   0.022641  -0.001031
   16  H  2  S   -0.001140   0.192359  -0.137180   0.374364   0.122488
   17  H  2  S    0.000310   0.013688  -0.097441   0.097139   0.042427
   18  H  2  X    0.000031  -0.001930   0.026209  -0.001778  -0.003108
   19  H  2  Y    0.000578  -0.030127   0.007867  -0.042018  -0.013937
   20  H  2  Z    0.000265  -0.003286   0.000909  -0.008423   0.020758
   21  H  3  S   -0.001475   0.197044  -0.211390  -0.360714   0.116932
   22  H  3  S    0.000591   0.008890  -0.056869  -0.049869   0.036728
   23  H  3  X   -0.000117   0.005547   0.020849  -0.012401  -0.001805
   24  H  3  Y   -0.000803   0.034239  -0.020226  -0.042393   0.012250
   25  H  3  Z    0.000228  -0.001549   0.002506   0.004246   0.020914
   26  H  4  S   -0.001687   0.208113   0.427054   0.007231   0.115243
   27  H  4  S    0.000300   0.001422   0.143023  -0.040146   0.025700
   28  H  4  X    0.000803  -0.032959  -0.019493  -0.005208  -0.023824
   29  H  4  Y    0.000186  -0.004983  -0.005438   0.027853   0.000921
   30  H  4  Z    0.000566  -0.016486  -0.031246  -0.000046   0.017268

                      6          7          8          9         10
                    0.0000     0.0000     0.0000     0.1430     0.2082
                     A          A          A          A          A   
    1  N  1  S    0.177237  -0.049136  -0.046592  -0.109883   0.031875
    2  N  1  S    0.671655  -0.139219  -0.121550  -0.166054   0.035784
    3  N  1  S    0.208765   0.140391   0.012016   1.128519  -0.389183
    4  N  1  X    0.067374   0.803226  -0.081052  -0.050861  -0.001184
    5  N  1  Y    0.048604   0.125526   0.935823  -0.017970  -0.179726
    6  N  1  Z    0.621511   0.127540  -0.060169  -0.163145   0.054385
    7  N  1  X    0.085765   0.024544   0.031331   0.216877   0.122718
    8  N  1  Y    0.032474   0.078576   0.084454   0.121782   0.803835
    9  N  1  Z   -0.061971   0.018798   0.053454   0.368062  -0.060351
   10  N  1 XX    0.037256  -0.053609   0.011047  -0.021616   0.035304
   11  N  1 YY   -0.046577   0.062302   0.000513   0.056181  -0.064774
   12  N  1 ZZ    0.009321  -0.008693  -0.011561  -0.034565   0.029470
   13  N  1 XY   -0.018039  -0.011328  -0.048114   0.043758   0.004396
   14  N  1 XZ   -0.045487  -0.016064   0.010815   0.068471   0.014968
   15  N  1 YZ   -0.012149  -0.011990  -0.047162   0.030695   0.078258
   16  H  2  S   -0.418341   0.250047  -0.503780   0.456769   0.245458
   17  H  2  S   -0.078321   0.123534  -0.170151  -0.897607  -0.774826
   18  H  2  X   -0.006272  -0.036634  -0.005489   0.050060   0.022657
   19  H  2  Y    0.044287  -0.021895   0.044432   0.035683   0.039638
   20  H  2  Z   -0.025551  -0.019370  -0.015882   0.042707   0.056003
   21  H  3  S   -0.453549   0.334834   0.517352   0.284258  -0.563050
   22  H  3  S   -0.072123   0.091115   0.123753  -0.503573   1.890728
   23  H  3  X   -0.002628  -0.008226   0.017360  -0.033541   0.001308
   24  H  3  Y   -0.051083   0.027742   0.049096  -0.059214   0.119842
   25  H  3  Z   -0.013026  -0.001493   0.030700  -0.020483  -0.062131
   26  H  4  S   -0.427884  -0.661527   0.103530   0.334258   0.154832
   27  H  4  S   -0.059177  -0.222619   0.072596  -0.910930  -0.461959
   28  H  4  X    0.042621   0.025301  -0.004845   0.061405   0.002297
   29  H  4  Y   -0.016622  -0.006361  -0.050637   0.093685   0.010858
   30  H  4  Z   -0.010397   0.017017  -0.009422   0.067691   0.022625

                     11         12         13         14         15
                    0.2577     0.5307     0.5998     0.7262     0.8376
                     A          A          A          A          A   
    1  N  1  S    0.020920   0.095565  -0.007998  -0.107890  -0.389887
    2  N  1  S    0.050898   0.157788   0.104675  -0.261268  -0.892048
    3  N  1  S   -0.118967  -0.432453   0.519327   0.262169   1.389366
    4  N  1  X    0.012916  -0.639985  -0.294391   0.064904  -0.054896
    5  N  1  Y   -0.059781   0.038504  -0.030427  -0.496484   0.044467
    6  N  1  Z    0.018848   0.466349  -0.550091   0.060278   0.260359
    7  N  1  X   -0.334145   1.018866   1.020544  -0.009689   0.015897
    8  N  1  Y    0.317898   0.070465   0.282513   1.772623  -0.267309
    9  N  1  Z   -0.138120  -0.483623   1.083200   0.021070  -0.281863
   10  N  1 XX   -0.061824   0.011916   0.006275   0.039920  -0.033876
   11  N  1 YY    0.077634   0.011112  -0.030921  -0.005931   0.017218
   12  N  1 ZZ   -0.015811  -0.023028   0.024646  -0.033989   0.016658
   13  N  1 XY   -0.016748   0.013883  -0.058129   0.029775  -0.180101
   14  N  1 XZ   -0.064963   0.003634  -0.010527   0.020671   0.062627
   15  N  1 YZ    0.013090  -0.003104  -0.011750  -0.127375   0.007832
   16  H  2  S    0.555576   0.227274  -0.219258  -0.543339   0.224944
   17  H  2  S   -1.850070   0.343434   0.278396  -0.583948  -0.234930
   18  H  2  X   -0.041386   0.061260  -0.115552   0.036701  -0.360285
   19  H  2  Y    0.054274   0.000827   0.113238   0.228658   0.093184
   20  H  2  Z   -0.009052  -0.083936   0.014365  -0.209067   0.041032
   21  H  3  S    0.170454   0.336607  -0.263249   0.647447  -0.208680
   22  H  3  S   -0.406682   0.291121   0.396876   0.399526  -0.418261
   23  H  3  X    0.024306   0.007333   0.108025  -0.022783   0.280191
   24  H  3  Y    0.019042   0.026009   0.033642   0.185754  -0.093545
   25  H  3  Z   -0.000167  -0.033002   0.082668   0.175247   0.046948
   26  H  4  S   -0.643637  -0.132240  -0.687159   0.061212   0.130507
   27  H  4  S    2.184963  -0.485407  -0.729352  -0.002150  -0.172539
   28  H  4  X   -0.084565   0.065922   0.126276   0.178460   0.029862
   29  H  4  Y    0.014996   0.060847  -0.091683  -0.113751  -0.337581
   30  H  4  Z   -0.049708  -0.002286   0.114930  -0.049652   0.184698

                     16         17         18         19         20
                    1.0398     1.0496     1.1616     1.2975     1.3648
                     A          A          A          A          A   
    1  N  1  S    0.045010  -0.561525  -0.176605  -0.155223  -0.282347
    2  N  1  S    0.098213  -1.184512  -0.377608  -0.336931  -0.611227
    3  N  1  S   -0.252874   2.304814   0.727989   0.521522   0.973068
    4  N  1  X   -0.017566  -0.077658  -0.020783   0.018273   0.013645
    5  N  1  Y   -0.251223   0.068985  -0.226432  -0.029010   0.017974
    6  N  1  Z    0.041209   0.086607   0.028002  -0.031574  -0.075262
    7  N  1  X    0.188530   0.505629   0.355089  -0.442812   0.288274
    8  N  1  Y    1.005635  -0.347854   0.747575  -0.123543  -0.145274
    9  N  1  Z   -0.300281   0.252333   0.382599   0.219856   0.564361
   10  N  1 XX   -0.204393  -0.007280   0.122291   0.116220  -0.101576
   11  N  1 YY   -0.022807  -0.117646  -0.010308   0.022074   0.091332
   12  N  1 ZZ    0.227200   0.124926  -0.111982  -0.138294   0.010244
   13  N  1 XY   -0.034561   0.145304  -0.049586  -0.126093   0.083592
   14  N  1 XZ    0.054253  -0.158056  -0.178863   0.045921  -0.060644
   15  N  1 YZ    0.011167  -0.024458   0.187551  -0.006267   0.038305
   16  H  2  S   -0.505225  -0.174177  -0.537316  -0.087484  -0.283756
   17  H  2  S   -0.093320  -0.080804  -0.100214  -0.029811   0.171605
   18  H  2  X    0.033938   0.250633  -0.351600   0.470112   0.177811
   19  H  2  Y   -0.185678   0.076673  -0.187362  -0.033643  -0.101000
   20  H  2  Z    0.338302   0.206257   0.315362  -0.069986  -0.686983
   21  H  3  S    0.493508  -0.446855   0.250592  -0.173534  -0.349107
   22  H  3  S    0.293409  -0.401575   0.082341  -0.116608  -0.048479
   23  H  3  X    0.222441  -0.300693  -0.080491   0.779028  -0.075804
   24  H  3  Y    0.030517  -0.038585  -0.168703  -0.115410   0.050833
   25  H  3  Z    0.005249   0.329405  -0.462773   0.006855  -0.550948
   26  H  4  S   -0.075533  -0.551276  -0.262209  -0.100960  -0.305729
   27  H  4  S    0.018493  -0.371763  -0.170042   0.022045  -0.272439
   28  H  4  X   -0.373355   0.032680   0.324356   0.062651  -0.054282
   29  H  4  Y    0.147619   0.233745   0.235162   0.243162   0.041777
   30  H  4  Z    0.494480   0.025372  -0.206695  -0.321572   0.369918

                     21         22         23         24         25
                    1.5790     1.7314     1.8017     2.0154     2.0737
                     A          A          A          A          A   
    1  N  1  S   -0.048523   0.179420  -0.025684   0.097358  -0.046156
    2  N  1  S   -0.023248   0.465417  -0.060281   0.205739  -0.105632
    3  N  1  S    0.732464   0.262451  -0.117102  -0.104768   0.000085
    4  N  1  X   -0.001034   0.329569   0.154427   0.103592  -0.055971
    5  N  1  Y   -0.043399   0.119167   0.459994  -0.199530   0.070030
    6  N  1  Z    0.038921   0.231678   0.070442   0.078521  -0.038897
    7  N  1  X    0.029200  -0.131362   0.083680   0.019158   0.214014
    8  N  1  Y    0.740627  -0.398689   0.538120  -0.086343  -0.057475
    9  N  1  Z    0.318683   0.018364  -0.018826  -0.179265  -0.180888
   10  N  1 XX    0.109641  -0.065750  -0.003895   0.235018   0.747598
   11  N  1 YY   -0.129526  -0.077026   0.106957   0.151301  -0.012895
   12  N  1 ZZ    0.019885   0.142776  -0.103062  -0.386319  -0.734703
   13  N  1 XY    0.010148  -0.094473  -0.019849  -0.473510  -0.133729
   14  N  1 XZ   -0.025988  -0.278328  -0.019299  -0.126155  -0.095806
   15  N  1 YZ   -0.050919   0.053620  -0.252290   0.053319  -0.064198
   16  H  2  S   -0.173061   0.146436  -0.066540   0.231601  -0.091830
   17  H  2  S   -0.580892  -0.068266  -0.142887   0.341874  -0.143592
   18  H  2  X    0.392897  -0.087318   0.211879   0.614116  -0.344735
   19  H  2  Y    0.705436   0.394599   0.209417  -0.607742   0.279552
   20  H  2  Z    0.253460  -0.192020   0.530212   0.122670  -0.072871
   21  H  3  S    0.263220  -0.157130   0.138205  -0.036552   0.031269
   22  H  3  S   -0.130589  -0.113676   0.550320  -0.037953   0.016121
   23  H  3  X   -0.084663   0.121933   0.094458  -0.321132  -0.069715
   24  H  3  Y   -0.519673  -0.268615   0.866384  -0.196942   0.177665
   25  H  3  Z   -0.490655   0.170640  -0.420334   0.244880   0.111861
   26  H  4  S   -0.277528   0.231545  -0.006755  -0.109938   0.073243
   27  H  4  S    0.200354  -0.267861  -0.315680  -0.305845   0.153748
   28  H  4  X   -0.141744   0.547157   0.343985   0.325833  -0.665290
   29  H  4  Y   -0.276388   0.563556  -0.054573  -0.490875   0.453188
   30  H  4  Z    0.082263   0.486384   0.199341   0.405128   0.354455

                     26         27         28         29
                    2.2276     2.4355     2.6357     3.0662
                     A          A          A          A   
    1  N  1  S    0.109254   0.026925  -0.205464  -0.136167
    2  N  1  S    0.213731   0.006536  -0.254190  -0.174588
    3  N  1  S   -0.363115  -0.752899   2.144591   1.145502
    4  N  1  X    0.054351  -0.042179   0.285776  -0.225381
    5  N  1  Y   -0.068129   0.269496   0.074391  -0.208479
    6  N  1  Z    0.046900  -0.087589   0.279467   0.005183
    7  N  1  X   -0.246397  -0.185614   0.838103  -0.295423
    8  N  1  Y   -0.023234   1.134107   0.468107  -0.367320
    9  N  1  Z   -0.273969  -0.265587   0.705043   0.052783
   10  N  1 XX    0.278940  -0.045657   0.122486  -0.890724
   11  N  1 YY   -0.035342  -0.023420   0.228162   1.503587
   12  N  1 ZZ   -0.243597   0.069077  -0.350648  -0.612864
   13  N  1 XY    0.890898  -0.080575   0.418908   0.082466
   14  N  1 XZ   -0.397207  -0.326157   1.027287  -0.355031
   15  N  1 YZ   -0.018033   1.061166   0.491642  -0.097107
   16  H  2  S    0.224427  -0.441499  -0.588615  -0.614951
   17  H  2  S    0.147153  -0.335773  -0.103456  -0.168080
   18  H  2  X   -0.003454   0.213020   0.052533  -0.000096
   19  H  2  Y   -0.325989   0.526662   0.384103   0.738446
   20  H  2  Z    0.120759   0.029870   0.195987   0.311556
   21  H  3  S    0.024729   0.868814  -0.285020  -1.055795
   22  H  3  S   -0.018790   0.398594   0.005932  -0.319352
   23  H  3  X    0.532606   0.145464  -0.113906  -0.107490
   24  H  3  Y   -0.182597   0.772084  -0.190442  -0.902569
   25  H  3  Z    0.125161   0.169196   0.156797   0.350015
   26  H  4  S    0.109695   0.331123  -1.332164   0.592704
   27  H  4  S   -0.043577   0.202737  -0.552798   0.134168
   28  H  4  X    0.105351  -0.242586   0.853066  -0.513594
   29  H  4  Y   -0.530446  -0.353560   0.230419  -0.026336
   30  H  4  Z    0.316097  -0.132192   0.640602  -0.374486
 .....DONE WITH MCSCF ITERATIONS.....
 CPU     0: STEP CPU TIME=    11.81 TOTAL CPU TIME=         13.0 (      0.2 MIN)
 TOTAL WALL CLOCK TIME=         13.0 SECONDS, CPU UTILIZATION IS    99.92%

     ----------------------------------------------------------------
     PROPERTY VALUES FOR THE MCSCF SELF-CONSISTENT FIELD WAVEFUNCTION
     ----------------------------------------------------------------

          -----------------
          ENERGY COMPONENTS
          -----------------

         WAVEFUNCTION NORMALIZATION =       1.0000000000

                ONE ELECTRON ENERGY =     -93.1772734317
                TWO ELECTRON ENERGY =      26.7346990603
           NUCLEAR REPULSION ENERGY =      10.7513182231
                                      ------------------
                       TOTAL ENERGY =     -55.6912561483

 ELECTRON-ELECTRON POTENTIAL ENERGY =      26.7346990603
  NUCLEUS-ELECTRON POTENTIAL ENERGY =    -148.7555213408
   NUCLEUS-NUCLEUS POTENTIAL ENERGY =      10.7513182231
                                      ------------------
             TOTAL POTENTIAL ENERGY =    -111.2695040574
               TOTAL KINETIC ENERGY =      55.5782479091
                 VIRIAL RATIO (V/T) =       2.0020333178

          ---------------------------------------
          MULLIKEN AND LOWDIN POPULATION ANALYSES
          ---------------------------------------

     ATOMIC MULLIKEN POPULATION IN EACH MOLECULAR ORBITAL

                      1          2          3          4          5

                  2.000000   1.979489   1.652863   1.646293   1.635033

    1             2.000469   1.379967   1.499108   0.908374   1.197672
    2            -0.000074   0.149611   0.006869   0.195850   0.225331
    3            -0.000153   0.154553   0.113534   0.320324   0.022578
    4            -0.000243   0.295358   0.033352   0.221745   0.189452

                      6          7          8

                  0.038670   0.026724   0.020929

    1             0.015255   0.014262   0.011478
    2             0.015830   0.000996   0.001662
    3             0.005698  -0.000064   0.007510
    4             0.001886   0.011530   0.000279
 WARNING! MCSCF POPULATIONS SHOWN ABOVE ARE FOR THE NATURAL ORBITALS.
 IGNORE THE ABOVE DATA FOR MCSCF FUNCTIONS WHICH ARE NOT OF -FORS- TYPE.
 THE FOLLOWING POPULATIONS ARE CORRECT FOR ANY MCSCF WAVEFUNCTION.

               ----- POPULATIONS IN EACH AO -----
                             MULLIKEN      LOWDIN
              1  N  1  S      2.00211     1.90677
              2  N  1  S      0.81677     0.58163
              3  N  1  S      0.73614     0.42939
              4  N  1  X      0.75752     0.70464
              5  N  1  Y      0.61011     0.53161
              6  N  1  Z      0.84313     0.79621
              7  N  1  X      0.42318     0.48930
              8  N  1  Y      0.29272     0.40540
              9  N  1  Z      0.52854     0.56983
             10  N  1 XX      0.00068     0.15394
             11  N  1 YY      0.00585     0.19459
             12  N  1 ZZ      0.00040     0.14666
             13  N  1 XY      0.00542     0.00135
             14  N  1 XZ      0.00401     0.01091
             15  N  1 YZ      0.00000     0.00703
             16  H  2  S      0.48534     0.37664
             17  H  2  S      0.06252     0.15704
             18  H  2  X      0.00922     0.02574
             19  H  2  Y      0.02914     0.04760
             20  H  2  Z      0.00986     0.02260
             21  H  3  S      0.53147     0.41991
             22  H  3  S      0.03922     0.15379
             23  H  3  X      0.00910     0.02051
             24  H  3  Y      0.03465     0.05838
             25  H  3  Z      0.00954     0.02465
             26  H  4  S      0.62972     0.48477
             27  H  4  S      0.06338     0.15574
             28  H  4  X      0.02707     0.05033
             29  H  4  Y      0.01273     0.03094
             30  H  4  Z      0.02046     0.04211

          ----- MULLIKEN ATOMIC OVERLAP POPULATIONS -----
          (OFF-DIAGONAL ELEMENTS NEED TO BE MULTIPLIED BY 2)

             1           2           3           4

    1    6.2552560
    2    0.2324468   0.3767766
    3    0.2849936  -0.0051813   0.3483180
    4    0.2538903  -0.0079674  -0.0041495   0.5115844

          TOTAL MULLIKEN AND LOWDIN ATOMIC POPULATIONS
       ATOM         MULL.POP.    CHARGE          LOW.POP.     CHARGE
    1 N             7.026587   -0.026587         6.929259    0.070741
    2 H             0.596075    0.403925         0.629620    0.370380
    3 H             0.623981    0.376019         0.677237    0.322763
    4 H             0.753358    0.246642         0.763885    0.236115

          MULLIKEN SPHERICAL HARMONIC POPULATIONS
       ATOM           S       P       D      F      G      H      I    TOTAL
    1 N             3.56    3.46    0.02   0.00   0.00   0.00   0.00    7.03
    2 H             0.55    0.05    0.00   0.00   0.00   0.00   0.00    0.60
    3 H             0.57    0.05    0.00   0.00   0.00   0.00   0.00    0.62
    4 H             0.69    0.06    0.00   0.00   0.00   0.00   0.00    0.75

          ---------------------
          ELECTROSTATIC MOMENTS
          ---------------------

 POINT   1           X           Y           Z (BOHR)    CHARGE
                 0.000005    0.000002   -0.177185        1.00 (A.U.)
         DX          DY          DZ         /D/  (DEBYE)
     1.051103    0.407829    2.122022    2.402940
 ...... END OF PROPERTY EVALUATION ......
 CPU     0: STEP CPU TIME=     0.01 TOTAL CPU TIME=         13.0 (      0.2 MIN)
 TOTAL WALL CLOCK TIME=         13.0 SECONDS, CPU UTILIZATION IS    99.92%

     -------------------------------------------------
     GMC-PT/GMC-QDPT or general MCSCF input parameters
     -------------------------------------------------
 # of frozen core orbs. =         0 ->         0
 # of doubly occ. orbs. =         1
 # of active      orbs. =         7
 # of virtual     orbs. =        21
 # of active electrons  =         7
 # of states in CI      =         3
 Highest state in CI    =         3
 kstate =  1 1 1
 avecoe =  0.333 0.333 0.333
 State symmetry           = A           
 Assigned symmetry number = 1

 <<<Act. MO sym.: 1111111

 <<<Division of 1-ext.:  0
 <<<Division of 2-ext.:  0

     ------------------------
     Orbital canonicalization
     ------------------------

 MOs are canonicalized for core, virtual, and invariant-active orbital spaces.
 This is a part of the GMC-QDPT calculation.
 SCHWARZ INEQUALITY OVERHEAD:       465 INTEGRALS, T=        0.00
 DIRECT TRANSFORMATION SKIPS AO INTEGRAL STORAGE ON DISK.

 Averaged energy =     -55.691256148

 State #    1  Energy =     -55.828900962  S =  0.500
 State #    2  Energy =     -55.708504715  S =  0.500
 State #    3  Energy =     -55.536362768  S =  0.500

 Orbital energies for filled orbital space
  -15.974702
 Orbital energies for active orbital space
   -1.473826  -0.795451  -0.960490  -0.704192   0.076026
    0.257689   0.358138
 Orbital energies for external orbital space
    0.143046   0.208151   0.257680   0.530705   0.599765
    0.726188   0.837555   1.039797   1.049557   1.161647
    1.297486   1.364774   1.579045   1.731352   1.801725
    2.015416   2.073651   2.227560   2.435499   2.635692
    3.066249

 Zero values mean non-canonical orbitals.
 ... done with orbital canonicalization ...
 CPU     0: STEP CPU TIME=     0.67 TOTAL CPU TIME=         13.6 (      0.2 MIN)
 TOTAL WALL CLOCK TIME=         13.7 SECONDS, CPU UTILIZATION IS    99.93%

     --------------------------------------------
     PARTIAL TWO ELECTRON INTEGRAL TRANSFORMATION
     --------------------------------------------

 NUMBER OF CORE MOLECULAR ORBITALS     =    0
 NUMBER OF OCCUPIED MOLECULAR ORBITALS =    8
 TOTAL NUMBER OF MOLECULAR ORBITALS    =   29
 TOTAL NUMBER OF ATOMIC ORBITALS       =   30
 THRESHOLD FOR KEEPING TRANSFORMED 2E- INTEGRALS = 1.000E-09
 AO INTEGRALS WILL BE CALCULATED IN DIRECT MODE...
 DIRECT TRANSFORMATION SKIPS AO INTEGRAL STORAGE ON DISK.
 SCHWARZ INEQUALITY OVERHEAD:       465 INTEGRALS, T=        0.00

 PLAN A: REQUIREMENTS FOR FULLY IN-MEMORY TRANSFORMATION:
 # OF WORDS AVAILABLE =            100000000
 # OF WORDS NEEDED    =               221798

 PARALLEL ONLY WORKS WITH THE SEGMENTED ALGORITHM.
 ADJUSTING MEMORY TO USE SEGMENTED ALGORITHM.


 PLAN B: REQUIREMENTS FOR THE SEGMENTED TRANSFORMATION:
       MINIMUM=         124148 WORDS FOR 1 MOLECULAR ORBITAL PER PASS
       MAXIMUM=         221798 WORDS FOR ALL MOLECULAR ORBITALS IN 1 PASS
              (          13950 EXTRA WORDS INCLUDES 1 EXTRA ORBITAL/PASS)
 THIS RUN USES=         221798 WORDS,
 DISTRIBUTING   1 PASSES EACH CONTAINING     8 ORBITALS OVER   1 PROCESSORS.

 CHOOSING SEGMENTED PARTIAL TRANSFORMATION...
 DIRECT TRANSFORMATION SKIPS AO INTEGRAL STORAGE ON DISK.
 PASS #   1 TOOK        0.04 SECONDS.
 TOTAL NUMBER OF TRANSFORMED 2E- INTEGRALS KEPT =        29226
 ... END OF INTEGRAL TRANSFORMATION ...
 CPU     0: STEP CPU TIME=     0.04 TOTAL CPU TIME=         13.7 (      0.2 MIN)
 TOTAL WALL CLOCK TIME=         13.7 SECONDS, CPU UTILIZATION IS    99.93%

     --------     ------------------------------------------
     GMC-QDPT     Program written by H.Nakano (Kyushu Univ.)
     --------     ------------------------------------------

 *** Reference space

 Reference type: ORMAS (= Occupation restricted multiple active space)
 # of orbitals          =  7
 # of minimum electrons =  7
 # of maximum electrons =  7
 State symmetry    =    1 (input)
 2*Sz              =    1 (input)
 Spin multiplicity =    2 (input)
 Dimension of reference space =      1225  (from      3432 walks)

 Dimension of reference space =      1225  (from      1225 walks)

 <<<Ionized spaces for Ref-CI:
      0:         1225 /   -1-0:         1960 /  0-1-0:         2891

 ***                    ***
 *** Reference space CI ***
 ***                    ***

 Converged after   43 iterations

 Reference wavefunctions:

 State #    1  Energy =     -55.828900962  S =  0.500

      Det      Coef    Occupancy (Ignoring core)
      ---      ----    --------- --------- -----
        1    0.968181  11110001110000
       71    0.106831  11110001011000
      393    0.061181  10110101010010

 State #    2  Energy =     -55.708504715  S =  0.500

      Det      Coef    Occupancy (Ignoring core)
      ---      ----    --------- --------- -----
        1    0.111649  11110001110000
       71   -0.970858  11110001011000
      248    0.052570  11011001001100
      822    0.050903  11010011001001

 State #    3  Energy =     -55.536362768  S =  0.500

      Det      Coef    Occupancy (Ignoring core)
      ---      ----    --------- --------- -----
       36    0.971466  11110001101000
      142   -0.054140  11101001100100
      463    0.063401  10110101001010

 Davidson method: CPU/Wall time =           0.55 /           0.55 sec.

 Oscillator strength (invalid if E(1)/=E(GS)):
 -----------------------------------------
   State                        f
 -----------------------------------------
     2     F(REF-CI)=        0.0029525654
     3     F(REF-CI)=        0.0057521436
 -----------------------------------------

 Dipole moment matrix elements, x, y, z, in A.U.

 Dimension of ionized spaces for PT:
 (N-2) space:         1715 /  (N-1) space:         2842 /  N space:         2891
 (N+1) space:         2842 /  (N+2) space:         1715

 <<<Ionized spaces for internal:
         0:         1225 /      -1-0:         1960 /     0-1-0:         2891
  -1-0-1-0:         2842 / 0-1-0-1-0:         3381

 Diagonal elements of averaged one-particle density matrix:
       2       3       4       5       6       7       8
  0.9924  0.9833  0.9849  0.9888  0.0228  0.0155  0.0124
  0.9869  0.6563  0.6611  0.6598  0.0156  0.0116  0.0088

 Orbital energies:
 -------- Doubly-occupied orbitals (highest several orbs.) -------
             1
 -1.597470D+01
 -------- Active orbitals ----------------------------------------
             2            3            4            5            6
 -1.473826D+00-7.954505D-01-9.604899D-01-7.041924D-01 7.602557D-02
             7            8
  2.576888D-01 3.581381D-01
 -------- External orbitals (lowest several orbs.) ---------------
             9           10           11           12           13
  1.430463D-01 2.081510D-01 2.576801D-01 5.307046D-01 5.997650D-01
            14           15           16           17           18
  7.261876D-01 8.375548D-01 1.039797D+00 1.049557D+00 1.161647D+00

 *** Quasi-degeneracy checking

 === Det (|Ci| > 1.0D-01 and dE < 5.0D-03)

 # of small denominators (single excitations)
 State       dEmin  dE < 5.0D-03  dE < 5.0D-04  dE < 5.0D-05  dE < 5.0D-06
 ----- ----------- ------------- ------------- ------------- -------------
     1    5.00D-03             0             0             0             0
     2    5.00D-03             0             0             0             0
     3    5.00D-03             0             0             0             0

 # of small denominators (double excitations)
 State       dEmin  dE < 5.0D-03  dE < 5.0D-04  dE < 5.0D-05  dE < 5.0D-06
 ----- ----------- ------------- ------------- ------------- -------------
     1    5.00D-03             0             0             0             0
     2    5.00D-03             0             0             0             0
     3    5.00D-03             0             0             0             0

 *** Zeroth-Order Setup (Granovsky's zeroth-order vectors)
 Zeroth-order effective Hamiltonian
  (= Sum_i e(i)*<I|a+(i)a(i)|J> ):
                   1            2            3
     1 -7.052746D+00
     2 -1.760856D-02-6.979177D+00
     3  4.789392D-04 9.061510D-03-6.804736D+00

 Zeroth-order vectors:
 State #    1
       MC st            1           2           3
       Coeff    9.749D-01   2.224D-01  -9.849D-03
 State #    2
       MC st            2           1           3
       Coeff   -9.736D-01   2.226D-01   5.100D-02
 State #    3
       MC st            3           2           1
       Coeff    9.987D-01   5.191D-02  -1.754D-03

 *** GMC-QDPT computation

 (Integral reading:  CPU/Wall time =           0.00 /           0.00 sec.)

 One-external:
   0 -ionized terms: CPU/Wall time =           0.03 /           0.03 sec.
 (-1)-ionized terms: CPU/Wall time =           0.09 /           0.09 sec.
 (+1)-ionized terms: CPU/Wall time =           0.02 /           0.02 sec.
 (+1)-ionized terms: CPU/Wall time =           0.01 /           0.00 sec.
 (+2)-ionized terms: CPU/Wall time =           0.00 /           0.01 sec.

 Internal:
 # of macro loops for internal contribution =         1 (input)
 Loop:    1
 Dimension of internal CISD space     =         0  (after screening)
 Space construction: CPU/Wall time =           0.02 /           0.01 sec.
 Internal terms:     CPU/Wall time =           0.00 /           0.00 sec.

 Two-external:
   0 -ionized terms: CPU/Wall time =           0.06 /           0.06 sec.
 (-1)-ionized terms: CPU/Wall time =           1.00 /           1.01 sec.
 (-2)-ionized terms: CPU/Wall time =           0.17 /           0.17 sec.

 Total time:         CPU/Wall time =           1.40 /           1.40 sec.

 ***                  ***
 *** GMC-QDPT Results ***
 ***                  ***

 Diagonal elements of effective Hamiltonian:
 Heff(  1) =   -55.92312142
 Heff(  2) =   -55.82075503
 Heff(  3) =   -55.64786884

 Off-diagonal elements of effective Hamiltonian:
                   1            2
     2 -2.332095D-02
     3 -2.173767D-03 8.346322D-03

 ******** GMC-QDPT energies ********
 ----------------------------------------------------------------------------
   State                        1st order                           2nd order
 ----------------------------------------------------------------------------
     1     E(REF-CI)=      -55.8289009617   E(GMC-QDPT2)=      -55.9281844395
     2     E(REF-CI)=      -55.7085047154   E(GMC-QDPT2)=      -55.8161337956
     3     E(REF-CI)=      -55.5363627678   E(GMC-QDPT2)=      -55.6474270620
 ----------------------------------------------------------------------------

 Excitation energies (invalid if E(1)/=E(GS)):
 ----------------------------------------------------------------------------
   State                        1st order                           2nd order
 ----------------------------------------------------------------------------

     TZ Sorted GMC-PT ENERGIES:
         1      -55.9281844395
         2      -55.8161337956
         3      -55.6474270620
     2     E(REF-CI)=        3.2761504 eV   E(GMC-QDPT2)=        3.0490549 eV
     3     E(REF-CI)=        7.9603738 eV   E(GMC-QDPT2)=        7.6398013 eV
 ----------------------------------------------------------------------------

 Main characters of perturbed GMC-QDPT states:

 State #    1  Energy =     -55.928184440  S =  0.500

      Det      Coef    Occupancy (Ignoring core)
      ---      ----    --------- --------- -----
        1    0.969321  11110001110000
       71    0.096266  11110001011000
      393    0.061304  10110101010010

 State #    2  Energy =     -55.816133796  S =  0.500

      Det      Coef    Occupancy (Ignoring core)
      ---      ----    --------- --------- -----
        1    0.101039  11110001110000
       71   -0.971997  11110001011000
      248    0.052593  11011001001100
      822    0.050946  11010011001001

 State #    3  Energy =     -55.647427062  S =  0.500

      Det      Coef    Occupancy (Ignoring core)
      ---      ----    --------- --------- -----
       36    0.971476  11110001101000
      142   -0.054117  11101001100100
      463    0.063369  10110101001010

 <<<Max |V/de| = 2.827D-02  Thresh = 1.000D+00

 Oscillator strength (invalid if E(1)/=E(GS)):
 ----------------------------------------------------------------------------
   State                        1st order                           2nd order
 ----------------------------------------------------------------------------
     2     F(REF-CI)=        0.0029525654     F(GMC-PT2)=        0.0028359959
     3     F(REF-CI)=        0.0057521436     F(GMC-PT2)=        0.0056494656
 ----------------------------------------------------------------------------

 Dipole moment matrix elements, x, y, z, in A.U.
States    1    1        0.3514942357        0.1485227870        0.6243731924
States    1    2        0.0195635481       -0.0420681121       -0.1892418089
States    1    3        0.0444728643        0.1513775981       -0.0727347090
States    2    1        0.0195635481       -0.0420681121       -0.1892418089
States    2    2        0.4254391320       -0.0408819411        0.3813869811
States    2    3       -0.0502622845        0.1275998781       -0.0010508732
States    3    1        0.0444728643        0.1513775981       -0.0727347090
States    3    2       -0.0502622845        0.1275998781       -0.0010508732
States    3    3        0.4953185202        0.3534081135        0.3018122096

 Oscillator strength (valid only when positive): 
 ----------------------------------------------------------------------------
  States                        1st order                           2nd order
 ----------------------------------------------------------------------------
  1  1     F(REF-CI)=        0.0000000000     F(GMC-PT2)=        0.0000000000
  1  2     F(REF-CI)=       -0.0029525654     F(GMC-PT2)=       -0.0028359959
  1  3     F(REF-CI)=       -0.0057521436     F(GMC-PT2)=       -0.0056494656
  2  1     F(REF-CI)=        0.0029525654     F(GMC-PT2)=        0.0028359959
  2  2     F(REF-CI)=        0.0000000000     F(GMC-PT2)=        0.0000000000
  2  3     F(REF-CI)=       -0.0022069445     F(GMC-PT2)=       -0.0021154846
  3  1     F(REF-CI)=        0.0057521436     F(GMC-PT2)=        0.0056494656
  3  2     F(REF-CI)=        0.0022069445     F(GMC-PT2)=        0.0021154846
  3  3     F(REF-CI)=        0.0000000000     F(GMC-PT2)=        0.0000000000
 CPU     0: STEP CPU TIME=     2.01 TOTAL CPU TIME=         15.7 (      0.3 MIN)
 TOTAL WALL CLOCK TIME=         15.7 SECONDS, CPU UTILIZATION IS    99.94%

     !!! DIABATIZATION FOR REF CI STATES !!!

 *******************************************************
          $DMO GROUP FOUND IN THE INPUT.
        DIABATIZATION OF ADIABATIC STATES BEGINS.
     PROGRAMMED BY TAO ZENG (CARLETON UNIVERSITY).
               Email: toby.zeng@carleton.ca
     See T. Zeng, J. Chem. Phys. 2017, 146, 144103
 *******************************************************

 *************************************************************************
     STEP 1: TRANSFORMATION OF ADIABATIC STATES TO THE DMO REPRESENTATION
         See Atchity and Ruedenberg, J. Chem. Phys. 1999, 111, 2910
 *************************************************************************

Read in Diabatic Molecualr Orbitals:

                      1          2          3          4          5

    1  N  1  S    0.008609   0.000000   0.000000  -0.013219   0.279491
    2  N  1  S    0.442914  -0.000000   0.000000  -0.184329   0.867803
    3  N  1  S    0.276913   0.000000  -0.000000  -0.288315   0.144236
    4  N  1  X   -0.000000   0.493155  -0.024636  -0.000000  -0.000000
    5  N  1  Y    0.000000   0.024636   0.493155  -0.000000   0.000000
    6  N  1  Z    0.090197   0.000000   0.000000   0.593421   0.705309
    7  N  1  X   -0.000000   0.210628  -0.010522   0.000000   0.000000
    8  N  1  Y    0.000000   0.010522   0.210628  -0.000000  -0.000000
    9  N  1  Z   -0.004381   0.000000   0.000000   0.381592  -0.106092
   10  N  1 XX   -0.000457   0.010719  -0.000535  -0.012387   0.006153
   11  N  1 YY   -0.000457  -0.010719   0.000535  -0.012387   0.006153
   12  N  1 ZZ    0.000914  -0.000000   0.000000   0.024773  -0.012306
   13  N  1 XY    0.000000  -0.000618  -0.012377  -0.000000   0.000000
   14  N  1 XZ   -0.000000   0.026529  -0.001325  -0.000000   0.000000
   15  N  1 YZ    0.000000   0.001325   0.026529  -0.000000   0.000000
   16  H  2  S    0.194462  -0.176074   0.343485   0.112865  -0.523343
   17  H  2  S    0.003574  -0.023812   0.046452   0.024014  -0.054445
   18  H  2  X    0.018760   0.009101   0.022834   0.009336  -0.039151
   19  H  2  Y   -0.032493   0.022287  -0.020044  -0.016171   0.067811
   20  H  2  Z   -0.009251   0.008464  -0.016511   0.018769  -0.010566
   21  H  3  S    0.194462  -0.209430  -0.324227   0.112865  -0.523343
   22  H  3  S    0.003574  -0.028322  -0.043847   0.024014  -0.054445
   23  H  3  X    0.018760   0.006781  -0.023627   0.009336  -0.039151
   24  H  3  Y    0.032493  -0.024174  -0.017723   0.016171  -0.067811
   25  H  3  Z   -0.009251   0.010067   0.015585   0.018769  -0.010566
   26  H  4  S    0.194462   0.385503  -0.019258   0.112865  -0.523343
   27  H  4  S    0.003574   0.052134  -0.002604   0.024014  -0.054445
   28  H  4  X   -0.037519  -0.032295   0.001613  -0.018672   0.078302
   29  H  4  Y    0.000000   0.001067   0.021353  -0.000000   0.000000
   30  H  4  Z   -0.009251  -0.018530   0.000926   0.018769  -0.010566

                      6          7

    1  N  1  S    0.000000  -0.000000
    2  N  1  S    0.000000  -0.000000
    3  N  1  S   -0.000000   0.000000
    4  N  1  X   -0.930415  -0.002083
    5  N  1  Y   -0.002083   0.930415
    6  N  1  Z   -0.000000   0.000000
    7  N  1  X   -0.046866  -0.000105
    8  N  1  Y   -0.000105   0.046866
    9  N  1  Z   -0.000000   0.000000
   10  N  1 XX    0.001538   0.000003
   11  N  1 YY   -0.001538  -0.000003
   12  N  1 ZZ   -0.000000   0.000000
   13  N  1 XY   -0.000004   0.001776
   14  N  1 XZ    0.039985   0.000090
   15  N  1 YZ    0.000090  -0.039985
   16  H  2  S   -0.362630  -0.631354
   17  H  2  S   -0.065964  -0.114846
   18  H  2  X    0.002763  -0.037520
   19  H  2  Y    0.037435   0.040736
   20  H  2  Z    0.001882   0.003276
   21  H  3  S   -0.365454   0.629724
   22  H  3  S   -0.066477   0.114549
   23  H  3  X    0.002595   0.037532
   24  H  3  Y   -0.037617   0.040567
   25  H  3  Z    0.001896  -0.003268
   26  H  4  S    0.728084   0.001630
   27  H  4  S    0.132441   0.000297
   28  H  4  X   -0.062317  -0.000140
   29  H  4  Y    0.000055  -0.024345
   30  H  4  Z   -0.003778  -0.000008

NUMBER OF SUB ACTIVE SPACES:   1
ROTATE ACTIVE MOS TO DMOS IN EACH SUB-SPACE

SPACE  1:

OVERLAP BETWEEN ORTHONORMAL AND PRE-ORTHONORMAL REF. DMOS

             1           2           3           4           5

    1    0.9645394   0.0441655  -0.0006029  -0.0116995   0.0080171
    2    0.0441655   0.8851351   0.0505802   0.0521655  -0.0694099
    3   -0.0006029   0.0505802   1.0120753   0.0105410  -0.0341545
    4   -0.0116995   0.0521655   0.0105410   0.9929502  -0.0158340
    5    0.0080171  -0.0694099  -0.0341545  -0.0158340   1.1731563
    6    0.0042165  -0.0688978   0.0570402   0.0508792   0.0434872
    7    0.0016506  -0.0281556  -0.0399678  -0.0271502   0.0581024

             6           7

    1    0.0042165   0.0016506
    2   -0.0688978  -0.0281556
    3    0.0570402  -0.0399678
    4    0.0508792  -0.0271502
    5    0.0434872   0.0581024
    6    1.0964086  -0.0034216
    7   -0.0034216   1.0652007
REFERENCE DMOS AFTER ORTHONORMALIZATION:

                      1          2          3          4          5

    1  N  1  S    0.006057   0.017674   0.007308  -0.010333   0.240254
    2  N  1  S    0.449266   0.041233   0.024497  -0.171027   0.740460
    3  N  1  S    0.282077   0.011968   0.005564  -0.286618   0.118403
    4  N  1  X   -0.019533   0.498224  -0.000946   0.016751   0.059933
    5  N  1  Y   -0.001633   0.021462   0.521857   0.018638  -0.026708
    6  N  1  Z    0.096035   0.001540   0.016624   0.610551   0.612226
    7  N  1  X   -0.011119   0.239484  -0.020103  -0.010786   0.014287
    8  N  1  Y    0.000011   0.000957   0.210866  -0.000248   0.004041
    9  N  1  Z    0.002293  -0.030282  -0.004003   0.385767  -0.087226
   10  N  1 XX   -0.001320   0.013670  -0.001045  -0.013252   0.005769
   11  N  1 YY   -0.000126  -0.011303   0.001442  -0.011753   0.004568
   12  N  1 ZZ    0.001446  -0.002367  -0.000396   0.025005  -0.010337
   13  N  1 XY   -0.000010   0.000050  -0.012236   0.000121  -0.000437
   14  N  1 XZ   -0.001764   0.033658  -0.005111  -0.003707   0.000319
   15  N  1 YZ    0.000094  -0.000954   0.024985  -0.001106   0.002531
   16  H  2  S    0.223757  -0.315216   0.338035   0.125714  -0.413449
   17  H  2  S    0.006808  -0.042913   0.045981   0.025880  -0.039707
   18  H  2  X    0.019654   0.004442   0.019801   0.007680  -0.031046
   19  H  2  Y   -0.036334   0.037612  -0.020279  -0.018483   0.056347
   20  H  2  Z   -0.009764   0.009593  -0.017302   0.018283  -0.008913
   21  H  3  S    0.220873  -0.285232  -0.282090   0.159511  -0.488382
   22  H  3  S    0.006299  -0.037480  -0.035864   0.031829  -0.052434
   23  H  3  X    0.019479   0.006231  -0.023784   0.009735  -0.035700
   24  H  3  Y    0.036151  -0.035682  -0.014454   0.020628  -0.061025
   25  H  3  Z   -0.009734   0.009419   0.014361   0.017925  -0.007694
   26  H  4  S    0.182120   0.450214  -0.095824   0.050517  -0.451086
   27  H  4  S    0.000714   0.065171  -0.014547   0.013791  -0.047738
   28  H  4  X   -0.037787  -0.033949   0.008956  -0.013472   0.067589
   29  H  4  Y    0.000060  -0.000584   0.020379  -0.000707   0.001692
   30  H  4  Z   -0.008188  -0.023000   0.001848   0.020134  -0.009807

                      6          7

    1  N  1  S   -0.008382  -0.012663
    2  N  1  S   -0.021980  -0.043506
    3  N  1  S    0.007940  -0.013650
    4  N  1  X   -0.820307   0.005731
    5  N  1  Y   -0.024706   0.895468
    6  N  1  Z   -0.053808  -0.017490
    7  N  1  X   -0.026660   0.004355
    8  N  1  Y   -0.010993   0.051672
    9  N  1  Z   -0.016103   0.013584
   10  N  1 XX    0.002706  -0.000316
   11  N  1 YY   -0.001826  -0.000802
   12  N  1 ZZ   -0.000881   0.001119
   13  N  1 XY    0.000652   0.001238
   14  N  1 XZ    0.039019   0.000798
   15  N  1 YZ   -0.001442  -0.036797
   16  H  2  S   -0.360194  -0.564105
   17  H  2  S   -0.065231  -0.104620
   18  H  2  X    0.002467  -0.032496
   19  H  2  Y    0.036433   0.035104
   20  H  2  Z    0.002773   0.003656
   21  H  3  S   -0.323568   0.602378
   22  H  3  S   -0.060204   0.108669
   23  H  3  X    0.005000   0.036688
   24  H  3  Y   -0.034349   0.040287
   25  H  3  Z    0.001081  -0.001385
   26  H  4  S    0.712304   0.037734
   27  H  4  S    0.126913   0.004817
   28  H  4  X   -0.061362  -0.004861
   29  H  4  Y   -0.001151  -0.022219
   30  H  4  Z   -0.005500   0.000497

 -------------------------------------------
       MAXIMIZING MORMO OVERLAP TERM        
 -------------------------------------------
   SWEEP    VALUE       PROGRESS
     0     4.80520
     1     6.92282     2.11762144
     2     6.93112     0.00829529
     3     6.93112     0.00000058
     4     6.93112     0.00000000
     5     6.93112     0.00000000
 THE ROTATION IS DONE
FLIPPING SIGN FOR ORBITAL   7
ACTIVE ORBITALS AFTER MORMO:

                      1          2          3          4          5

    1  N  1  S    0.003314   0.033722   0.003235  -0.012882   0.178108
    2  N  1  S    0.414375   0.085148   0.000915  -0.193240   0.666921
    3  N  1  S    0.347687  -0.082635   0.025819  -0.263300   0.210845
    4  N  1  X    0.004192   0.427747   0.013190   0.050725   0.025991
    5  N  1  Y   -0.008596   0.041500   0.502599   0.014077  -0.031486
    6  N  1  Z    0.079167   0.040008   0.020302   0.605752   0.602354
    7  N  1  X   -0.033336   0.324590  -0.051703  -0.070893   0.059665
    8  N  1  Y    0.007820  -0.032359   0.213872  -0.015004   0.021658
    9  N  1  Z    0.035559  -0.088212  -0.013939   0.387160  -0.069189
   10  N  1 XX   -0.007516   0.032442  -0.004532  -0.017339   0.035071
   11  N  1 YY    0.008086  -0.033238   0.005283  -0.003790  -0.044541
   12  N  1 ZZ   -0.000570   0.000796  -0.000751   0.021129   0.009470
   13  N  1 XY    0.003299  -0.002678  -0.000077  -0.002598  -0.014973
   14  N  1 XZ    0.001768   0.018140  -0.005585   0.003303  -0.047792
   15  N  1 YZ    0.002894  -0.001697   0.015537  -0.003399  -0.009789
   16  H  2  S    0.188342  -0.203507   0.312395   0.104698  -0.394891
   17  H  2  S    0.016593  -0.116323   0.082632   0.038789  -0.063724
   18  H  2  X   -0.003177   0.026039  -0.005621  -0.004527  -0.007649
   19  H  2  Y   -0.029376   0.014152  -0.036052  -0.012209   0.043432
   20  H  2  Z   -0.003585  -0.003107  -0.013253   0.018059  -0.024177
   21  H  3  S    0.190178  -0.232908  -0.294123   0.122925  -0.464921
   22  H  3  S    0.008837  -0.061315  -0.031891   0.040478  -0.074930
   23  H  3  X    0.004442   0.021771  -0.011062  -0.000908  -0.005274
   24  H  3  Y    0.033357  -0.022267  -0.036704   0.011962  -0.052304
   25  H  3  Z   -0.001843   0.001146   0.006586   0.021305  -0.015810
   26  H  4  S    0.179345   0.402686  -0.057226   0.077893  -0.473880
   27  H  4  S   -0.005812   0.142548  -0.052949   0.017639  -0.073457
   28  H  4  X   -0.031188  -0.015935  -0.001255  -0.021323   0.046039
   29  H  4  Y   -0.004982  -0.009417   0.020512  -0.001513  -0.013406
   30  H  4  Z   -0.015094  -0.034466  -0.000505   0.016221  -0.006809

                      6          7

    1  N  1  S    0.042384  -0.041151
    2  N  1  S    0.107578  -0.085627
    3  N  1  S   -0.156211   0.053597
    4  N  1  X   -0.817454  -0.010302
    5  N  1  Y    0.004163   0.888679
    6  N  1  Z   -0.092050  -0.029213
    7  N  1  X   -0.038029   0.034343
    8  N  1  Y   -0.055333   0.070783
    9  N  1  Z    0.015486   0.042783
   10  N  1 XX    0.052307   0.007431
   11  N  1 YY   -0.061254   0.005180
   12  N  1 ZZ    0.008947  -0.012611
   13  N  1 XY    0.006415  -0.050438
   14  N  1 XZ    0.016707   0.005628
   15  N  1 YZ    0.008186  -0.051118
   16  H  2  S   -0.265501  -0.538915
   17  H  2  S   -0.129059  -0.168548
   18  H  2  X    0.034784  -0.010313
   19  H  2  Y    0.022551   0.049369
   20  H  2  Z    0.018301  -0.018710
   21  H  3  S   -0.288730   0.566766
   22  H  3  S   -0.076415   0.134240
   23  H  3  X    0.008597   0.016728
   24  H  3  Y   -0.023994   0.053925
   25  H  3  Z    0.006597   0.027983
   26  H  4  S    0.664866  -0.012969
   27  H  4  S    0.224315   0.043349
   28  H  4  X   -0.027064   0.002498
   29  H  4  Y    0.002920  -0.054655
   30  H  4  Z   -0.015938  -0.007296

Actually Used Diabatic Molecualr Orbitals:

                      1          2          3          4          5

    1  N  1  S    0.003314   0.033722   0.003235  -0.012882   0.178108
    2  N  1  S    0.414375   0.085148   0.000915  -0.193240   0.666921
    3  N  1  S    0.347687  -0.082635   0.025819  -0.263300   0.210845
    4  N  1  X    0.004192   0.427747   0.013190   0.050725   0.025991
    5  N  1  Y   -0.008596   0.041500   0.502599   0.014077  -0.031486
    6  N  1  Z    0.079167   0.040008   0.020302   0.605752   0.602354
    7  N  1  X   -0.033336   0.324590  -0.051703  -0.070893   0.059665
    8  N  1  Y    0.007820  -0.032359   0.213872  -0.015004   0.021658
    9  N  1  Z    0.035559  -0.088212  -0.013939   0.387160  -0.069189
   10  N  1 XX   -0.007516   0.032442  -0.004532  -0.017339   0.035071
[...]
 - DM DIABT PT HAMILTONIAN MATRIX ELEMENTS -
 -------------------------------------------
                                            
 --- DIABATIC ENERGIES (DIAGONAL ELEMENT) ---       HARTREE            EV
 STATE #  1'S GMC-PT-LEVEL DIABATIC ENERGY=     -55.898290400       0.000000000
 STATE #  2'S GMC-PT-LEVEL DIABATIC ENERGY=     -55.825598487       1.978047717
 STATE #  3'S GMC-PT-LEVEL DIABATIC ENERGY=     -55.667856410       6.270428238

 --- DIABATIC COUPLINGS (OFF DIAGONAL ELEMENTS)---  HATREE            EV
 STATE #  1 &  2'S GMC-PT-LEVEL COUPLING  =      -0.055351609      -1.506193985
 STATE #  1 &  3'S GMC-PT-LEVEL COUPLING  =      -0.024120007      -0.656338813
 STATE #  2 &  3'S GMC-PT-LEVEL COUPLING  =       0.049500945       1.346989334

 ---------------------------------------
     - ROTATION TO DIABATIC STATES -    
 ---------------------------------------
 ROWS=ADIABATIC, COLUMNS=DIABATIC STATES

             1           2           3

    1   -0.8780793  -0.4784185   0.0096144
    2    0.4515107  -0.8217044   0.3477643
    3    0.1584767  -0.3097056  -0.9375327

 ---------------------------------------
          - DIABATIC STATES -           
 ---------------------------------------

 State #    1  Energy =     -55.898290400

      Det      Coef        Coefp    Occupancy (Ignoring core)
      ---      ----        ----    --------- --------- -----
        1    0.903284   -0.903284  222+000
        8   -0.183135    0.183135  2-2+0+0
      386    0.152050   -0.152050  2+2+0-0
        4   -0.149675    0.149675  2-2++00
      176    0.143879   -0.143879  2+2+-00
        6    0.110576   -0.110576  22200+0
        7    0.084154    0.084154  22-+0+0
      351   -0.078652   -0.078652  22++0-0
      717   -0.065356   -0.065356  220+002
      393   -0.061019   -0.061019  202+020
      708    0.047247   -0.047247  2-++0+-
        5    0.044245    0.044245  -22++00
      402    0.041905   -0.041905  2+-+0-+
        3   -0.038173   -0.038173  22-++00
      215   -0.038052   -0.038052  022+200
      705   -0.037658   -0.037658  -2+++0-
      391    0.037547   -0.037547  2+20020
      141    0.037323    0.037323  22++-00
      227   -0.036655   -0.036655  +2-+-0+
      143   -0.035636   -0.035636  220+200
       18   -0.034936    0.034936  2-2+00+
       11    0.033922   -0.033922  2-20++0
      736    0.032391   -0.032391  2+2+00-
      212    0.031155    0.031155  +220200
       76    0.031085    0.031085  2+2-0+0
      183   -0.030753    0.030753  202+-+0
     1051   -0.030614   -0.030614  2+++0--
      389    0.030082    0.030082  202++-0
       13    0.029739    0.029739  2--+++0
       16   -0.029218    0.029218  222000+
      113   -0.029184    0.029184  +-220+0
      390    0.028872   -0.028872  -+2++-0
      218    0.028604   -0.028604  +-2+-+0
       51   -0.028294    0.028294  22+-00+
      211   -0.028201   -0.028201  +22+-00
      147    0.027591   -0.027591  220+-+0
      387   -0.027181    0.027181  2+20+-0
      561    0.026866    0.026866  2+++--0
       29   -0.026296   -0.026296  2--+0++
      353   -0.026069   -0.026069  220++-0
        9    0.025528    0.025528  -22+0+0
      424   -0.025210   -0.025210  +-2++-0
      702    0.024331    0.024331  22+0+0-
      773    0.023744   -0.023744  +2-++0-
      159    0.023558   -0.023558  -2++-0+
      122    0.021526    0.021526  +2-200+
      701    0.021204    0.021204  22++00-
      184   -0.021051   -0.021051  -+2+-+0

 State #    2  Energy =     -55.825598487

      Det      Coef        Coefp    Occupancy (Ignoring core)
      ---      ----        ----    --------- --------- -----
       71   -0.897816    0.897816  2+22000
       74    0.191391   -0.191391  2022+00
       78    0.155375   -0.155375  20220+0
       76    0.151709    0.151709  2+2-0+0
      386   -0.133276    0.133276  2+2+0-0
      106    0.098077    0.098077  +222000
       77    0.092362   -0.092362  2+-20+0
      456   -0.076076   -0.076076  2++20-0
      822    0.062101   -0.062101  2+02002
       81    0.054265    0.054265  202-++0
      113    0.053866   -0.053866  +-220+0
      813    0.052578   -0.052578  20+20+-
      246    0.052228    0.052228  2++2-00
       75   -0.047839   -0.047839  -+22+00
      393   -0.046798   -0.046798  202+020
       36    0.046422    0.046422  22+2000
      806    0.043315    0.043315  2++200-
       99   -0.040071    0.040071  20-20++
       79   -0.039999   -0.039999  -+220+0
      810   -0.038527   -0.038527  -++2+0-
      323   -0.038383    0.038383  +022-+0
      320    0.037310    0.037310  0+22200
       88    0.037088   -0.037088  202200+
      109    0.036697   -0.036697  +-22+00
      736    0.036437   -0.036437  2+2+00-
      183   -0.036274    0.036274  202+-+0
      180   -0.035447    0.035447  -+2+200
      248    0.034811   -0.034811  2+02200
      332   -0.034720    0.034720  ++-2-0+
      177    0.034554   -0.034554  2+20200
       86   -0.034473   -0.034473  2+2-00+
       83    0.034289   -0.034289  20-2++0
      317    0.033857   -0.033857  ++2-200
       38   -0.032767    0.032767  2202+00
       73   -0.032301    0.032301  2+-2+00
      252   -0.029911   -0.029911  2+02-+0
       87   -0.027013    0.027013  2+-200+
      529    0.025955    0.025955  +022+-0
      807   -0.024649    0.024649  2++-+0-
      192   -0.023606    0.023606  2+-+-0+
      458    0.022918   -0.022918  2+02+-0
      264    0.022253   -0.022253  -++2-0+
      878    0.022212    0.022212  ++-2+0-
      534    0.021671    0.021671  0+22020
       42   -0.021123    0.021123  22020+0

 State #    3  Energy =     -55.667856410

      Det      Coef        Coefp    Occupancy (Ignoring core)
      ---      ----        ----    --------- --------- -----
       36   -0.902623   -0.902623  22+2000
      246   -0.160024   -0.160024  2++2-00
      456   -0.156781   -0.156781  2++20-0
       43    0.132600    0.132600  2-+20+0
       39    0.126887    0.126887  2-+2+00
      351   -0.119863   -0.119863  22++0-0
       41    0.103240   -0.103240  22+-0+0
       42   -0.079969    0.079969  22020+0
      463    0.069728   -0.069728  20+2020
       52    0.060075   -0.060075  220200+
      472   -0.053446   -0.053446  2+020-+
      281    0.053303   -0.053303  +2+2-00
      112   -0.045268   -0.045268  +2-20+0
      461    0.044032   -0.044032  2++-020
      358   -0.043087    0.043087  2-++020
       46    0.041524   -0.041524  2-+-++0
       51   -0.040602    0.040602  22+-00+
      561    0.040489    0.040489  2+++--0
       64    0.040198   -0.040198  2-020++
      285    0.040090   -0.040090  02+2200
      491    0.040076   -0.040076  +2+20-0
       71   -0.039578    0.039578  2+22000
      121   -0.039041    0.039041  +22-00+
      297    0.037543   -0.037543  +202-0+
       38    0.037069   -0.037069  2202+00
      457   -0.036106    0.036106  2++-+-0
      282    0.035796    0.035796  +2+-200
       53    0.035522    0.035522  2-+200+
      701    0.035157    0.035157  22++00-
      142    0.035053    0.035053  22+0200
       37   -0.034675    0.034675  22+-+00
      145   -0.033935   -0.033935  -2++200
      148   -0.033541   -0.033541  2-++-+0
      460   -0.033438   -0.033438  -++2+-0
       73    0.033137   -0.033137  2+-2+00
      108   -0.032989   -0.032989  +2-2+00
      806   -0.032853   -0.032853  2++200-
       16   -0.031198    0.031198  222000+
      288   -0.028485   -0.028485  +-+2-+0
        3    0.026794    0.026794  22-++00
      254    0.026585   -0.026585  -++2-+0
      253    0.025387    0.025387  20+2-+0
       48   -0.024437    0.024437  2-02++0
      157    0.024403   -0.024403  220+-0+
       77    0.024181   -0.024181  2+-20+0
      459   -0.021928    0.021928  20+2+-0
      494    0.021775   -0.021775  +-+2+-0
      771    0.021560    0.021560  +22+00-
      843   -0.021071   -0.021071  +202+0-
      716    0.021017    0.021017  22+0002
       40   -0.020314    0.020314  -2+2+00

 ---------------------------------------
      - DIABATIC STATES IN CMO -        
 ---------------------------------------

 State #    1  Energy =     -55.898290400

      Det      Coef        Coefp    Occupancy (Ignoring core)
      ---      ----        ----    --------- --------- -----
        1    0.807326   -0.807326  222+000
       71    0.518213   -0.518213  2+22000
       36    0.161552    0.161552  22+2000
      177   -0.051496    0.051496  2+20200
      179   -0.049541   -0.049541  202+200
      393   -0.048944   -0.048944  202+020
      717   -0.043092   -0.043092  220+002
      106   -0.037273   -0.037273  +222000
      143   -0.036978   -0.036978  220+200
      180    0.033142   -0.033142  -+2+200
      183    0.033113   -0.033113  202+-+0
      822   -0.030285    0.030285  2+02002
       17   -0.029534   -0.029534  22-+00+
        8   -0.029408    0.029408  2-2+0+0
        2    0.028637   -0.028637  2220+00
      248   -0.028468    0.028468  2+02200
      392    0.027937    0.027937  2+-+020
      212    0.027779    0.027779  +220200
        7   -0.027303   -0.027303  22-+0+0
      192   -0.026958    0.026958  2+-+-0+
      358   -0.026835    0.026835  2-++020
      182   -0.026485    0.026485  2+-+-+0
      357   -0.026137   -0.026137  220+020
      113   -0.024178    0.024178  +-220+0
      112   -0.023622   -0.023622  +2-20+0
      702   -0.022850   -0.022850  22+0+0-
       18    0.022727   -0.022727  2-2+00+
      429   -0.022536   -0.022536  022+020
      389   -0.022256   -0.022256  202++-0
      215   -0.022229   -0.022229  022+200
       74   -0.022172    0.022172  2022+00
      227    0.021815    0.021815  +2-+-0+
      705    0.021349    0.021349  -2+++0-
      193   -0.021277    0.021277  202+-0+
      109   -0.021227    0.021227  +-22+00
      178   -0.020432   -0.020432  2+-+200
       76    0.020258    0.020258  2+2-0+0

 State #    2  Energy =     -55.825598487

      Det      Coef        Coefp    Occupancy (Ignoring core)
      ---      ----        ----    --------- --------- -----
       71   -0.742510    0.742510  2+22000
        1    0.543238   -0.543238  222+000
       36   -0.329944   -0.329944  22+2000
        2    0.046698   -0.046698  2220+00
      248    0.046326   -0.046326  2+02200
      822    0.045353   -0.045353  2+02002
      109    0.040129   -0.040129  +-22+00
      393   -0.038213   -0.038213  202+020
      143   -0.033391   -0.033391  220+200
      113    0.032355   -0.032355  +-220+0
      249    0.027330   -0.027330  20+2200
      807    0.026187   -0.026187  2++-+0-
       38   -0.025285    0.025285  2202+00
       74    0.025218   -0.025218  2022+00
      823    0.024849   -0.024849  20+2002
      317    0.024396   -0.024396  ++2-200
       72    0.024324    0.024324  2+2-+00
      534    0.023968    0.023968  0+22020
       53    0.023606    0.023606  2-+200+
      717   -0.023324   -0.023324  220+002
      177    0.022127   -0.022127  2+20200
      812    0.021768   -0.021768  2+020+-
      142    0.021732    0.021732  22+0200
       87   -0.021518    0.021518  2+-200+
       99    0.021272   -0.021272  20-20++
      810    0.021233    0.021233  -++2+0-
        4   -0.021093    0.021093  2-2++00
      107   -0.020572    0.020572  +22-+00
      358   -0.020537    0.020537  2-++020
       75   -0.020373   -0.020373  -+22+00
      392    0.020264    0.020264  2+-+020
      112    0.020001    0.020001  +2-20+0

 State #    3  Energy =     -55.667856410

      Det      Coef        Coefp    Occupancy (Ignoring core)
      ---      ----        ----    --------- --------- -----
       36   -0.899902   -0.899902  22+2000
       71    0.367763   -0.367763  2+22000
      463    0.070606   -0.070606  20+2020
        1   -0.055136    0.055136  222+000
      142    0.050504    0.050504  22+0200
      108   -0.049070   -0.049070  +2-2+00
        3    0.044771    0.044771  22-++00
      462   -0.043231    0.043231  2+02020
       37   -0.041557    0.041557  22+-+00
      459    0.036354   -0.036354  20+2+-0
      249    0.036082   -0.036082  20+2200
      145   -0.032022   -0.032022  -2++200
      282    0.031508    0.031508  +2+-200
       72    0.030726    0.030726  2+2-+00
      121    0.030069   -0.030069  +22-00+
      113    0.029555   -0.029555  +-220+0
       40    0.029033   -0.029033  -2+2+00
        4   -0.027682    0.027682  2-2++00
      285    0.027366   -0.027366  02+2200
      144    0.026845   -0.026845  2-++200
       88    0.026651   -0.026651  202200+
      457   -0.026039    0.026039  2++-+-0
      499    0.025977   -0.025977  02+2020
       52   -0.025693    0.025693  220200+
      253   -0.025483   -0.025483  20+2-+0
      157   -0.024193    0.024193  220+-0+
      464    0.024117    0.024117  -++2020
       64   -0.023167    0.023167  2-020++
      247   -0.022447    0.022447  2++-200
      473    0.021951    0.021951  20+20-+
      177   -0.021334    0.021334  2+20200
      716    0.020185    0.020185  22+0002
      281    0.020037   -0.020037  +2+2-00

 ---------------------------------------
    -DIABATIC STATES IN PROTOTYPES-     
 ---------------------------------------

     STATE:    1
 Group Ref#    Coefficients
     1    1    0.924373
     2    2    0.008995
     3    3   -0.007385

WEIGHT OF LISTED PROTOTYPES:   85.46%

     STATE:    2
 Group Ref#    Coefficients
     1    1    0.009042
     2    2    0.919627
     3    3   -0.003804

WEIGHT OF LISTED PROTOTYPES:   84.58%

     STATE:    3
 Group Ref#    Coefficients
     1    1   -0.007487
     2    2   -0.003837
     3    3    0.911775

WEIGHT OF LISTED PROTOTYPES:   83.14%

     DIRECT MAX. DIABATIZATION FINISHED    
 CPU     0: STEP CPU TIME=     0.25 TOTAL CPU TIME=         16.0 (      0.3 MIN)
 TOTAL WALL CLOCK TIME=         16.0 SECONDS, CPU UTILIZATION IS    99.94%

DIABATS FOR SPIN-ORBIT CALCULATION ARE READY

TRANSITION DIPOLES BETWEEN ADIABATS (in A.U.):

STATE PAIR      X         Y         Z
    1    1  0.351494  0.148523  0.624373
    2    1  0.019564 -0.042068 -0.189242
    2    2  0.425439 -0.040882  0.381387
    3    1  0.044473  0.151378 -0.072735
    3    2 -0.050262  0.127600 -0.001051
    3    3  0.495319  0.353408  0.301812


TRANSITION DIPOLES BETWEEN DIABATS (in A.U.):

STATE PAIR      X         Y         Z
    1    1  0.335094  0.124542  0.736882
    2    1 -0.002306  0.034163 -0.003675
    2    2  0.418195  0.117006  0.258493
    3    1  0.039528  0.030352  0.007160
    3    2  0.003726  0.272949 -0.024347
    3    3  0.518963  0.219501  0.312197

TRANSITION DIPOLES BETWEEN DIRECT MAX. DIABATS (in A.U.):

STATE PAIR      X         Y         Z
    1    1  0.335098  0.124543  0.736883
    2    1 -0.002308  0.034179 -0.003664
    2    2  0.418195  0.117017  0.258492
    3    1  0.039538  0.030350  0.007137
    3    2  0.003729  0.272950 -0.024346
    3    3  0.518958  0.219488  0.312197
 No $TRANST Group Found.
 Quit without doing spin-orbit coupling
 ..... DONE WITH MP2 ENERGY .....
 CPU     0: STEP CPU TIME=     0.00 TOTAL CPU TIME=         16.0 (      0.3 MIN)
 TOTAL WALL CLOCK TIME=         16.0 SECONDS, CPU UTILIZATION IS    99.87%
            100000000  WORDS OF DYNAMIC MEMORY USED
 EXECUTION OF GAMESS TERMINATED NORMALLY Wed Nov 16 19:49:30 2022
 DDI: 715512 bytes (0.7 MB / 0 MWords) used by master data server.

 ----------------------------------------
 CPU timing information for all processes
 ========================================
 0: 15.564 + 0.396 = 15.960
 ----------------------------------------
Note: The following floating-point exceptions are signalling: IEEE_DENORMAL
 ddikick.x: exited gracefully.
unset echo
----- accounting info -----
Files used on the master node io002 were:
-rw-r--r-- 1 bsonghao nooijen   20727 Nov 16 19:49 /scratch/bsonghao/nh3_diabatization_2d_at_mode_7_8_dist0.3_0.8.F05
-rw-r--r-- 1 bsonghao nooijen  363520 Nov 16 19:49 /scratch/bsonghao/nh3_diabatization_2d_at_mode_7_8_dist0.3_0.8.F09
-rw-r--r-- 1 bsonghao nooijen 1995920 Nov 16 19:49 /scratch/bsonghao/nh3_diabatization_2d_at_mode_7_8_dist0.3_0.8.F10
-rw-r--r-- 1 bsonghao nooijen  131264 Nov 16 19:49 /scratch/bsonghao/nh3_diabatization_2d_at_mode_7_8_dist0.3_0.8.F13
-rw-r--r-- 1 bsonghao nooijen  180312 Nov 16 19:49 /scratch/bsonghao/nh3_diabatization_2d_at_mode_7_8_dist0.3_0.8.F15
-rw-r--r-- 1 bsonghao nooijen       0 Nov 16 19:49 /scratch/bsonghao/nh3_diabatization_2d_at_mode_7_8_dist0.3_0.8.F16
-rw-r--r-- 1 bsonghao nooijen    9808 Nov 16 19:49 /scratch/bsonghao/nh3_diabatization_2d_at_mode_7_8_dist0.3_0.8.F70
-rw-r--r-- 1 bsonghao nooijen    9808 Nov 16 19:49 /scratch/bsonghao/nh3_diabatization_2d_at_mode_7_8_dist0.3_0.8.F71
-rw-r--r-- 1 bsonghao nooijen   19608 Nov 16 19:49 /scratch/bsonghao/nh3_diabatization_2d_at_mode_7_8_dist0.3_0.8.F72
-rw-r--r-- 1 bsonghao nooijen   19608 Nov 16 19:49 /scratch/bsonghao/nh3_diabatization_2d_at_mode_7_8_dist0.3_0.8.F73
-rw-r--r-- 1 bsonghao nooijen 1920824 Nov 16 19:49 /scratch/bsonghao/nh3_diabatization_2d_at_mode_7_8_dist0.3_0.8.F74
-rw-r--r-- 1 bsonghao nooijen       0 Nov 16 19:49 /scratch/bsonghao/nh3_diabatization_2d_at_mode_7_8_dist0.3_0.8.F75
-rw-r--r-- 1 bsonghao nooijen   58848 Nov 16 19:49 /scratch/bsonghao/nh3_diabatization_2d_at_mode_7_8_dist0.3_0.8.F76
-rw-r--r-- 1 bsonghao nooijen       0 Nov 16 19:49 /scratch/bsonghao/nh3_diabatization_2d_at_mode_7_8_dist0.3_0.8.F77
-rw-r--r-- 1 bsonghao nooijen    1864 Nov 16 19:49 /scratch/bsonghao/nh3_diabatization_2d_at_mode_7_8_dist0.3_0.8.F78
-rw-r--r-- 1 bsonghao nooijen   39208 Nov 16 19:49 /scratch/bsonghao/nh3_diabatization_2d_at_mode_7_8_dist0.3_0.8.F79
-rw-r--r-- 1 bsonghao nooijen     104 Nov 16 19:49 /scratch/bsonghao/nh3_diabatization_2d_at_mode_7_8_dist0.3_0.8.F80
-rw-r--r-- 1 bsonghao nooijen   13472 Nov 16 19:49 /scratch/bsonghao/nh3_diabatization_2d_at_mode_7_8_dist0.3_0.8.F81
-rw-r--r-- 1 bsonghao nooijen      16 Nov 16 19:49 /scratch/bsonghao/nh3_diabatization_2d_at_mode_7_8_dist0.3_0.8.F82
-rw-r--r-- 1 bsonghao nooijen   19216 Nov 16 19:49 /scratch/bsonghao/nh3_diabatization_2d_at_mode_7_8_dist0.3_0.8.F83
-rw-r--r-- 1 bsonghao nooijen   29712 Nov 16 19:49 /scratch/bsonghao/nh3_diabatization_2d_at_mode_7_8_dist0.3_0.8.F84
-rw-r--r-- 1 bsonghao nooijen  401576 Nov 16 19:49 /scratch/bsonghao/nh3_diabatization_2d_at_mode_7_8_dist0.3_0.8.F85
-rw-r--r-- 1 bsonghao nooijen  903672 Nov 16 19:49 /scratch/bsonghao/nh3_diabatization_2d_at_mode_7_8_dist0.3_0.8.F86
-rw-r--r-- 1 bsonghao nooijen     656 Nov 16 19:49 /scratch/bsonghao/nh3_diabatization_2d_at_mode_7_8_dist0.3_0.8.F87
-rw-r--r-- 1 bsonghao nooijen   44112 Nov 16 19:49 /scratch/bsonghao/nh3_diabatization_2d_at_mode_7_8_dist0.3_0.8.F88
-rw-r--r-- 1 bsonghao nooijen     240 Nov 16 19:49 /scratch/bsonghao/nh3_diabatization_2d_at_mode_7_8_dist0.3_0.8.F89
-rw-r--r-- 1 bsonghao nooijen       0 Nov 16 19:49 /scratch/bsonghao/nh3_diabatization_2d_at_mode_7_8_dist0.3_0.8.F90
-rw-r--r-- 1 bsonghao nooijen   13760 Nov 16 19:49 /scratch/bsonghao/nh3_diabatization_2d_at_mode_7_8_dist0.3_0.8.F91
-rw-r--r-- 1 bsonghao nooijen   22776 Nov 16 19:49 /scratch/bsonghao/nh3_diabatization_2d_at_mode_7_8_dist0.3_0.8.F92
-rw-r--r-- 1 bsonghao nooijen   23168 Nov 16 19:49 /scratch/bsonghao/nh3_diabatization_2d_at_mode_7_8_dist0.3_0.8.F93
-rw-r--r-- 1 bsonghao nooijen   22776 Nov 16 19:49 /scratch/bsonghao/nh3_diabatization_2d_at_mode_7_8_dist0.3_0.8.F94
-rw-r--r-- 1 bsonghao nooijen   13760 Nov 16 19:49 /scratch/bsonghao/nh3_diabatization_2d_at_mode_7_8_dist0.3_0.8.F95
-rw-r--r-- 1 bsonghao nooijen   29440 Nov 16 19:49 /scratch/bsonghao/nh3_diabatization_2d_at_mode_7_8_dist0.3_0.8.F96
-rw-r--r-- 1 bsonghao nooijen    1184 Nov 16 19:49 /scratch/bsonghao/nh3_diabatization_2d_at_mode_7_8_dist0.3_0.8.F97
-rw-r--r-- 1 bsonghao nooijen    9808 Nov 16 19:49 /scratch/bsonghao/nh3_diabatization_2d_at_mode_7_8_dist0.3_0.8.F98
-rw-r--r-- 1 bsonghao nooijen   30264 Nov 16 19:49 /scratch/bsonghao/nh3_diabatization_2d_at_mode_7_8_dist0.3_0.8.F99
ls: No match.
ls: No match.
ls: No match.
Wed 16 Nov 2022 07:49:33 PM EST
0.292u 0.035s 0:19.32 1.6%	0+0k 48+224io 0pf+0w
