----- GAMESS execution script 'rungms' -----
This job is running on host io002
under operating system Linux at Wed 16 Nov 2022 06:35:15 PM EST
Available scratch disk space (Kbyte units) at beginning of the job is
Filesystem       1K-blocks       Used   Available Use% Mounted on
/dev/sdc1      15378471580 3278917120 11318349060  23% /scratch
GAMESS temporary binary files will be written to /scratch/bsonghao
GAMESS supplementary output files will be written to /home/bsonghao/.gamess_ascii_files/267638
Copying input file nh3_diabatization_2d_at_mode_7_8_dist-0.6_-0.4.inp to your run's scratch directory...
cp nh3_diabatization_2d_at_mode_7_8_dist-0.6_-0.4.inp /scratch/bsonghao/nh3_diabatization_2d_at_mode_7_8_dist-0.6_-0.4.F05
unset echo
/home/bjb2chen/gamess/ddikick.x /home/bjb2chen/gamess/gamess.00.x nh3_diabatization_2d_at_mode_7_8_dist-0.6_-0.4 -ddi 1 1 io002 -scr /scratch/bsonghao

 Distributed Data Interface kickoff program.
 Initiating 1 compute processes on 1 nodes to run the following command:
 /home/bjb2chen/gamess/gamess.00.x nh3_diabatization_2d_at_mode_7_8_dist-0.6_-0.4 

          ******************************************************
          *         GAMESS VERSION = 02 AUG 2018 (R2)         *
          *             FROM IOWA STATE UNIVERSITY             *
          * M.W.SCHMIDT, K.K.BALDRIDGE, J.A.BOATZ, S.T.ELBERT, *
          *   M.S.GORDON, J.H.JENSEN, S.KOSEKI, N.MATSUNAGA,   *
          *          K.A.NGUYEN, S.J.SU, T.L.WINDUS,           *
          *       TOGETHER WITH M.DUPUIS, J.A.MONTGOMERY       *
          *         J.COMPUT.CHEM.  14, 1347-1363(1993)        *
          **************** 64 BIT LINUX VERSION ****************

  SINCE 1993, STUDENTS AND POSTDOCS WORKING AT IOWA STATE UNIVERSITY
  AND ALSO IN THEIR VARIOUS JOBS AFTER LEAVING ISU HAVE MADE IMPORTANT
  CONTRIBUTIONS TO THE CODE:
     IVANA ADAMOVIC, CHRISTINE AIKENS, YURI ALEXEEV, POOJA ARORA,
     ANDREY ASADCHEV, ROB BELL, PRADIPTA BANDYOPADHYAY, JONATHAN BENTZ,
     BRETT BODE, KURT BRORSEN, CALEB CARLIN, GALINA CHABAN, WEI CHEN,
     CHEOL HO CHOI, PAUL DAY, ALBERT DEFUSCO, NUWAN DESILVA, TIM DUDLEY,
     DMITRI FEDOROV, ALEX FINDLATER, GRAHAM FLETCHER, MARK FREITAG,
     KURT GLAESEMANN, ANASTASIA GUININA,
     DAN KEMP, GRANT MERRILL, NORIYUKI MINEZAWA, JONATHAN MULLIN,
     TAKESHI NAGATA, SEAN NEDD, HEATHER NETZLOFF, BOSILJKA NJEGIC, RYAN OLSON,
     MIKE PAK, BUU PHAM,
     SPENCER PRUITT, LUKE ROSKOP, JIM SHOEMAKER, LYUDMILA SLIPCHENKO,
     TONY SMITH, SAROM SOK LEANG, JIE SONG, TETSUYA TAKETSUGU, SIMON WEBB,
     PENG XU, SOOHAENG YOO, FEDERICO ZAHARIEV

  ADDITIONAL CODE HAS BEEN PROVIDED BY COLLABORATORS IN OTHER GROUPS:
     IOWA STATE UNIVERSITY:
          JOE IVANIC, AARON WEST, LAIMUTIS BYTAUTAS, KLAUS RUEDENBERG
     UNIVERSITY OF TOKYO: KIMIHIKO HIRAO, TAKAHITO NAKAJIMA,
          TAKAO TSUNEDA, MUNEAKI KAMIYA, SUSUMU YANAGISAWA,
          KIYOSHI YAGI, MAHITO CHIBA, SEIKEN TOKURA, NAOAKI KAWAKAMI
     UNIVERSITY OF AARHUS: FRANK JENSEN
     UNIVERSITY OF IOWA: VISVALDAS KAIRYS, HUI LI
     NATIONAL INST. OF STANDARDS AND TECHNOLOGY: WALT STEVENS, DAVID GARMER
     UNIVERSITY OF PISA: BENEDETTA MENNUCCI, JACOPO TOMASI
     UNIVERSITY OF MEMPHIS: HENRY KURTZ, PRAKASHAN KORAMBATH
     UNIVERSITY OF ALBERTA: TOBY ZENG, MARIUSZ KLOBUKOWSKI
     UNIVERSITY OF NEW ENGLAND: MARK SPACKMAN
     MIE UNIVERSITY: HIROAKI UMEDA
     NAT. INST. OF ADVANCED INDUSTRIAL SCIENCE AND TECHNOLOGY: KAZUO KITAURA
     MICHIGAN STATE UNIVERSITY:
          KAROL KOWALSKI, MARTA WLOCH, JEFFREY GOUR, JESSE LUTZ,
          WEI LI, JUN SHEN, J. EMILIANO DEUSTUA, PIOTR PIECUCH
     UNIVERSITY OF MINNESOTA:
          YINAN SHU
     UNIVERSITY OF SILESIA: MONIKA MUSIAL, STANISLAW KUCHARSKI
     FACULTES UNIVERSITAIRES NOTRE-DAME DE LA PAIX:
          OLIVIER QUINET, BENOIT CHAMPAGNE
     UNIVERSITY OF CALIFORNIA - SANTA BARBARA: BERNARD KIRTMAN
     INSTITUTE FOR MOLECULAR SCIENCE:
          KAZUYA ISHIMURA, MICHIO KATOUDA, AND SHIGERU NAGASE
     UNIVERSITY OF NOTRE DAME: ANNA POMOGAEVA, DAN CHIPMAN
     KYUSHU UNIVERSITY:
          HARUYUKI NAKANO,
          FENG LONG GU, JACEK KORCHOWIEC, MARCIN MAKOWSKI, AND YURIKO AOKI,
          HIROTOSHI MORI AND EISAKU MIYOSHI
     PENNSYLVANIA STATE UNIVERSITY:
          TZVETELIN IORDANOV, CHET SWALINA, JONATHAN SKONE,
          SHARON HAMMES-SCHIFFER
     WASEDA UNIVERSITY:
          MASATO KOBAYASHI, TOMOKO AKAMA, TSUGUKI TOUMA,
          TAKESHI YOSHIKAWA, YASUHIRO IKABATA, JUNJI SEINO,
          YUYA NAKAJIMA, HIROMI NAKAI
     NANJING UNIVERSITY: SHUHUA LI
     UNIVERSITY OF NEBRASKA:
          PEIFENG SU, DEJUN SI, NANDUN THELLAMUREGE, YALI WANG, HUI LI
     UNIVERSITY OF ZURICH: ROBERTO PEVERATI, KIM BALDRIDGE
     N. COPERNICUS UNIVERSITY AND JACKSON STATE UNIVERSITY:
          MARIA BARYSZ
     UNIVERSITY OF COPENHAGEN: Jimmy Kromann, CASPER STEINMANN
     TOKYO INSTITUTE OF TECHNOLOGY: HIROYA NAKATA
     NAGOYA UNIVERSITY: YOSHIO NISHIMOTO, STEPHAN IRLE
     MOSCOW STATE UNIVERSITY: VLADIMIR MIRONOV

 EXECUTION OF GAMESS BEGUN Wed Nov 16 18:35:15 2022

            ECHO OF THE FIRST FEW INPUT CARDS -
 INPUT CARD> $system kdiag=3 mwords=100 memddi=1000 parall=.t. $end                         
 INPUT CARD> $contrl runtyp=energy ispher=1 $end                                            
 INPUT CARD> $contrl icut=9 itol=20 inttyp=rysquad qmttol=1.0d-05 nosym=1 $end              
 INPUT CARD> $scf    npunch=2 conv=1.0d-06 dirscf=.t.      $end                             
 INPUT CARD> $contrl scftyp=mcscf  mult=2 maxit=200 icharg=1 mplevl=2 $end                  
 INPUT CARD> $guess  guess=moread norb=29 purify=.t. $end                                   
 INPUT CARD> $basis  gbasis=ccd $end                                                        
 INPUT CARD> $mcscf  cistep=gmcci fullnr=.t. finci=mos                                      
 INPUT CARD>         acurcy=1.d-6 maxit=100 $end                                            
 INPUT CARD> $trans  dirtrf=.t. $end                                                        
 INPUT CARD> $mrmp   mrpt=gmcpt rdvecs=.f. $end                                             
 INPUT CARD> $gmcpt  nmofzc=0 nmodoc=1 nmoact=7 nelact=7 stsym(1)=A                         
 INPUT CARD>         reftyp=ormas nspace=1 mstart(1)=2 mine(1)=7 maxe(1)=7                  
 INPUT CARD>         kstate(1)=1,1,1                                                        
 INPUT CARD>         wstate(1)=1,1,1                                                        
 INPUT CARD>         iwgt=0 thrwgt=-1.0 krot=.f. kszdoe=.f. knospn=.f.                      
 INPUT CARD>         thrde=-1.0 edshft=0.02 $end                                            
 INPUT CARD> $data                                                                          
 INPUT CARD> NH3+ 3 states calculation at NH3 structure.                                    
 INPUT CARD> c1                                                                             
 INPUT CARD>N 7.0 0.024915672 0.037373418000000005 -0.1693804682                            
 INPUT CARD>H 1.0 -0.8982557720000001 0.6123881478000001 0.1720895481                       
 INPUT CARD>H 1.0 -0.439703862 -0.6938499718000001 0.44641840610000005                      
 INPUT CARD>H 1.0 0.991749708 -0.43785447200000005 0.1508694221                             
 INPUT CARD>$end                                                                            
 INPUT CARD>--- OPTIMIZED RHF      MO-S --- GENERATED AT Mon Nov 14 16:47:08 2022           
 INPUT CARD>E=      -56.3825050291, E(NUC)=   11.8429239490                                 
 INPUT CARD> $VEC                                                                           
 INPUT CARD> 1  1-1.00134066E+00-2.25158504E-03 3.44925845E-03 0.00000000E+00 0.00000000E+00
 INPUT CARD> 1  2-2.13170927E-03 0.00000000E+00 0.00000000E+00 6.57129898E-04-6.87950443E-05
 INPUT CARD> 1  3-6.87950443E-05 1.37590089E-04 0.00000000E+00 0.00000000E+00 0.00000000E+00
 INPUT CARD> 1  4 3.25502815E-04-4.84772356E-04 3.62525460E-04-6.27912517E-04-3.45956485E-04
 INPUT CARD> 1  5 3.25502815E-04-4.84772356E-04 3.62525460E-04 6.27912517E-04-3.45956485E-04
 INPUT CARD> 1  6 3.25502815E-04-4.84772356E-04-7.25050921E-04 0.00000000E+00-3.45956485E-04
 INPUT CARD> 2  1 1.31286642E-02-4.05911371E-01-2.82090992E-01 0.00000000E+00 0.00000000E+00
 INPUT CARD> 2  2-7.71489043E-02 0.00000000E+00 0.00000000E+00 9.73717494E-03 6.62450916E-04
 INPUT CARD> 2  3 6.62450916E-04-1.32490183E-03 0.00000000E+00 0.00000000E+00 0.00000000E+00
 INPUT CARD> 2  4-1.96090317E-01-1.96656153E-02-1.74855877E-02 3.02859263E-02 8.68214399E-03
 INPUT CARD> 2  5-1.96090317E-01-1.96656153E-02-1.74855877E-02-3.02859263E-02 8.68214399E-03
 INPUT CARD> 2  6-1.96090317E-01-1.96656153E-02 3.49711754E-02 0.00000000E+00 8.68214399E-03
 INPUT CARD> 3  1 0.00000000E+00 0.00000000E+00 0.00000000E+00 4.48608762E-01 0.00000000E+00
 INPUT CARD> 3  2 0.00000000E+00 2.18692520E-01 0.00000000E+00 0.00000000E+00 1.30198027E-02
 INPUT CARD> 3  3-1.30198027E-02 0.00000000E+00 0.00000000E+00 2.71832968E-02 0.00000000E+00
 INPUT CARD> 3  4-1.85332726E-01-7.03958951E-02 8.47929477E-03 1.95242443E-02 8.32835058E-03
 INPUT CARD> 3  5-1.85332726E-01-7.03958951E-02 8.47929477E-03-1.95242443E-02 8.32835058E-03
 INPUT CARD> 3  6 3.70665453E-01 1.40791790E-01-2.53376884E-02 0.00000000E+00-1.66567012E-02
 INPUT CARD> 4  1 0.00000000E+00 0.00000000E+00 0.00000000E+00 0.00000000E+00 4.48608762E-01
 INPUT CARD> 4  2 0.00000000E+00 0.00000000E+00 2.18692520E-01 0.00000000E+00 0.00000000E+00
 INPUT CARD> 4  3 0.00000000E+00 0.00000000E+00-1.50339731E-02 0.00000000E+00 2.71832968E-02
 INPUT CARD> 4  4 3.21005698E-01 1.21929267E-01 1.95242443E-02-1.40653607E-02-1.44251263E-02
  100000000 WORDS OF MEMORY AVAILABLE

     BASIS OPTIONS
     -------------
     GBASIS=CCD          IGAUSS=       0      POLAR=NONE    
     NDFUNC=       0     NFFUNC=       0     DIFFSP=       F
     NPFUNC=       0      DIFFS=       F     BASNAM=        


     RUN TITLE
     ---------
  NH3+ 3 states calculation at NH3 structure.                                    

 THE POINT GROUP OF THE MOLECULE IS C1      
 THE ORDER OF THE PRINCIPAL AXIS IS     0

 ATOM      ATOMIC                      COORDINATES (BOHR)
           CHARGE         X                   Y                   Z
 N           7.0     0.0470837929        0.0706255192       -0.3200826726
 H           1.0    -1.6974572760        1.1572457975        0.3252020913
 H           1.0    -0.8309198149       -1.3111863233        0.8436084634
 H           1.0     1.8741351965       -0.8274249746        0.2851018677

          INTERNUCLEAR DISTANCES (ANGS.)
          ------------------------------

                1 N          2 H          3 H          4 H     

   1 N       0.0000000    1.1399514 *  1.0629051 *  1.1239082 *
   2 H       1.1399514 *  0.0000000    1.4113058 *  2.1623091 *
   3 H       1.0629051 *  1.4113058 *  0.0000000    1.4838943 *
   4 H       1.1239082 *  2.1623091 *  1.4838943 *  0.0000000  

  * ... LESS THAN  3.000


     ATOMIC BASIS SET
     ----------------
 THE CONTRACTED PRIMITIVE FUNCTIONS HAVE BEEN UNNORMALIZED
 THE CONTRACTED BASIS FUNCTIONS ARE NOW NORMALIZED TO UNITY

  SHELL TYPE  PRIMITIVE        EXPONENT          CONTRACTION COEFFICIENT(S)

 N         

      1   S       1          9046.0000000    0.000699617413
      1   S       2          1357.0000000    0.005386054630
      1   S       3           309.3000000    0.027391021189
      1   S       4            87.7300000    0.103150591982
      1   S       5            28.5600000    0.278570663317
      1   S       6            10.2100000    0.448294849454
      1   S       7             3.8380000    0.278085928395
      1   S       8             0.7466000    0.015431561233

      2   S       9          9046.0000000   -0.000304990096
      2   S      10          1357.0000000   -0.002408026379
      2   S      11           309.3000000   -0.011944448725
      2   S      12            87.7300000   -0.048925992909
      2   S      13            28.5600000   -0.134472724725
      2   S      14            10.2100000   -0.315112577700
      2   S      15             3.8380000   -0.242857832550
      2   S      16             0.7466000    1.094382206854

      3   S      17             0.2248000    1.000000000000

      4   P      18            13.5500000    0.058905676772
      4   P      19             2.9170000    0.320461106714
      4   P      20             0.7973000    0.753042061792

      5   P      21             0.2185000    1.000000000000

      6   D      22             0.8170000    1.000000000000

 H         

      7   S      23            13.0100000    0.033498726390
      7   S      24             1.9620000    0.234800801174
      7   S      25             0.4446000    0.813682957883

      8   S      26             0.1220000    1.000000000000

      9   P      27             0.7270000    1.000000000000

 H         

     10   S      28            13.0100000    0.033498726390
     10   S      29             1.9620000    0.234800801174
     10   S      30             0.4446000    0.813682957883

     11   S      31             0.1220000    1.000000000000

     12   P      32             0.7270000    1.000000000000

 H         

     13   S      33            13.0100000    0.033498726390
     13   S      34             1.9620000    0.234800801174
     13   S      35             0.4446000    0.813682957883

     14   S      36             0.1220000    1.000000000000

     15   P      37             0.7270000    1.000000000000

 TOTAL NUMBER OF BASIS SET SHELLS             =   15
 NUMBER OF CARTESIAN GAUSSIAN BASIS FUNCTIONS =   30
 NOTE: THIS RUN WILL RESTRICT THE MO VARIATION SPACE TO SPHERICAL HARMONICS.
 THE NUMBER OF ORBITALS KEPT IN THE VARIATIONAL SPACE WILL BE PRINTED LATER.
 NUMBER OF ELECTRONS                          =    9
 CHARGE OF MOLECULE                           =    1
 SPIN MULTIPLICITY                            =    2
 NUMBER OF OCCUPIED ORBITALS (ALPHA)          =    5
 NUMBER OF OCCUPIED ORBITALS (BETA )          =    4
 TOTAL NUMBER OF ATOMS                        =    4
 THE NUCLEAR REPULSION ENERGY IS       11.0066425840

     $CONTRL OPTIONS
     ---------------
 SCFTYP=MCSCF        RUNTYP=ENERGY       EXETYP=RUN     
 MPLEVL=       2     CITYP =NONE         CCTYP =NONE         VBTYP =NONE    
 DFTTYP=NONE         TDDFT =NONE    
 MULT  =       2     ICHARG=       1     NZVAR =       0     COORD =UNIQUE  
 PP    =NONE         RELWFN=NONE         LOCAL =NONE         NUMGRD=       F
 ISPHER=       1     NOSYM =       1     MAXIT =     200     UNITS =ANGS    
 PLTORB=       F     MOLPLT=       F     AIMPAC=       F     FRIEND=        
 NPRINT=       7     IREST =       0     GEOM  =INPUT   
 NORMF =       0     NORMP =       0     ITOL  =      20     ICUT  =       9
 INTTYP=RYSQUAD      GRDTYP=BEST         QMTTOL= 1.0E-05

     $SYSTEM OPTIONS
     ---------------
  REPLICATED MEMORY=   100000000 WORDS (ON EVERY NODE).
 DISTRIBUTED MEMDDI=        1000 MILLION WORDS IN AGGREGATE,
 MEMDDI DISTRIBUTED OVER   1 PROCESSORS IS  1000000000 WORDS/PROCESSOR.
 TOTAL MEMORY REQUESTED ON EACH PROCESSOR=  1100000000 WORDS.
 TIMLIM=      525600.00 MINUTES, OR     365.0 DAYS.
 PARALL= T  BALTYP=  DLB     KDIAG=    3  COREFL= F
 MXSEQ2=     300 MXSEQ3=     150  mem10=         0

          ----------------
          PROPERTIES INPUT
          ----------------

     MOMENTS            FIELD           POTENTIAL          DENSITY
 IEMOM =       1   IEFLD =       0   IEPOT =       0   IEDEN =       0
 WHERE =COMASS     WHERE =NUCLEI     WHERE =NUCLEI     WHERE =NUCLEI  
 OUTPUT=BOTH       OUTPUT=BOTH       OUTPUT=BOTH       OUTPUT=BOTH    
 IEMINT=       0   IEFINT=       0                     IEDINT=       0
                                                       MORB  =       0

     -------------------------------
     INTEGRAL TRANSFORMATION OPTIONS
     -------------------------------
     NWORD  =            0
     CUTOFF = 1.0E-09     MPTRAN =       0
     DIRTRF =       T     AOINTS =DUP     

          ----------------------
          MCSCF INPUT PARAMETERS
          ----------------------
 CONVERGER SELECTION: FOCAS = F  SOSCF = F  FULLNR = T  QUD = F  JACOBI = F
 SECULAR EQUATION METHOD CISTEP = GMCCI   
 --- GENERAL INPUT OPTIONS:
 MAXIT =     100  MICIT =       1  ACURCY= 1.000E-06
 DAMP  =   0.000  CANONC=       T  ENGTOL= 1.000E-10
 EKT   =       F  NPUNCH=       2  NWORD =         0
 REGENERATE CI AFTER CONVERGENCE = NONE    
 DIABATIZATION AFTER CONVERGENCE =        F
 --- INPUT FOR FULLNR CONVERGER:
 METHOD=DM2       FORS  =       F  DROPC =       T
 LINSER=       F  FCORE =       F  NORB  =      30

          ----------------------
          INTEGRAL INPUT OPTIONS
          ----------------------
 NOPK  =       1 NORDER=       0 SCHWRZ=       T

 ------------------------------------------
 MULTIREFERENCE PERTURBATION THEORY CONTROL
 ------------------------------------------
 MRPT=GMCPT    READ CONVERGED MCSCF VECTORS= F


     ------------------------------------------
     THE POINT GROUP IS C1 , NAXIS= 1, ORDER= 1
     ------------------------------------------

 -- VARIATIONAL SPACE WILL BE RESTRICTED TO PURE SPHERICAL HARMONICS ONLY --
 AFTER EXCLUDING CONTAMINANT COMBINATIONS FROM THE CARTESIAN GAUSSIAN BASIS
 SET, THE NUMBER OF SPHERICAL HARMONICS KEPT IN THE VARIATION SPACE IS   29

     DIMENSIONS OF THE SYMMETRY SUBSPACES ARE
 A   =   29

 ..... DONE SETTING UP THE RUN .....
 CPU     0: STEP CPU TIME=     0.04 TOTAL CPU TIME=          0.0 (      0.0 MIN)
 TOTAL WALL CLOCK TIME=          0.1 SECONDS, CPU UTILIZATION IS    80.00%

          ********************
          1 ELECTRON INTEGRALS
          ********************
 TIME TO DO   DIPOLE INTEGRALS=      0.00
 ...... END OF ONE-ELECTRON INTEGRALS ......
 CPU     0: STEP CPU TIME=     0.00 TOTAL CPU TIME=          0.0 (      0.0 MIN)
 TOTAL WALL CLOCK TIME=          0.1 SECONDS, CPU UTILIZATION IS    80.00%

          -------------
          GUESS OPTIONS
          -------------
          GUESS =MOREAD            NORB  =      29          NORDER=       0
          MIX   =       F          PRTMO =       F          PUNMO =       F
          TOLZ  = 1.0E-08          TOLE  = 1.0E-05
          SYMDEN=       F          PURIFY=       T

 INITIAL GUESS ORBITALS GENERATED BY MOREAD   ROUTINE.

 STATISTICS FOR GENERATION OF SYMMETRY ORBITAL -Q- MATRIX
 NUMBER OF CARTESIAN ATOMIC ORBITALS=         30
 NUMBER OF SPHERICAL CONTAMINANTS DROPPED=     1
 NUMBER OF LINEARLY DEPENDENT MOS DROPPED=     0
 TOTAL NUMBER OF MOS IN VARIATION SPACE=      29
 ORBITAL PURIFICATION WILL OCCUR

 SYMMETRIES FOR INITIAL GUESS ORBITALS FOLLOW.   BOTH SET(S).
     5 ORBITALS ARE OCCUPIED (    1 CORE ORBITALS).
     1=A        2=A        3=A        4=A        5=A        6=A        7=A   
     8=A        9=A       10=A       11=A       12=A       13=A       14=A   
    15=A       16=A       17=A       18=A       19=A       20=A       21=A   
    22=A       23=A       24=A       25=A       26=A       27=A       28=A   
    29=A   
 ...... END OF INITIAL ORBITAL SELECTION ......
 CPU     0: STEP CPU TIME=     0.01 TOTAL CPU TIME=          0.1 (      0.0 MIN)
 TOTAL WALL CLOCK TIME=          0.1 SECONDS, CPU UTILIZATION IS    83.33%

                    ----------------------
                    AO INTEGRAL TECHNOLOGY
                    ----------------------
     S,P,L SHELL ROTATED AXIS INTEGRALS, REPROGRAMMED BY
        KAZUYA ISHIMURA (IMS) AND JOSE SIERRA (SYNSTAR).
     S,P,D,L SHELL ROTATED AXIS INTEGRALS PROGRAMMED BY
        KAZUYA ISHIMURA (INSTITUTE FOR MOLECULAR SCIENCE).
     S,P,D,F,G SHELL TO TOTAL QUARTET ANGULAR MOMENTUM SUM 5,
        ERIC PROGRAM BY GRAHAM FLETCHER (ELORET AND NASA ADVANCED
        SUPERCOMPUTING DIVISION, AMES RESEARCH CENTER).
     S,P,D,F,G,L SHELL GENERAL RYS QUADRATURE PROGRAMMED BY
        MICHEL DUPUIS (PACIFIC NORTHWEST NATIONAL LABORATORY).

          --------------------
          2 ELECTRON INTEGRALS
          --------------------

 DIRECT SCF METHOD SKIPS INTEGRAL STORAGE ON DISK.
 DIRECT TRANSFORMATION SKIPS AO INTEGRAL STORAGE ON DISK.
  ...... END OF TWO-ELECTRON INTEGRALS .....
 STEP CPU TIME =     0.02 TOTAL CPU TIME =          0.1 (      0.0 MIN)
 TOTAL WALL CLOCK TIME=          0.1 SECONDS, CPU UTILIZATION IS    87.50%
 DDI: Creating Array [0] - 900 x 36 = 32400 words.
 DDI: Creating Array [1] - 21 x 288 = 6048 words.
 DDI: Creating Array [2] - 36 x 36 = 1296 words.
 DDI: Creating Array [3] - 465 x 36 = 16740 words.

          -----------------
          MCSCF CALCULATION
          -----------------

 ----- NUCLEAR ENERGY ----- =        11.0066425840

     -------------------------------------------------
     GMC-PT/GMC-QDPT or general MCSCF input parameters
     -------------------------------------------------
 # of frozen core orbs. =         0 ->         0
 # of doubly occ. orbs. =         1
 # of active      orbs. =         7
 # of virtual     orbs. =        21
 # of active electrons  =         7
 # of states in CI      =         3
 Highest state in CI    =         3
 kstate =  1 1 1
 avecoe =  0.333 0.333 0.333
 State symmetry           = A           
 Assigned symmetry number = 1

 <<<Act. MO sym.: 1111111

 <<<Division of 1-ext.:  0
 <<<Division of 2-ext.:  0

 *** Reference space

 Reference type: ORMAS (= Occupation restricted multiple active space)
 # of orbitals          =  7
 # of minimum electrons =  7
 # of maximum electrons =  7
 State symmetry    =    1 (input)
 2*Sz              =    1 (input)
 Spin multiplicity =    2 (input)
 Dimension of reference space =      1225  (from      3432 walks)

 Dimension of reference space =      1225  (from      1225 walks)

 <<<Ionized spaces for Ref-CI:
      0:         1225 /   -1-0:         1960 /  0-1-0:         2891

 EVALUATING EXCHANGE INTEGRALS FOR DIRECT INTEGRAL TRANSFORMATION
 SCHWARZ INEQUALITY OVERHEAD:       465 INTEGRALS, T=        0.01

     --------------------------------------------
     PARTIAL TWO ELECTRON INTEGRAL TRANSFORMATION
     --------------------------------------------

 NUMBER OF CORE MOLECULAR ORBITALS     =    1
 NUMBER OF OCCUPIED MOLECULAR ORBITALS =    8
 TOTAL NUMBER OF MOLECULAR ORBITALS    =   29
 TOTAL NUMBER OF ATOMIC ORBITALS       =   30
 THRESHOLD FOR KEEPING TRANSFORMED 2E- INTEGRALS = 1.000E-09

 -------------------------------     ------------------------------
 DISTRIBUTED DATA TRANSFORMATION     PROGRAM WRITTEN BY G. FLETCHER
 -------------------------------     ------------------------------

 THE DISTRIBUTED MEMORY REQUIRED FOR THIS STEP IS MEMDDI=         1 MWORDS
 CREATING DISTRIBUTED STORAGE FOR [VIR OCC|VIR OCC] INTEGRALS
 CREATING DISTRIBUTED STORAGE FOR [VIR OCC|OCC OCC] INTEGRALS
 CREATING DISTRIBUTED STORAGE FOR [OCC OCC|OCC OCC] INTEGRALS
 CREATING DISTRIBUTED STORAGE FOR [VIR VIR|OCC OCC] INTEGRALS
 FOR    1 PROCESSORS, THE REPLICATED MEMORY NEEDED IS       73700 WORDS.
 SCHWARZ INEQUALITY OVERHEAD:       465 INTEGRALS, T=        0.01

      DIRECT 4-INDEX TRANSFORMATION 
      SCHWARZ INEQUALITY TEST SKIPPED          0 INTEGRAL BLOCKS
 ----- FROZEN CORE ENERGY =       -47.5977741226
 ... END OF INTEGRAL TRANSFORMATION ...
 CPU     0: STEP CPU TIME=     0.22 TOTAL CPU TIME=          0.3 (      0.0 MIN)
 TOTAL WALL CLOCK TIME=          0.3 SECONDS, CPU UTILIZATION IS    96.67%

     --------------------------------     -----------------------------
     MCHF NEWTON-RAPHSON OPTIMIZATION     CODE WRITTEN BY MICHEL DUPUIS
     --------------------------------     -----------------------------
     PARALLEL VERSION WRITTEN BY G. FLETCHER (ELORET)
     NASA ADVANCED SUPERCOMPUTING DIVISION, AMES RESEARCH CENTER

 NUMBER OF INDEPENDENT ORBITAL ROTATION PARAMETERS =   175
 ..... DONE SOLVING NEWTON-RAPHSON EQUATIONS .....
 CPU     0: STEP CPU TIME=     0.93 TOTAL CPU TIME=          1.2 (      0.0 MIN)
 TOTAL WALL CLOCK TIME=          1.2 SECONDS, CPU UTILIZATION IS    99.19%
 ..... DONE WITH NTN-RPH ORBITAL ROTATIONS ..... 
 CPU     0: STEP CPU TIME=     0.00 TOTAL CPU TIME=          1.2 (      0.0 MIN)
 TOTAL WALL CLOCK TIME=          1.2 SECONDS, CPU UTILIZATION IS    99.19%
 MAXIMUM MEMORY USED BY NTN-RPH CODE WAS     57645 WORDS.

 ITER     TOTAL ENERGY      DEL(E)  LAGRANGIAN ASYMMETRY   SQCDF  MICIT   DAMP
   1      -55.604985310 -0.604985310  0.108557   12    5 1.023E-01  1   0.0000
   2      -55.663478923 -0.058493613  0.019743   12    5 4.622E-01  1   0.0000
   3      -55.699825428 -0.036346504  0.014044   11    6 2.215E-01  1   0.0187
   4      -55.716154687 -0.016329259  0.004880   11    6 4.087E-02  1   0.0057
   5      -55.718255703 -0.002101016  0.001100   14    5 9.763E-04  1   0.0000
   6      -55.718319629 -0.000063926  0.000447   14    5 7.162E-05  1   0.0000
   7      -55.718326482 -0.000006853  0.000190   14    5 1.391E-05  1   0.0000
   8      -55.718327833 -0.000001351  0.000086   14    5 3.228E-06  1   0.0000
   9      -55.718328137 -0.000000304  0.000040   14    5 8.117E-07  1   0.0000
  10      -55.718328211 -0.000000074  0.000019   14    5 2.161E-07  1   0.0000
  11      -55.718328230 -0.000000019  0.000009   14    5 6.006E-08  1   0.0000
  12      -55.718328235 -0.000000005  0.000004   14    5 1.724E-08  1   0.0000
  13      -55.718328236 -0.000000001  0.000002   14    5 5.094E-09  1   0.0000
  14      -55.718328236 -0.000000000  0.000001   23    5 1.524E-09  1   0.0000
  15      -55.718328237 -0.000000000  0.000001   22    5 4.676E-10  1   0.0000

          --------------------
          LAGRANGIAN CONVERGED
          --------------------

 FINAL MCSCF ENERGY IS      -55.7183282366 AFTER  15 ITERATIONS

 -MCCI- BASED ON OPTIMIZED ORBITALS
 ----------------------------------

 PLEASE NOTE: IF THE ACTIVE ORBITALS ARE CANONICALIZED BELOW,
 THE FOLLOWING CI EXPANSION COEFFICIENTS AND THE DENSITY DO NOT
 CORRESPOND TO THE PRINTED ORBITALS.  THE PRINTED EXPANSIONS MATCH
 THE ORBITALS USED DURING THE LAST ITERATION.  IF YOU WISH TO SEE
 CI EXPANSIONS BASED ON THE CANONICAL (OR NATURAL) ORBITALS, YOU
 MUST RUN A CI CALCULATION WITH THAT ORBITAL CHOICE READ IN $VEC.

 Averaged energy =     -55.718328237

 State #    1  Energy =     -55.857772735  S =  0.500

      Det      Coef    Occupancy (Ignoring core)
      ---      ----    --------- --------- -----
        1    0.877148  11110001110000
        2    0.061026  11101001110000
        5   -0.073206  01111001110000
        8   -0.127295  10110101110000
       17   -0.147021  11010011110000
       36   -0.303402  11110001101000
       51   -0.051428  11100011101000
       71    0.149356  11110001011000
      211    0.052844  11110000110100
      386    0.100441  11110001010010
      393    0.050472  10110101010010
      701    0.095593  11110001100001
      717    0.070125  11010011100001

 State #    2  Energy =     -55.710569179  S =  0.500

      Det      Coef    Occupancy (Ignoring core)
      ---      ----    --------- --------- -----
        1    0.328338  11110001110000
        8   -0.052426  10110101110000
       36    0.820597  11110001101000
       38   -0.065665  11011001101000
       40   -0.063050  01111001101000
       43   -0.091949  10110101101000
       52   -0.099821  11010011101000
       71   -0.335821  11110001011000
      106    0.056359  11110000111000
      281    0.052247  11110000101100
      456    0.077410  11110001001010
      463    0.051533  10110101001010
      701    0.090986  11110001100001

 State #    3  Energy =     -55.586642797  S =  0.500

      Det      Coef    Occupancy (Ignoring core)
      ---      ----    --------- --------- -----
       36    0.370524  11110001101000
       71    0.879411  11110001011000
       78   -0.060104  10110101011000
       87   -0.092330  11010011011000
      246   -0.060885  11110001001100
      316    0.075471  11110000011100
      456    0.052290  11110001001010
      806   -0.118201  11110001001001
      822   -0.071615  11010011001001

 DENSITY MATRIX OVER ACTIVE MO-S

             1           2           3           4           5

    1    1.9727361
    2   -0.0148561   1.6305614
    3   -0.0295565  -0.0068223   1.6181719
    4   -0.0040168  -0.0056970  -0.0121037   1.6468038
    5    0.1127537   0.0381877   0.0758815   0.0480184   0.0383880
    6   -0.0050090  -0.1488189  -0.0190559  -0.0428780  -0.0081367
    7    0.0147119   0.0192985   0.1786974   0.0870129   0.0178480

             6           7

    6    0.0378308
    7   -0.0105902   0.0555079

 FORMING THE "STANDARD FOCK OPERATOR" IN DIRECT AO INTEGRAL MODE...
 ONLY THE    1 CORE AND   21 VIRTUAL ORBITALS WILL BE CANONICALIZED

          ----------------------
          MCSCF NATURAL ORBITALS
          ----------------------

                      1          2          3          4          5
                  -15.9768     1.9815     1.6543     1.6457     1.6403
                     A          A          A          A          A   
    1  N  1  S    1.001062   0.009848  -0.008396   0.000648   0.004060
    2  N  1  S   -0.002039   0.434759  -0.164910   0.023816   0.105609
    3  N  1  S   -0.006403   0.327850  -0.263863   0.033177   0.159586
    4  N  1  X   -0.000038  -0.031506   0.073352   0.435485   0.202012
    5  N  1  Y   -0.000112  -0.052452   0.087315  -0.177201   0.485482
    6  N  1  Z    0.001044   0.087141   0.586755  -0.021865  -0.024275
    7  N  1  X    0.000009  -0.003259   0.061111   0.180124   0.112621
    8  N  1  Y    0.000006  -0.003736   0.085225  -0.069766   0.262826
    9  N  1  Z   -0.000509   0.013435   0.391531  -0.007408   0.028709
   10  N  1 XX    0.000154   0.001475  -0.010896   0.000580   0.009571
   11  N  1 YY   -0.000049  -0.001381  -0.012161   0.000505  -0.007943
   12  N  1 ZZ   -0.000105  -0.000093   0.023057  -0.001085  -0.001629
   13  N  1 XY   -0.000149  -0.002007  -0.001280  -0.003159  -0.017319
   14  N  1 XZ   -0.000095  -0.001937  -0.000950   0.017554   0.009517
   15  N  1 YZ   -0.000165  -0.002495  -0.002998  -0.006272   0.021766
   16  H  2  S   -0.001454   0.157978   0.085870  -0.312149   0.163170
   17  H  2  S    0.000461  -0.000596   0.030561  -0.049231   0.058445
   18  H  2  X   -0.000631   0.023481   0.010267  -0.027656   0.022295
   19  H  2  Y    0.000444  -0.018237  -0.004706   0.026315   0.009891
   20  H  2  Z    0.000297  -0.004365   0.021382   0.008411  -0.005849
   21  H  3  S   -0.001854   0.220435   0.124706  -0.061859  -0.364374
   22  H  3  S    0.000282   0.009435   0.028067  -0.011630  -0.102511
   23  H  3  X   -0.000463   0.017528   0.012131   0.019249  -0.014018
   24  H  3  Y   -0.000732   0.027768   0.019712  -0.016426  -0.015623
   25  H  3  Z    0.000575  -0.019218   0.017629   0.003166   0.024285
   26  H  4  S   -0.001511   0.158788   0.106895   0.340232   0.075618
   27  H  4  S    0.000504  -0.000261   0.033302   0.055589   0.037711
   28  H  4  X    0.000745  -0.028774  -0.011371  -0.036343   0.006593
   29  H  4  Y   -0.000315   0.010313   0.007322   0.015427   0.020768
   30  H  4  Z    0.000288  -0.003830   0.020599  -0.010691  -0.003487

                      6          7          8
                    0.0349     0.0225     0.0208
                     A          A          A   
    1  N  1  S    0.131705  -0.156001   0.033043
    2  N  1  S    0.441446  -0.549563   0.107155
    3  N  1  S   -0.025633  -0.201571   0.017717
    4  N  1  X    0.272451   0.335940   0.780699
    5  N  1  Y    0.546734   0.342915  -0.484013
    6  N  1  Z    0.160887  -0.637394   0.089786
    7  N  1  X   -0.025668   0.060489   0.062371
    8  N  1  Y   -0.052805   0.067448  -0.045193
    9  N  1  Z   -0.072774   0.075349  -0.020848
   10  N  1 XX   -0.039208   0.012845   0.039456
   11  N  1 YY    0.033657  -0.012472  -0.041270
   12  N  1 ZZ    0.005551  -0.000373   0.001815
   13  N  1 XY    0.067285  -0.004208   0.031801
   14  N  1 XZ    0.003649  -0.035282  -0.043281
   15  N  1 YZ    0.001628  -0.042276   0.034059
   16  H  2  S   -0.533640   0.303916   0.496176
   17  H  2  S   -0.131996   0.033719   0.133976
   18  H  2  X   -0.055724   0.024844   0.032912
   19  H  2  Y    0.011724  -0.035464  -0.035978
   20  H  2  Z    0.000140   0.026540   0.018341
   21  H  3  S    0.399844   0.734677  -0.075495
   22  H  3  S    0.152523   0.144141  -0.017945
   23  H  3  X    0.005204   0.024235  -0.049669
   24  H  3  Y    0.002744   0.059123   0.019780
   25  H  3  Z   -0.023531  -0.000495   0.000352
   26  H  4  S   -0.486834   0.180208  -0.608759
   27  H  4  S   -0.111797   0.003566  -0.144894
   28  H  4  X    0.035029  -0.030048   0.061617
   29  H  4  Y   -0.038281   0.003625  -0.014716
   30  H  4  Z    0.001077   0.018348  -0.025775

          ------------------------
          MCSCF OPTIMIZED ORBITALS
          ------------------------

                      1          2          3          4          5
                  -15.9768     0.0000     0.0000     0.0000     0.0000
                     A          A          A          A          A   
    1  N  1  S    1.001062  -0.002210  -0.006428  -0.010763  -0.016904
    2  N  1  S   -0.002039   0.397789   0.006934   0.010950  -0.199334
    3  N  1  S   -0.006403   0.329084   0.058415   0.112140  -0.271155
    4  N  1  X   -0.000038  -0.011593   0.398192   0.045589   0.020805
    5  N  1  Y   -0.000112  -0.021013  -0.003391   0.434636   0.028369
    6  N  1  Z    0.001044   0.050972  -0.006120  -0.013052   0.577872
    7  N  1  X    0.000009   0.010354   0.204230   0.054525   0.047844
    8  N  1  Y    0.000006   0.020072   0.027340   0.275826   0.075441
    9  N  1  Z   -0.000509   0.022921   0.027483   0.049236   0.392807
   10  N  1 XX    0.000154   0.003959   0.001739   0.014169  -0.008960
   11  N  1 YY   -0.000049  -0.003572  -0.001030  -0.013205  -0.013749
   12  N  1 ZZ   -0.000105  -0.000386  -0.000709  -0.000964   0.022708
   13  N  1 XY   -0.000149  -0.006211  -0.014494  -0.021943  -0.004705
   14  N  1 XZ   -0.000095  -0.002541   0.023250   0.001706  -0.002222
   15  N  1 YZ   -0.000165  -0.003187  -0.001307   0.023693  -0.004031
   16  H  2  S   -0.001454   0.196968  -0.258056   0.322973   0.121950
   17  H  2  S    0.000461   0.008901  -0.030187   0.091504   0.037373
   18  H  2  X   -0.000631   0.027758  -0.019229   0.036032   0.013583
   19  H  2  Y    0.000444  -0.019017   0.030981  -0.000484  -0.006898
   20  H  2  Z    0.000297  -0.003515   0.005581  -0.006718   0.021101
   21  H  3  S   -0.001854   0.211756  -0.199744  -0.386538   0.118272
   22  H  3  S    0.000282   0.002883  -0.050839  -0.111450   0.023661
   23  H  3  X   -0.000463   0.017894   0.017056  -0.022539   0.011762
   24  H  3  Y   -0.000732   0.028876  -0.022817  -0.010607   0.020715
   25  H  3  Z    0.000575  -0.016429   0.013514   0.026422   0.017562
   26  H  4  S   -0.001511   0.197830   0.416157  -0.010062   0.121100
   27  H  4  S    0.000504   0.008426   0.083436   0.026870   0.036461
   28  H  4  X    0.000745  -0.031665  -0.038083   0.017574  -0.012554
   29  H  4  Y   -0.000315   0.013654   0.024278   0.018022   0.007994
   30  H  4  Z    0.000288  -0.003163  -0.008193   0.000027   0.021071

                      6          7          8          9         10
                    0.0000     0.0000     0.0000     0.1604     0.2107
                     A          A          A          A          A   
    1  N  1  S    0.203114   0.022896   0.027047  -0.139641   0.003076
    2  N  1  S    0.725862   0.065765   0.083474  -0.214602   0.001491
    3  N  1  S    0.180748  -0.057738  -0.107082   1.347473  -0.051256
    4  N  1  X   -0.043363   0.932856   0.010114   0.029402   0.160697
    5  N  1  Y   -0.058579  -0.123455   0.848179   0.044873  -0.092613
    6  N  1  Z    0.659824  -0.056563  -0.133601  -0.220971   0.005282
    7  N  1  X   -0.047391   0.087039  -0.013430  -0.125417  -0.788260
    8  N  1  Y   -0.072333  -0.028167   0.040683  -0.179271   0.408149
    9  N  1  Z   -0.087543  -0.005249   0.008405   0.470696   0.000348
   10  N  1 XX   -0.025189   0.025745  -0.043300   0.052352  -0.005667
   11  N  1 YY    0.021250  -0.029679   0.038667  -0.010367   0.000308
   12  N  1 ZZ    0.003939   0.003934   0.004632  -0.041985   0.005359
   13  N  1 XY    0.039431   0.048230   0.035195  -0.046960   0.013552
   14  N  1 XZ    0.027272  -0.046434   0.008943  -0.041364  -0.085023
   15  N  1 YZ    0.042201   0.017110  -0.028549  -0.061398   0.041081
   16  H  2  S   -0.443562   0.338697  -0.493643   0.381622   0.399129
   17  H  2  S   -0.073402   0.083630  -0.141921  -0.882617  -1.380844
   18  H  2  X   -0.041971   0.017176  -0.045219  -0.067342  -0.072200
   19  H  2  Y    0.031361  -0.036735   0.011508   0.027792   0.031596
   20  H  2  Z   -0.020244   0.025897   0.002763   0.022025   0.067736
   21  H  3  S   -0.447893   0.289446   0.611178   0.216916   0.054970
   22  H  3  S   -0.055321   0.077866   0.176593  -0.759043  -0.177202
   23  H  3  X   -0.023630  -0.032703   0.034892  -0.058004  -0.012652
   24  H  3  Y   -0.045771   0.036054   0.016639  -0.062443   0.002275
   25  H  3  Z   -0.010158  -0.005945  -0.015374   0.077553   0.008321
   26  H  4  S   -0.449771  -0.606455  -0.031845   0.354511  -0.476321
   27  H  4  S   -0.072175  -0.156693  -0.016761  -0.817294   1.651570
   28  H  4  X    0.048736   0.053186  -0.011170   0.070382  -0.078629
   29  H  4  Y   -0.021645  -0.022308  -0.019841  -0.031615   0.050627
   30  H  4  Z   -0.018163  -0.016730   0.020897   0.009624  -0.068482

                     11         12         13         14         15
                    0.2345     0.5345     0.6372     0.7035     0.7596
                     A          A          A          A          A   
    1  N  1  S    0.033327  -0.083788   0.096498   0.048315  -0.061252
    2  N  1  S    0.075360  -0.134602   0.350897   0.124222  -0.148614
    3  N  1  S   -0.169397   0.355900   0.179570  -0.113944   0.196051
    4  N  1  X    0.016724  -0.327178   0.118525  -0.344904  -0.231433
    5  N  1  Y   -0.004978  -0.580099   0.164955   0.223460   0.137532
    6  N  1  Z    0.046099  -0.403085  -0.590488  -0.079380   0.076325
    7  N  1  X    0.111873   0.599779  -0.577521   1.408834   0.877623
    8  N  1  Y    0.374958   1.014110  -0.736640  -0.900394  -0.439365
    9  N  1  Z   -0.187356   0.394832   1.123094   0.109839  -0.117440
   10  N  1 XX    0.046772  -0.006290  -0.056792   0.033997  -0.146440
   11  N  1 YY   -0.028408  -0.012241   0.014134  -0.045601   0.150238
   12  N  1 ZZ   -0.018364   0.018531   0.042658   0.011604  -0.003798
   13  N  1 XY   -0.082077  -0.012776   0.012723   0.027809  -0.108828
   14  N  1 XZ    0.033998   0.011015   0.034495  -0.097060  -0.036335
   15  N  1 YZ    0.072166   0.018547   0.038043   0.072384   0.002309
   16  H  2  S    0.410253  -0.258337  -0.338153   0.465887   0.512113
   17  H  2  S   -1.292388  -0.399081   0.361321   0.568020   0.176425
   18  H  2  X   -0.020722   0.000930   0.009770   0.144748   0.206874
   19  H  2  Y    0.017553   0.033454   0.074699  -0.252476   0.308085
   20  H  2  Z   -0.000593   0.058914   0.014222   0.215663  -0.008668
   21  H  3  S   -0.641950   0.140413  -0.805318  -0.090769   0.081836
   22  H  3  S    2.211145   0.688552  -0.514024  -0.025775  -0.005726
   23  H  3  X    0.045387   0.056340   0.032098  -0.275111   0.336398
   24  H  3  Y    0.076528   0.067539  -0.104885   0.194214  -0.194023
   25  H  3  Z   -0.066959  -0.049520   0.056722   0.003874   0.024492
   26  H  4  S    0.309735  -0.280945  -0.315964  -0.550053  -0.459900
   27  H  4  S   -0.922779  -0.384801   0.442565  -0.424857  -0.327280
   28  H  4  X    0.003015   0.024879  -0.055377   0.263510  -0.125137
   29  H  4  Y   -0.009727   0.005394  -0.024180   0.007952  -0.336123
   30  H  4  Z   -0.004680   0.054822   0.070245  -0.204511   0.011672

                     16         17         18         19         20
                    0.9998     1.0375     1.1520     1.3494     1.3732
                     A          A          A          A          A   
    1  N  1  S   -0.621993  -0.278693   0.009522   0.153139  -0.350745
    2  N  1  S   -1.321151  -0.588594   0.020715   0.331899  -0.744544
    3  N  1  S    2.559955   1.288377  -0.047262  -0.448702   1.320337
    4  N  1  X    0.059861  -0.024340  -0.291082  -0.050413  -0.030345
    5  N  1  Y    0.074851   0.025195   0.173049  -0.066845  -0.047531
    6  N  1  Z    0.154746   0.051322  -0.007615   0.047480  -0.046541
    7  N  1  X   -0.322463  -0.011033   1.059585  -0.261991  -0.100522
    8  N  1  Y   -0.484699  -0.308775  -0.554238  -0.398592  -0.230977
    9  N  1  Z    0.123277   0.519446  -0.043824  -0.151162   0.700572
   10  N  1 XX   -0.084687   0.048153   0.110965  -0.031212   0.068192
   11  N  1 YY   -0.109263   0.141049  -0.124552  -0.140367   0.000935
   12  N  1 ZZ    0.193950  -0.189202   0.013586   0.171579  -0.069127
   13  N  1 XY    0.008066   0.130965   0.069749  -0.058523  -0.048326
   14  N  1 XZ    0.044872   0.077693   0.092942   0.025205   0.023076
   15  N  1 YZ    0.079123   0.153936  -0.075374   0.054689   0.052856
   16  H  2  S   -0.348120  -0.097733   0.593621   0.056819  -0.369867
   17  H  2  S   -0.283599  -0.120042   0.221278   0.118539   0.031481
   18  H  2  X   -0.046324   0.011202  -0.374076   0.374225  -0.064680
   19  H  2  Y    0.010156   0.264157  -0.193094   0.490361  -0.155247
   20  H  2  Z    0.306825  -0.065368  -0.389152  -0.082916  -0.638553
   21  H  3  S   -0.560179  -0.277781   0.026708   0.096358  -0.399342
   22  H  3  S   -0.406285  -0.218590   0.017978  -0.110898  -0.307994
   23  H  3  X   -0.006506  -0.276359   0.182841   0.032755  -0.051740
   24  H  3  Y    0.078440  -0.453306  -0.050441  -0.033212  -0.048977
   25  H  3  Z    0.274342  -0.466467   0.012202   0.482394   0.311040
   26  H  4  S   -0.306475  -0.229216  -0.566565   0.083392  -0.386300
   27  H  4  S   -0.299095  -0.194012  -0.235216   0.129253  -0.007086
   28  H  4  X    0.070316   0.248858  -0.046085   0.247252  -0.075705
   29  H  4  Y    0.009509   0.213014   0.359534   0.635793  -0.107598
   30  H  4  Z    0.284273  -0.049173   0.416874  -0.106151  -0.618794

                     21         22         23         24         25
                    1.6752     1.7120     1.8868     1.9216     2.1359
                     A          A          A          A          A   
    1  N  1  S   -0.012775   0.052831  -0.184941  -0.147404  -0.061835
    2  N  1  S   -0.111510   0.175411  -0.429112  -0.333650  -0.118010
    3  N  1  S   -0.717111   0.460807   0.037654   0.066581   0.236669
    4  N  1  X    0.067735   0.105513   0.451503  -0.221981   0.035927
    5  N  1  Y   -0.030915  -0.121304   0.114568   0.382294   0.046289
    6  N  1  Z   -0.080209   0.086115  -0.211899  -0.147742  -0.024017
    7  N  1  X    0.513553   0.710891   0.003757  -0.164636   0.034798
    8  N  1  Y   -0.322429  -0.349509  -0.245482  -0.108095   0.101926
    9  N  1  Z   -0.265706   0.151429   0.065256   0.067978   0.381780
   10  N  1 XX    0.050664  -0.119310   0.006774   0.098971  -0.076539
   11  N  1 YY    0.006422   0.041479   0.118321  -0.008383  -0.777546
   12  N  1 ZZ   -0.057086   0.077831  -0.125095  -0.090588   0.854085
   13  N  1 XY   -0.125643   0.040647   0.042845   0.112541  -0.273928
   14  N  1 XZ   -0.082994  -0.060833  -0.233765   0.063658  -0.181484
   15  N  1 YZ   -0.014288   0.123117  -0.119204  -0.225379  -0.256924
   16  H  2  S    0.217205   0.216462  -0.009565  -0.076510  -0.110408
   17  H  2  S    0.542028  -0.014981   0.136026  -0.352539  -0.040642
   18  H  2  X    0.768366  -0.148807   0.428841  -0.208384  -0.024053
   19  H  2  Y   -0.224893   0.369332  -0.131565   0.707834   0.108118
   20  H  2  Z   -0.254168  -0.549519  -0.311045   0.083940  -0.191415
   21  H  3  S    0.182753  -0.054256  -0.153589  -0.097694  -0.082426
   22  H  3  S   -0.218444   0.119097   0.364372   0.276195   0.061573
   23  H  3  X   -0.431197  -0.524759   0.635781  -0.141827  -0.098456
   24  H  3  Y    0.094466   0.323756   0.489178   0.742961  -0.309217
   25  H  3  Z   -0.113747   0.135296  -0.377260  -0.258507  -0.641742
   26  H  4  S   -0.162678  -0.270508  -0.059373   0.004551  -0.094995
   27  H  4  S    0.190028  -0.484320  -0.317883   0.186133  -0.060069
   28  H  4  X   -0.573771   0.474005   0.539441  -0.496984   0.073440
   29  H  4  Y    0.136584  -0.504762   0.161605   0.186799  -0.127305
   30  H  4  Z    0.452776   0.426714   0.091104  -0.285294  -0.202821

                     26         27         28         29
                    2.2090     2.5187     2.6189     3.1159
                     A          A          A          A   
    1  N  1  S    0.030356  -0.008192  -0.201791   0.113023
    2  N  1  S    0.059960  -0.004747  -0.234095   0.136002
    3  N  1  S   -0.099873   0.195289   2.484197  -0.951809
    4  N  1  X    0.045777   0.297483  -0.176417  -0.181473
    5  N  1  Y   -0.051029  -0.188820  -0.259891  -0.245666
    6  N  1  Z    0.013318   0.023956   0.321021   0.007986
    7  N  1  X   -0.027448   1.133712  -0.552306  -0.260411
    8  N  1  Y    0.054273  -0.714574  -0.733125  -0.329466
    9  N  1  Z   -0.104765   0.065807   0.805287  -0.003312
   10  N  1 XX    0.842864   0.038411   0.330388  -0.931825
   11  N  1 YY   -0.687578  -0.014735   0.108001   0.350914
   12  N  1 ZZ   -0.155287  -0.023676  -0.438389   0.580911
   13  N  1 XY    0.623331   0.012962  -0.091887   1.260400
   14  N  1 XZ   -0.023929   1.015414  -0.654234  -0.256135
   15  N  1 YZ    0.145029  -0.679375  -0.908522  -0.409625
   16  H  2  S    0.035900   0.754694  -0.649230   0.789522
   17  H  2  S    0.081449   0.378336  -0.091888   0.228995
   18  H  2  X    0.342730   0.613959  -0.267729   0.658386
   19  H  2  Y    0.207301  -0.290060   0.312115  -0.424312
   20  H  2  Z    0.015218   0.013588   0.186632  -0.373363
   21  H  3  S    0.040295  -0.093146  -1.460109  -0.748118
   22  H  3  S   -0.009796  -0.048047  -0.578418  -0.194025
   23  H  3  X    0.339793  -0.267205  -0.470731  -0.319318
   24  H  3  Y   -0.164459   0.080661  -0.741077  -0.526086
   25  H  3  Z    0.147302   0.034403   0.617439   0.448510
   26  H  4  S    0.029662  -0.863850  -0.548719   0.863075
   27  H  4  S   -0.051646  -0.395200  -0.056410   0.252321
   28  H  4  X   -0.084033   0.648460   0.357413  -0.726635
   29  H  4  Y   -0.466446  -0.352027  -0.012671   0.354687
   30  H  4  Z    0.085980  -0.035116   0.179296  -0.380974
 .....DONE WITH MCSCF ITERATIONS.....
 CPU     0: STEP CPU TIME=    10.44 TOTAL CPU TIME=         11.7 (      0.2 MIN)
 TOTAL WALL CLOCK TIME=         11.7 SECONDS, CPU UTILIZATION IS    99.91%

     ----------------------------------------------------------------
     PROPERTY VALUES FOR THE MCSCF SELF-CONSISTENT FIELD WAVEFUNCTION
     ----------------------------------------------------------------

          -----------------
          ENERGY COMPONENTS
          -----------------

         WAVEFUNCTION NORMALIZATION =       1.0000000000

                ONE ELECTRON ENERGY =     -93.6455290172
                TWO ELECTRON ENERGY =      26.9205581966
           NUCLEAR REPULSION ENERGY =      11.0066425840
                                      ------------------
                       TOTAL ENERGY =     -55.7183282366

 ELECTRON-ELECTRON POTENTIAL ENERGY =      26.9205581966
  NUCLEUS-ELECTRON POTENTIAL ENERGY =    -149.3029311205
   NUCLEUS-NUCLEUS POTENTIAL ENERGY =      11.0066425840
                                      ------------------
             TOTAL POTENTIAL ENERGY =    -111.3757303399
               TOTAL KINETIC ENERGY =      55.6574021033
                 VIRIAL RATIO (V/T) =       2.0010946636

          ---------------------------------------
          MULLIKEN AND LOWDIN POPULATION ANALYSES
          ---------------------------------------

     ATOMIC MULLIKEN POPULATION IN EACH MOLECULAR ORBITAL

                      1          2          3          4          5

                  2.000000   1.981469   1.654257   1.645691   1.640326

    1             2.000598   1.363301   1.536304   0.899217   1.147895
    2            -0.000140   0.159390   0.025222   0.330716   0.096187
    3            -0.000302   0.298401   0.056433   0.023374   0.368435
    4            -0.000156   0.160378   0.036297   0.392385   0.027809

                      6          7          8

                  0.034940   0.022545   0.020771

    1             0.014479   0.012134   0.011544
    2             0.009088   0.001656   0.003571
    3             0.003858   0.008227   0.000190
    4             0.007514   0.000529   0.005467
 WARNING! MCSCF POPULATIONS SHOWN ABOVE ARE FOR THE NATURAL ORBITALS.
 IGNORE THE ABOVE DATA FOR MCSCF FUNCTIONS WHICH ARE NOT OF -FORS- TYPE.
 THE FOLLOWING POPULATIONS ARE CORRECT FOR ANY MCSCF WAVEFUNCTION.

               ----- POPULATIONS IN EACH AO -----
                             MULLIKEN      LOWDIN
              1  N  1  S      2.00224     1.90461
              2  N  1  S      0.81984     0.57881
              3  N  1  S      0.70928     0.41978
              4  N  1  X      0.65002     0.57445
              5  N  1  Y      0.71707     0.65651
              6  N  1  Z      0.86303     0.81221
              7  N  1  X      0.30242     0.41088
              8  N  1  Y      0.37496     0.45383
              9  N  1  Z      0.52913     0.56951
             10  N  1 XX      0.00072     0.18049
             11  N  1 YY      0.00165     0.15783
             12  N  1 ZZ      0.00492     0.14528
             13  N  1 XY      0.00479     0.01150
             14  N  1 XZ      0.00540     0.00932
             15  N  1 YZ      0.00000     0.01071
             16  H  2  S      0.52544     0.41150
             17  H  2  S      0.04761     0.15307
             18  H  2  X      0.02546     0.04349
             19  H  2  Y      0.01656     0.03086
             20  H  2  Z      0.01063     0.02586
             21  H  3  S      0.63962     0.49505
             22  H  3  S      0.05742     0.14972
             23  H  3  X      0.01675     0.03136
             24  H  3  Y      0.02396     0.04556
             25  H  3  Z      0.02086     0.04526
             26  H  4  S      0.53263     0.41803
             27  H  4  S      0.04415     0.15252
             28  H  4  X      0.02999     0.04873
             29  H  4  Y      0.01292     0.02706
             30  H  4  Z      0.01054     0.02620

          ----- MULLIKEN ATOMIC OVERLAP POPULATIONS -----
          (OFF-DIAGONAL ELEMENTS NEED TO BE MULTIPLIED BY 2)

             1           2           3           4

    1    6.1594173
    2    0.2705592   0.3688363
    3    0.2771030  -0.0082011   0.4967464
    4    0.2783928  -0.0055054  -0.0070332   0.3643692

          TOTAL MULLIKEN AND LOWDIN ATOMIC POPULATIONS
       ATOM         MULL.POP.    CHARGE          LOW.POP.     CHARGE
    1 N             6.985472    0.014528         6.895732    0.104268
    2 H             0.625689    0.374311         0.664787    0.335213
    3 H             0.758615    0.241385         0.766940    0.233060
    4 H             0.630224    0.369776         0.672542    0.327458

          MULLIKEN SPHERICAL HARMONIC POPULATIONS
       ATOM           S       P       D      F      G      H      I    TOTAL
    1 N             3.53    3.44    0.02   0.00   0.00   0.00   0.00    6.99
    2 H             0.57    0.05    0.00   0.00   0.00   0.00   0.00    0.63
    3 H             0.70    0.06    0.00   0.00   0.00   0.00   0.00    0.76
    4 H             0.58    0.05    0.00   0.00   0.00   0.00   0.00    0.63

          ---------------------
          ELECTROSTATIC MOMENTS
          ---------------------

 POINT   1           X           Y           Z (BOHR)    CHARGE
                -0.000003   -0.000004   -0.177185        1.00 (A.U.)
         DX          DY          DZ         /D/  (DEBYE)
    -0.496485   -0.738319    2.110324    2.290214
 ...... END OF PROPERTY EVALUATION ......
 CPU     0: STEP CPU TIME=     0.00 TOTAL CPU TIME=         11.7 (      0.2 MIN)
 TOTAL WALL CLOCK TIME=         11.7 SECONDS, CPU UTILIZATION IS    99.91%

     -------------------------------------------------
     GMC-PT/GMC-QDPT or general MCSCF input parameters
     -------------------------------------------------
 # of frozen core orbs. =         0 ->         0
 # of doubly occ. orbs. =         1
 # of active      orbs. =         7
 # of virtual     orbs. =        21
 # of active electrons  =         7
 # of states in CI      =         3
 Highest state in CI    =         3
 kstate =  1 1 1
 avecoe =  0.333 0.333 0.333
 State symmetry           = A           
 Assigned symmetry number = 1

 <<<Act. MO sym.: 1111111

 <<<Division of 1-ext.:  0
 <<<Division of 2-ext.:  0

     ------------------------
     Orbital canonicalization
     ------------------------

 MOs are canonicalized for core, virtual, and invariant-active orbital spaces.
 This is a part of the GMC-QDPT calculation.
 SCHWARZ INEQUALITY OVERHEAD:       465 INTEGRALS, T=        0.00
 DIRECT TRANSFORMATION SKIPS AO INTEGRAL STORAGE ON DISK.

 Averaged energy =     -55.718328237

 State #    1  Energy =     -55.857772735  S =  0.500
 State #    2  Energy =     -55.710569179  S =  0.500
 State #    3  Energy =     -55.586642797  S =  0.500

 Orbital energies for filled orbital space
  -15.976803
 Orbital energies for active orbital space
   -1.490523  -0.949110  -0.834080  -0.716626   0.339517
    0.361690   0.121970
 Orbital energies for external orbital space
    0.160396   0.210673   0.234506   0.534513   0.637178
    0.703540   0.759629   0.999821   1.037477   1.152027
    1.349429   1.373227   1.675172   1.711973   1.886828
    1.921551   2.135944   2.208962   2.518701   2.618946
    3.115925

 Zero values mean non-canonical orbitals.
 ... done with orbital canonicalization ...
 CPU     0: STEP CPU TIME=     0.64 TOTAL CPU TIME=         12.3 (      0.2 MIN)
 TOTAL WALL CLOCK TIME=         12.3 SECONDS, CPU UTILIZATION IS    99.84%

     --------------------------------------------
     PARTIAL TWO ELECTRON INTEGRAL TRANSFORMATION
     --------------------------------------------

 NUMBER OF CORE MOLECULAR ORBITALS     =    0
 NUMBER OF OCCUPIED MOLECULAR ORBITALS =    8
 TOTAL NUMBER OF MOLECULAR ORBITALS    =   29
 TOTAL NUMBER OF ATOMIC ORBITALS       =   30
 THRESHOLD FOR KEEPING TRANSFORMED 2E- INTEGRALS = 1.000E-09
 AO INTEGRALS WILL BE CALCULATED IN DIRECT MODE...
 DIRECT TRANSFORMATION SKIPS AO INTEGRAL STORAGE ON DISK.
 SCHWARZ INEQUALITY OVERHEAD:       465 INTEGRALS, T=        0.00

 PLAN A: REQUIREMENTS FOR FULLY IN-MEMORY TRANSFORMATION:
 # OF WORDS AVAILABLE =            100000000
 # OF WORDS NEEDED    =               221798

 PARALLEL ONLY WORKS WITH THE SEGMENTED ALGORITHM.
 ADJUSTING MEMORY TO USE SEGMENTED ALGORITHM.


 PLAN B: REQUIREMENTS FOR THE SEGMENTED TRANSFORMATION:
       MINIMUM=         124148 WORDS FOR 1 MOLECULAR ORBITAL PER PASS
       MAXIMUM=         221798 WORDS FOR ALL MOLECULAR ORBITALS IN 1 PASS
              (          13950 EXTRA WORDS INCLUDES 1 EXTRA ORBITAL/PASS)
 THIS RUN USES=         221798 WORDS,
 DISTRIBUTING   1 PASSES EACH CONTAINING     8 ORBITALS OVER   1 PROCESSORS.

 CHOOSING SEGMENTED PARTIAL TRANSFORMATION...
 DIRECT TRANSFORMATION SKIPS AO INTEGRAL STORAGE ON DISK.
 PASS #   1 TOOK        0.05 SECONDS.
 TOTAL NUMBER OF TRANSFORMED 2E- INTEGRALS KEPT =        29226
 ... END OF INTEGRAL TRANSFORMATION ...
 CPU     0: STEP CPU TIME=     0.05 TOTAL CPU TIME=         12.4 (      0.2 MIN)
 TOTAL WALL CLOCK TIME=         12.4 SECONDS, CPU UTILIZATION IS    99.92%

     --------     ------------------------------------------
     GMC-QDPT     Program written by H.Nakano (Kyushu Univ.)
     --------     ------------------------------------------

 *** Reference space

 Reference type: ORMAS (= Occupation restricted multiple active space)
 # of orbitals          =  7
 # of minimum electrons =  7
 # of maximum electrons =  7
 State symmetry    =    1 (input)
 2*Sz              =    1 (input)
 Spin multiplicity =    2 (input)
 Dimension of reference space =      1225  (from      3432 walks)

 Dimension of reference space =      1225  (from      1225 walks)

 <<<Ionized spaces for Ref-CI:
      0:         1225 /   -1-0:         1960 /  0-1-0:         2891

 ***                    ***
 *** Reference space CI ***
 ***                    ***

 Converged after   32 iterations

 Reference wavefunctions:

 State #    1  Energy =     -55.857772735  S =  0.500

      Det      Coef    Occupancy (Ignoring core)
      ---      ----    --------- --------- -----
        1   -0.972525  11110001110000
       36   -0.078293  11110001101000
      143   -0.056282  11011001100100
      393   -0.059261  10110101010010
      717   -0.054197  11010011100001
      753   -0.050838  10110011010001

 State #    2  Energy =     -55.710569179  S =  0.500

      Det      Coef    Occupancy (Ignoring core)
      ---      ----    --------- --------- -----
        1    0.082725  11110001110000
       36   -0.975711  11110001101000
      122    0.052119  11010010111000
      463   -0.061435  10110101001010
      823   -0.054381  10110011001001

 State #    3  Energy =     -55.586642797  S =  0.500

      Det      Coef    Occupancy (Ignoring core)
      ---      ----    --------- --------- -----
       71    0.976642  11110001011000
      123    0.050568  10110010111000
      248   -0.057944  11011001001100
      822   -0.056320  11010011001001

 Davidson method: CPU/Wall time =           0.44 /           0.44 sec.

 Oscillator strength (invalid if E(1)/=E(GS)):
 -----------------------------------------
   State                        f
 -----------------------------------------
     2     F(REF-CI)=        0.0035625882
     3     F(REF-CI)=        0.0036891328
 -----------------------------------------

 Dipole moment matrix elements, x, y, z, in A.U.

 Dimension of ionized spaces for PT:
 (N-2) space:         1715 /  (N-1) space:         2842 /  N space:         2891
 (N+1) space:         2842 /  (N+2) space:         1715

 <<<Ionized spaces for internal:
         0:         1225 /      -1-0:         1960 /     0-1-0:         2891
  -1-0-1-0:         2842 / 0-1-0-1-0:         3381

 Diagonal elements of averaged one-particle density matrix:
       2       3       4       5       6       7       8
  0.9931  0.9857  0.9848  0.9908  0.0127  0.0123  0.0205
  0.9882  0.6598  0.6575  0.6615  0.0101  0.0087  0.0143

 Orbital energies:
 -------- Doubly-occupied orbitals (highest several orbs.) -------
             1
 -1.597680D+01
 -------- Active orbitals ----------------------------------------
             2            3            4            5            6
 -1.490523D+00-9.491099D-01-8.340796D-01-7.166256D-01 3.395171D-01
             7            8
  3.616898D-01 1.219705D-01
 -------- External orbitals (lowest several orbs.) ---------------
             9           10           11           12           13
  1.603962D-01 2.106730D-01 2.345059D-01 5.345135D-01 6.371782D-01
            14           15           16           17           18
  7.035401D-01 7.596286D-01 9.998208D-01 1.037477D+00 1.152027D+00

 *** Quasi-degeneracy checking

 === Det (|Ci| > 1.0D-01 and dE < 5.0D-03)

 # of small denominators (single excitations)
 State       dEmin  dE < 5.0D-03  dE < 5.0D-04  dE < 5.0D-05  dE < 5.0D-06
 ----- ----------- ------------- ------------- ------------- -------------
     1    5.00D-03             0             0             0             0
     2    5.00D-03             0             0             0             0
     3    5.00D-03             0             0             0             0

 # of small denominators (double excitations)
 State       dEmin  dE < 5.0D-03  dE < 5.0D-04  dE < 5.0D-05  dE < 5.0D-06
 ----- ----------- ------------- ------------- ------------- -------------
     1    5.00D-03             0             0             0             0
     2    5.00D-03             0             0             0             0
     3    5.00D-03             0             0             0             0

 *** Zeroth-Order Setup (Granovsky's zeroth-order vectors)
 Zeroth-order effective Hamiltonian
  (= Sum_i e(i)*<I|a+(i)a(i)|J> ):
                   1            2            3
     1 -7.155466D+00
     2  1.698536D-02-7.055581D+00
     3  3.358818D-04 1.758092D-03-6.936445D+00

 Zeroth-order vectors:
 State #    1
       MC st            1           2           3
       Coeff    9.866D-01  -1.632D-01  -2.006D-04
 State #    2
       MC st            2           1           3
       Coeff   -9.865D-01  -1.632D-01   1.538D-02
 State #    3
       MC st            3           2           1
       Coeff    9.999D-01   1.514D-02   2.707D-03

 *** GMC-QDPT computation

 (Integral reading:  CPU/Wall time =           0.00 /           0.00 sec.)

 One-external:
   0 -ionized terms: CPU/Wall time =           0.03 /           0.03 sec.
 (-1)-ionized terms: CPU/Wall time =           0.09 /           0.09 sec.
 (+1)-ionized terms: CPU/Wall time =           0.02 /           0.02 sec.
 (+1)-ionized terms: CPU/Wall time =           0.01 /           0.00 sec.
 (+2)-ionized terms: CPU/Wall time =           0.00 /           0.01 sec.

 Internal:
 # of macro loops for internal contribution =         1 (input)
 Loop:    1
 Dimension of internal CISD space     =         0  (after screening)
 Space construction: CPU/Wall time =           0.02 /           0.01 sec.
 Internal terms:     CPU/Wall time =           0.00 /           0.00 sec.

 Two-external:
   0 -ionized terms: CPU/Wall time =           0.06 /           0.06 sec.
 (-1)-ionized terms: CPU/Wall time =           0.99 /           1.00 sec.
 (-2)-ionized terms: CPU/Wall time =           0.17 /           0.17 sec.

 Total time:         CPU/Wall time =           1.39 /           1.39 sec.

 ***                  ***
 *** GMC-QDPT Results ***
 ***                  ***

 Diagonal elements of effective Hamiltonian:
 Heff(  1) =   -55.95311407
 Heff(  2) =   -55.82191905
 Heff(  3) =   -55.69744277

 Off-diagonal elements of effective Hamiltonian:
                   1            2
     2  2.101950D-02
     3 -2.631919D-04 1.868985D-03

 ******** GMC-QDPT energies ********
 ----------------------------------------------------------------------------
   State                        1st order                           2nd order
 ----------------------------------------------------------------------------
     1     E(REF-CI)=      -55.8577727346   E(GMC-QDPT2)=      -55.9564006169
     2     E(REF-CI)=      -55.7105691786   E(GMC-QDPT2)=      -55.8186605775
     3     E(REF-CI)=      -55.5866427966   E(GMC-QDPT2)=      -55.6974147012
 ----------------------------------------------------------------------------

 Excitation energies (invalid if E(1)/=E(GS)):
 ----------------------------------------------------------------------------
   State                        1st order                           2nd order
 ----------------------------------------------------------------------------

     TZ Sorted GMC-PT ENERGIES:
         1      -55.9564006169
         2      -55.8186605775
         3      -55.6974147012
     2     E(REF-CI)=        4.0056148 eV   E(GMC-QDPT2)=        3.7480993 eV
     3     E(REF-CI)=        7.3778252 eV   E(GMC-QDPT2)=        7.0473693 eV
 ----------------------------------------------------------------------------

 Main characters of perturbed GMC-QDPT states:

 State #    1  Energy =     -55.956400617  S =  0.500

      Det      Coef    Occupancy (Ignoring core)
      ---      ----    --------- --------- -----
        1   -0.973216  11110001110000
       36   -0.069688  11110001101000
      143   -0.056397  11011001100100
      393   -0.059280  10110101010010
      717   -0.054006  11010011100001
      753   -0.050897  10110011010001

 State #    2  Energy =     -55.818660577  S =  0.500

      Det      Coef    Occupancy (Ignoring core)
      ---      ----    --------- --------- -----
        1    0.074144  11110001110000
       36   -0.976366  11110001101000
      122    0.052136  11010010111000
      463   -0.061475  10110101001010
      823   -0.054403  10110011001001

 State #    3  Energy =     -55.697414701  S =  0.500

      Det      Coef    Occupancy (Ignoring core)
      ---      ----    --------- --------- -----
       71    0.976645  11110001011000
      123    0.050567  10110010111000
      248   -0.057941  11011001001100
      822   -0.056321  11010011001001

 <<<Max |V/de| = 2.361D-02  Thresh = 1.000D+00

 Oscillator strength (invalid if E(1)/=E(GS)):
 ----------------------------------------------------------------------------
   State                        1st order                           2nd order
 ----------------------------------------------------------------------------
     2     F(REF-CI)=        0.0035625882     F(GMC-PT2)=        0.0034329229
     3     F(REF-CI)=        0.0036891328     F(GMC-PT2)=        0.0036375048
 ----------------------------------------------------------------------------

 Dipole moment matrix elements, x, y, z, in A.U.
States    1    1       -0.1879278649       -0.2774185767        0.6627611074
States    1    2        0.0010727030        0.0173642320        0.1925672260
States    1    3        0.1283110009       -0.0662285757        0.0147593516
States    2    1        0.0010727030        0.0173642320        0.1925672260
States    2    2       -0.1592674520       -0.3201053548        0.3481474578
States    2    3       -0.2143512770        0.1394693283       -0.0007990410
States    3    1        0.1283110009       -0.0662285757        0.0147593516
States    3    2       -0.2143512770        0.1394693283       -0.0007990410
States    3    3       -0.3232811292       -0.4157407940        0.3104944434

 Oscillator strength (valid only when positive): 
 ----------------------------------------------------------------------------
  States                        1st order                           2nd order
 ----------------------------------------------------------------------------
  1  1     F(REF-CI)=        0.0000000000     F(GMC-PT2)=        0.0000000000
  1  2     F(REF-CI)=       -0.0035625882     F(GMC-PT2)=       -0.0034329229
  1  3     F(REF-CI)=       -0.0036891328     F(GMC-PT2)=       -0.0036375048
  2  1     F(REF-CI)=        0.0035625882     F(GMC-PT2)=        0.0034329229
  2  2     F(REF-CI)=        0.0000000000     F(GMC-PT2)=        0.0000000000
  2  3     F(REF-CI)=       -0.0054571735     F(GMC-PT2)=       -0.0052862234
  3  1     F(REF-CI)=        0.0036891328     F(GMC-PT2)=        0.0036375048
  3  2     F(REF-CI)=        0.0054571735     F(GMC-PT2)=        0.0052862234
  3  3     F(REF-CI)=        0.0000000000     F(GMC-PT2)=        0.0000000000
 CPU     0: STEP CPU TIME=     1.89 TOTAL CPU TIME=         14.2 (      0.2 MIN)
 TOTAL WALL CLOCK TIME=         14.3 SECONDS, CPU UTILIZATION IS    99.86%

     !!! DIABATIZATION FOR REF CI STATES !!!

 *******************************************************
          $DMO GROUP FOUND IN THE INPUT.
        DIABATIZATION OF ADIABATIC STATES BEGINS.
     PROGRAMMED BY TAO ZENG (CARLETON UNIVERSITY).
               Email: toby.zeng@carleton.ca
     See T. Zeng, J. Chem. Phys. 2017, 146, 144103
 *******************************************************

 *************************************************************************
     STEP 1: TRANSFORMATION OF ADIABATIC STATES TO THE DMO REPRESENTATION
         See Atchity and Ruedenberg, J. Chem. Phys. 1999, 111, 2910
 *************************************************************************

Read in Diabatic Molecualr Orbitals:

                      1          2          3          4          5

    1  N  1  S    0.008609   0.000000   0.000000  -0.013219   0.279491
    2  N  1  S    0.442914  -0.000000   0.000000  -0.184329   0.867803
    3  N  1  S    0.276913   0.000000  -0.000000  -0.288315   0.144236
    4  N  1  X   -0.000000   0.493155  -0.024636  -0.000000  -0.000000
    5  N  1  Y    0.000000   0.024636   0.493155  -0.000000   0.000000
    6  N  1  Z    0.090197   0.000000   0.000000   0.593421   0.705309
    7  N  1  X   -0.000000   0.210628  -0.010522   0.000000   0.000000
    8  N  1  Y    0.000000   0.010522   0.210628  -0.000000  -0.000000
    9  N  1  Z   -0.004381   0.000000   0.000000   0.381592  -0.106092
   10  N  1 XX   -0.000457   0.010719  -0.000535  -0.012387   0.006153
   11  N  1 YY   -0.000457  -0.010719   0.000535  -0.012387   0.006153
   12  N  1 ZZ    0.000914  -0.000000   0.000000   0.024773  -0.012306
   13  N  1 XY    0.000000  -0.000618  -0.012377  -0.000000   0.000000
   14  N  1 XZ   -0.000000   0.026529  -0.001325  -0.000000   0.000000
   15  N  1 YZ    0.000000   0.001325   0.026529  -0.000000   0.000000
   16  H  2  S    0.194462  -0.176074   0.343485   0.112865  -0.523343
   17  H  2  S    0.003574  -0.023812   0.046452   0.024014  -0.054445
   18  H  2  X    0.018760   0.009101   0.022834   0.009336  -0.039151
   19  H  2  Y   -0.032493   0.022287  -0.020044  -0.016171   0.067811
   20  H  2  Z   -0.009251   0.008464  -0.016511   0.018769  -0.010566
   21  H  3  S    0.194462  -0.209430  -0.324227   0.112865  -0.523343
   22  H  3  S    0.003574  -0.028322  -0.043847   0.024014  -0.054445
   23  H  3  X    0.018760   0.006781  -0.023627   0.009336  -0.039151
   24  H  3  Y    0.032493  -0.024174  -0.017723   0.016171  -0.067811
   25  H  3  Z   -0.009251   0.010067   0.015585   0.018769  -0.010566
   26  H  4  S    0.194462   0.385503  -0.019258   0.112865  -0.523343
   27  H  4  S    0.003574   0.052134  -0.002604   0.024014  -0.054445
   28  H  4  X   -0.037519  -0.032295   0.001613  -0.018672   0.078302
   29  H  4  Y    0.000000   0.001067   0.021353  -0.000000   0.000000
   30  H  4  Z   -0.009251  -0.018530   0.000926   0.018769  -0.010566

                      6          7

    1  N  1  S    0.000000  -0.000000
    2  N  1  S    0.000000  -0.000000
    3  N  1  S   -0.000000   0.000000
    4  N  1  X   -0.930415  -0.002083
    5  N  1  Y   -0.002083   0.930415
    6  N  1  Z   -0.000000   0.000000
    7  N  1  X   -0.046866  -0.000105
    8  N  1  Y   -0.000105   0.046866
    9  N  1  Z   -0.000000   0.000000
   10  N  1 XX    0.001538   0.000003
   11  N  1 YY   -0.001538  -0.000003
   12  N  1 ZZ   -0.000000   0.000000
   13  N  1 XY   -0.000004   0.001776
   14  N  1 XZ    0.039985   0.000090
   15  N  1 YZ    0.000090  -0.039985
   16  H  2  S   -0.362630  -0.631354
   17  H  2  S   -0.065964  -0.114846
   18  H  2  X    0.002763  -0.037520
   19  H  2  Y    0.037435   0.040736
   20  H  2  Z    0.001882   0.003276
   21  H  3  S   -0.365454   0.629724
   22  H  3  S   -0.066477   0.114549
   23  H  3  X    0.002595   0.037532
   24  H  3  Y   -0.037617   0.040567
   25  H  3  Z    0.001896  -0.003268
   26  H  4  S    0.728084   0.001630
   27  H  4  S    0.132441   0.000297
   28  H  4  X   -0.062317  -0.000140
   29  H  4  Y    0.000055  -0.024345
   30  H  4  Z   -0.003778  -0.000008

NUMBER OF SUB ACTIVE SPACES:   1
ROTATE ACTIVE MOS TO DMOS IN EACH SUB-SPACE

SPACE  1:

OVERLAP BETWEEN ORTHONORMAL AND PRE-ORTHONORMAL REF. DMOS

             1           2           3           4           5

    1    0.9726404  -0.0233888  -0.0354263  -0.0088026   0.0089041
    2   -0.0233888   0.9951402  -0.0545303  -0.0280989   0.0411687
    3   -0.0354263  -0.0545303   0.9309896  -0.0395232   0.0522942
    4   -0.0088026  -0.0280989  -0.0395232   0.9950050  -0.0127493
    5    0.0089041   0.0411687   0.0522942  -0.0127493   1.1255628
    6   -0.0003171   0.0200324  -0.0437199  -0.0267388  -0.0189575
    7    0.0013240   0.0404948   0.0366861   0.0375981   0.0499635

             6           7

    1   -0.0003171   0.0013240
    2    0.0200324   0.0404948
    3   -0.0437199   0.0366861
    4   -0.0267388   0.0375981
    5   -0.0189575   0.0499635
    6    1.0558126  -0.0187429
    7   -0.0187429   1.0774812
REFERENCE DMOS AFTER ORTHONORMALIZATION:

                      1          2          3          4          5

    1  N  1  S    0.005701  -0.010932  -0.014318  -0.010426   0.249732
    2  N  1  S    0.444930  -0.027117  -0.033708  -0.172289   0.769459
    3  N  1  S    0.280465  -0.007176  -0.009244  -0.286580   0.123089
    4  N  1  X    0.011031   0.514261  -0.035247  -0.009918  -0.030924
    5  N  1  Y    0.018094   0.019731   0.502565  -0.011342  -0.061508
    6  N  1  Z    0.092224  -0.005659  -0.003552   0.607648   0.635809
    7  N  1  X    0.005259   0.213605   0.000147   0.005004  -0.008234
    8  N  1  Y    0.008994   0.022420   0.228032   0.008527  -0.012797
    9  N  1  Z    0.001059   0.016166   0.023228   0.384356  -0.090974
   10  N  1 XX   -0.000407   0.010158  -0.000738  -0.012098   0.005019
   11  N  1 YY   -0.000955  -0.011448  -0.001093  -0.012814   0.005746
   12  N  1 ZZ    0.001362   0.001291   0.001831   0.024912  -0.010765
   13  N  1 XY   -0.000545  -0.001498  -0.013573  -0.000674   0.000578
   14  N  1 XZ    0.000734   0.026114   0.002009   0.001840  -0.000386
   15  N  1 YZ    0.001299   0.004656   0.030474   0.002825   0.000152
   16  H  2  S    0.218712  -0.095730   0.410431   0.136075  -0.460432
   17  H  2  S    0.006165  -0.012450   0.054528   0.027818  -0.046439
   18  H  2  X    0.021215   0.014472   0.030180   0.012128  -0.035140
   19  H  2  Y   -0.034726   0.015008  -0.025833  -0.016825   0.059954
   20  H  2  Z   -0.009674   0.008100  -0.016427   0.018160  -0.008754
   21  H  3  S    0.185109  -0.223080  -0.366284   0.055267  -0.474046
   22  H  3  S    0.001408  -0.032022  -0.052759   0.014645  -0.050542
   23  H  3  X    0.018922   0.006118  -0.023381   0.006990  -0.035599
   24  H  3  Y    0.032789  -0.022609  -0.018479   0.011873  -0.061108
   25  H  3  Z   -0.008254   0.012063   0.018844   0.019981  -0.010178
   26  H  4  S    0.218255   0.406001   0.075423   0.141592  -0.472521
   27  H  4  S    0.006076   0.053350   0.010309   0.028785  -0.048481
   28  H  4  X   -0.040642  -0.036191  -0.009440  -0.021105   0.070520
   29  H  4  Y    0.001017   0.003434   0.024229   0.001974  -0.000179
   30  H  4  Z   -0.009677  -0.017903   0.000675   0.018098  -0.008548

                      6          7

    1  N  1  S    0.003654  -0.010261
    2  N  1  S    0.008210  -0.027906
    3  N  1  S   -0.005131   0.004443
    4  N  1  X   -0.893852  -0.033843
    5  N  1  Y    0.032156   0.849442
    6  N  1  Z    0.025905  -0.050016
    7  N  1  X   -0.048610  -0.008775
    8  N  1  Y    0.009534   0.035340
    9  N  1  Z    0.008570  -0.010444
   10  N  1 XX    0.001014  -0.000146
   11  N  1 YY   -0.001495   0.000620
   12  N  1 ZZ    0.000481  -0.000474
   13  N  1 XY   -0.000506   0.002155
   14  N  1 XZ    0.037493  -0.000362
   15  N  1 YZ    0.000651  -0.038419
   16  H  2  S   -0.339805  -0.585908
   17  H  2  S   -0.062025  -0.107880
   18  H  2  X    0.002651  -0.035167
   19  H  2  Y    0.035391   0.036587
   20  H  2  Z    0.001303   0.003102
   21  H  3  S   -0.353138   0.618979
   22  H  3  S   -0.063123   0.110045
   23  H  3  X    0.001571   0.036810
   24  H  3  Y   -0.036025   0.040881
   25  H  3  Z    0.002592  -0.004298
   26  H  4  S    0.680400   0.012224
   27  H  4  S    0.124739   0.001325
   28  H  4  X   -0.058042  -0.001941
   29  H  4  Y    0.000618  -0.023599
   30  H  4  Z   -0.002902   0.000368

 -------------------------------------------
       MAXIMIZING MORMO OVERLAP TERM        
 -------------------------------------------
   SWEEP    VALUE       PROGRESS
     0     4.71828
     1     6.89264     2.17435374
     2     6.95043     0.05779448
     3     6.95044     0.00000687
     4     6.95044     0.00000000
     5     6.95044     0.00000000
 THE ROTATION IS DONE
ACTIVE ORBITALS AFTER MORMO:

                      1          2          3          4          5

    1  N  1  S    0.003888  -0.017877  -0.025557  -0.012611   0.201720
    2  N  1  S    0.419202  -0.044050  -0.065212  -0.190769   0.714327
    3  N  1  S    0.335263   0.042318   0.070618  -0.268210   0.185017
    4  N  1  X   -0.000025   0.492737  -0.052771  -0.025427  -0.012017
    5  N  1  Y   -0.002800  -0.002688   0.455635  -0.039491  -0.029862
    6  N  1  Z    0.080185  -0.024094  -0.030066   0.604021   0.639467
    7  N  1  X    0.015906   0.220357   0.031498   0.035796  -0.034504
    8  N  1  Y    0.030033   0.057826   0.279776   0.056914  -0.053337
    9  N  1  Z    0.028446   0.048936   0.069682   0.384793  -0.092597
   10  N  1 XX    0.003468   0.008691   0.012714  -0.008818  -0.023482
   11  N  1 YY   -0.003539  -0.008635  -0.012454  -0.013576   0.020167
   12  N  1 ZZ    0.000071  -0.000056  -0.000260   0.022394   0.003316
   13  N  1 XY   -0.005812  -0.015583  -0.025438  -0.005656   0.037728
   14  N  1 XZ   -0.001246   0.016621   0.000457  -0.001049   0.027941
   15  N  1 YZ   -0.001025   0.001895   0.019107  -0.002837   0.044163
   16  H  2  S    0.190159  -0.140620   0.346962   0.113946  -0.434370
   17  H  2  S    0.009632  -0.000291   0.092693   0.036605  -0.067603
   18  H  2  X    0.027404  -0.009283   0.038446   0.012701  -0.041006
   19  H  2  Y   -0.017520   0.024852  -0.003047  -0.005941   0.033005
   20  H  2  Z   -0.003912   0.009106  -0.006377   0.019626  -0.020502
   21  H  3  S    0.182899  -0.213906  -0.342132   0.081603  -0.492394
   22  H  3  S   -0.002943  -0.058583  -0.102508   0.016014  -0.065895
   23  H  3  X    0.016777   0.010855  -0.019953   0.010552  -0.025790
   24  H  3  Y    0.026945  -0.018307  -0.007057   0.017885  -0.048572
   25  H  3  Z   -0.015263   0.017769   0.026914   0.016827  -0.007396
   26  H  4  S    0.190432   0.374371   0.013824   0.116769  -0.446117
   27  H  4  S    0.008735   0.075295   0.033845   0.036822  -0.068898
   28  H  4  X   -0.030161  -0.032220   0.015024  -0.011690   0.050137
   29  H  4  Y    0.014069   0.025673   0.017762   0.007511  -0.019991
   30  H  4  Z   -0.003567  -0.008913   0.004589   0.020079  -0.019069

                      6          7

    1  N  1  S   -0.022478   0.024811
    2  N  1  S   -0.056089   0.067694
    3  N  1  S    0.078841  -0.117118
    4  N  1  X   -0.886391  -0.036764
    5  N  1  Y    0.033407   0.846794
    6  N  1  Z    0.050180  -0.094691
    7  N  1  X   -0.068939  -0.007373
    8  N  1  Y    0.010440   0.043458
    9  N  1  Z   -0.010661   0.030849
   10  N  1 XX   -0.022541  -0.045666
   11  N  1 YY    0.027645   0.040091
   12  N  1 ZZ   -0.005104   0.005575
   13  N  1 XY   -0.050343   0.030957
   14  N  1 XZ    0.047892   0.013462
   15  N  1 YZ   -0.015547  -0.030139
   16  H  2  S   -0.347722  -0.529934
   17  H  2  S   -0.081548  -0.148453
   18  H  2  X   -0.018080  -0.047322
   19  H  2  Y    0.039157   0.015584
   20  H  2  Z   -0.025921   0.002378
   21  H  3  S   -0.342416   0.586039
   22  H  3  S   -0.091699   0.170079
   23  H  3  X    0.031977   0.038812
   24  H  3  Y   -0.039867   0.013723
   25  H  3  Z    0.006332  -0.013527
   26  H  4  S    0.638287   0.038862
   27  H  4  S    0.161656   0.000486
   28  H  4  X   -0.055795  -0.017637
   29  H  4  Y    0.024768  -0.016803
   30  H  4  Z    0.013137   0.022693

Actually Used Diabatic Molecualr Orbitals:

                      1          2          3          4          5

    1  N  1  S    0.003888  -0.017877  -0.025557  -0.012611   0.201720
    2  N  1  S    0.419202  -0.044050  -0.065212  -0.190769   0.714327
    3  N  1  S    0.335263   0.042318   0.070618  -0.268210   0.185017
    4  N  1  X   -0.000025   0.492737  -0.052771  -0.025427  -0.012017
    5  N  1  Y   -0.002800  -0.002688   0.455635  -0.039491  -0.029862
    6  N  1  Z    0.080185  -0.024094  -0.030066   0.604021   0.639467
    7  N  1  X    0.015906   0.220357   0.031498   0.035796  -0.034504
    8  N  1  Y    0.030033   0.057826   0.279776   0.056914  -0.053337
[...]

     STATE:    3
 Group Ref#    Coefficients
     1    1   -0.006885
     2    2    0.003854
     3    3    0.948470

WEIGHT OF LISTED PROTOTYPES:   89.97%

 --------------------------------------------------
 IN DIRECT MAX. DIABATIZATION FOR GMC-QDPT

 DIRECT MAXIMIZATION (DM) WITHOUT TRUNCATING ADIABATS
 EXPANSIONS INTO THE REFERENCE CONFIGURATION SPACE
 --------------------------------------------------

 -------------------------------------------
 - DM DIABT PT HAMILTONIAN MATRIX ELEMENTS -
 -------------------------------------------
                                            
 --- DIABATIC ENERGIES (DIAGONAL ELEMENT) ---       HARTREE            EV
 STATE #  1'S GMC-PT-LEVEL DIABATIC ENERGY=     -55.932288273       0.000000000
 STATE #  2'S GMC-PT-LEVEL DIABATIC ENERGY=     -55.727399964       5.575294856
 STATE #  3'S GMC-PT-LEVEL DIABATIC ENERGY=     -55.812787658       3.251777363

 --- DIABATIC COUPLINGS (OFF DIAGONAL ELEMENTS)---  HATREE            EV
 STATE #  1 &  2'S GMC-PT-LEVEL COUPLING  =       0.029527168       0.803475156
 STATE #  1 &  3'S GMC-PT-LEVEL COUPLING  =       0.043554873       1.185188459
 STATE #  2 &  3'S GMC-PT-LEVEL COUPLING  =      -0.058569941      -1.593769262

 ---------------------------------------
     - ROTATION TO DIABATIC STATES -    
 ---------------------------------------
 ROWS=ADIABATIC, COLUMNS=DIABATIC STATES

             1           2           3

    1    0.9087120  -0.2095089  -0.3610382
    2    0.4163140   0.3918549   0.8204464
    3    0.0304162   0.8958547  -0.4433048

 ---------------------------------------
          - DIABATIC STATES -           
 ---------------------------------------

 State #    1  Energy =     -55.932288273

      Det      Coef        Coefp    Occupancy (Ignoring core)
      ---      ----        ----    --------- --------- -----
        1    0.932242   -0.932242  222+000
       17    0.126088    0.126088  22-+00+
        3    0.105315    0.105315  22-++00
      141   -0.100774   -0.100774  22++-00
      701   -0.094095   -0.094095  22++00-
       16    0.084986   -0.084986  222000+
        4    0.076465   -0.076465  2-2++00
      717   -0.074013   -0.074013  220+002
      176   -0.073478    0.073478  2+2+-00
      393   -0.070472   -0.070472  202+020
       18    0.066814   -0.066814  2-2+00+
      351    0.064867    0.064867  22++0-0
        7   -0.064860   -0.064860  22-+0+0
      736   -0.063953    0.063953  2+2+00-
        6   -0.054334    0.054334  22200+0
        8   -0.040625    0.040625  2-2+0+0
      402    0.040213   -0.040213  2+-+0-+
        5    0.038719    0.038719  -22++00
      708    0.037741   -0.037741  2-++0+-
      215   -0.036920   -0.036920  022+200
      390    0.034763   -0.034763  -+2++-0
      218    0.034011   -0.034011  +-2+-+0
      705   -0.032024   -0.032024  -2+++0-
       51   -0.031993    0.031993  22+-00+
      227   -0.031679   -0.031679  +2-+-0+
      212    0.029980    0.029980  +220200
       76    0.029092    0.029092  2+2-0+0
        2    0.028423   -0.028423  2220+00
      122    0.027732    0.027732  +2-200+
     1051   -0.025706   -0.025706  2+++0--
      773    0.025043   -0.025043  +2-++0-
      179   -0.024880   -0.024880  202+200
      702    0.024524    0.024524  22+0+0-
      387   -0.023836    0.023836  2+20+-0
      113   -0.023654    0.023654  +-220+0
      424   -0.023237   -0.023237  +-2++-0
      211   -0.022678   -0.022678  +22+-00
      192    0.022629   -0.022629  2+-+-0+
      159    0.022489   -0.022489  -2++-0+
       20   -0.022275   -0.022275  22-0+0+
      184   -0.022070   -0.022070  -+2+-+0
       29   -0.022001   -0.022001  2--+0++
      704    0.021393   -0.021393  2-+++0-

 State #    2  Energy =     -55.727399964

      Det      Coef        Coefp    Occupancy (Ignoring core)
      ---      ----        ----    --------- --------- -----
       71   -0.929960    0.929960  2+22000
      246   -0.117307   -0.117307  2++2-00
       73    0.115408   -0.115408  2+-2+00
      736   -0.100321    0.100321  2+2+00-
       86    0.096756    0.096756  2+2-00+
      806   -0.095018   -0.095018  2++200-
       77   -0.082930    0.082930  2+-20+0
       87    0.082110   -0.082110  2+-200+
      822    0.078322   -0.078322  2+02002
      456    0.073974    0.073974  2++20-0
      386    0.053375   -0.053375  2+2+0-0
      106   -0.050539   -0.050539  +222000
       88   -0.050495    0.050495  202200+
       74   -0.048064    0.048064  2022+00
      813    0.046194   -0.046194  20+20+-
       76   -0.045463   -0.045463  2+2-0+0
       36    0.045040    0.045040  22+2000
      122    0.038668    0.038668  +2-200+
      316    0.037844    0.037844  ++22-00
      320    0.037548    0.037548  0+22200
      332   -0.035312    0.035312  ++-2-0+
      810   -0.034833   -0.034833  -++2+0-
      111    0.034239   -0.034239  +22-0+0
       99   -0.033881    0.033881  20-20++
      323   -0.032889    0.032889  +022-+0
      317    0.032313   -0.032313  ++2-200
      180   -0.031911    0.031911  -+2+200
      177    0.031699   -0.031699  2+20200
       90    0.030508    0.030508  2+--+0+
      807   -0.029491    0.029491  2++-+0-
        6    0.029354   -0.029354  22200+0
      192   -0.028402    0.028402  2+-+-0+
      911    0.026998    0.026998  2+++-0-
      108    0.026852    0.026852  +2-2+00
      264    0.025622   -0.025622  -++2-0+
      183   -0.025545    0.025545  202+-+0
      878    0.025423    0.025423  ++-2+0-
       38   -0.025141    0.025141  2202+00
       75   -0.022435   -0.022435  -+22+00
       78   -0.022343    0.022343  20220+0
      821    0.021801   -0.021801  2++-002
      391    0.021625   -0.021625  2+20020
      841   -0.021437    0.021437  +2+200-
      752   -0.021171   -0.021171  2+-+002
      112   -0.020413   -0.020413  +2-20+0

 State #    3  Energy =     -55.812787658

      Det      Coef        Coefp    Occupancy (Ignoring core)
      ---      ----        ----    --------- --------- -----
       36   -0.930513   -0.930513  22+2000
       39   -0.111223   -0.111223  2-+2+00
       38   -0.105685    0.105685  2202+00
       51    0.099574   -0.099574  22+-00+
      701   -0.096658   -0.096658  22++00-
       53   -0.083852   -0.083852  2-+200+
      106   -0.082162   -0.082162  +222000
       41   -0.081161    0.081161  22+-0+0
      246    0.077640    0.077640  2++2-00
       52   -0.075112    0.075112  220200+
      351    0.072899    0.072899  22++0-0
      463    0.069460   -0.069460  20+2020
      806    0.067513    0.067513  2++200-
       42    0.057632   -0.057632  22020+0
      472   -0.045168   -0.045168  2+020-+
       71   -0.044239    0.044239  2+22000
      123    0.039153   -0.039153  +-2200+
      285    0.036458   -0.036458  02+2200
      460   -0.036168   -0.036168  -++2+-0
      288   -0.036108   -0.036108  +-+2-+0
       40   -0.034182    0.034182  -2+2+00
       64    0.034045   -0.034045  2-020++
      297    0.033815   -0.033815  +202-0+
       73    0.033583   -0.033583  2+-2+00
      145   -0.032324   -0.032324  -2++200
       55   -0.031888   -0.031888  220-+0+
      282    0.031760    0.031760  +2+-200
      142    0.031559    0.031559  22+0200
      157    0.029948   -0.029948  220+-0+
       86    0.026786    0.026786  2+2-00+
      109    0.026398   -0.026398  +-22+00
      249    0.025582   -0.025582  20+2200
      457   -0.025461    0.025461  2++-+-0
      148   -0.024628   -0.024628  2-++-+0
       16   -0.024405    0.024405  222000+
      494    0.024328   -0.024328  +-+2+-0
      121   -0.023324    0.023324  +22-00+
      367    0.022670   -0.022670  220+0-+
      254    0.021935   -0.021935  -++2-+0
      876   -0.021928   -0.021928  ++2200-
      843   -0.020991   -0.020991  +202+0-
      718    0.020974   -0.020974  2-++002
      859    0.020735   -0.020735  02+2002
      262   -0.020429   -0.020429  2+02-0+
       46    0.020343   -0.020343  2-+-++0
      281    0.020173   -0.020173  +2+2-00
      717    0.020021    0.020021  220+002

 ---------------------------------------
      - DIABATIC STATES IN CMO -        
 ---------------------------------------

 State #    1  Energy =     -55.932288273

      Det      Coef        Coefp    Occupancy (Ignoring core)
      ---      ----        ----    --------- --------- -----
        1    0.853531   -0.853531  222+000
       36   -0.469501   -0.469501  22+2000
      717   -0.058202   -0.058202  220+002
      393   -0.053125   -0.053125  202+020
      143   -0.045922   -0.045922  220+200
      753   -0.043570   -0.043570  202+002
      716    0.041362    0.041362  22+0002
      708    0.040999   -0.040999  2-++0+-
        8   -0.039509    0.039509  2-2+0+0
      703    0.038640    0.038640  220++0-
        3   -0.036300   -0.036300  22-++00
       71   -0.033572    0.033572  2+22000
      106   -0.032117   -0.032117  +222000
       16    0.030903   -0.030903  222000+
      463    0.030033   -0.030033  20+2020
      719   -0.028821   -0.028821  -2++002
      157   -0.028599    0.028599  220+-0+
      215   -0.027146   -0.027146  022+200
      401    0.025630    0.025630  2+200-+
      823    0.024793   -0.024793  20+2002
      778   -0.024586   -0.024586  +-2+0+-
      402    0.024460   -0.024460  2+-+0-+
      108   -0.024416   -0.024416  +2-2+00
      213   -0.024342    0.024342  +2-+200
      368   -0.024024   -0.024024  2-++0-+
       76    0.023836    0.023836  2+2-0+0
      122    0.023627    0.023627  +2-200+
       43    0.022939    0.022939  2-+20+0
      786    0.022662    0.022662  +220002
      741   -0.022651    0.022651  2+200+-
      404   -0.022636   -0.022636  -+2+0-+
      145    0.022064    0.022064  -2++200
       37    0.021933   -0.021933  22+-+00
      113   -0.021679    0.021679  +-220+0

 State #    2  Energy =     -55.727399964

      Det      Coef        Coefp    Occupancy (Ignoring core)
      ---      ----        ----    --------- --------- -----
       71   -0.878682    0.878682  2+22000
       36   -0.359156   -0.359156  22+2000
        1   -0.232232    0.232232  222+000
      822    0.051600   -0.051600  2+02002
      248    0.047529   -0.047529  2+02200
      123   -0.042561    0.042561  +-2200+
       18    0.039220   -0.039220  2-2+00+
      751    0.038236   -0.038236  2+20002
       86   -0.035040   -0.035040  2+2-00+
      262    0.031758    0.031758  2+02-0+
      808   -0.031750    0.031750  2+02+0-
      463    0.031519   -0.031519  20+2020
      111    0.028173   -0.028173  +22-0+0
      320    0.027491    0.027491  0+22200
      122    0.027048    0.027048  +2-200+
      743    0.025127    0.025127  202+0+-
      752    0.025037    0.025037  2+-+002
      318   -0.025027   -0.025027  ++-2200
      821   -0.024339    0.024339  2++-002
      754   -0.023947    0.023947  -+2+002
       89    0.023786    0.023786  -+2200+
      891    0.023186   -0.023186  ++2-002
      472   -0.022633   -0.022633  2+020-+
      823    0.022508   -0.022508  20+2002
      813    0.022474   -0.022474  20+20+-
      894    0.022467    0.022467  0+22002
       78   -0.021513    0.021513  20220+0
       16   -0.021036    0.021036  222000+
       83   -0.020896    0.020896  20-2++0
      458   -0.020862    0.020862  2+02+-0
      892    0.020828    0.020828  ++-2002
       42    0.020813   -0.020813  22020+0
      250    0.020294    0.020294  -++2200
       53    0.020226    0.020226  2-+200+
      883    0.020116    0.020116  +0220+-
      824   -0.020107   -0.020107  -++2002
      107    0.020071   -0.020071  +22-+00

 State #    3  Energy =     -55.812787658

      Det      Coef        Coefp    Occupancy (Ignoring core)
      ---      ----        ----    --------- --------- -----
       36   -0.780269   -0.780269  22+2000
       71    0.425107   -0.425107  2+22000
        1   -0.412555    0.412555  222+000
      463    0.044636   -0.044636  20+2020
      823    0.042978   -0.042978  20+2002
      122    0.038638    0.038638  +2-200+
      248   -0.034909    0.034909  2+02200
       16   -0.032858    0.032858  222000+
      143    0.031014    0.031014  220+200
      262   -0.028358   -0.028358  2+02-0+
      123    0.028060   -0.028060  +-2200+
       88    0.026172   -0.026172  202200+
      285    0.025802   -0.025802  02+2200
      393    0.025708    0.025708  202+020
      157    0.025663   -0.025663  220+-0+
      471    0.024175    0.024175  2++-0-+
      753    0.023139    0.023139  202+002
      111   -0.022780    0.022780  +22-0+0
       18   -0.022691    0.022691  2-2+00+
      822   -0.022560    0.022560  2+02002
      253   -0.022522   -0.022522  20+2-+0
      142    0.021756    0.021756  22+0200
      848    0.021602   -0.021602  +-+20+-
       86    0.021549    0.021549  2+2-00+
       48    0.020704   -0.020704  2-02++0
      811   -0.020611    0.020611  2++-0+-
      250   -0.020540   -0.020540  -++2200
       54   -0.020318    0.020318  -2+200+

 ---------------------------------------
    -DIABATIC STATES IN PROTOTYPES-     
 ---------------------------------------

     STATE:    1
 Group Ref#    Coefficients
     1    1    0.952970
     2    2   -0.002722
     3    3   -0.006869

WEIGHT OF LISTED PROTOTYPES:   90.82%

     STATE:    2
 Group Ref#    Coefficients
     1    1   -0.002754
     2    2    0.942063
     3    3    0.003867

WEIGHT OF LISTED PROTOTYPES:   88.75%

     STATE:    3
 Group Ref#    Coefficients
     1    1   -0.006901
     2    2    0.003841
     3    3    0.948470

WEIGHT OF LISTED PROTOTYPES:   89.97%

     DIRECT MAX. DIABATIZATION FINISHED    
 CPU     0: STEP CPU TIME=     0.25 TOTAL CPU TIME=         14.5 (      0.2 MIN)
 TOTAL WALL CLOCK TIME=         14.5 SECONDS, CPU UTILIZATION IS    99.93%

DIABATS FOR SPIN-ORBIT CALCULATION ARE READY

TRANSITION DIPOLES BETWEEN ADIABATS (in A.U.):

STATE PAIR      X         Y         Z
    1    1 -0.187928 -0.277419  0.662761
    2    1  0.001073  0.017364  0.192567
    2    2 -0.159267 -0.320105  0.348147
    3    1  0.128311 -0.066229  0.014759
    3    2 -0.214351  0.139469 -0.000799
    3    3 -0.323281 -0.415741  0.310494


TRANSITION DIPOLES BETWEEN DIABATS (in A.U.):

STATE PAIR      X         Y         Z
    1    1 -0.180610 -0.271936  0.754403
    2    1  0.022421 -0.005881  0.002472
    2    2 -0.490988 -0.275058  0.294019
    3    1 -0.006636  0.002769  0.005942
    3    2 -0.087271  0.129323 -0.025444
    3    3  0.001122 -0.466271  0.272981

TRANSITION DIPOLES BETWEEN DIRECT MAX. DIABATS (in A.U.):

STATE PAIR      X         Y         Z
    1    1 -0.180610 -0.271936  0.754403
    2    1  0.022414 -0.005879  0.002464
    2    2 -0.490991 -0.275055  0.294019
    3    1 -0.006634  0.002768  0.005934
    3    2 -0.087265  0.129320 -0.025444
    3    3  0.001124 -0.466274  0.272981
 No $TRANST Group Found.
 Quit without doing spin-orbit coupling
 ..... DONE WITH MP2 ENERGY .....
 CPU     0: STEP CPU TIME=     0.00 TOTAL CPU TIME=         14.5 (      0.2 MIN)
 TOTAL WALL CLOCK TIME=         14.5 SECONDS, CPU UTILIZATION IS    99.86%
            100000000  WORDS OF DYNAMIC MEMORY USED
 EXECUTION OF GAMESS TERMINATED NORMALLY Wed Nov 16 18:35:30 2022
 DDI: 715512 bytes (0.7 MB / 0 MWords) used by master data server.

 ----------------------------------------
 CPU timing information for all processes
 ========================================
 0: 14.97 + 0.404 = 14.501
 ----------------------------------------
Note: The following floating-point exceptions are signalling: IEEE_DENORMAL
 ddikick.x: exited gracefully.
unset echo
----- accounting info -----
Files used on the master node io002 were:
-rw-r--r-- 1 bsonghao nooijen   20722 Nov 16 18:35 /scratch/bsonghao/nh3_diabatization_2d_at_mode_7_8_dist-0.6_-0.4.F05
-rw-r--r-- 1 bsonghao nooijen  363520 Nov 16 18:35 /scratch/bsonghao/nh3_diabatization_2d_at_mode_7_8_dist-0.6_-0.4.F09
-rw-r--r-- 1 bsonghao nooijen 1995920 Nov 16 18:35 /scratch/bsonghao/nh3_diabatization_2d_at_mode_7_8_dist-0.6_-0.4.F10
-rw-r--r-- 1 bsonghao nooijen  131264 Nov 16 18:35 /scratch/bsonghao/nh3_diabatization_2d_at_mode_7_8_dist-0.6_-0.4.F13
-rw-r--r-- 1 bsonghao nooijen  180312 Nov 16 18:35 /scratch/bsonghao/nh3_diabatization_2d_at_mode_7_8_dist-0.6_-0.4.F15
-rw-r--r-- 1 bsonghao nooijen       0 Nov 16 18:35 /scratch/bsonghao/nh3_diabatization_2d_at_mode_7_8_dist-0.6_-0.4.F16
-rw-r--r-- 1 bsonghao nooijen    9808 Nov 16 18:35 /scratch/bsonghao/nh3_diabatization_2d_at_mode_7_8_dist-0.6_-0.4.F70
-rw-r--r-- 1 bsonghao nooijen    9808 Nov 16 18:35 /scratch/bsonghao/nh3_diabatization_2d_at_mode_7_8_dist-0.6_-0.4.F71
-rw-r--r-- 1 bsonghao nooijen   19608 Nov 16 18:35 /scratch/bsonghao/nh3_diabatization_2d_at_mode_7_8_dist-0.6_-0.4.F72
-rw-r--r-- 1 bsonghao nooijen   19608 Nov 16 18:35 /scratch/bsonghao/nh3_diabatization_2d_at_mode_7_8_dist-0.6_-0.4.F73
-rw-r--r-- 1 bsonghao nooijen 1920824 Nov 16 18:35 /scratch/bsonghao/nh3_diabatization_2d_at_mode_7_8_dist-0.6_-0.4.F74
-rw-r--r-- 1 bsonghao nooijen       0 Nov 16 18:35 /scratch/bsonghao/nh3_diabatization_2d_at_mode_7_8_dist-0.6_-0.4.F75
-rw-r--r-- 1 bsonghao nooijen   58848 Nov 16 18:35 /scratch/bsonghao/nh3_diabatization_2d_at_mode_7_8_dist-0.6_-0.4.F76
-rw-r--r-- 1 bsonghao nooijen       0 Nov 16 18:35 /scratch/bsonghao/nh3_diabatization_2d_at_mode_7_8_dist-0.6_-0.4.F77
-rw-r--r-- 1 bsonghao nooijen    1864 Nov 16 18:35 /scratch/bsonghao/nh3_diabatization_2d_at_mode_7_8_dist-0.6_-0.4.F78
-rw-r--r-- 1 bsonghao nooijen   39208 Nov 16 18:35 /scratch/bsonghao/nh3_diabatization_2d_at_mode_7_8_dist-0.6_-0.4.F79
-rw-r--r-- 1 bsonghao nooijen     104 Nov 16 18:35 /scratch/bsonghao/nh3_diabatization_2d_at_mode_7_8_dist-0.6_-0.4.F80
-rw-r--r-- 1 bsonghao nooijen   13472 Nov 16 18:35 /scratch/bsonghao/nh3_diabatization_2d_at_mode_7_8_dist-0.6_-0.4.F81
-rw-r--r-- 1 bsonghao nooijen      16 Nov 16 18:35 /scratch/bsonghao/nh3_diabatization_2d_at_mode_7_8_dist-0.6_-0.4.F82
-rw-r--r-- 1 bsonghao nooijen   19216 Nov 16 18:35 /scratch/bsonghao/nh3_diabatization_2d_at_mode_7_8_dist-0.6_-0.4.F83
-rw-r--r-- 1 bsonghao nooijen   29712 Nov 16 18:35 /scratch/bsonghao/nh3_diabatization_2d_at_mode_7_8_dist-0.6_-0.4.F84
-rw-r--r-- 1 bsonghao nooijen  401576 Nov 16 18:35 /scratch/bsonghao/nh3_diabatization_2d_at_mode_7_8_dist-0.6_-0.4.F85
-rw-r--r-- 1 bsonghao nooijen  903672 Nov 16 18:35 /scratch/bsonghao/nh3_diabatization_2d_at_mode_7_8_dist-0.6_-0.4.F86
-rw-r--r-- 1 bsonghao nooijen     656 Nov 16 18:35 /scratch/bsonghao/nh3_diabatization_2d_at_mode_7_8_dist-0.6_-0.4.F87
-rw-r--r-- 1 bsonghao nooijen   36944 Nov 16 18:35 /scratch/bsonghao/nh3_diabatization_2d_at_mode_7_8_dist-0.6_-0.4.F88
-rw-r--r-- 1 bsonghao nooijen     240 Nov 16 18:35 /scratch/bsonghao/nh3_diabatization_2d_at_mode_7_8_dist-0.6_-0.4.F89
-rw-r--r-- 1 bsonghao nooijen       0 Nov 16 18:35 /scratch/bsonghao/nh3_diabatization_2d_at_mode_7_8_dist-0.6_-0.4.F90
-rw-r--r-- 1 bsonghao nooijen   13760 Nov 16 18:35 /scratch/bsonghao/nh3_diabatization_2d_at_mode_7_8_dist-0.6_-0.4.F91
-rw-r--r-- 1 bsonghao nooijen   22776 Nov 16 18:35 /scratch/bsonghao/nh3_diabatization_2d_at_mode_7_8_dist-0.6_-0.4.F92
-rw-r--r-- 1 bsonghao nooijen   23168 Nov 16 18:35 /scratch/bsonghao/nh3_diabatization_2d_at_mode_7_8_dist-0.6_-0.4.F93
-rw-r--r-- 1 bsonghao nooijen   22776 Nov 16 18:35 /scratch/bsonghao/nh3_diabatization_2d_at_mode_7_8_dist-0.6_-0.4.F94
-rw-r--r-- 1 bsonghao nooijen   13760 Nov 16 18:35 /scratch/bsonghao/nh3_diabatization_2d_at_mode_7_8_dist-0.6_-0.4.F95
-rw-r--r-- 1 bsonghao nooijen   29440 Nov 16 18:35 /scratch/bsonghao/nh3_diabatization_2d_at_mode_7_8_dist-0.6_-0.4.F96
-rw-r--r-- 1 bsonghao nooijen    1184 Nov 16 18:35 /scratch/bsonghao/nh3_diabatization_2d_at_mode_7_8_dist-0.6_-0.4.F97
-rw-r--r-- 1 bsonghao nooijen    9808 Nov 16 18:35 /scratch/bsonghao/nh3_diabatization_2d_at_mode_7_8_dist-0.6_-0.4.F98
-rw-r--r-- 1 bsonghao nooijen   30264 Nov 16 18:35 /scratch/bsonghao/nh3_diabatization_2d_at_mode_7_8_dist-0.6_-0.4.F99
ls: No match.
ls: No match.
ls: No match.
Wed 16 Nov 2022 06:35:33 PM EST
0.295u 0.051s 0:17.89 1.9%	0+0k 48+224io 0pf+0w
