----- GAMESS execution script 'rungms' -----
This job is running on host io002
under operating system Linux at Wed 16 Nov 2022 08:27:56 PM EST
Available scratch disk space (Kbyte units) at beginning of the job is
Filesystem       1K-blocks       Used   Available Use% Mounted on
/dev/sdc1      15378471580 3278917120 11318349060  23% /scratch
GAMESS temporary binary files will be written to /scratch/bsonghao
GAMESS supplementary output files will be written to /home/bsonghao/.gamess_ascii_files/267638
Copying input file nh3_diabatization_2d_at_mode_7_8_dist0.8_0.5.inp to your run's scratch directory...
cp nh3_diabatization_2d_at_mode_7_8_dist0.8_0.5.inp /scratch/bsonghao/nh3_diabatization_2d_at_mode_7_8_dist0.8_0.5.F05
unset echo
/home/bjb2chen/gamess/ddikick.x /home/bjb2chen/gamess/gamess.00.x nh3_diabatization_2d_at_mode_7_8_dist0.8_0.5 -ddi 1 1 io002 -scr /scratch/bsonghao

 Distributed Data Interface kickoff program.
 Initiating 1 compute processes on 1 nodes to run the following command:
 /home/bjb2chen/gamess/gamess.00.x nh3_diabatization_2d_at_mode_7_8_dist0.8_0.5 

          ******************************************************
          *         GAMESS VERSION = 02 AUG 2018 (R2)         *
          *             FROM IOWA STATE UNIVERSITY             *
          * M.W.SCHMIDT, K.K.BALDRIDGE, J.A.BOATZ, S.T.ELBERT, *
          *   M.S.GORDON, J.H.JENSEN, S.KOSEKI, N.MATSUNAGA,   *
          *          K.A.NGUYEN, S.J.SU, T.L.WINDUS,           *
          *       TOGETHER WITH M.DUPUIS, J.A.MONTGOMERY       *
          *         J.COMPUT.CHEM.  14, 1347-1363(1993)        *
          **************** 64 BIT LINUX VERSION ****************

  SINCE 1993, STUDENTS AND POSTDOCS WORKING AT IOWA STATE UNIVERSITY
  AND ALSO IN THEIR VARIOUS JOBS AFTER LEAVING ISU HAVE MADE IMPORTANT
  CONTRIBUTIONS TO THE CODE:
     IVANA ADAMOVIC, CHRISTINE AIKENS, YURI ALEXEEV, POOJA ARORA,
     ANDREY ASADCHEV, ROB BELL, PRADIPTA BANDYOPADHYAY, JONATHAN BENTZ,
     BRETT BODE, KURT BRORSEN, CALEB CARLIN, GALINA CHABAN, WEI CHEN,
     CHEOL HO CHOI, PAUL DAY, ALBERT DEFUSCO, NUWAN DESILVA, TIM DUDLEY,
     DMITRI FEDOROV, ALEX FINDLATER, GRAHAM FLETCHER, MARK FREITAG,
     KURT GLAESEMANN, ANASTASIA GUININA,
     DAN KEMP, GRANT MERRILL, NORIYUKI MINEZAWA, JONATHAN MULLIN,
     TAKESHI NAGATA, SEAN NEDD, HEATHER NETZLOFF, BOSILJKA NJEGIC, RYAN OLSON,
     MIKE PAK, BUU PHAM,
     SPENCER PRUITT, LUKE ROSKOP, JIM SHOEMAKER, LYUDMILA SLIPCHENKO,
     TONY SMITH, SAROM SOK LEANG, JIE SONG, TETSUYA TAKETSUGU, SIMON WEBB,
     PENG XU, SOOHAENG YOO, FEDERICO ZAHARIEV

  ADDITIONAL CODE HAS BEEN PROVIDED BY COLLABORATORS IN OTHER GROUPS:
     IOWA STATE UNIVERSITY:
          JOE IVANIC, AARON WEST, LAIMUTIS BYTAUTAS, KLAUS RUEDENBERG
     UNIVERSITY OF TOKYO: KIMIHIKO HIRAO, TAKAHITO NAKAJIMA,
          TAKAO TSUNEDA, MUNEAKI KAMIYA, SUSUMU YANAGISAWA,
          KIYOSHI YAGI, MAHITO CHIBA, SEIKEN TOKURA, NAOAKI KAWAKAMI
     UNIVERSITY OF AARHUS: FRANK JENSEN
     UNIVERSITY OF IOWA: VISVALDAS KAIRYS, HUI LI
     NATIONAL INST. OF STANDARDS AND TECHNOLOGY: WALT STEVENS, DAVID GARMER
     UNIVERSITY OF PISA: BENEDETTA MENNUCCI, JACOPO TOMASI
     UNIVERSITY OF MEMPHIS: HENRY KURTZ, PRAKASHAN KORAMBATH
     UNIVERSITY OF ALBERTA: TOBY ZENG, MARIUSZ KLOBUKOWSKI
     UNIVERSITY OF NEW ENGLAND: MARK SPACKMAN
     MIE UNIVERSITY: HIROAKI UMEDA
     NAT. INST. OF ADVANCED INDUSTRIAL SCIENCE AND TECHNOLOGY: KAZUO KITAURA
     MICHIGAN STATE UNIVERSITY:
          KAROL KOWALSKI, MARTA WLOCH, JEFFREY GOUR, JESSE LUTZ,
          WEI LI, JUN SHEN, J. EMILIANO DEUSTUA, PIOTR PIECUCH
     UNIVERSITY OF MINNESOTA:
          YINAN SHU
     UNIVERSITY OF SILESIA: MONIKA MUSIAL, STANISLAW KUCHARSKI
     FACULTES UNIVERSITAIRES NOTRE-DAME DE LA PAIX:
          OLIVIER QUINET, BENOIT CHAMPAGNE
     UNIVERSITY OF CALIFORNIA - SANTA BARBARA: BERNARD KIRTMAN
     INSTITUTE FOR MOLECULAR SCIENCE:
          KAZUYA ISHIMURA, MICHIO KATOUDA, AND SHIGERU NAGASE
     UNIVERSITY OF NOTRE DAME: ANNA POMOGAEVA, DAN CHIPMAN
     KYUSHU UNIVERSITY:
          HARUYUKI NAKANO,
          FENG LONG GU, JACEK KORCHOWIEC, MARCIN MAKOWSKI, AND YURIKO AOKI,
          HIROTOSHI MORI AND EISAKU MIYOSHI
     PENNSYLVANIA STATE UNIVERSITY:
          TZVETELIN IORDANOV, CHET SWALINA, JONATHAN SKONE,
          SHARON HAMMES-SCHIFFER
     WASEDA UNIVERSITY:
          MASATO KOBAYASHI, TOMOKO AKAMA, TSUGUKI TOUMA,
          TAKESHI YOSHIKAWA, YASUHIRO IKABATA, JUNJI SEINO,
          YUYA NAKAJIMA, HIROMI NAKAI
     NANJING UNIVERSITY: SHUHUA LI
     UNIVERSITY OF NEBRASKA:
          PEIFENG SU, DEJUN SI, NANDUN THELLAMUREGE, YALI WANG, HUI LI
     UNIVERSITY OF ZURICH: ROBERTO PEVERATI, KIM BALDRIDGE
     N. COPERNICUS UNIVERSITY AND JACKSON STATE UNIVERSITY:
          MARIA BARYSZ
     UNIVERSITY OF COPENHAGEN: Jimmy Kromann, CASPER STEINMANN
     TOKYO INSTITUTE OF TECHNOLOGY: HIROYA NAKATA
     NAGOYA UNIVERSITY: YOSHIO NISHIMOTO, STEPHAN IRLE
     MOSCOW STATE UNIVERSITY: VLADIMIR MIRONOV

 EXECUTION OF GAMESS BEGUN Wed Nov 16 20:27:56 2022

            ECHO OF THE FIRST FEW INPUT CARDS -
 INPUT CARD> $system kdiag=3 mwords=100 memddi=1000 parall=.t. $end                         
 INPUT CARD> $contrl runtyp=energy ispher=1 $end                                            
 INPUT CARD> $contrl icut=9 itol=20 inttyp=rysquad qmttol=1.0d-05 nosym=1 $end              
 INPUT CARD> $scf    npunch=2 conv=1.0d-06 dirscf=.t.      $end                             
 INPUT CARD> $contrl scftyp=mcscf  mult=2 maxit=200 icharg=1 mplevl=2 $end                  
 INPUT CARD> $guess  guess=moread norb=29 purify=.t. $end                                   
 INPUT CARD> $basis  gbasis=ccd $end                                                        
 INPUT CARD> $mcscf  cistep=gmcci fullnr=.t. finci=mos                                      
 INPUT CARD>         acurcy=1.d-6 maxit=100 $end                                            
 INPUT CARD> $trans  dirtrf=.t. $end                                                        
 INPUT CARD> $mrmp   mrpt=gmcpt rdvecs=.f. $end                                             
 INPUT CARD> $gmcpt  nmofzc=0 nmodoc=1 nmoact=7 nelact=7 stsym(1)=A                         
 INPUT CARD>         reftyp=ormas nspace=1 mstart(1)=2 mine(1)=7 maxe(1)=7                  
 INPUT CARD>         kstate(1)=1,1,1                                                        
 INPUT CARD>         wstate(1)=1,1,1                                                        
 INPUT CARD>         iwgt=0 thrwgt=-1.0 krot=.f. kszdoe=.f. knospn=.f.                      
 INPUT CARD>         thrde=-1.0 edshft=0.02 $end                                            
 INPUT CARD> $data                                                                          
 INPUT CARD> NH3+ 3 states calculation at NH3 structure.                                    
 INPUT CARD> c1                                                                             
 INPUT CARD>N 7.0 -0.03114459 -0.04983122400000001 -0.1693809542                            
 INPUT CARD>H 1.0 0.09494081099999996 1.0513406748 0.3733539471                             
 INPUT CARD>H 1.0 -0.516461735 -0.9427249098 0.007582137099999997                           
 INPUT CARD>H 1.0 0.85428333 0.583805962 0.3884487351                                       
 INPUT CARD>$end                                                                            
 INPUT CARD>--- OPTIMIZED RHF      MO-S --- GENERATED AT Mon Nov 14 16:47:08 2022           
 INPUT CARD>E=      -56.3825050291, E(NUC)=   11.8429239490                                 
 INPUT CARD> $VEC                                                                           
 INPUT CARD> 1  1-1.00134066E+00-2.25158504E-03 3.44925845E-03 0.00000000E+00 0.00000000E+00
 INPUT CARD> 1  2-2.13170927E-03 0.00000000E+00 0.00000000E+00 6.57129898E-04-6.87950443E-05
 INPUT CARD> 1  3-6.87950443E-05 1.37590089E-04 0.00000000E+00 0.00000000E+00 0.00000000E+00
 INPUT CARD> 1  4 3.25502815E-04-4.84772356E-04 3.62525460E-04-6.27912517E-04-3.45956485E-04
 INPUT CARD> 1  5 3.25502815E-04-4.84772356E-04 3.62525460E-04 6.27912517E-04-3.45956485E-04
 INPUT CARD> 1  6 3.25502815E-04-4.84772356E-04-7.25050921E-04 0.00000000E+00-3.45956485E-04
 INPUT CARD> 2  1 1.31286642E-02-4.05911371E-01-2.82090992E-01 0.00000000E+00 0.00000000E+00
 INPUT CARD> 2  2-7.71489043E-02 0.00000000E+00 0.00000000E+00 9.73717494E-03 6.62450916E-04
 INPUT CARD> 2  3 6.62450916E-04-1.32490183E-03 0.00000000E+00 0.00000000E+00 0.00000000E+00
 INPUT CARD> 2  4-1.96090317E-01-1.96656153E-02-1.74855877E-02 3.02859263E-02 8.68214399E-03
 INPUT CARD> 2  5-1.96090317E-01-1.96656153E-02-1.74855877E-02-3.02859263E-02 8.68214399E-03
 INPUT CARD> 2  6-1.96090317E-01-1.96656153E-02 3.49711754E-02 0.00000000E+00 8.68214399E-03
 INPUT CARD> 3  1 0.00000000E+00 0.00000000E+00 0.00000000E+00 4.48608762E-01 0.00000000E+00
 INPUT CARD> 3  2 0.00000000E+00 2.18692520E-01 0.00000000E+00 0.00000000E+00 1.30198027E-02
 INPUT CARD> 3  3-1.30198027E-02 0.00000000E+00 0.00000000E+00 2.71832968E-02 0.00000000E+00
 INPUT CARD> 3  4-1.85332726E-01-7.03958951E-02 8.47929477E-03 1.95242443E-02 8.32835058E-03
 INPUT CARD> 3  5-1.85332726E-01-7.03958951E-02 8.47929477E-03-1.95242443E-02 8.32835058E-03
 INPUT CARD> 3  6 3.70665453E-01 1.40791790E-01-2.53376884E-02 0.00000000E+00-1.66567012E-02
 INPUT CARD> 4  1 0.00000000E+00 0.00000000E+00 0.00000000E+00 0.00000000E+00 4.48608762E-01
 INPUT CARD> 4  2 0.00000000E+00 0.00000000E+00 2.18692520E-01 0.00000000E+00 0.00000000E+00
 INPUT CARD> 4  3 0.00000000E+00 0.00000000E+00-1.50339731E-02 0.00000000E+00 2.71832968E-02
 INPUT CARD> 4  4 3.21005698E-01 1.21929267E-01 1.95242443E-02-1.40653607E-02-1.44251263E-02
  100000000 WORDS OF MEMORY AVAILABLE

     BASIS OPTIONS
     -------------
     GBASIS=CCD          IGAUSS=       0      POLAR=NONE    
     NDFUNC=       0     NFFUNC=       0     DIFFSP=       F
     NPFUNC=       0      DIFFS=       F     BASNAM=        


     RUN TITLE
     ---------
  NH3+ 3 states calculation at NH3 structure.                                    

 THE POINT GROUP OF THE MOLECULE IS C1      
 THE ORDER OF THE PRINCIPAL AXIS IS     0

 ATOM      ATOMIC                      COORDINATES (BOHR)
           CHARGE         X                   Y                   Z
 N           7.0    -0.0588547411       -0.0941673590       -0.3200835910
 H           1.0     0.1794121178        1.9867457951        0.7055366565
 H           1.0    -0.9759711623       -1.7814917613        0.0143281615
 H           1.0     1.6143614096        1.1032332982        0.7340616696

          INTERNUCLEAR DISTANCES (ANGS.)
          ------------------------------

                1 N          2 H          3 H          4 H     

   1 N       0.0000000    1.2341144 *  1.0315560 *  1.2233776 *
   2 H       1.2341144 *  0.0000000    2.1175221 *  0.8918619 *
   3 H       1.0315560 *  2.1175221 *  0.0000000    2.0866955 *
   4 H       1.2233776 *  0.8918619 *  2.0866955 *  0.0000000  

  * ... LESS THAN  3.000


     ATOMIC BASIS SET
     ----------------
 THE CONTRACTED PRIMITIVE FUNCTIONS HAVE BEEN UNNORMALIZED
 THE CONTRACTED BASIS FUNCTIONS ARE NOW NORMALIZED TO UNITY

  SHELL TYPE  PRIMITIVE        EXPONENT          CONTRACTION COEFFICIENT(S)

 N         

      1   S       1          9046.0000000    0.000699617413
      1   S       2          1357.0000000    0.005386054630
      1   S       3           309.3000000    0.027391021189
      1   S       4            87.7300000    0.103150591982
      1   S       5            28.5600000    0.278570663317
      1   S       6            10.2100000    0.448294849454
      1   S       7             3.8380000    0.278085928395
      1   S       8             0.7466000    0.015431561233

      2   S       9          9046.0000000   -0.000304990096
      2   S      10          1357.0000000   -0.002408026379
      2   S      11           309.3000000   -0.011944448725
      2   S      12            87.7300000   -0.048925992909
      2   S      13            28.5600000   -0.134472724725
      2   S      14            10.2100000   -0.315112577700
      2   S      15             3.8380000   -0.242857832550
      2   S      16             0.7466000    1.094382206854

      3   S      17             0.2248000    1.000000000000

      4   P      18            13.5500000    0.058905676772
      4   P      19             2.9170000    0.320461106714
      4   P      20             0.7973000    0.753042061792

      5   P      21             0.2185000    1.000000000000

      6   D      22             0.8170000    1.000000000000

 H         

      7   S      23            13.0100000    0.033498726390
      7   S      24             1.9620000    0.234800801174
      7   S      25             0.4446000    0.813682957883

      8   S      26             0.1220000    1.000000000000

      9   P      27             0.7270000    1.000000000000

 H         

     10   S      28            13.0100000    0.033498726390
     10   S      29             1.9620000    0.234800801174
     10   S      30             0.4446000    0.813682957883

     11   S      31             0.1220000    1.000000000000

     12   P      32             0.7270000    1.000000000000

 H         

     13   S      33            13.0100000    0.033498726390
     13   S      34             1.9620000    0.234800801174
     13   S      35             0.4446000    0.813682957883

     14   S      36             0.1220000    1.000000000000

     15   P      37             0.7270000    1.000000000000

 TOTAL NUMBER OF BASIS SET SHELLS             =   15
 NUMBER OF CARTESIAN GAUSSIAN BASIS FUNCTIONS =   30
 NOTE: THIS RUN WILL RESTRICT THE MO VARIATION SPACE TO SPHERICAL HARMONICS.
 THE NUMBER OF ORBITALS KEPT IN THE VARIATIONAL SPACE WILL BE PRINTED LATER.
 NUMBER OF ELECTRONS                          =    9
 CHARGE OF MOLECULE                           =    1
 SPIN MULTIPLICITY                            =    2
 NUMBER OF OCCUPIED ORBITALS (ALPHA)          =    5
 NUMBER OF OCCUPIED ORBITALS (BETA )          =    4
 TOTAL NUMBER OF ATOMS                        =    4
 THE NUCLEAR REPULSION ENERGY IS       10.7171831315

     $CONTRL OPTIONS
     ---------------
 SCFTYP=MCSCF        RUNTYP=ENERGY       EXETYP=RUN     
 MPLEVL=       2     CITYP =NONE         CCTYP =NONE         VBTYP =NONE    
 DFTTYP=NONE         TDDFT =NONE    
 MULT  =       2     ICHARG=       1     NZVAR =       0     COORD =UNIQUE  
 PP    =NONE         RELWFN=NONE         LOCAL =NONE         NUMGRD=       F
 ISPHER=       1     NOSYM =       1     MAXIT =     200     UNITS =ANGS    
 PLTORB=       F     MOLPLT=       F     AIMPAC=       F     FRIEND=        
 NPRINT=       7     IREST =       0     GEOM  =INPUT   
 NORMF =       0     NORMP =       0     ITOL  =      20     ICUT  =       9
 INTTYP=RYSQUAD      GRDTYP=BEST         QMTTOL= 1.0E-05

     $SYSTEM OPTIONS
     ---------------
  REPLICATED MEMORY=   100000000 WORDS (ON EVERY NODE).
 DISTRIBUTED MEMDDI=        1000 MILLION WORDS IN AGGREGATE,
 MEMDDI DISTRIBUTED OVER   1 PROCESSORS IS  1000000000 WORDS/PROCESSOR.
 TOTAL MEMORY REQUESTED ON EACH PROCESSOR=  1100000000 WORDS.
 TIMLIM=      525600.00 MINUTES, OR     365.0 DAYS.
 PARALL= T  BALTYP=  DLB     KDIAG=    3  COREFL= F
 MXSEQ2=     300 MXSEQ3=     150  mem10=         0

          ----------------
          PROPERTIES INPUT
          ----------------

     MOMENTS            FIELD           POTENTIAL          DENSITY
 IEMOM =       1   IEFLD =       0   IEPOT =       0   IEDEN =       0
 WHERE =COMASS     WHERE =NUCLEI     WHERE =NUCLEI     WHERE =NUCLEI  
 OUTPUT=BOTH       OUTPUT=BOTH       OUTPUT=BOTH       OUTPUT=BOTH    
 IEMINT=       0   IEFINT=       0                     IEDINT=       0
                                                       MORB  =       0

     -------------------------------
     INTEGRAL TRANSFORMATION OPTIONS
     -------------------------------
     NWORD  =            0
     CUTOFF = 1.0E-09     MPTRAN =       0
     DIRTRF =       T     AOINTS =DUP     

          ----------------------
          MCSCF INPUT PARAMETERS
          ----------------------
 CONVERGER SELECTION: FOCAS = F  SOSCF = F  FULLNR = T  QUD = F  JACOBI = F
 SECULAR EQUATION METHOD CISTEP = GMCCI   
 --- GENERAL INPUT OPTIONS:
 MAXIT =     100  MICIT =       1  ACURCY= 1.000E-06
 DAMP  =   0.000  CANONC=       T  ENGTOL= 1.000E-10
 EKT   =       F  NPUNCH=       2  NWORD =         0
 REGENERATE CI AFTER CONVERGENCE = NONE    
 DIABATIZATION AFTER CONVERGENCE =        F
 --- INPUT FOR FULLNR CONVERGER:
 METHOD=DM2       FORS  =       F  DROPC =       T
 LINSER=       F  FCORE =       F  NORB  =      30

          ----------------------
          INTEGRAL INPUT OPTIONS
          ----------------------
 NOPK  =       1 NORDER=       0 SCHWRZ=       T

 ------------------------------------------
 MULTIREFERENCE PERTURBATION THEORY CONTROL
 ------------------------------------------
 MRPT=GMCPT    READ CONVERGED MCSCF VECTORS= F


     ------------------------------------------
     THE POINT GROUP IS C1 , NAXIS= 1, ORDER= 1
     ------------------------------------------

 -- VARIATIONAL SPACE WILL BE RESTRICTED TO PURE SPHERICAL HARMONICS ONLY --
 AFTER EXCLUDING CONTAMINANT COMBINATIONS FROM THE CARTESIAN GAUSSIAN BASIS
 SET, THE NUMBER OF SPHERICAL HARMONICS KEPT IN THE VARIATION SPACE IS   29

     DIMENSIONS OF THE SYMMETRY SUBSPACES ARE
 A   =   29

 ..... DONE SETTING UP THE RUN .....
 CPU     0: STEP CPU TIME=     0.03 TOTAL CPU TIME=          0.0 (      0.0 MIN)
 TOTAL WALL CLOCK TIME=          0.1 SECONDS, CPU UTILIZATION IS    60.00%

          ********************
          1 ELECTRON INTEGRALS
          ********************
 TIME TO DO   DIPOLE INTEGRALS=      0.00
 ...... END OF ONE-ELECTRON INTEGRALS ......
 CPU     0: STEP CPU TIME=     0.00 TOTAL CPU TIME=          0.0 (      0.0 MIN)
 TOTAL WALL CLOCK TIME=          0.1 SECONDS, CPU UTILIZATION IS    60.00%

          -------------
          GUESS OPTIONS
          -------------
          GUESS =MOREAD            NORB  =      29          NORDER=       0
          MIX   =       F          PRTMO =       F          PUNMO =       F
          TOLZ  = 1.0E-08          TOLE  = 1.0E-05
          SYMDEN=       F          PURIFY=       T

 INITIAL GUESS ORBITALS GENERATED BY MOREAD   ROUTINE.

 STATISTICS FOR GENERATION OF SYMMETRY ORBITAL -Q- MATRIX
 NUMBER OF CARTESIAN ATOMIC ORBITALS=         30
 NUMBER OF SPHERICAL CONTAMINANTS DROPPED=     1
 NUMBER OF LINEARLY DEPENDENT MOS DROPPED=     0
 TOTAL NUMBER OF MOS IN VARIATION SPACE=      29
 ORBITAL PURIFICATION WILL OCCUR

 SYMMETRIES FOR INITIAL GUESS ORBITALS FOLLOW.   BOTH SET(S).
     5 ORBITALS ARE OCCUPIED (    1 CORE ORBITALS).
     1=A        2=A        3=A        4=A        5=A        6=A        7=A   
     8=A        9=A       10=A       11=A       12=A       13=A       14=A   
    15=A       16=A       17=A       18=A       19=A       20=A       21=A   
    22=A       23=A       24=A       25=A       26=A       27=A       28=A   
    29=A   
 ...... END OF INITIAL ORBITAL SELECTION ......
 CPU     0: STEP CPU TIME=     0.01 TOTAL CPU TIME=          0.0 (      0.0 MIN)
 TOTAL WALL CLOCK TIME=          0.1 SECONDS, CPU UTILIZATION IS    80.00%

                    ----------------------
                    AO INTEGRAL TECHNOLOGY
                    ----------------------
     S,P,L SHELL ROTATED AXIS INTEGRALS, REPROGRAMMED BY
        KAZUYA ISHIMURA (IMS) AND JOSE SIERRA (SYNSTAR).
     S,P,D,L SHELL ROTATED AXIS INTEGRALS PROGRAMMED BY
        KAZUYA ISHIMURA (INSTITUTE FOR MOLECULAR SCIENCE).
     S,P,D,F,G SHELL TO TOTAL QUARTET ANGULAR MOMENTUM SUM 5,
        ERIC PROGRAM BY GRAHAM FLETCHER (ELORET AND NASA ADVANCED
        SUPERCOMPUTING DIVISION, AMES RESEARCH CENTER).
     S,P,D,F,G,L SHELL GENERAL RYS QUADRATURE PROGRAMMED BY
        MICHEL DUPUIS (PACIFIC NORTHWEST NATIONAL LABORATORY).

          --------------------
          2 ELECTRON INTEGRALS
          --------------------

 DIRECT SCF METHOD SKIPS INTEGRAL STORAGE ON DISK.
 DIRECT TRANSFORMATION SKIPS AO INTEGRAL STORAGE ON DISK.
  ...... END OF TWO-ELECTRON INTEGRALS .....
 STEP CPU TIME =     0.03 TOTAL CPU TIME =          0.1 (      0.0 MIN)
 TOTAL WALL CLOCK TIME=          0.1 SECONDS, CPU UTILIZATION IS    87.50%
 DDI: Creating Array [0] - 900 x 36 = 32400 words.
 DDI: Creating Array [1] - 21 x 288 = 6048 words.
 DDI: Creating Array [2] - 36 x 36 = 1296 words.
 DDI: Creating Array [3] - 465 x 36 = 16740 words.

          -----------------
          MCSCF CALCULATION
          -----------------

 ----- NUCLEAR ENERGY ----- =        10.7171831315

     -------------------------------------------------
     GMC-PT/GMC-QDPT or general MCSCF input parameters
     -------------------------------------------------
 # of frozen core orbs. =         0 ->         0
 # of doubly occ. orbs. =         1
 # of active      orbs. =         7
 # of virtual     orbs. =        21
 # of active electrons  =         7
 # of states in CI      =         3
 Highest state in CI    =         3
 kstate =  1 1 1
 avecoe =  0.333 0.333 0.333
 State symmetry           = A           
 Assigned symmetry number = 1

 <<<Act. MO sym.: 1111111

 <<<Division of 1-ext.:  0
 <<<Division of 2-ext.:  0

 *** Reference space

 Reference type: ORMAS (= Occupation restricted multiple active space)
 # of orbitals          =  7
 # of minimum electrons =  7
 # of maximum electrons =  7
 State symmetry    =    1 (input)
 2*Sz              =    1 (input)
 Spin multiplicity =    2 (input)
 Dimension of reference space =      1225  (from      3432 walks)

 Dimension of reference space =      1225  (from      1225 walks)

 <<<Ionized spaces for Ref-CI:
      0:         1225 /   -1-0:         1960 /  0-1-0:         2891

 EVALUATING EXCHANGE INTEGRALS FOR DIRECT INTEGRAL TRANSFORMATION
 SCHWARZ INEQUALITY OVERHEAD:       465 INTEGRALS, T=        0.00

     --------------------------------------------
     PARTIAL TWO ELECTRON INTEGRAL TRANSFORMATION
     --------------------------------------------

 NUMBER OF CORE MOLECULAR ORBITALS     =    1
 NUMBER OF OCCUPIED MOLECULAR ORBITALS =    8
 TOTAL NUMBER OF MOLECULAR ORBITALS    =   29
 TOTAL NUMBER OF ATOMIC ORBITALS       =   30
 THRESHOLD FOR KEEPING TRANSFORMED 2E- INTEGRALS = 1.000E-09

 -------------------------------     ------------------------------
 DISTRIBUTED DATA TRANSFORMATION     PROGRAM WRITTEN BY G. FLETCHER
 -------------------------------     ------------------------------

 THE DISTRIBUTED MEMORY REQUIRED FOR THIS STEP IS MEMDDI=         1 MWORDS
 CREATING DISTRIBUTED STORAGE FOR [VIR OCC|VIR OCC] INTEGRALS
 CREATING DISTRIBUTED STORAGE FOR [VIR OCC|OCC OCC] INTEGRALS
 CREATING DISTRIBUTED STORAGE FOR [OCC OCC|OCC OCC] INTEGRALS
 CREATING DISTRIBUTED STORAGE FOR [VIR VIR|OCC OCC] INTEGRALS
 FOR    1 PROCESSORS, THE REPLICATED MEMORY NEEDED IS       73700 WORDS.
 SCHWARZ INEQUALITY OVERHEAD:       465 INTEGRALS, T=        0.00

      DIRECT 4-INDEX TRANSFORMATION 
      SCHWARZ INEQUALITY TEST SKIPPED          0 INTEGRAL BLOCKS
 ----- FROZEN CORE ENERGY =       -47.4805065417
 ... END OF INTEGRAL TRANSFORMATION ...
 CPU     0: STEP CPU TIME=     0.21 TOTAL CPU TIME=          0.3 (      0.0 MIN)
 TOTAL WALL CLOCK TIME=          0.3 SECONDS, CPU UTILIZATION IS    93.33%

     --------------------------------     -----------------------------
     MCHF NEWTON-RAPHSON OPTIMIZATION     CODE WRITTEN BY MICHEL DUPUIS
     --------------------------------     -----------------------------
     PARALLEL VERSION WRITTEN BY G. FLETCHER (ELORET)
     NASA ADVANCED SUPERCOMPUTING DIVISION, AMES RESEARCH CENTER

 NUMBER OF INDEPENDENT ORBITAL ROTATION PARAMETERS =   175
 ..... DONE SOLVING NEWTON-RAPHSON EQUATIONS .....
 CPU     0: STEP CPU TIME=     0.80 TOTAL CPU TIME=          1.1 (      0.0 MIN)
 TOTAL WALL CLOCK TIME=          1.1 SECONDS, CPU UTILIZATION IS    99.08%
 ..... DONE WITH NTN-RPH ORBITAL ROTATIONS ..... 
 CPU     0: STEP CPU TIME=     0.00 TOTAL CPU TIME=          1.1 (      0.0 MIN)
 TOTAL WALL CLOCK TIME=          1.1 SECONDS, CPU UTILIZATION IS    99.08%
 MAXIMUM MEMORY USED BY NTN-RPH CODE WAS     57645 WORDS.

 ITER     TOTAL ENERGY      DEL(E)  LAGRANGIAN ASYMMETRY   SQCDF  MICIT   DAMP
   1      -55.478857366 -0.478857366  0.138723    9    3 8.138E-02  1   0.0000
   2      -55.584610584 -0.105753218  0.058162   13    3 2.109E-01  1   0.0000
   3      -55.632000295 -0.047389711  0.016104   11    6 3.099E-01  1   0.0159
   4      -55.652747813 -0.020747518  0.007354   13    7 9.277E-02  1   0.0073
   5      -55.657460294 -0.004712481  0.001462   13    7 3.059E-03  1   0.0000
   6      -55.657617196 -0.000156903  0.000375   25    6 1.660E-04  1   0.0000
   7      -55.657628683 -0.000011487  0.000181   25    6 3.016E-05  1   0.0000
   8      -55.657630971 -0.000002287  0.000098   25    6 7.064E-06  1   0.0000
   9      -55.657631567 -0.000000597  0.000062   13    6 1.874E-06  1   0.0000
  10      -55.657631747 -0.000000179  0.000040   13    6 5.499E-07  1   0.0000
  11      -55.657631806 -0.000000059  0.000025   13    6 1.762E-07  1   0.0000
  12      -55.657631827 -0.000000021  0.000016   13    6 6.060E-08  1   0.0000
  13      -55.657631835 -0.000000008  0.000010   13    6 2.199E-08  1   0.0000
  14      -55.657631838 -0.000000003  0.000006   13    6 8.319E-09  1   0.0000
  15      -55.657631839 -0.000000001  0.000004   13    6 3.207E-09  1   0.0000
  16      -55.657631839 -0.000000000  0.000003   13    6 1.259E-09  1   0.0000
  17      -55.657631839 -0.000000000  0.000002   13    6 5.008E-10  1   0.0000
  18      -55.657631839 -0.000000000  0.000001   13    6 1.906E-10  1   0.0000

          ----------------
          ENERGY CONVERGED
          ----------------

 FINAL MCSCF ENERGY IS      -55.6576318394 AFTER  18 ITERATIONS

 -MCCI- BASED ON OPTIMIZED ORBITALS
 ----------------------------------

 PLEASE NOTE: IF THE ACTIVE ORBITALS ARE CANONICALIZED BELOW,
 THE FOLLOWING CI EXPANSION COEFFICIENTS AND THE DENSITY DO NOT
 CORRESPOND TO THE PRINTED ORBITALS.  THE PRINTED EXPANSIONS MATCH
 THE ORBITALS USED DURING THE LAST ITERATION.  IF YOU WISH TO SEE
 CI EXPANSIONS BASED ON THE CANONICAL (OR NATURAL) ORBITALS, YOU
 MUST RUN A CI CALCULATION WITH THAT ORBITAL CHOICE READ IN $VEC.

 Averaged energy =     -55.657631839

 State #    1  Energy =     -55.749449248  S =  0.500

      Det      Coef    Occupancy (Ignoring core)
      ---      ----    --------- --------- -----
        1    0.925488  11110001110000
        5   -0.065266  01111001110000
        8   -0.142692  10110101110000
       17    0.132565  11010011110000
       36    0.079812  11110001101000
       71   -0.136203  11110001011000
      386    0.106947  11110001010010
      393    0.054540  10110101010010
      701   -0.103932  11110001100001
      717    0.050975  11010011100001

 State #    2  Energy =     -55.710976692  S =  0.500

      Det      Coef    Occupancy (Ignoring core)
      ---      ----    --------- --------- -----
        1   -0.058310  11110001110000
       36   -0.578123  11110001101000
       37    0.051013  11101001101000
       43    0.077567  10110101101000
       52   -0.073059  11010011101000
       71   -0.738043  11110001011000
       72    0.064168  11101001011000
       74    0.051533  10111001011000
       75    0.058298  01111001011000
       78    0.102478  10110101011000
       87   -0.093312  11010011011000
      141    0.050810  11110001100100
      176    0.059404  11110001010100
      246   -0.074166  11110001001100
      456   -0.055210  11110001001010
      806   -0.058590  11110001001001

 State #    3  Energy =     -55.512469579  S =  0.500

      Det      Coef    Occupancy (Ignoring core)
      ---      ----    --------- --------- -----
        2    0.058190  11101001110000
        3    0.226071  11011001110000
        4    0.286366  10111001110000
        8   -0.057953  10110101110000
       17   -0.055326  11010011110000
       18   -0.075664  10110011110000
       36   -0.076823  11110001101000
       37   -0.198954  11101001101000
       51    0.053701  11100011101000
       71   -0.096498  11110001011000
       72   -0.268301  11101001011000
       73   -0.099920  11011001011000
       81    0.062871  10101101011000
       86    0.057742  11100011011000
      141   -0.425025  11110001100100
      145    0.060048  01111001100100
      148    0.095779  10110101100100
      157   -0.100306  11010011100100
      176   -0.554667  11110001010100
      180    0.077006  01111001010100
      183    0.138454  10110101010100
      192   -0.119972  11010011010100
      246   -0.139906  11110001001100
      351    0.068926  11110001100010
      386    0.101533  11110001010010
      389    0.075583  10111001010010
      701    0.109027  11110001100001
      703   -0.060299  11011001100001
      704   -0.057058  10111001100001
      736    0.133406  11110001010001
      911   -0.057479  11110001000101

 DENSITY MATRIX OVER ACTIVE MO-S

             1           2           3           4           5

    1    1.9748382
    2    0.0039924   1.5159887
    3   -0.0053415   0.3154515   1.6824827
    4    0.0174593   0.0652194   0.0839241   1.3434376
    5    0.1065682  -0.0685084  -0.0766073  -0.0375118   0.3463416
    6   -0.0044855  -0.2099170   0.0058697   0.0295970  -0.0476387
    7   -0.0075226   0.0341323  -0.2016589   0.0247582  -0.0750873

             6           7

    6    0.0649269
    7    0.0000685   0.0719842

 FORMING THE "STANDARD FOCK OPERATOR" IN DIRECT AO INTEGRAL MODE...
 ONLY THE    1 CORE AND   21 VIRTUAL ORBITALS WILL BE CANONICALIZED

          ----------------------
          MCSCF NATURAL ORBITALS
          ----------------------

                      1          2          3          4          5
                  -16.0092     1.9835     1.9656     1.3287     1.3143
                     A          A          A          A          A   
    1  N  1  S    1.000954   0.012079  -0.000687  -0.012756  -0.001149
    2  N  1  S   -0.002735   0.446243   0.014673  -0.191677  -0.015307
    3  N  1  S   -0.007121   0.367183  -0.020648  -0.264143  -0.019540
    4  N  1  X    0.001060  -0.043425   0.201749  -0.110866   0.534069
    5  N  1  Y    0.001870  -0.087536   0.352909  -0.149919  -0.311519
    6  N  1  Z    0.000667   0.076586   0.090851   0.577309   0.013105
    7  N  1  X    0.000188  -0.011328   0.063489  -0.070102   0.332343
    8  N  1  Y    0.000378  -0.023511   0.110203  -0.093285  -0.193765
    9  N  1  Z   -0.000416   0.034207   0.033271   0.373679   0.007498
   10  N  1 XX   -0.000081  -0.001938  -0.001191  -0.008299   0.008260
   11  N  1 YY    0.000295   0.004521  -0.001177  -0.001985  -0.007993
   12  N  1 ZZ   -0.000214  -0.002583   0.002368   0.010284  -0.000268
   13  N  1 XY    0.000362   0.005768   0.001188   0.004777   0.005367
   14  N  1 XZ    0.000046  -0.000015   0.006953   0.001630   0.010810
   15  N  1 YZ    0.000083  -0.000343   0.011975   0.003682  -0.005926
   16  H  2  S   -0.000021   0.094156   0.300904   0.101883  -0.171699
   17  H  2  S    0.000370  -0.006763   0.039153   0.034423  -0.102019
   18  H  2  X    0.000005  -0.001027   0.010681   0.001808   0.017855
   19  H  2  Y    0.000399  -0.020560  -0.032500  -0.011832   0.017999
   20  H  2  Z    0.000222  -0.005983  -0.013510   0.015660   0.012422
   21  H  3  S   -0.003489   0.255963  -0.264356   0.141819   0.008318
   22  H  3  S    0.000552   0.008267  -0.033880   0.024622   0.001045
   23  H  3  X   -0.000480   0.019162  -0.013352   0.006078   0.016812
   24  H  3  Y   -0.000891   0.034864  -0.025091   0.012868  -0.008179
   25  H  3  Z    0.000277  -0.004377   0.009140   0.015087   0.000192
   26  H  4  S   -0.000056   0.100735   0.303971   0.096003   0.184820
   27  H  4  S    0.000382  -0.004532   0.037945   0.030175   0.104592
   28  H  4  X    0.000368  -0.018578  -0.033477  -0.012185  -0.007426
   29  H  4  Y    0.000208  -0.011792  -0.005728  -0.003177  -0.024573
   30  H  4  Z    0.000237  -0.007055  -0.014714   0.016162  -0.012852

                      6          7          8
                    0.3621     0.0262     0.0196
                     A          A          A   
    1  N  1  S    0.016108  -0.002306  -0.191994
    2  N  1  S    0.251193  -0.010323  -0.566380
    3  N  1  S    0.597192  -0.005628   0.057636
    4  N  1  X    0.153016  -0.586156   0.374119
    5  N  1  Y    0.285186   0.281018   0.721868
    6  N  1  Z    0.335088  -0.030618  -0.093053
    7  N  1  X    0.109332   0.097373   0.050626
    8  N  1  Y    0.203859  -0.061014   0.082451
    9  N  1  Z    0.269291  -0.005104   0.026780
   10  N  1 XX    0.001477   0.061121  -0.012744
   11  N  1 YY   -0.017862  -0.063819   0.009270
   12  N  1 ZZ    0.016385   0.002698   0.003474
   13  N  1 XY   -0.011559   0.037347   0.023461
   14  N  1 XZ   -0.002713   0.075988   0.018382
   15  N  1 YZ   -0.001830  -0.043168   0.023402
   16  H  2  S   -0.398448  -0.613470  -0.133832
   17  H  2  S   -0.335500  -0.366347  -0.044010
   18  H  2  X   -0.044180   0.045715  -0.021749
   19  H  2  Y   -0.031562   0.029176  -0.011413
   20  H  2  Z   -0.015033   0.018146  -0.013474
   21  H  3  S   -0.239257  -0.015247   0.891994
   22  H  3  S   -0.079817  -0.006262   0.142987
   23  H  3  X   -0.002086   0.011778   0.037556
   24  H  3  Y   -0.003829  -0.006189   0.067459
   25  H  3  Z    0.021166  -0.000195  -0.015756
   26  H  4  S   -0.341061   0.672110  -0.092358
   27  H  4  S   -0.264537   0.362150  -0.022330
   28  H  4  X   -0.004223  -0.008091  -0.000625
   29  H  4  Y   -0.057268  -0.050649  -0.028115
   30  H  4  Z   -0.015443  -0.018661  -0.012973

          ------------------------
          MCSCF OPTIMIZED ORBITALS
          ------------------------

                      1          2          3          4          5
                  -16.0092     0.0000     0.0000     0.0000     0.0000
                     A          A          A          A          A   
    1  N  1  S    1.000954   0.008504   0.011267   0.016271  -0.017513
    2  N  1  S   -0.002735   0.414697  -0.004922   0.000688  -0.199808
    3  N  1  S   -0.007121   0.315477  -0.038630  -0.050502  -0.242265
    4  N  1  X    0.001060   0.003524   0.447178  -0.118983  -0.038953
    5  N  1  Y    0.001870   0.004263  -0.005320   0.396215  -0.064345
    6  N  1  Z    0.000667   0.062260  -0.007473  -0.006452   0.595016
    7  N  1  X    0.000188  -0.001774   0.318297  -0.157343  -0.043201
    8  N  1  Y    0.000378  -0.002387  -0.079844   0.216059  -0.066323
    9  N  1  Z   -0.000416   0.016379  -0.020224  -0.028168   0.385926
   10  N  1 XX   -0.000081  -0.002273   0.016599  -0.010013  -0.008759
   11  N  1 YY    0.000295   0.005378  -0.017532   0.009142  -0.002634
   12  N  1 ZZ   -0.000214  -0.003105   0.000933   0.000871   0.011393
   13  N  1 XY    0.000362   0.006754   0.006821  -0.010292   0.004816
   14  N  1 XZ    0.000046   0.002122   0.021730  -0.011354   0.002973
   15  N  1 YZ    0.000083   0.003155  -0.005797   0.014780   0.006284
   16  H  2  S   -0.000021   0.193141  -0.075326   0.371791   0.125240
   17  H  2  S    0.000370   0.025004  -0.118348   0.128952   0.023275
   18  H  2  X    0.000005   0.004298   0.026652  -0.006221   0.001146
   19  H  2  Y    0.000399  -0.026297   0.003704  -0.031935  -0.018070
   20  H  2  Z    0.000222  -0.008917   0.003866  -0.019008   0.012456
   21  H  3  S   -0.003489   0.199103  -0.270945  -0.350802   0.104486
   22  H  3  S    0.000552   0.005289  -0.035698  -0.042980   0.018793
   23  H  3  X   -0.000480   0.015219   0.000773  -0.029432   0.004710
   24  H  3  Y   -0.000891   0.027726  -0.033205  -0.027846   0.009292
   25  H  3  Z    0.000277  -0.003682   0.005901   0.007528   0.016997
   26  H  4  S   -0.000056   0.195000   0.384395   0.015913   0.125546
   27  H  4  S    0.000382   0.021304   0.145566  -0.076771   0.023935
   28  H  4  X    0.000368  -0.026114  -0.022071  -0.014350  -0.017533
   29  H  4  Y    0.000208  -0.009213  -0.027167   0.020846  -0.007620
   30  H  4  Z    0.000237  -0.010064  -0.021608  -0.000529   0.012296

                      6          7          8          9         10
                    0.0000     0.0000     0.0000     0.1508     0.2100
                     A          A          A          A          A   
    1  N  1  S    0.072592  -0.113890  -0.135742   0.043418   0.036462
    2  N  1  S    0.443972  -0.297875  -0.350071   0.078700   0.036220
    3  N  1  S    0.588882   0.143130   0.189385  -0.718445  -0.440770
    4  N  1  X    0.040672   0.785973  -0.109564   0.036969  -0.092791
    5  N  1  Y    0.038632   0.268728   0.835609   0.050970  -0.172833
    6  N  1  Z    0.333082   0.002503  -0.022128   0.067775  -0.021422
    7  N  1  X    0.080651   0.026924   0.091402   0.001370   0.402725
    8  N  1  Y    0.170425   0.116190   0.104967   0.068729   0.704986
    9  N  1  Z    0.239540   0.051556   0.069162  -0.027684   0.024266
   10  N  1 XX    0.003168  -0.052278   0.029016   0.019801   0.010811
   11  N  1 YY   -0.017081   0.049746  -0.037071  -0.067871  -0.044944
   12  N  1 ZZ    0.013913   0.002532   0.008055   0.048070   0.034133
   13  N  1 XY   -0.018822  -0.015088   0.036904  -0.086961  -0.044603
   14  N  1 XZ   -0.010845  -0.044607   0.059711  -0.021462   0.038981
   15  N  1 YZ   -0.007710   0.046439  -0.009439  -0.030872   0.067560
   16  H  2  S   -0.326330   0.302582  -0.545296  -0.510510   0.296912
   17  H  2  S   -0.296538   0.180275  -0.331124   0.546794  -0.632858
   18  H  2  X   -0.037977  -0.052345   0.000921  -0.061089   0.036562
   19  H  2  Y   -0.027806  -0.033084  -0.001145  -0.032030   0.037041
   20  H  2  Z   -0.011459  -0.024276  -0.004809  -0.003753   0.057007
   21  H  3  S   -0.459609   0.498713   0.549295  -0.469409  -0.435635
   22  H  3  S   -0.115981   0.076650   0.076480   0.865075   1.796379
   23  H  3  X   -0.011599   0.014913   0.030675   0.041489   0.064732
   24  H  3  Y   -0.019549   0.042161   0.042291   0.071889   0.121398
   25  H  3  Z    0.023590  -0.006095  -0.006248   0.026489  -0.051008
   26  H  4  S   -0.328954  -0.583656   0.268030  -0.519975   0.302057
   27  H  4  S   -0.260935  -0.316142   0.137108   0.723482  -0.732768
   28  H  4  X   -0.003218   0.002809  -0.007249  -0.006830   0.017284
   29  H  4  Y   -0.044992   0.007941  -0.063390  -0.070005   0.046657
   30  H  4  Z   -0.010555   0.000288  -0.024831  -0.005136   0.055959

                     11         12         13         14         15
                    0.3074     0.5637     0.5962     0.6610     0.8860
                     A          A          A          A          A   
    1  N  1  S   -0.003645   0.054149  -0.005586   0.013168  -0.688599
    2  N  1  S   -0.006489   0.060974   0.000149   0.067956  -1.527681
    3  N  1  S    0.013845  -0.605701   0.068218  -0.006114   2.595877
    4  N  1  X   -0.048772  -0.173546  -0.682245  -0.089592  -0.108102
    5  N  1  Y    0.037592  -0.200574   0.368049  -0.305814  -0.222128
    6  N  1  Z    0.000172   0.706235  -0.079206  -0.564194   0.084900
    7  N  1  X    0.417496   0.523287   1.197320   0.642222   0.174695
    8  N  1  Y   -0.270991   0.793010  -0.571558   1.374575   0.325786
    9  N  1  Z    0.015073  -0.778112   0.137641   0.895688   0.099121
   10  N  1 XX    0.064299   0.014931  -0.043226   0.018443  -0.002999
   11  N  1 YY   -0.066893   0.011819   0.042781   0.024388  -0.024866
   12  N  1 ZZ    0.002593  -0.026750   0.000445  -0.042831   0.027864
   13  N  1 XY    0.039878   0.000706  -0.031387   0.024156  -0.033460
   14  N  1 XZ    0.049015  -0.024097  -0.009515  -0.041787  -0.007481
   15  N  1 YZ   -0.029336  -0.043532   0.001795  -0.081280  -0.021375
   16  H  2  S   -0.603824  -0.101778   0.305354  -0.368928  -0.068897
   17  H  2  S    2.501108   0.040243   0.711638  -0.350168  -0.422157
   18  H  2  X    0.153511   0.041937  -0.087672   0.056170  -0.116167
   19  H  2  Y   -0.098907   0.056786  -0.011058   0.224484   0.127413
   20  H  2  Z   -0.000657  -0.173291  -0.034873  -0.072009   0.167233
   21  H  3  S   -0.021543   0.523966  -0.004421   0.509819  -0.155748
   22  H  3  S    0.004230   0.461975   0.027318   0.514005  -0.545452
   23  H  3  X   -0.028354   0.068403   0.075627   0.042323  -0.039224
   24  H  3  Y    0.012851   0.129409  -0.040686   0.096874  -0.101082
   25  H  3  Z    0.001236   0.057128   0.009499   0.146078   0.159292
   26  H  4  S    0.560400  -0.111261  -0.390726  -0.305647  -0.076887
   27  H  4  S   -2.456349  -0.031077  -0.774536  -0.243002  -0.397199
   28  H  4  X    0.158837   0.038402  -0.003629   0.181033   0.159898
   29  H  4  Y   -0.098314   0.063971   0.096942   0.138593  -0.038504
   30  H  4  Z    0.006739  -0.166722   0.052350  -0.073125   0.178880

                     16         17         18         19         20
                    1.1092     1.1560     1.1629     1.3868     1.4817
                     A          A          A          A          A   
    1  N  1  S    0.207303  -0.006314   0.028138   0.023251  -0.340341
    2  N  1  S    0.434866  -0.045011   0.020514   0.049452  -0.773044
    3  N  1  S   -0.968465  -0.114643  -0.315032  -0.083461   0.804800
    4  N  1  X   -0.106986   0.028908  -0.171941  -0.033071  -0.131680
    5  N  1  Y   -0.250592  -0.137720  -0.143069   0.029725  -0.233852
    6  N  1  Z    0.048692  -0.064686  -0.069110   0.000603  -0.196888
    7  N  1  X    0.631115  -0.297003   0.476790  -0.002662   0.244827
    8  N  1  Y    1.315040   0.192389   0.250177  -0.046902   0.371822
    9  N  1  Z   -0.275171   0.196264   0.168465  -0.037925   0.501175
   10  N  1 XX   -0.155086  -0.043229   0.226208  -0.019293  -0.165835
   11  N  1 YY   -0.020704   0.207723  -0.088250   0.010291   0.032125
   12  N  1 ZZ    0.175789  -0.164495  -0.137958   0.009003   0.133710
   13  N  1 XY    0.020654  -0.173615   0.037728  -0.008036   0.185838
   14  N  1 XZ    0.034618   0.158997  -0.048001   0.386947   0.017789
   15  N  1 YZ    0.001288   0.016751   0.149814  -0.227408   0.039417
   16  H  2  S   -0.301886  -0.080490   0.166739   0.211391  -0.542475
   17  H  2  S   -0.069387  -0.069828   0.017581  -0.132884   0.110652
   18  H  2  X   -0.120317  -0.261283  -0.311273   0.226008   0.364192
   19  H  2  Y   -0.235628  -0.088243   0.006494   0.493529  -0.270712
   20  H  2  Z    0.421822  -0.362561   0.079230  -0.421300  -0.209443
   21  H  3  S    0.842301  -0.000938   0.229013  -0.001271  -0.081106
   22  H  3  S    0.544182   0.031583   0.169305   0.000729  -0.011091
   23  H  3  X    0.125177   0.492301  -0.462740  -0.148509   0.010040
   24  H  3  Y   -0.040124  -0.309784   0.194064   0.082838   0.086393
   25  H  3  Z   -0.084030  -0.365541  -0.447003   0.029383  -0.470687
   26  H  4  S   -0.180438   0.255977  -0.114718  -0.121511  -0.547908
   27  H  4  S   -0.016421   0.058931  -0.078624   0.138934   0.068128
   28  H  4  X   -0.132520   0.184391   0.056649  -0.302959  -0.431442
   29  H  4  Y   -0.172882  -0.145496  -0.359632  -0.492131   0.155685
   30  H  4  Z    0.515666  -0.003990  -0.225020   0.412576  -0.088625

                     21         22         23         24         25
                    1.6077     1.6440     1.8519     1.9021     2.0478
                     A          A          A          A          A   
    1  N  1  S   -0.020940  -0.092689  -0.017416  -0.144688  -0.005406
    2  N  1  S   -0.040896  -0.067596   0.004911  -0.323743  -0.003609
    3  N  1  S    0.079168   1.052083   0.179622  -0.288948   0.102771
    4  N  1  X   -0.081045   0.093381   0.115012   0.258101   0.040161
    5  N  1  Y    0.012206   0.150966   0.208886   0.471579  -0.045062
    6  N  1  Z   -0.000481   0.227494   0.061306  -0.021262   0.010978
    7  N  1  X   -0.305815   0.389784  -0.031926   0.110414   0.380612
    8  N  1  Y    0.315333   0.642782   0.000598   0.156374  -0.204688
    9  N  1  Z    0.052880   0.518984   0.223522  -0.095413   0.051463
   10  N  1 XX    0.147984   0.156015  -0.582226   0.105563  -0.290290
   11  N  1 YY   -0.129055  -0.000829  -0.180264   0.239867   0.259471
   12  N  1 ZZ   -0.018929  -0.155185   0.762490  -0.345430   0.030819
   13  N  1 XY    0.073261  -0.161225   0.403702   0.119807  -0.210851
   14  N  1 XZ    0.267913  -0.075116  -0.016029  -0.059655   0.700858
   15  N  1 YZ   -0.152974  -0.069313  -0.019182  -0.208830  -0.385231
   16  H  2  S    0.056453  -0.361645   0.097521   0.040655   0.017048
   17  H  2  S   -0.439163  -0.297305  -0.166562  -0.065157   0.290543
   18  H  2  X    0.156815   0.330834  -0.156674  -0.078424  -0.272210
   19  H  2  Y    0.262774   0.486713   0.352305   0.019245  -0.394347
   20  H  2  Z    0.671118   0.221461  -0.040552   0.249450   0.173798
   21  H  3  S    0.042019   0.116529  -0.076709   0.076867  -0.025344
   22  H  3  S    0.006188   0.026725   0.065072   0.448649  -0.026201
   23  H  3  X    0.436445  -0.172194   0.099944   0.483085  -0.548469
   24  H  3  Y   -0.273140  -0.246512   0.102961   0.930194   0.224328
   25  H  3  Z   -0.067836  -0.677093  -0.333921  -0.209958  -0.025887
   26  H  4  S   -0.196019  -0.366186   0.111349   0.039601  -0.086678
   27  H  4  S    0.424464  -0.324878  -0.128563  -0.104337  -0.306553
   28  H  4  X   -0.195597   0.263825   0.375404   0.067923   0.235199
   29  H  4  Y   -0.193840   0.471303   0.027772  -0.017768   0.489075
   30  H  4  Z   -0.647379   0.346525  -0.103491   0.209689  -0.190338

                     26         27         28         29
                    2.4244     2.5379     2.7537     2.9003
                     A          A          A          A   
    1  N  1  S   -0.000581  -0.149457   0.015854  -0.094449
    2  N  1  S   -0.005420  -0.263707   0.008771  -0.024231
    3  N  1  S   -0.049774   0.216290  -0.269036   2.069881
    4  N  1  X    0.009682   0.174591  -0.130291  -0.191171
    5  N  1  Y    0.007547   0.323719   0.087681  -0.315048
    6  N  1  Z   -0.007981   0.001695  -0.035742   0.203966
    7  N  1  X   -0.132756   0.672991  -0.256925  -0.185424
    8  N  1  Y    0.129557   1.208113   0.087162  -0.304870
    9  N  1  Z   -0.011207   0.212071  -0.060962   0.302900
   10  N  1 XX   -0.507322   0.035413  -0.651085  -0.311573
   11  N  1 YY    0.491572  -0.113523   0.583453   1.018178
   12  N  1 ZZ    0.015750   0.078110   0.067631  -0.706604
   13  N  1 XY   -0.363587  -0.168220  -0.585538   1.017826
   14  N  1 XZ   -0.158120   0.604101  -0.356894   0.100151
   15  N  1 YZ    0.134342   1.082855   0.073494   0.237143
   16  H  2  S    0.786944  -0.619701  -1.227495  -0.501381
   17  H  2  S    0.111847  -0.257334  -0.354531  -0.167033
   18  H  2  X    1.239054   0.069922  -0.684626  -0.042480
   19  H  2  Y   -0.294123   0.496311   0.969701   0.504823
   20  H  2  Z    0.280581   0.165432   0.265809   0.317836
   21  H  3  S    0.044386   0.886108   0.098867  -1.412069
   22  H  3  S    0.029087   0.420552   0.022653  -0.410547
   23  H  3  X   -0.179664   0.335038  -0.212934  -0.568291
   24  H  3  Y    0.151651   0.655638   0.216897  -0.981587
   25  H  3  Z    0.015422   0.243516  -0.051877   0.392966
   26  H  4  S   -0.788420  -0.429133   1.399772  -0.190484
   27  H  4  S   -0.117812  -0.189671   0.421044  -0.104033
   28  H  4  X    0.837563   0.198233  -1.285468   0.172870
   29  H  4  Y   -0.970519   0.368810   0.071608   0.196127
   30  H  4  Z   -0.251654   0.162660  -0.408181   0.221134
 .....DONE WITH MCSCF ITERATIONS.....
 CPU     0: STEP CPU TIME=    12.03 TOTAL CPU TIME=         13.1 (      0.2 MIN)
 TOTAL WALL CLOCK TIME=         13.1 SECONDS, CPU UTILIZATION IS    99.92%

     ----------------------------------------------------------------
     PROPERTY VALUES FOR THE MCSCF SELF-CONSISTENT FIELD WAVEFUNCTION
     ----------------------------------------------------------------

          -----------------
          ENERGY COMPONENTS
          -----------------

         WAVEFUNCTION NORMALIZATION =       1.0000000000

                ONE ELECTRON ENERGY =     -92.8310202312
                TWO ELECTRON ENERGY =      26.4562052603
           NUCLEAR REPULSION ENERGY =      10.7171831315
                                      ------------------
                       TOTAL ENERGY =     -55.6576318394

 ELECTRON-ELECTRON POTENTIAL ENERGY =      26.4562052603
  NUCLEUS-ELECTRON POTENTIAL ENERGY =    -148.5579028206
   NUCLEUS-NUCLEUS POTENTIAL ENERGY =      10.7171831315
                                      ------------------
             TOTAL POTENTIAL ENERGY =    -111.3845144288
               TOTAL KINETIC ENERGY =      55.7268825894
                 VIRIAL RATIO (V/T) =       1.9987573188

          ---------------------------------------
          MULLIKEN AND LOWDIN POPULATION ANALYSES
          ---------------------------------------

     ATOMIC MULLIKEN POPULATION IN EACH MOLECULAR ORBITAL

                      1          2          3          4          5

                  2.000000   1.983539   1.965564   1.328743   1.314274

    1             2.000434   1.476197   0.826087   1.238973   1.133775
    2             0.000006   0.069400   0.435027   0.024529   0.083362
    3            -0.000443   0.358463   0.266287   0.042689   0.006935
    4             0.000002   0.079478   0.438163   0.022552   0.090203

                      6          7          8

                  0.362059   0.026193   0.019627

    1             0.120369   0.008952   0.009832
    2             0.120750   0.007967   0.000281
    3             0.026983  -0.000022   0.009343
    4             0.093958   0.009296   0.000172
 WARNING! MCSCF POPULATIONS SHOWN ABOVE ARE FOR THE NATURAL ORBITALS.
 IGNORE THE ABOVE DATA FOR MCSCF FUNCTIONS WHICH ARE NOT OF -FORS- TYPE.
 THE FOLLOWING POPULATIONS ARE CORRECT FOR ANY MCSCF WAVEFUNCTION.

               ----- POPULATIONS IN EACH AO -----
                             MULLIKEN      LOWDIN
              1  N  1  S      2.00206     1.90578
              2  N  1  S      0.84103     0.60644
              3  N  1  S      0.72071     0.42217
              4  N  1  X      0.71430     0.65794
              5  N  1  Y      0.71469     0.63054
              6  N  1  Z      0.71983     0.67825
              7  N  1  X      0.38029     0.43653
              8  N  1  Y      0.29062     0.42515
              9  N  1  Z      0.41995     0.44875
             10  N  1 XX      0.00068     0.16122
             11  N  1 YY      0.00225     0.18348
             12  N  1 ZZ      0.00260     0.15243
             13  N  1 XY      0.00211     0.00997
             14  N  1 XZ      0.00348     0.00458
             15  N  1 YZ      0.00000     0.01029
             16  H  2  S      0.57935     0.42945
             17  H  2  S      0.10615     0.18740
             18  H  2  X      0.01422     0.04689
             19  H  2  Y      0.03167     0.06171
             20  H  2  Z      0.00994     0.02272
             21  H  3  S      0.62398     0.48633
             22  H  3  S      0.03267     0.16331
             23  H  3  X      0.01410     0.03500
             24  H  3  Y      0.03144     0.06384
             25  H  3  Z      0.00803     0.02454
             26  H  4  S      0.58223     0.42981
             27  H  4  S      0.09376     0.18201
             28  H  4  X      0.02784     0.05925
             29  H  4  Y      0.01914     0.05013
             30  H  4  Z      0.01086     0.02409

          ----- MULLIKEN ATOMIC OVERLAP POPULATIONS -----
          (OFF-DIAGONAL ELEMENTS NEED TO BE MULTIPLIED BY 2)

             1           2           3           4

    1    6.3907723
    2    0.0386709   0.5272503
    3    0.3158801   0.0019250   0.3918018
    4    0.0692962   0.1734752   0.0006284   0.4904242

          TOTAL MULLIKEN AND LOWDIN ATOMIC POPULATIONS
       ATOM         MULL.POP.    CHARGE          LOW.POP.     CHARGE
    1 N             6.814619    0.185381         6.733532    0.266468
    2 H             0.741321    0.258679         0.748165    0.251835
    3 H             0.710235    0.289765         0.773015    0.226985
    4 H             0.733824    0.266176         0.745289    0.254711

          MULLIKEN SPHERICAL HARMONIC POPULATIONS
       ATOM           S       P       D      F      G      H      I    TOTAL
    1 N             3.56    3.24    0.01   0.00   0.00   0.00   0.00    6.81
    2 H             0.69    0.06    0.00   0.00   0.00   0.00   0.00    0.74
    3 H             0.66    0.05    0.00   0.00   0.00   0.00   0.00    0.71
    4 H             0.68    0.06    0.00   0.00   0.00   0.00   0.00    0.73

          ---------------------
          ELECTROSTATIC MOMENTS
          ---------------------

 POINT   1           X           Y           Z (BOHR)    CHARGE
                 0.000003    0.000006   -0.177185        1.00 (A.U.)
         DX          DY          DZ         /D/  (DEBYE)
     0.460362    0.652727    1.564932    1.756985
 ...... END OF PROPERTY EVALUATION ......
 CPU     0: STEP CPU TIME=     0.00 TOTAL CPU TIME=         13.1 (      0.2 MIN)
 TOTAL WALL CLOCK TIME=         13.1 SECONDS, CPU UTILIZATION IS    99.92%

     -------------------------------------------------
     GMC-PT/GMC-QDPT or general MCSCF input parameters
     -------------------------------------------------
 # of frozen core orbs. =         0 ->         0
 # of doubly occ. orbs. =         1
 # of active      orbs. =         7
 # of virtual     orbs. =        21
 # of active electrons  =         7
 # of states in CI      =         3
 Highest state in CI    =         3
 kstate =  1 1 1
 avecoe =  0.333 0.333 0.333
 State symmetry           = A           
 Assigned symmetry number = 1

 <<<Act. MO sym.: 1111111

 <<<Division of 1-ext.:  0
 <<<Division of 2-ext.:  0

     ------------------------
     Orbital canonicalization
     ------------------------

 MOs are canonicalized for core, virtual, and invariant-active orbital spaces.
 This is a part of the GMC-QDPT calculation.
 SCHWARZ INEQUALITY OVERHEAD:       465 INTEGRALS, T=        0.00
 DIRECT TRANSFORMATION SKIPS AO INTEGRAL STORAGE ON DISK.

 Averaged energy =     -55.657631839

 State #    1  Energy =     -55.749449276  S =  0.500
 State #    2  Energy =     -55.710976735  S =  0.500
 State #    3  Energy =     -55.512469507  S =  0.500

 Orbital energies for filled orbital space
  -16.009214
 Orbital energies for active orbital space
   -1.484702  -0.668924  -1.106790  -0.673195  -0.238630
    0.193656   0.405686
 Orbital energies for external orbital space
    0.150820   0.210033   0.307406   0.563668   0.596193
    0.660996   0.885957   1.109154   1.156009   1.162869
    1.386815   1.481718   1.607711   1.644046   1.851856
    1.902084   2.047829   2.424422   2.537930   2.753734
    2.900302

 Zero values mean non-canonical orbitals.
 ... done with orbital canonicalization ...
 CPU     0: STEP CPU TIME=     0.57 TOTAL CPU TIME=         13.7 (      0.2 MIN)
 TOTAL WALL CLOCK TIME=         13.7 SECONDS, CPU UTILIZATION IS    99.85%

     --------------------------------------------
     PARTIAL TWO ELECTRON INTEGRAL TRANSFORMATION
     --------------------------------------------

 NUMBER OF CORE MOLECULAR ORBITALS     =    0
 NUMBER OF OCCUPIED MOLECULAR ORBITALS =    8
 TOTAL NUMBER OF MOLECULAR ORBITALS    =   29
 TOTAL NUMBER OF ATOMIC ORBITALS       =   30
 THRESHOLD FOR KEEPING TRANSFORMED 2E- INTEGRALS = 1.000E-09
 AO INTEGRALS WILL BE CALCULATED IN DIRECT MODE...
 DIRECT TRANSFORMATION SKIPS AO INTEGRAL STORAGE ON DISK.
 SCHWARZ INEQUALITY OVERHEAD:       465 INTEGRALS, T=        0.01

 PLAN A: REQUIREMENTS FOR FULLY IN-MEMORY TRANSFORMATION:
 # OF WORDS AVAILABLE =            100000000
 # OF WORDS NEEDED    =               221798

 PARALLEL ONLY WORKS WITH THE SEGMENTED ALGORITHM.
 ADJUSTING MEMORY TO USE SEGMENTED ALGORITHM.


 PLAN B: REQUIREMENTS FOR THE SEGMENTED TRANSFORMATION:
       MINIMUM=         124148 WORDS FOR 1 MOLECULAR ORBITAL PER PASS
       MAXIMUM=         221798 WORDS FOR ALL MOLECULAR ORBITALS IN 1 PASS
              (          13950 EXTRA WORDS INCLUDES 1 EXTRA ORBITAL/PASS)
 THIS RUN USES=         221798 WORDS,
 DISTRIBUTING   1 PASSES EACH CONTAINING     8 ORBITALS OVER   1 PROCESSORS.

 CHOOSING SEGMENTED PARTIAL TRANSFORMATION...
 DIRECT TRANSFORMATION SKIPS AO INTEGRAL STORAGE ON DISK.
 PASS #   1 TOOK        0.04 SECONDS.
 TOTAL NUMBER OF TRANSFORMED 2E- INTEGRALS KEPT =        29226
 ... END OF INTEGRAL TRANSFORMATION ...
 CPU     0: STEP CPU TIME=     0.05 TOTAL CPU TIME=         13.7 (      0.2 MIN)
 TOTAL WALL CLOCK TIME=         13.8 SECONDS, CPU UTILIZATION IS    99.85%

     --------     ------------------------------------------
     GMC-QDPT     Program written by H.Nakano (Kyushu Univ.)
     --------     ------------------------------------------

 *** Reference space

 Reference type: ORMAS (= Occupation restricted multiple active space)
 # of orbitals          =  7
 # of minimum electrons =  7
 # of maximum electrons =  7
 State symmetry    =    1 (input)
 2*Sz              =    1 (input)
 Spin multiplicity =    2 (input)
 Dimension of reference space =      1225  (from      3432 walks)

 Dimension of reference space =      1225  (from      1225 walks)

 <<<Ionized spaces for Ref-CI:
      0:         1225 /   -1-0:         1960 /  0-1-0:         2891

 ***                    ***
 *** Reference space CI ***
 ***                    ***

 Converged after   24 iterations

 Reference wavefunctions:

 State #    1  Energy =     -55.749449276  S =  0.500

      Det      Coef    Occupancy (Ignoring core)
      ---      ----    --------- --------- -----
        1    0.638966  11110001110000
       71   -0.735775  11110001011000
      106    0.056308  11110000111000
      391    0.059290  11100101010010
      393    0.053414  10110101010010

 State #    2  Energy =     -55.710976735  S =  0.500

      Det      Coef    Occupancy (Ignoring core)
      ---      ----    --------- --------- -----
        1   -0.737000  11110001110000
       71   -0.641129  11110001011000

 State #    3  Energy =     -55.512469507  S =  0.500

      Det      Coef    Occupancy (Ignoring core)
      ---      ----    --------- --------- -----
        4   -0.331742  10111001110000
       72    0.452895  11101001011000
      176    0.784637  11110001010100
      178   -0.060141  11011001010100
      181   -0.074743  11100101010100
      183   -0.073642  10110101010100

 Davidson method: CPU/Wall time =           0.37 /           0.38 sec.

 Oscillator strength (invalid if E(1)/=E(GS)):
 -----------------------------------------
   State                        f
 -----------------------------------------
     2     F(REF-CI)=        0.0002351642
     3     F(REF-CI)=        0.0036491762
 -----------------------------------------

 Dipole moment matrix elements, x, y, z, in A.U.

 Dimension of ionized spaces for PT:
 (N-2) space:         1715 /  (N-1) space:         2842 /  N space:         2891
 (N+1) space:         2842 /  (N+2) space:         1715

 <<<Ionized spaces for internal:
         0:         1225 /      -1-0:         1960 /     0-1-0:         2891
  -1-0-1-0:         2842 / 0-1-0-1-0:         3381

 Diagonal elements of averaged one-particle density matrix:
       2       3       4       5       6       7       8
  0.9926  0.9492  0.9833  0.9163  0.1298  0.0183  0.0104
  0.9879  0.3727  0.9833  0.4049  0.2322  0.0093  0.0098

 Orbital energies:
 -------- Doubly-occupied orbitals (highest several orbs.) -------
             1
 -1.600921D+01
 -------- Active orbitals ----------------------------------------
             2            3            4            5            6
 -1.484702D+00-6.689240D-01-1.106790D+00-6.731952D-01-2.386297D-01
             7            8
  1.936558D-01 4.056865D-01
 -------- External orbitals (lowest several orbs.) ---------------
             9           10           11           12           13
  1.508201D-01 2.100326D-01 3.074058D-01 5.636681D-01 5.961928D-01
            14           15           16           17           18
  6.609962D-01 8.859570D-01 1.109154D+00 1.156009D+00 1.162869D+00

 *** Quasi-degeneracy checking

 === Det (|Ci| > 1.0D-01 and dE < 5.0D-03)

 # of small denominators (single excitations)
 State       dEmin  dE < 5.0D-03  dE < 5.0D-04  dE < 5.0D-05  dE < 5.0D-06
 ----- ----------- ------------- ------------- ------------- -------------
     1    5.00D-03             0             0             0             0
     2    5.00D-03             0             0             0             0
     3    5.00D-03             0             0             0             0

 # of small denominators (double excitations)
 State       dEmin  dE < 5.0D-03  dE < 5.0D-04  dE < 5.0D-05  dE < 5.0D-06
 ----- ----------- ------------- ------------- ------------- -------------
     1    5.00D-03             0             0             0             0
     2    5.00D-03             0             0             0             0
     3    5.00D-03             0             0             0             0

 *** Zeroth-Order Setup (Granovsky's zeroth-order vectors)
 Zeroth-order effective Hamiltonian
  (= Sum_i e(i)*<I|a+(i)a(i)|J> ):
                   1            2            3
     1 -7.100650D+00
     2 -2.868242D-03-7.111216D+00
     3 -5.550185D-03 2.519001D-02-6.678555D+00

 Zeroth-order vectors:
 State #    1
       MC st            1           2           3
       Coeff    9.798D-01  -1.986D-01   2.476D-02
 State #    2
       MC st            2           1           3
       Coeff   -9.784D-01  -1.997D-01   5.415D-02
 State #    3
       MC st            3           2           1
       Coeff    9.982D-01   5.800D-02  -1.347D-02

 *** GMC-QDPT computation

 (Integral reading:  CPU/Wall time =           0.00 /           0.00 sec.)

 One-external:
   0 -ionized terms: CPU/Wall time =           0.03 /           0.03 sec.
 (-1)-ionized terms: CPU/Wall time =           0.08 /           0.09 sec.
 (+1)-ionized terms: CPU/Wall time =           0.03 /           0.02 sec.
 (+1)-ionized terms: CPU/Wall time =           0.00 /           0.01 sec.
 (+2)-ionized terms: CPU/Wall time =           0.01 /           0.00 sec.

 Internal:
 # of macro loops for internal contribution =         1 (input)
 Loop:    1
 Dimension of internal CISD space     =         0  (after screening)
 Space construction: CPU/Wall time =           0.01 /           0.02 sec.
 Internal terms:     CPU/Wall time =           0.00 /           0.00 sec.

 Two-external:
   0 -ionized terms: CPU/Wall time =           0.06 /           0.06 sec.
 (-1)-ionized terms: CPU/Wall time =           1.00 /           1.00 sec.
 (-2)-ionized terms: CPU/Wall time =           0.17 /           0.17 sec.

 Total time:         CPU/Wall time =           1.39 /           1.40 sec.

 ***                  ***
 *** GMC-QDPT Results ***
 ***                  ***

 Diagonal elements of effective Hamiltonian:
 Heff(  1) =   -55.85473098
 Heff(  2) =   -55.82988173
 Heff(  3) =   -55.63664044

 Off-diagonal elements of effective Hamiltonian:
                   1            2
     2  5.974353D-03
     3  4.103959D-03 7.239194D-03

 ******** GMC-QDPT energies ********
 ----------------------------------------------------------------------------
   State                        1st order                           2nd order
 ----------------------------------------------------------------------------
     1     E(REF-CI)=      -55.7494492763   E(GMC-QDPT2)=      -55.8561190934
     2     E(REF-CI)=      -55.7109767349   E(GMC-QDPT2)=      -55.8288501148
     3     E(REF-CI)=      -55.5124695072   E(GMC-QDPT2)=      -55.6362839469
 ----------------------------------------------------------------------------

 Excitation energies (invalid if E(1)/=E(GS)):
 ----------------------------------------------------------------------------
   State                        1st order                           2nd order
 ----------------------------------------------------------------------------

     TZ Sorted GMC-PT ENERGIES:
         1      -55.8561190934
         2      -55.8288501148
         3      -55.6362839469
     2     E(REF-CI)=        1.0468917 eV   E(GMC-QDPT2)=        0.7420271 eV
     3     E(REF-CI)=        6.4485513 eV   E(GMC-QDPT2)=        5.9820221 eV
 ----------------------------------------------------------------------------

 Main characters of perturbed GMC-QDPT states:

 State #    1  Energy =     -55.856119093  S =  0.500

      Det      Coef    Occupancy (Ignoring core)
      ---      ----    --------- --------- -----
        1    0.624190  11110001110000
       71   -0.748389  11110001011000
      106    0.056214  11110000111000
      391    0.059481  11100101010010
      393    0.053124  10110101010010

 State #    2  Energy =     -55.828850115  S =  0.500

      Det      Coef    Occupancy (Ignoring core)
      ---      ----    --------- --------- -----
        1   -0.750150  11110001110000
       71   -0.626602  11110001011000

 State #    3  Energy =     -55.636283947  S =  0.500

      Det      Coef    Occupancy (Ignoring core)
      ---      ----    --------- --------- -----
        4   -0.331921  10111001110000
       72    0.453124  11101001011000
      176    0.785044  11110001010100
      178   -0.060599  11011001010100
      181   -0.075108  11100101010100
      183   -0.073982  10110101010100

 <<<Max |V/de| = 7.224D-02  Thresh = 1.000D+00

 Oscillator strength (invalid if E(1)/=E(GS)):
 ----------------------------------------------------------------------------
   State                        1st order                           2nd order
 ----------------------------------------------------------------------------
     2     F(REF-CI)=        0.0002351642     F(GMC-PT2)=        0.0001813870
     3     F(REF-CI)=        0.0036491762     F(GMC-PT2)=        0.0033231700
 ----------------------------------------------------------------------------

 Dipole moment matrix elements, x, y, z, in A.U.
States    1    1        0.2578454223        0.4581134767        0.6472669124
States    1    2       -0.0825732572        0.0428026244       -0.0364314001
States    1    3        0.1303223538       -0.0733539559        0.0176139127
States    2    1       -0.0825732572        0.0428026244       -0.0364314001
States    2    2        0.2769942988        0.3957814107        0.2658276239
States    2    3        0.1020428234        0.1911504435        0.1423708877
States    3    1        0.1303223538       -0.0733539559        0.0176139127
States    3    2        0.1020428234        0.1911504435        0.1423708877
States    3    3        0.4910672756        0.8863163891        1.0522571278

 Oscillator strength (valid only when positive): 
 ----------------------------------------------------------------------------
  States                        1st order                           2nd order
 ----------------------------------------------------------------------------
  1  1     F(REF-CI)=        0.0000000000     F(GMC-PT2)=        0.0000000000
  1  2     F(REF-CI)=       -0.0002351642     F(GMC-PT2)=       -0.0001813870
  1  3     F(REF-CI)=       -0.0036491762     F(GMC-PT2)=       -0.0033231700
  2  1     F(REF-CI)=        0.0002351642     F(GMC-PT2)=        0.0001813870
  2  2     F(REF-CI)=        0.0000000000     F(GMC-PT2)=        0.0000000000
  2  3     F(REF-CI)=       -0.0099411914     F(GMC-PT2)=       -0.0086296217
  3  1     F(REF-CI)=        0.0036491762     F(GMC-PT2)=        0.0033231700
  3  2     F(REF-CI)=        0.0099411914     F(GMC-PT2)=        0.0086296217
  3  3     F(REF-CI)=        0.0000000000     F(GMC-PT2)=        0.0000000000
 CPU     0: STEP CPU TIME=     1.84 TOTAL CPU TIME=         15.6 (      0.3 MIN)
 TOTAL WALL CLOCK TIME=         15.6 SECONDS, CPU UTILIZATION IS    99.87%

     !!! DIABATIZATION FOR REF CI STATES !!!

 *******************************************************
          $DMO GROUP FOUND IN THE INPUT.
        DIABATIZATION OF ADIABATIC STATES BEGINS.
     PROGRAMMED BY TAO ZENG (CARLETON UNIVERSITY).
               Email: toby.zeng@carleton.ca
     See T. Zeng, J. Chem. Phys. 2017, 146, 144103
 *******************************************************

 *************************************************************************
     STEP 1: TRANSFORMATION OF ADIABATIC STATES TO THE DMO REPRESENTATION
         See Atchity and Ruedenberg, J. Chem. Phys. 1999, 111, 2910
 *************************************************************************

Read in Diabatic Molecualr Orbitals:

                      1          2          3          4          5

    1  N  1  S    0.008609   0.000000   0.000000  -0.013219   0.279491
    2  N  1  S    0.442914  -0.000000   0.000000  -0.184329   0.867803
    3  N  1  S    0.276913   0.000000  -0.000000  -0.288315   0.144236
    4  N  1  X   -0.000000   0.493155  -0.024636  -0.000000  -0.000000
    5  N  1  Y    0.000000   0.024636   0.493155  -0.000000   0.000000
    6  N  1  Z    0.090197   0.000000   0.000000   0.593421   0.705309
    7  N  1  X   -0.000000   0.210628  -0.010522   0.000000   0.000000
    8  N  1  Y    0.000000   0.010522   0.210628  -0.000000  -0.000000
    9  N  1  Z   -0.004381   0.000000   0.000000   0.381592  -0.106092
   10  N  1 XX   -0.000457   0.010719  -0.000535  -0.012387   0.006153
   11  N  1 YY   -0.000457  -0.010719   0.000535  -0.012387   0.006153
   12  N  1 ZZ    0.000914  -0.000000   0.000000   0.024773  -0.012306
   13  N  1 XY    0.000000  -0.000618  -0.012377  -0.000000   0.000000
   14  N  1 XZ   -0.000000   0.026529  -0.001325  -0.000000   0.000000
   15  N  1 YZ    0.000000   0.001325   0.026529  -0.000000   0.000000
   16  H  2  S    0.194462  -0.176074   0.343485   0.112865  -0.523343
   17  H  2  S    0.003574  -0.023812   0.046452   0.024014  -0.054445
   18  H  2  X    0.018760   0.009101   0.022834   0.009336  -0.039151
   19  H  2  Y   -0.032493   0.022287  -0.020044  -0.016171   0.067811
   20  H  2  Z   -0.009251   0.008464  -0.016511   0.018769  -0.010566
   21  H  3  S    0.194462  -0.209430  -0.324227   0.112865  -0.523343
   22  H  3  S    0.003574  -0.028322  -0.043847   0.024014  -0.054445
   23  H  3  X    0.018760   0.006781  -0.023627   0.009336  -0.039151
   24  H  3  Y    0.032493  -0.024174  -0.017723   0.016171  -0.067811
   25  H  3  Z   -0.009251   0.010067   0.015585   0.018769  -0.010566
   26  H  4  S    0.194462   0.385503  -0.019258   0.112865  -0.523343
   27  H  4  S    0.003574   0.052134  -0.002604   0.024014  -0.054445
   28  H  4  X   -0.037519  -0.032295   0.001613  -0.018672   0.078302
   29  H  4  Y    0.000000   0.001067   0.021353  -0.000000   0.000000
   30  H  4  Z   -0.009251  -0.018530   0.000926   0.018769  -0.010566

                      6          7

    1  N  1  S    0.000000  -0.000000
    2  N  1  S    0.000000  -0.000000
    3  N  1  S   -0.000000   0.000000
    4  N  1  X   -0.930415  -0.002083
    5  N  1  Y   -0.002083   0.930415
    6  N  1  Z   -0.000000   0.000000
    7  N  1  X   -0.046866  -0.000105
    8  N  1  Y   -0.000105   0.046866
    9  N  1  Z   -0.000000   0.000000
   10  N  1 XX    0.001538   0.000003
   11  N  1 YY   -0.001538  -0.000003
   12  N  1 ZZ   -0.000000   0.000000
   13  N  1 XY   -0.000004   0.001776
   14  N  1 XZ    0.039985   0.000090
   15  N  1 YZ    0.000090  -0.039985
   16  H  2  S   -0.362630  -0.631354
   17  H  2  S   -0.065964  -0.114846
   18  H  2  X    0.002763  -0.037520
   19  H  2  Y    0.037435   0.040736
   20  H  2  Z    0.001882   0.003276
   21  H  3  S   -0.365454   0.629724
   22  H  3  S   -0.066477   0.114549
   23  H  3  X    0.002595   0.037532
   24  H  3  Y   -0.037617   0.040567
   25  H  3  Z    0.001896  -0.003268
   26  H  4  S    0.728084   0.001630
   27  H  4  S    0.132441   0.000297
   28  H  4  X   -0.062317  -0.000140
   29  H  4  Y    0.000055  -0.024345
   30  H  4  Z   -0.003778  -0.000008

NUMBER OF SUB ACTIVE SPACES:   1
ROTATE ACTIVE MOS TO DMOS IN EACH SUB-SPACE

SPACE  1:

OVERLAP BETWEEN ORTHONORMAL AND PRE-ORTHONORMAL REF. DMOS

             1           2           3           4           5

    1    0.9669908   0.0110598   0.0123573  -0.0126993  -0.0109590
    2    0.0110598   0.8723934   0.1158098   0.0281462  -0.0561440
    3    0.0123573   0.1158098   0.9809584   0.0388368  -0.0828492
    4   -0.0126993   0.0281462   0.0388368   0.9891749  -0.0134510
    5   -0.0109590  -0.0561440  -0.0828492  -0.0134510   1.2420479
    6    0.0017568  -0.0946643   0.1093649   0.0425592  -0.0615865
    7   -0.0021028  -0.1014510  -0.0164181  -0.0700054   0.1163889

             6           7

    1    0.0017568  -0.0021028
    2   -0.0946643  -0.1014510
    3    0.1093649  -0.0164181
    4    0.0425592  -0.0700054
    5   -0.0615865   0.1163889
    6    1.0465898  -0.0158239
    7   -0.0158239   1.0619877
REFERENCE DMOS AFTER ORTHONORMALIZATION:

                      1          2          3          4          5

    1  N  1  S    0.010909   0.011425   0.016574  -0.013368   0.229534
    2  N  1  S    0.462447   0.034305   0.051325  -0.181610   0.715961
    3  N  1  S    0.283528   0.009954   0.014477  -0.289935   0.120608
    4  N  1  X   -0.003878   0.473468   0.011376   0.024727  -0.022985
    5  N  1  Y   -0.005124   0.055883   0.509961   0.042907  -0.049133
    6  N  1  Z    0.107341   0.011927   0.020966   0.606135   0.579739
    7  N  1  X   -0.002256   0.247463  -0.036957  -0.003231   0.005738
    8  N  1  Y   -0.002476  -0.013809   0.220588  -0.004030   0.008697
    9  N  1  Z    0.000092  -0.014001  -0.018343   0.388909  -0.087160
   10  N  1 XX   -0.000723   0.013670  -0.001589  -0.012952   0.005515
   11  N  1 YY   -0.000480  -0.012530   0.003109  -0.012314   0.004583
   12  N  1 ZZ    0.001203  -0.001140  -0.001519   0.025266  -0.010098
   13  N  1 XY    0.000149   0.001298  -0.012999   0.000526  -0.000895
   14  N  1 XZ   -0.000363   0.037092  -0.010129  -0.002213   0.002759
   15  N  1 YZ   -0.000350  -0.006672   0.028148  -0.003434   0.004981
   16  H  2  S    0.196977  -0.402746   0.401357   0.085488  -0.377993
   17  H  2  S    0.003384  -0.059128   0.057465   0.018947  -0.036152
   18  H  2  X    0.018836   0.001766   0.019956   0.006323  -0.027009
   19  H  2  Y   -0.033383   0.042371  -0.024472  -0.015766   0.053370
   20  H  2  Z   -0.009298   0.012386  -0.020069   0.019446  -0.009563
   21  H  3  S    0.205985  -0.207451  -0.309121   0.188166  -0.524935
   22  H  3  S    0.004651  -0.026391  -0.039084   0.036586  -0.061007
   23  H  3  X    0.019453   0.013990  -0.029380   0.012658  -0.036158
   24  H  3  Y    0.033900  -0.030253  -0.015792   0.022210  -0.062526
   25  H  3  Z   -0.009687   0.008811   0.013654   0.017959  -0.007079
   26  H  4  S    0.193200   0.531859  -0.200984   0.079919  -0.381533
   27  H  4  S    0.002810   0.077006  -0.030307   0.018065  -0.036860
   28  H  4  X   -0.038010  -0.042863   0.019535  -0.016344   0.060030
   29  H  4  Y   -0.000275  -0.004527   0.022594  -0.002264   0.003346
   30  H  4  Z   -0.009174  -0.023588   0.003084   0.019595  -0.009604

                      6          7

    1  N  1  S    0.012964  -0.024475
    2  N  1  S    0.045197  -0.084778
    3  N  1  S    0.017340  -0.030336
    4  N  1  X   -0.849184   0.034932
    5  N  1  Y   -0.041292   0.896917
    6  N  1  Z    0.007845  -0.021788
    7  N  1  X   -0.017731   0.021859
    8  N  1  Y   -0.023045   0.044654
    9  N  1  Z   -0.019790   0.033273
   10  N  1 XX    0.003723  -0.000120
   11  N  1 YY   -0.002194  -0.002500
   12  N  1 ZZ   -0.001528   0.002619
   13  N  1 XY    0.001424   0.001749
   14  N  1 XZ    0.042927   0.003662
   15  N  1 YZ   -0.003611  -0.038681
   16  H  2  S   -0.459769  -0.586171
   17  H  2  S   -0.078930  -0.108861
   18  H  2  X   -0.001639  -0.031463
   19  H  2  Y    0.046536   0.035766
   20  H  2  Z    0.003773   0.006326
   21  H  3  S   -0.364960   0.633275
   22  H  3  S   -0.065200   0.112873
   23  H  3  X    0.004762   0.041130
   24  H  3  Y   -0.041020   0.042838
   25  H  3  Z    0.000050  -0.000083
   26  H  4  S    0.740385   0.107733
   27  H  4  S    0.133987   0.014400
   28  H  4  X   -0.061390  -0.012570
   29  H  4  Y   -0.002785  -0.023565
   30  H  4  Z   -0.007412   0.000002

 -------------------------------------------
       MAXIMIZING MORMO OVERLAP TERM        
 -------------------------------------------
   SWEEP    VALUE       PROGRESS
     0     4.53226
     1     6.68728     2.15501997
     2     6.76563     0.07834713
     3     6.76563     0.00000591
     4     6.76563     0.00000000
     5     6.76563     0.00000000
     6     6.76563     0.00000000
 THE ROTATION IS DONE
FLIPPING SIGN FOR ORBITAL   7
ACTIVE ORBITALS AFTER MORMO:

                      1          2          3          4          5

    1  N  1  S    0.013104   0.001338   0.004308  -0.032525   0.096451
    2  N  1  S    0.435857   0.006013   0.012008  -0.236084   0.491211
    3  N  1  S    0.335328   0.050242   0.063736  -0.199102   0.536426
    4  N  1  X   -0.005834   0.400889   0.042537   0.022510  -0.052470
    5  N  1  Y   -0.011583   0.076965   0.464668   0.033741  -0.124258
    6  N  1  Z    0.087900  -0.003620   0.002212   0.601252   0.314962
    7  N  1  X   -0.002550   0.346621  -0.108972  -0.026311   0.055815
    8  N  1  Y   -0.000229  -0.070825   0.249636  -0.037531   0.129905
    9  N  1  Z    0.033560  -0.003409  -0.010177   0.400239   0.216815
   10  N  1 XX   -0.002241   0.024465  -0.014597  -0.010055   0.005005
   11  N  1 YY    0.004647  -0.027086   0.011986  -0.002736  -0.017178
   12  N  1 ZZ   -0.002406   0.002620   0.002612   0.012792   0.012173
   13  N  1 XY    0.005836   0.012157  -0.012896   0.005438  -0.021211
   14  N  1 XZ    0.001330   0.032297  -0.015464   0.003948  -0.013851
   15  N  1 YZ    0.002487  -0.011402   0.019509   0.008914  -0.012446
   16  H  2  S    0.178326  -0.232201   0.341056   0.098150  -0.326647
   17  H  2  S    0.013666  -0.210559   0.095998  -0.000675  -0.274112
   18  H  2  X    0.002712   0.026067  -0.016427  -0.003773  -0.033584
   19  H  2  Y   -0.027064   0.005902  -0.038710  -0.022091  -0.019354
   20  H  2  Z   -0.008698   0.004385  -0.024262   0.009371  -0.006477
   21  H  3  S    0.181488  -0.214226  -0.325735   0.141393  -0.524106
   22  H  3  S    0.000458  -0.033465  -0.045124   0.022919  -0.124316
   23  H  3  X    0.014842   0.006361  -0.026703   0.006473  -0.014669
   24  H  3  Y    0.027258  -0.027256  -0.024299   0.012463  -0.024810
   25  H  3  Z   -0.002445   0.005737   0.008534   0.017384   0.023138
   26  H  4  S    0.178063   0.412346  -0.076378   0.096054  -0.336479
   27  H  4  S    0.010318   0.162226  -0.138767   0.001198  -0.244529
   28  H  4  X   -0.025889  -0.021469  -0.015437  -0.018517   0.002077
   29  H  4  Y   -0.010709  -0.041899   0.012047  -0.013622  -0.036574
   30  H  4  Z   -0.009712  -0.026289  -0.005120   0.009428  -0.005432

                      6          7

    1  N  1  S    0.074834  -0.145891
    2  N  1  S    0.167083  -0.324377
    3  N  1  S   -0.151050   0.310085
    4  N  1  X   -0.825353   0.006586
    5  N  1  Y   -0.013056   0.833306
    6  N  1  Z    0.003057  -0.031595
    7  N  1  X   -0.055611   0.067791
    8  N  1  Y   -0.063473   0.146209
    9  N  1  Z   -0.031356   0.076194
   10  N  1 XX    0.053322   0.016020
   11  N  1 YY   -0.052533  -0.024624
   12  N  1 ZZ   -0.000789   0.008604
   13  N  1 XY    0.022142   0.029106
   14  N  1 XZ    0.053876   0.043510
   15  N  1 YZ   -0.043065  -0.000933
   16  H  2  S   -0.322128  -0.519761
   17  H  2  S   -0.199762  -0.305121
   18  H  2  X    0.050222  -0.018191
   19  H  2  Y    0.026999  -0.007957
   20  H  2  Z    0.020354  -0.011275
   21  H  3  S   -0.358944   0.632660
   22  H  3  S   -0.052514   0.082372
[...]
   27  H  4  S    0.010318   0.162226  -0.138767   0.001198  -0.244529
   28  H  4  X   -0.025889  -0.021469  -0.015437  -0.018517   0.002077
   29  H  4  Y   -0.010709  -0.041899   0.012047  -0.013622  -0.036574
   30  H  4  Z   -0.009712  -0.026289  -0.005120   0.009428  -0.005432

                      6          7

    1  N  1  S    0.074834  -0.145891
    2  N  1  S    0.167083  -0.324377
    3  N  1  S   -0.151050   0.310085
    4  N  1  X   -0.825353   0.006586
    5  N  1  Y   -0.013056   0.833306
    6  N  1  Z    0.003057  -0.031595
    7  N  1  X   -0.055611   0.067791
    8  N  1  Y   -0.063473   0.146209
    9  N  1  Z   -0.031356   0.076194
   10  N  1 XX    0.053322   0.016020
   11  N  1 YY   -0.052533  -0.024624
   12  N  1 ZZ   -0.000789   0.008604
   13  N  1 XY    0.022142   0.029106
   14  N  1 XZ    0.053876   0.043510
   15  N  1 YZ   -0.043065  -0.000933
   16  H  2  S   -0.322128  -0.519761
   17  H  2  S   -0.199762  -0.305121
   18  H  2  X    0.050222  -0.018191
   19  H  2  Y    0.026999  -0.007957
   20  H  2  Z    0.020354  -0.011275
   21  H  3  S   -0.358944   0.632660
   22  H  3  S   -0.052514   0.082372
   23  H  3  X   -0.011084   0.032632
   24  H  3  Y   -0.031617   0.053240
   25  H  3  Z    0.004705  -0.007430
   26  H  4  S    0.626014   0.024441
   27  H  4  S    0.330494   0.015474
   28  H  4  X   -0.005990  -0.000777
   29  H  4  Y   -0.014540  -0.060590
   30  H  4  Z   -0.003338  -0.022506

     ------------------------------------------------
        ADIABATIC STATES IN TRANSFORMED ORBITALS:
      !! USE Coefp TO PREPARE DIABATIC REFERENCES !!
     ------------------------------------------------

 State #    1  Energy =     -55.749449276  S =  0.500

      Det      Coef        Coefp    Occupancy (Ignoring core)
      ---      ----        ----    --------- --------- -----
        1   -0.817258    0.817258  222+000
        8    0.191291   -0.191291  2-2+0+0
        7   -0.150318   -0.150318  22-+0+0
      351    0.148802    0.148802  22++0-0
      736   -0.145560    0.145560  2+2+00-
      386   -0.144540    0.144540  2+2+0-0
       71    0.140883   -0.140883  2+22000
      141   -0.137365   -0.137365  22++-00
       18    0.134475   -0.134475  2-2+00+
        3    0.128545    0.128545  22-++00
       36    0.114964    0.114964  22+2000
      176   -0.105151    0.105151  2+2+-00
       16    0.103496   -0.103496  222000+
        4    0.092442   -0.092442  2-2++00
      561   -0.065247   -0.065247  2+++--0
        6   -0.064782    0.064782  22200+0
       13   -0.063369   -0.063369  2--+++0
      717    0.061159    0.061159  220+002
     1051    0.053949    0.053949  2+++0--
      456    0.052190    0.052190  2++20-0
       76   -0.046750   -0.046750  2+2-0+0
      393    0.045333    0.045333  202+020
        2    0.045314   -0.045314  2220+00
      148    0.045221    0.045221  2-++-+0
       27    0.044706   -0.044706  2-200++
      183    0.041599   -0.041599  202+-+0
       29    0.038813    0.038813  2--+0++
       17   -0.038495   -0.038495  22-+00+
      708   -0.038226    0.038226  2-++0+-
       51    0.037761   -0.037761  22+-00+
      911   -0.037066   -0.037066  2+++-0-
      147   -0.036793    0.036793  220+-+0
      215    0.036292    0.036292  022+200
      388    0.035066    0.035066  2+-++-0
       23   -0.034873   -0.034873  2--++0+
      227    0.034597    0.034597  +2-+-0+
      158    0.034316    0.034316  2-++-0+
       11   -0.034262    0.034262  2-20++0
       78   -0.034134    0.034134  20220+0
      387    0.033920   -0.033920  2+20+-0
      705    0.033616    0.033616  -2+++0-
      389   -0.032850   -0.032850  202++-0
      218   -0.032479    0.032479  +-2+-+0
      738    0.032347    0.032347  2+-++0-
      353    0.032276    0.032276  220++-0
      366    0.031002   -0.031002  22+00-+
      402   -0.030248    0.030248  2+-+0-+
      391   -0.029844    0.029844  2+20020
      743   -0.029410   -0.029410  202+0+-
      358    0.029208   -0.029208  2-++020
       26   -0.029061   -0.029061  22-00++
      390   -0.028995    0.028995  -+2++-0
      179    0.028655    0.028655  202+200
      401   -0.027487   -0.027487  2+200-+
      212   -0.027223   -0.027223  +220200
       43   -0.027129   -0.027129  2-+20+0
       42    0.026492   -0.026492  22020+0
      182    0.026160   -0.026160  2+-+-+0
       77   -0.025062    0.025062  2+-20+0
       88   -0.024592    0.024592  202200+
      143    0.024138    0.024138  220+200
       20    0.023682    0.023682  22-0+0+
      159   -0.023496    0.023496  -2++-0+
      773   -0.022655    0.022655  +2-++0-
      702   -0.022251   -0.022251  22+0+0-
      354    0.022169   -0.022169  2-+++-0
      806    0.022015    0.022015  2++200-
      184    0.021479    0.021479  -+2+-+0
      424    0.021436    0.021436  +-2++-0
       73    0.020836   -0.020836  2+-2+00

 State #    2  Energy =     -55.710976735  S =  0.500

      Det      Coef        Coefp    Occupancy (Ignoring core)
      ---      ----        ----    --------- --------- -----
       71    0.702974   -0.702974  2+22000
       36   -0.460906   -0.460906  22+2000
      246   -0.183250   -0.183250  2++2-00
       78   -0.136701    0.136701  20220+0
       77   -0.135060    0.135060  2+-20+0
       73    0.127011   -0.127011  2+-2+00
       86    0.110200    0.110200  2+2-00+
       88   -0.109683    0.109683  202200+
      736   -0.105057    0.105057  2+2+00-
       74   -0.101356    0.101356  2022+00
       43    0.093568    0.093568  2-+20+0
       38    0.088576   -0.088576  2202+00
       72    0.087354    0.087354  2+2-+00
       53    0.087224    0.087224  2-+200+
       51   -0.083707    0.083707  22+-00+
      386    0.083394   -0.083394  2+2+0-0
      701    0.077070    0.077070  22++00-
      176   -0.076612    0.076612  2+2+-00
      806   -0.076314   -0.076314  2++200-
       76   -0.075789   -0.075789  2+2-0+0
       42   -0.071046    0.071046  22020+0
      141    0.062772    0.062772  22++-00
       83   -0.061760    0.061760  20-2++0
       37   -0.057494    0.057494  22+-+00
       39    0.056240    0.056240  2-+2+00
      253    0.055956    0.055956  20+2-+0
        1    0.054310   -0.054310  222+000
      822   -0.051567    0.051567  2+02002
      351   -0.050121   -0.050121  22++0-0
      813   -0.047752    0.047752  20+20+-
      252    0.046845    0.046845  2+02-+0
       81   -0.046099   -0.046099  202-++0
       97    0.046012    0.046012  202-0++
       99    0.045480   -0.045480  20-20++
      463    0.044547   -0.044547  20+2020
      263    0.041578    0.041578  20+2-0+
      456    0.041491    0.041491  2++20-0
      183    0.040365   -0.040365  202+-+0
       48   -0.038093    0.038093  2-02++0
       41    0.032337   -0.032337  22+-0+0
       62   -0.032321    0.032321  2-+-0++
      320   -0.032101   -0.032101  0+22200
      743   -0.031922   -0.031922  202+0+-
       93   -0.031776    0.031776  20-2+0+
       96    0.031601    0.031601  2+--0++
      810    0.031131    0.031131  -++2+0-
      742   -0.031098   -0.031098  2+-+0+-
      177   -0.030788    0.030788  2+20200
      180    0.030079   -0.030079  -+2+200
       64    0.029839   -0.029839  2-020++
      148   -0.029827   -0.029827  2-++-+0
      323    0.029232   -0.029232  +022-+0
      393    0.028813    0.028813  202+020
       46    0.028045   -0.028045  2-+-++0
       90   -0.027690   -0.027690  2+--+0+
      317   -0.027493    0.027493  ++2-200
      332    0.027098   -0.027098  ++-2-0+
      708    0.025407   -0.025407  2-++0+-
      111   -0.024254    0.024254  +22-0+0
       58   -0.024034    0.024034  2-02+0+
      109   -0.023683    0.023683  +-22+00
      753   -0.022666   -0.022666  202+002
      192    0.022658   -0.022658  2+-+-0+
      285    0.021262   -0.021262  02+2200
      878   -0.020768   -0.020768  ++-2+0-
      529   -0.020565   -0.020565  +022+-0
      358   -0.020516    0.020516  2-++020
       55   -0.020355   -0.020355  220-+0+
      297    0.020170   -0.020170  +202-0+
      142    0.020145    0.020145  22+0200

 State #    3  Energy =     -55.512469507  S =  0.500

      Det      Coef        Coefp    Occupancy (Ignoring core)
      ---      ----        ----    --------- --------- -----
      176   -0.517551    0.517551  2+2+-00
      141    0.332925    0.332925  22++-00
        4    0.265622   -0.265622  2-2++00
       72    0.251929    0.251929  2+2-+00
      736   -0.207653    0.207653  2+2+00-
        3   -0.181152   -0.181152  22-++00
      246    0.180343    0.180343  2++2-00
      183    0.169886   -0.169886  202+-+0
       37   -0.151773    0.151773  22+-+00
      701    0.135681    0.135681  22++00-
       73   -0.124748    0.124748  2+-2+00
       18    0.118739   -0.118739  2-2+00+
      182    0.118731   -0.118731  2+-+-+0
       71   -0.117413    0.117413  2+22000
      148   -0.115369   -0.115369  2-++-+0
      193    0.100742   -0.100742  202+-0+
      386    0.099584   -0.099584  2+2+0-0
       86    0.088913    0.088913  2+2-00+
       81   -0.085523   -0.085523  202-++0
      389   -0.084363   -0.084363  202++-0
      179   -0.077555   -0.077555  202+200
      806    0.075691    0.075691  2++200-
       36    0.073850    0.073850  22+2000
       17   -0.073696   -0.073696  22-+00+
      393    0.073019    0.073019  202+020
      147    0.067271   -0.067271  220+-+0
      354    0.066883   -0.066883  2-+++-0
      192    0.066555   -0.066555  2+-+-0+
      753   -0.066453   -0.066453  202+002
      158   -0.065269   -0.065269  2-++-0+
      739   -0.065149   -0.065149  202++0-
       80   -0.064673   -0.064673  2+--++0
       51   -0.061985    0.061985  22+-00+
      351   -0.060408   -0.060408  22++0-0
        8   -0.060269    0.060269  2-2+0+0
      143    0.059645    0.059645  220+200
      388   -0.059140   -0.059140  2+-++-0
      743   -0.058590   -0.058590  202+0+-
       39   -0.055595   -0.055595  2-+2+00
       87   -0.054063    0.054063  2+-200+
      752   -0.053751   -0.053751  2+-+002
      253   -0.053352   -0.053352  20+2-+0
      191   -0.049900   -0.049900  2+20-0+
      742   -0.049784   -0.049784  2+-+0+-
      708    0.049618   -0.049618  2-++0+-
        2    0.049319   -0.049319  2220+00
      718    0.047476   -0.047476  2-++002
        7    0.045609    0.045609  22-+0+0
      180    0.045333   -0.045333  -+2+200
       97    0.043504    0.043504  202-0++
       46    0.043404   -0.043404  2-+-++0
      738   -0.043356   -0.043356  2+-++0-
       38   -0.043005    0.043005  2202+00
      188   -0.040817   -0.040817  20-+2+0
      178    0.040750    0.040750  2+-+200
      252   -0.040374   -0.040374  2+02-+0
       76   -0.039315   -0.039315  2+2-0+0
      353   -0.038891   -0.038891  220++-0
       56    0.037699   -0.037699  2-+-+0+
      456   -0.037445   -0.037445  2++20-0
      247   -0.037058    0.037058  2++-200
      157    0.036682   -0.036682  220+-0+
      358   -0.036313    0.036313  2-++020
      181    0.036155    0.036155  2+20-+0
       91   -0.035593   -0.035593  202-+0+
      717   -0.035258   -0.035258  220+002
      707   -0.035004   -0.035004  220+0+-
      392    0.034384    0.034384  2+-+020
      927    0.034335   -0.034335  2+0+-02
       11   -0.034251    0.034251  2-20++0
      263   -0.033896   -0.033896  20+2-0+
      156    0.033627   -0.033627  22+0-0+
      202   -0.032582   -0.032582  2020-++
      704    0.032162   -0.032162  2-+++0-
      214   -0.032133   -0.032133  +-2+200
       83    0.032072   -0.032072  20-2++0
       96    0.030939    0.030939  2+--0++
      145   -0.030088   -0.030088  -2++200
      186   -0.029944    0.029944  20202+0
      564    0.029670    0.029670  20++2-0
      737    0.029400   -0.029400  2+20+0-
       16    0.029234   -0.029234  222000+
       45   -0.028380   -0.028380  220-++0
       52   -0.028185    0.028185  220200+
       77    0.027676   -0.027676  2+-20+0
       62   -0.027447    0.027447  2-+-0++
      913    0.025278    0.025278  2+0+20-
      918    0.024497   -0.024497  20++-+-
      568   -0.024213    0.024213  20++-20
      741   -0.024129    0.024129  2+200+-
      813    0.023874   -0.023874  20+20+-
      177    0.023759   -0.023759  2+20200
      463   -0.022763    0.022763  20+2020
      201   -0.022757   -0.022757  2+-0-++
       99   -0.022617    0.022617  20-20++
       48    0.022592   -0.022592  2-02++0
      163   -0.022355   -0.022355  2-0+20+
      368   -0.021871   -0.021871  2-++0-+
      323   -0.021735    0.021735  +022-+0
      812    0.021677   -0.021677  2+020+-
       53   -0.021628   -0.021628  2-+200+
      746    0.021433    0.021433  2020++-
      167    0.021327   -0.021327  2-+0-++
      459    0.021280   -0.021280  20+2+-0
        1    0.021279   -0.021279  222+000
       10    0.021023    0.021023  22-0++0
      751    0.020817   -0.020817  2+20002
      702   -0.020697   -0.020697  22+0+0-
      823    0.020644   -0.020644  20+2002
       21    0.020500   -0.020500  2-20+0+
      915    0.020476   -0.020476  -+++20-
       55   -0.020191   -0.020191  220-+0+

         ----------------------------------------------------
          Transformation matrix between Active CMOs and DMOs
                    Row for CMO and Column for DMO
         ----------------------------------------------------

             1           2           3           4           5

    1    0.9981151   0.0139998   0.0083316  -0.0489519   0.0225103
    2   -0.0433870   0.6516465  -0.2248754  -0.6828056   0.0166741
    3    0.0031060   0.5138096   0.8033261   0.2046111  -0.1928989
    4    0.0338202   0.4827920  -0.5019051   0.6777560  -0.0385918
    5   -0.0256650   0.1261646   0.1498912   0.1335934   0.9001454
    6   -0.0015289   0.2493081  -0.1721959  -0.0145867  -0.0271175
    7    0.0083291  -0.0006244  -0.0011381  -0.1100064   0.3866766

             6           7

    1   -0.0118438   0.0213917
    2   -0.2361452  -0.0252862
    3    0.0568455  -0.0913795
    4   -0.1387453  -0.1837567
    5   -0.1482456   0.3329725
    6    0.8455322   0.4385418
    7    0.4297814  -0.8084532

     $REFDET GROUP FOUND

 *************************************************************************
     STEP 2: DIABATIZATION USING CONFIGURATION UNIFORMITY
  See Atchity and Ruedenberg, Theor. Chem. Acc. 1997, 97, 47
 *************************************************************************

READ-IN LIST OF DIABATIC PROTOTYPES:

     THE SAME NUMBER OF PROTOTYPE GROUPS & ADIABATS

     THE ADIABS SHOULD HAVE FULLY COVER THE PROTOTYPES

 Approximated Overlap Matrix for truncated adiabats:
   0.7345289015   0.0022477364  -0.0284526767
   0.0022477364   0.7449348447  -0.1140500381
  -0.0284526767  -0.1140500381   0.0185668408

 MKDIAB: CANNOT SYMMETRICALLY ORTHOGONALIZE. STOP
   2.9319883545613858E-005   1.0000000000000000E-004
 EXECUTION OF GAMESS TERMINATED -ABNORMALLY- AT Wed Nov 16 20:28:12 2022
            100000000  WORDS OF DYNAMIC MEMORY USED
 CPU     0: STEP CPU TIME=     0.06 TOTAL CPU TIME=         15.6 (      0.3 MIN)
 TOTAL WALL CLOCK TIME=         15.6 SECONDS, CPU UTILIZATION IS    99.87%
 DDI Process 0: error code 911
 ddikick.x: application process 0 quit unexpectedly.
 ddikick.x: Fatal error detected.
 The error is most likely to be in the application, so check for
 input errors, disk space, memory needs, application bugs, etc.
 ddikick.x will now clean up all processes, and exit...
 ddikick.x: Sending kill signal to DDI processes.
 ddikick.x: Execution terminated due to error(s).
unset echo
----- accounting info -----
Files used on the master node io002 were:
-rw-r--r-- 1 bsonghao nooijen   20701 Nov 16 20:27 /scratch/bsonghao/nh3_diabatization_2d_at_mode_7_8_dist0.8_0.5.F05
-rw-r--r-- 1 bsonghao nooijen  363520 Nov 16 20:28 /scratch/bsonghao/nh3_diabatization_2d_at_mode_7_8_dist0.8_0.5.F09
-rw-r--r-- 1 bsonghao nooijen 1995920 Nov 16 20:28 /scratch/bsonghao/nh3_diabatization_2d_at_mode_7_8_dist0.8_0.5.F10
-rw-r--r-- 1 bsonghao nooijen  131264 Nov 16 20:28 /scratch/bsonghao/nh3_diabatization_2d_at_mode_7_8_dist0.8_0.5.F13
-rw-r--r-- 1 bsonghao nooijen  180312 Nov 16 20:28 /scratch/bsonghao/nh3_diabatization_2d_at_mode_7_8_dist0.8_0.5.F15
-rw-r--r-- 1 bsonghao nooijen       0 Nov 16 20:27 /scratch/bsonghao/nh3_diabatization_2d_at_mode_7_8_dist0.8_0.5.F16
-rw-r--r-- 1 bsonghao nooijen    9808 Nov 16 20:28 /scratch/bsonghao/nh3_diabatization_2d_at_mode_7_8_dist0.8_0.5.F70
-rw-r--r-- 1 bsonghao nooijen    9808 Nov 16 20:28 /scratch/bsonghao/nh3_diabatization_2d_at_mode_7_8_dist0.8_0.5.F71
-rw-r--r-- 1 bsonghao nooijen   19608 Nov 16 20:28 /scratch/bsonghao/nh3_diabatization_2d_at_mode_7_8_dist0.8_0.5.F72
-rw-r--r-- 1 bsonghao nooijen   19608 Nov 16 20:28 /scratch/bsonghao/nh3_diabatization_2d_at_mode_7_8_dist0.8_0.5.F73
-rw-r--r-- 1 bsonghao nooijen 1920824 Nov 16 20:28 /scratch/bsonghao/nh3_diabatization_2d_at_mode_7_8_dist0.8_0.5.F74
-rw-r--r-- 1 bsonghao nooijen       0 Nov 16 20:27 /scratch/bsonghao/nh3_diabatization_2d_at_mode_7_8_dist0.8_0.5.F75
-rw-r--r-- 1 bsonghao nooijen   58848 Nov 16 20:28 /scratch/bsonghao/nh3_diabatization_2d_at_mode_7_8_dist0.8_0.5.F76
-rw-r--r-- 1 bsonghao nooijen       0 Nov 16 20:27 /scratch/bsonghao/nh3_diabatization_2d_at_mode_7_8_dist0.8_0.5.F77
-rw-r--r-- 1 bsonghao nooijen    1864 Nov 16 20:28 /scratch/bsonghao/nh3_diabatization_2d_at_mode_7_8_dist0.8_0.5.F78
-rw-r--r-- 1 bsonghao nooijen   39208 Nov 16 20:28 /scratch/bsonghao/nh3_diabatization_2d_at_mode_7_8_dist0.8_0.5.F79
-rw-r--r-- 1 bsonghao nooijen     104 Nov 16 20:28 /scratch/bsonghao/nh3_diabatization_2d_at_mode_7_8_dist0.8_0.5.F80
-rw-r--r-- 1 bsonghao nooijen   13472 Nov 16 20:28 /scratch/bsonghao/nh3_diabatization_2d_at_mode_7_8_dist0.8_0.5.F81
-rw-r--r-- 1 bsonghao nooijen      16 Nov 16 20:28 /scratch/bsonghao/nh3_diabatization_2d_at_mode_7_8_dist0.8_0.5.F82
-rw-r--r-- 1 bsonghao nooijen   19216 Nov 16 20:28 /scratch/bsonghao/nh3_diabatization_2d_at_mode_7_8_dist0.8_0.5.F83
-rw-r--r-- 1 bsonghao nooijen   29712 Nov 16 20:28 /scratch/bsonghao/nh3_diabatization_2d_at_mode_7_8_dist0.8_0.5.F84
-rw-r--r-- 1 bsonghao nooijen  401576 Nov 16 20:28 /scratch/bsonghao/nh3_diabatization_2d_at_mode_7_8_dist0.8_0.5.F85
-rw-r--r-- 1 bsonghao nooijen  903672 Nov 16 20:28 /scratch/bsonghao/nh3_diabatization_2d_at_mode_7_8_dist0.8_0.5.F86
-rw-r--r-- 1 bsonghao nooijen     656 Nov 16 20:28 /scratch/bsonghao/nh3_diabatization_2d_at_mode_7_8_dist0.8_0.5.F87
-rw-r--r-- 1 bsonghao nooijen   43312 Nov 16 20:28 /scratch/bsonghao/nh3_diabatization_2d_at_mode_7_8_dist0.8_0.5.F88
-rw-r--r-- 1 bsonghao nooijen     240 Nov 16 20:28 /scratch/bsonghao/nh3_diabatization_2d_at_mode_7_8_dist0.8_0.5.F89
-rw-r--r-- 1 bsonghao nooijen       0 Nov 16 20:27 /scratch/bsonghao/nh3_diabatization_2d_at_mode_7_8_dist0.8_0.5.F90
-rw-r--r-- 1 bsonghao nooijen   13760 Nov 16 20:28 /scratch/bsonghao/nh3_diabatization_2d_at_mode_7_8_dist0.8_0.5.F91
-rw-r--r-- 1 bsonghao nooijen   22776 Nov 16 20:28 /scratch/bsonghao/nh3_diabatization_2d_at_mode_7_8_dist0.8_0.5.F92
-rw-r--r-- 1 bsonghao nooijen   23168 Nov 16 20:28 /scratch/bsonghao/nh3_diabatization_2d_at_mode_7_8_dist0.8_0.5.F93
-rw-r--r-- 1 bsonghao nooijen   22776 Nov 16 20:28 /scratch/bsonghao/nh3_diabatization_2d_at_mode_7_8_dist0.8_0.5.F94
-rw-r--r-- 1 bsonghao nooijen   13760 Nov 16 20:28 /scratch/bsonghao/nh3_diabatization_2d_at_mode_7_8_dist0.8_0.5.F95
-rw-r--r-- 1 bsonghao nooijen   29440 Nov 16 20:28 /scratch/bsonghao/nh3_diabatization_2d_at_mode_7_8_dist0.8_0.5.F96
-rw-r--r-- 1 bsonghao nooijen    1184 Nov 16 20:28 /scratch/bsonghao/nh3_diabatization_2d_at_mode_7_8_dist0.8_0.5.F97
-rw-r--r-- 1 bsonghao nooijen    9808 Nov 16 20:28 /scratch/bsonghao/nh3_diabatization_2d_at_mode_7_8_dist0.8_0.5.F98
-rw-r--r-- 1 bsonghao nooijen   30264 Nov 16 20:28 /scratch/bsonghao/nh3_diabatization_2d_at_mode_7_8_dist0.8_0.5.F99
ls: No match.
ls: No match.
ls: No match.
Wed 16 Nov 2022 08:28:14 PM EST
0.286u 0.047s 0:18.02 1.7%	0+0k 48+224io 0pf+0w
