----- GAMESS execution script 'rungms' -----
This job is running on host io002
under operating system Linux at Wed 16 Nov 2022 07:23:36 PM EST
Available scratch disk space (Kbyte units) at beginning of the job is
Filesystem       1K-blocks       Used   Available Use% Mounted on
/dev/sdc1      15378471580 3278917120 11318349060  23% /scratch
GAMESS temporary binary files will be written to /scratch/bsonghao
GAMESS supplementary output files will be written to /home/bsonghao/.gamess_ascii_files/267638
Copying input file nh3_diabatization_2d_at_mode_7_8_dist0.0_0.1.inp to your run's scratch directory...
cp nh3_diabatization_2d_at_mode_7_8_dist0.0_0.1.inp /scratch/bsonghao/nh3_diabatization_2d_at_mode_7_8_dist0.0_0.1.F05
unset echo
/home/bjb2chen/gamess/ddikick.x /home/bjb2chen/gamess/gamess.00.x nh3_diabatization_2d_at_mode_7_8_dist0.0_0.1 -ddi 1 1 io002 -scr /scratch/bsonghao

 Distributed Data Interface kickoff program.
 Initiating 1 compute processes on 1 nodes to run the following command:
 /home/bjb2chen/gamess/gamess.00.x nh3_diabatization_2d_at_mode_7_8_dist0.0_0.1 

          ******************************************************
          *         GAMESS VERSION = 02 AUG 2018 (R2)         *
          *             FROM IOWA STATE UNIVERSITY             *
          * M.W.SCHMIDT, K.K.BALDRIDGE, J.A.BOATZ, S.T.ELBERT, *
          *   M.S.GORDON, J.H.JENSEN, S.KOSEKI, N.MATSUNAGA,   *
          *          K.A.NGUYEN, S.J.SU, T.L.WINDUS,           *
          *       TOGETHER WITH M.DUPUIS, J.A.MONTGOMERY       *
          *         J.COMPUT.CHEM.  14, 1347-1363(1993)        *
          **************** 64 BIT LINUX VERSION ****************

  SINCE 1993, STUDENTS AND POSTDOCS WORKING AT IOWA STATE UNIVERSITY
  AND ALSO IN THEIR VARIOUS JOBS AFTER LEAVING ISU HAVE MADE IMPORTANT
  CONTRIBUTIONS TO THE CODE:
     IVANA ADAMOVIC, CHRISTINE AIKENS, YURI ALEXEEV, POOJA ARORA,
     ANDREY ASADCHEV, ROB BELL, PRADIPTA BANDYOPADHYAY, JONATHAN BENTZ,
     BRETT BODE, KURT BRORSEN, CALEB CARLIN, GALINA CHABAN, WEI CHEN,
     CHEOL HO CHOI, PAUL DAY, ALBERT DEFUSCO, NUWAN DESILVA, TIM DUDLEY,
     DMITRI FEDOROV, ALEX FINDLATER, GRAHAM FLETCHER, MARK FREITAG,
     KURT GLAESEMANN, ANASTASIA GUININA,
     DAN KEMP, GRANT MERRILL, NORIYUKI MINEZAWA, JONATHAN MULLIN,
     TAKESHI NAGATA, SEAN NEDD, HEATHER NETZLOFF, BOSILJKA NJEGIC, RYAN OLSON,
     MIKE PAK, BUU PHAM,
     SPENCER PRUITT, LUKE ROSKOP, JIM SHOEMAKER, LYUDMILA SLIPCHENKO,
     TONY SMITH, SAROM SOK LEANG, JIE SONG, TETSUYA TAKETSUGU, SIMON WEBB,
     PENG XU, SOOHAENG YOO, FEDERICO ZAHARIEV

  ADDITIONAL CODE HAS BEEN PROVIDED BY COLLABORATORS IN OTHER GROUPS:
     IOWA STATE UNIVERSITY:
          JOE IVANIC, AARON WEST, LAIMUTIS BYTAUTAS, KLAUS RUEDENBERG
     UNIVERSITY OF TOKYO: KIMIHIKO HIRAO, TAKAHITO NAKAJIMA,
          TAKAO TSUNEDA, MUNEAKI KAMIYA, SUSUMU YANAGISAWA,
          KIYOSHI YAGI, MAHITO CHIBA, SEIKEN TOKURA, NAOAKI KAWAKAMI
     UNIVERSITY OF AARHUS: FRANK JENSEN
     UNIVERSITY OF IOWA: VISVALDAS KAIRYS, HUI LI
     NATIONAL INST. OF STANDARDS AND TECHNOLOGY: WALT STEVENS, DAVID GARMER
     UNIVERSITY OF PISA: BENEDETTA MENNUCCI, JACOPO TOMASI
     UNIVERSITY OF MEMPHIS: HENRY KURTZ, PRAKASHAN KORAMBATH
     UNIVERSITY OF ALBERTA: TOBY ZENG, MARIUSZ KLOBUKOWSKI
     UNIVERSITY OF NEW ENGLAND: MARK SPACKMAN
     MIE UNIVERSITY: HIROAKI UMEDA
     NAT. INST. OF ADVANCED INDUSTRIAL SCIENCE AND TECHNOLOGY: KAZUO KITAURA
     MICHIGAN STATE UNIVERSITY:
          KAROL KOWALSKI, MARTA WLOCH, JEFFREY GOUR, JESSE LUTZ,
          WEI LI, JUN SHEN, J. EMILIANO DEUSTUA, PIOTR PIECUCH
     UNIVERSITY OF MINNESOTA:
          YINAN SHU
     UNIVERSITY OF SILESIA: MONIKA MUSIAL, STANISLAW KUCHARSKI
     FACULTES UNIVERSITAIRES NOTRE-DAME DE LA PAIX:
          OLIVIER QUINET, BENOIT CHAMPAGNE
     UNIVERSITY OF CALIFORNIA - SANTA BARBARA: BERNARD KIRTMAN
     INSTITUTE FOR MOLECULAR SCIENCE:
          KAZUYA ISHIMURA, MICHIO KATOUDA, AND SHIGERU NAGASE
     UNIVERSITY OF NOTRE DAME: ANNA POMOGAEVA, DAN CHIPMAN
     KYUSHU UNIVERSITY:
          HARUYUKI NAKANO,
          FENG LONG GU, JACEK KORCHOWIEC, MARCIN MAKOWSKI, AND YURIKO AOKI,
          HIROTOSHI MORI AND EISAKU MIYOSHI
     PENNSYLVANIA STATE UNIVERSITY:
          TZVETELIN IORDANOV, CHET SWALINA, JONATHAN SKONE,
          SHARON HAMMES-SCHIFFER
     WASEDA UNIVERSITY:
          MASATO KOBAYASHI, TOMOKO AKAMA, TSUGUKI TOUMA,
          TAKESHI YOSHIKAWA, YASUHIRO IKABATA, JUNJI SEINO,
          YUYA NAKAJIMA, HIROMI NAKAI
     NANJING UNIVERSITY: SHUHUA LI
     UNIVERSITY OF NEBRASKA:
          PEIFENG SU, DEJUN SI, NANDUN THELLAMUREGE, YALI WANG, HUI LI
     UNIVERSITY OF ZURICH: ROBERTO PEVERATI, KIM BALDRIDGE
     N. COPERNICUS UNIVERSITY AND JACKSON STATE UNIVERSITY:
          MARIA BARYSZ
     UNIVERSITY OF COPENHAGEN: Jimmy Kromann, CASPER STEINMANN
     TOKYO INSTITUTE OF TECHNOLOGY: HIROYA NAKATA
     NAGOYA UNIVERSITY: YOSHIO NISHIMOTO, STEPHAN IRLE
     MOSCOW STATE UNIVERSITY: VLADIMIR MIRONOV

 EXECUTION OF GAMESS BEGUN Wed Nov 16 19:23:36 2022

            ECHO OF THE FIRST FEW INPUT CARDS -
 INPUT CARD> $system kdiag=3 mwords=100 memddi=1000 parall=.t. $end                         
 INPUT CARD> $contrl runtyp=energy ispher=1 $end                                            
 INPUT CARD> $contrl icut=9 itol=20 inttyp=rysquad qmttol=1.0d-05 nosym=1 $end              
 INPUT CARD> $scf    npunch=2 conv=1.0d-06 dirscf=.t.      $end                             
 INPUT CARD> $contrl scftyp=mcscf  mult=2 maxit=200 icharg=1 mplevl=2 $end                  
 INPUT CARD> $guess  guess=moread norb=29 purify=.t. $end                                   
 INPUT CARD> $basis  gbasis=ccd $end                                                        
 INPUT CARD> $mcscf  cistep=gmcci fullnr=.t. finci=mos                                      
 INPUT CARD>         acurcy=1.d-6 maxit=100 $end                                            
 INPUT CARD> $trans  dirtrf=.t. $end                                                        
 INPUT CARD> $mrmp   mrpt=gmcpt rdvecs=.f. $end                                             
 INPUT CARD> $gmcpt  nmofzc=0 nmodoc=1 nmoact=7 nelact=7 stsym(1)=A                         
 INPUT CARD>         reftyp=ormas nspace=1 mstart(1)=2 mine(1)=7 maxe(1)=7                  
 INPUT CARD>         kstate(1)=1,1,1                                                        
 INPUT CARD>         wstate(1)=1,1,1                                                        
 INPUT CARD>         iwgt=0 thrwgt=-1.0 krot=.f. kszdoe=.f. knospn=.f.                      
 INPUT CARD>         thrde=-1.0 edshft=0.02 $end                                            
 INPUT CARD> $data                                                                          
 INPUT CARD> NH3+ 3 states calculation at NH3 structure.                                    
 INPUT CARD> c1                                                                             
 INPUT CARD>N 7.0 -0.006228917999999998 -0.0 -0.1693807382                                  
 INPUT CARD>H 1.0 -0.414413505 0.8441822468 0.2432617911                                    
 INPUT CARD>H 1.0 -0.414413507 -0.8441822458 0.24326178910000001                            
 INPUT CARD>H 1.0 0.915379498 1.9999999999999997e-09 0.2828579311                           
 INPUT CARD>$end                                                                            
 INPUT CARD>--- OPTIMIZED RHF      MO-S --- GENERATED AT Mon Nov 14 16:47:08 2022           
 INPUT CARD>E=      -56.3825050291, E(NUC)=   11.8429239490                                 
 INPUT CARD> $VEC                                                                           
 INPUT CARD> 1  1-1.00134066E+00-2.25158504E-03 3.44925845E-03 0.00000000E+00 0.00000000E+00
 INPUT CARD> 1  2-2.13170927E-03 0.00000000E+00 0.00000000E+00 6.57129898E-04-6.87950443E-05
 INPUT CARD> 1  3-6.87950443E-05 1.37590089E-04 0.00000000E+00 0.00000000E+00 0.00000000E+00
 INPUT CARD> 1  4 3.25502815E-04-4.84772356E-04 3.62525460E-04-6.27912517E-04-3.45956485E-04
 INPUT CARD> 1  5 3.25502815E-04-4.84772356E-04 3.62525460E-04 6.27912517E-04-3.45956485E-04
 INPUT CARD> 1  6 3.25502815E-04-4.84772356E-04-7.25050921E-04 0.00000000E+00-3.45956485E-04
 INPUT CARD> 2  1 1.31286642E-02-4.05911371E-01-2.82090992E-01 0.00000000E+00 0.00000000E+00
 INPUT CARD> 2  2-7.71489043E-02 0.00000000E+00 0.00000000E+00 9.73717494E-03 6.62450916E-04
 INPUT CARD> 2  3 6.62450916E-04-1.32490183E-03 0.00000000E+00 0.00000000E+00 0.00000000E+00
 INPUT CARD> 2  4-1.96090317E-01-1.96656153E-02-1.74855877E-02 3.02859263E-02 8.68214399E-03
 INPUT CARD> 2  5-1.96090317E-01-1.96656153E-02-1.74855877E-02-3.02859263E-02 8.68214399E-03
 INPUT CARD> 2  6-1.96090317E-01-1.96656153E-02 3.49711754E-02 0.00000000E+00 8.68214399E-03
 INPUT CARD> 3  1 0.00000000E+00 0.00000000E+00 0.00000000E+00 4.48608762E-01 0.00000000E+00
 INPUT CARD> 3  2 0.00000000E+00 2.18692520E-01 0.00000000E+00 0.00000000E+00 1.30198027E-02
 INPUT CARD> 3  3-1.30198027E-02 0.00000000E+00 0.00000000E+00 2.71832968E-02 0.00000000E+00
 INPUT CARD> 3  4-1.85332726E-01-7.03958951E-02 8.47929477E-03 1.95242443E-02 8.32835058E-03
 INPUT CARD> 3  5-1.85332726E-01-7.03958951E-02 8.47929477E-03-1.95242443E-02 8.32835058E-03
 INPUT CARD> 3  6 3.70665453E-01 1.40791790E-01-2.53376884E-02 0.00000000E+00-1.66567012E-02
 INPUT CARD> 4  1 0.00000000E+00 0.00000000E+00 0.00000000E+00 0.00000000E+00 4.48608762E-01
 INPUT CARD> 4  2 0.00000000E+00 0.00000000E+00 2.18692520E-01 0.00000000E+00 0.00000000E+00
 INPUT CARD> 4  3 0.00000000E+00 0.00000000E+00-1.50339731E-02 0.00000000E+00 2.71832968E-02
 INPUT CARD> 4  4 3.21005698E-01 1.21929267E-01 1.95242443E-02-1.40653607E-02-1.44251263E-02
  100000000 WORDS OF MEMORY AVAILABLE

     BASIS OPTIONS
     -------------
     GBASIS=CCD          IGAUSS=       0      POLAR=NONE    
     NDFUNC=       0     NFFUNC=       0     DIFFSP=       F
     NPFUNC=       0      DIFFS=       F     BASNAM=        


     RUN TITLE
     ---------
  NH3+ 3 states calculation at NH3 structure.                                    

 THE POINT GROUP OF THE MOLECULE IS C1      
 THE ORDER OF THE PRINCIPAL AXIS IS     0

 ATOM      ATOMIC                      COORDINATES (BOHR)
           CHARGE         X                   Y                   Z
 N           7.0    -0.0117709482       -0.0000000000       -0.3200831828
 H           1.0    -0.7831279701        1.5952731302        0.4596981285
 H           1.0    -0.7831279738       -1.5952731283        0.4596981247
 H           1.0     1.7298164260        0.0000000038        0.5345239832

          INTERNUCLEAR DISTANCES (ANGS.)
          ------------------------------

                1 N          2 H          3 H          4 H     

   1 N       0.0000000    1.0244668 *  1.0244668 *  1.0265875 *
   2 H       1.0244668 *  0.0000000    1.6883645 *  1.5756145 *
   3 H       1.0244668 *  1.6883645 *  0.0000000    1.5756145 *
   4 H       1.0265875 *  1.5756145 *  1.5756145 *  0.0000000  

  * ... LESS THAN  3.000


     ATOMIC BASIS SET
     ----------------
 THE CONTRACTED PRIMITIVE FUNCTIONS HAVE BEEN UNNORMALIZED
 THE CONTRACTED BASIS FUNCTIONS ARE NOW NORMALIZED TO UNITY

  SHELL TYPE  PRIMITIVE        EXPONENT          CONTRACTION COEFFICIENT(S)

 N         

      1   S       1          9046.0000000    0.000699617413
      1   S       2          1357.0000000    0.005386054630
      1   S       3           309.3000000    0.027391021189
      1   S       4            87.7300000    0.103150591982
      1   S       5            28.5600000    0.278570663317
      1   S       6            10.2100000    0.448294849454
      1   S       7             3.8380000    0.278085928395
      1   S       8             0.7466000    0.015431561233

      2   S       9          9046.0000000   -0.000304990096
      2   S      10          1357.0000000   -0.002408026379
      2   S      11           309.3000000   -0.011944448725
      2   S      12            87.7300000   -0.048925992909
      2   S      13            28.5600000   -0.134472724725
      2   S      14            10.2100000   -0.315112577700
      2   S      15             3.8380000   -0.242857832550
      2   S      16             0.7466000    1.094382206854

      3   S      17             0.2248000    1.000000000000

      4   P      18            13.5500000    0.058905676772
      4   P      19             2.9170000    0.320461106714
      4   P      20             0.7973000    0.753042061792

      5   P      21             0.2185000    1.000000000000

      6   D      22             0.8170000    1.000000000000

 H         

      7   S      23            13.0100000    0.033498726390
      7   S      24             1.9620000    0.234800801174
      7   S      25             0.4446000    0.813682957883

      8   S      26             0.1220000    1.000000000000

      9   P      27             0.7270000    1.000000000000

 H         

     10   S      28            13.0100000    0.033498726390
     10   S      29             1.9620000    0.234800801174
     10   S      30             0.4446000    0.813682957883

     11   S      31             0.1220000    1.000000000000

     12   P      32             0.7270000    1.000000000000

 H         

     13   S      33            13.0100000    0.033498726390
     13   S      34             1.9620000    0.234800801174
     13   S      35             0.4446000    0.813682957883

     14   S      36             0.1220000    1.000000000000

     15   P      37             0.7270000    1.000000000000

 TOTAL NUMBER OF BASIS SET SHELLS             =   15
 NUMBER OF CARTESIAN GAUSSIAN BASIS FUNCTIONS =   30
 NOTE: THIS RUN WILL RESTRICT THE MO VARIATION SPACE TO SPHERICAL HARMONICS.
 THE NUMBER OF ORBITALS KEPT IN THE VARIATIONAL SPACE WILL BE PRINTED LATER.
 NUMBER OF ELECTRONS                          =    9
 CHARGE OF MOLECULE                           =    1
 SPIN MULTIPLICITY                            =    2
 NUMBER OF OCCUPIED ORBITALS (ALPHA)          =    5
 NUMBER OF OCCUPIED ORBITALS (BETA )          =    4
 TOTAL NUMBER OF ATOMS                        =    4
 THE NUCLEAR REPULSION ENERGY IS       11.8249887463

     $CONTRL OPTIONS
     ---------------
 SCFTYP=MCSCF        RUNTYP=ENERGY       EXETYP=RUN     
 MPLEVL=       2     CITYP =NONE         CCTYP =NONE         VBTYP =NONE    
 DFTTYP=NONE         TDDFT =NONE    
 MULT  =       2     ICHARG=       1     NZVAR =       0     COORD =UNIQUE  
 PP    =NONE         RELWFN=NONE         LOCAL =NONE         NUMGRD=       F
 ISPHER=       1     NOSYM =       1     MAXIT =     200     UNITS =ANGS    
 PLTORB=       F     MOLPLT=       F     AIMPAC=       F     FRIEND=        
 NPRINT=       7     IREST =       0     GEOM  =INPUT   
 NORMF =       0     NORMP =       0     ITOL  =      20     ICUT  =       9
 INTTYP=RYSQUAD      GRDTYP=BEST         QMTTOL= 1.0E-05

     $SYSTEM OPTIONS
     ---------------
  REPLICATED MEMORY=   100000000 WORDS (ON EVERY NODE).
 DISTRIBUTED MEMDDI=        1000 MILLION WORDS IN AGGREGATE,
 MEMDDI DISTRIBUTED OVER   1 PROCESSORS IS  1000000000 WORDS/PROCESSOR.
 TOTAL MEMORY REQUESTED ON EACH PROCESSOR=  1100000000 WORDS.
 TIMLIM=      525600.00 MINUTES, OR     365.0 DAYS.
 PARALL= T  BALTYP=  DLB     KDIAG=    3  COREFL= F
 MXSEQ2=     300 MXSEQ3=     150  mem10=         0

          ----------------
          PROPERTIES INPUT
          ----------------

     MOMENTS            FIELD           POTENTIAL          DENSITY
 IEMOM =       1   IEFLD =       0   IEPOT =       0   IEDEN =       0
 WHERE =COMASS     WHERE =NUCLEI     WHERE =NUCLEI     WHERE =NUCLEI  
 OUTPUT=BOTH       OUTPUT=BOTH       OUTPUT=BOTH       OUTPUT=BOTH    
 IEMINT=       0   IEFINT=       0                     IEDINT=       0
                                                       MORB  =       0

     -------------------------------
     INTEGRAL TRANSFORMATION OPTIONS
     -------------------------------
     NWORD  =            0
     CUTOFF = 1.0E-09     MPTRAN =       0
     DIRTRF =       T     AOINTS =DUP     

          ----------------------
          MCSCF INPUT PARAMETERS
          ----------------------
 CONVERGER SELECTION: FOCAS = F  SOSCF = F  FULLNR = T  QUD = F  JACOBI = F
 SECULAR EQUATION METHOD CISTEP = GMCCI   
 --- GENERAL INPUT OPTIONS:
 MAXIT =     100  MICIT =       1  ACURCY= 1.000E-06
 DAMP  =   0.000  CANONC=       T  ENGTOL= 1.000E-10
 EKT   =       F  NPUNCH=       2  NWORD =         0
 REGENERATE CI AFTER CONVERGENCE = NONE    
 DIABATIZATION AFTER CONVERGENCE =        F
 --- INPUT FOR FULLNR CONVERGER:
 METHOD=DM2       FORS  =       F  DROPC =       T
 LINSER=       F  FCORE =       F  NORB  =      30

          ----------------------
          INTEGRAL INPUT OPTIONS
          ----------------------
 NOPK  =       1 NORDER=       0 SCHWRZ=       T

 ------------------------------------------
 MULTIREFERENCE PERTURBATION THEORY CONTROL
 ------------------------------------------
 MRPT=GMCPT    READ CONVERGED MCSCF VECTORS= F


     ------------------------------------------
     THE POINT GROUP IS C1 , NAXIS= 1, ORDER= 1
     ------------------------------------------

 -- VARIATIONAL SPACE WILL BE RESTRICTED TO PURE SPHERICAL HARMONICS ONLY --
 AFTER EXCLUDING CONTAMINANT COMBINATIONS FROM THE CARTESIAN GAUSSIAN BASIS
 SET, THE NUMBER OF SPHERICAL HARMONICS KEPT IN THE VARIATION SPACE IS   29

     DIMENSIONS OF THE SYMMETRY SUBSPACES ARE
 A   =   29

 ..... DONE SETTING UP THE RUN .....
 CPU     0: STEP CPU TIME=     0.04 TOTAL CPU TIME=          0.0 (      0.0 MIN)
 TOTAL WALL CLOCK TIME=          0.0 SECONDS, CPU UTILIZATION IS   100.00%

          ********************
          1 ELECTRON INTEGRALS
          ********************
 TIME TO DO   DIPOLE INTEGRALS=      0.00
 ...... END OF ONE-ELECTRON INTEGRALS ......
 CPU     0: STEP CPU TIME=     0.00 TOTAL CPU TIME=          0.0 (      0.0 MIN)
 TOTAL WALL CLOCK TIME=          0.0 SECONDS, CPU UTILIZATION IS   100.00%

          -------------
          GUESS OPTIONS
          -------------
          GUESS =MOREAD            NORB  =      29          NORDER=       0
          MIX   =       F          PRTMO =       F          PUNMO =       F
          TOLZ  = 1.0E-08          TOLE  = 1.0E-05
          SYMDEN=       F          PURIFY=       T

 INITIAL GUESS ORBITALS GENERATED BY MOREAD   ROUTINE.

 STATISTICS FOR GENERATION OF SYMMETRY ORBITAL -Q- MATRIX
 NUMBER OF CARTESIAN ATOMIC ORBITALS=         30
 NUMBER OF SPHERICAL CONTAMINANTS DROPPED=     1
 NUMBER OF LINEARLY DEPENDENT MOS DROPPED=     0
 TOTAL NUMBER OF MOS IN VARIATION SPACE=      29
 ORBITAL PURIFICATION WILL OCCUR

 SYMMETRIES FOR INITIAL GUESS ORBITALS FOLLOW.   BOTH SET(S).
     5 ORBITALS ARE OCCUPIED (    1 CORE ORBITALS).
     1=A        2=A        3=A        4=A        5=A        6=A        7=A   
     8=A        9=A       10=A       11=A       12=A       13=A       14=A   
    15=A       16=A       17=A       18=A       19=A       20=A       21=A   
    22=A       23=A       24=A       25=A       26=A       27=A       28=A   
    29=A   
 ...... END OF INITIAL ORBITAL SELECTION ......
 CPU     0: STEP CPU TIME=     0.01 TOTAL CPU TIME=          0.0 (      0.0 MIN)
 TOTAL WALL CLOCK TIME=          0.1 SECONDS, CPU UTILIZATION IS   100.00%

                    ----------------------
                    AO INTEGRAL TECHNOLOGY
                    ----------------------
     S,P,L SHELL ROTATED AXIS INTEGRALS, REPROGRAMMED BY
        KAZUYA ISHIMURA (IMS) AND JOSE SIERRA (SYNSTAR).
     S,P,D,L SHELL ROTATED AXIS INTEGRALS PROGRAMMED BY
        KAZUYA ISHIMURA (INSTITUTE FOR MOLECULAR SCIENCE).
     S,P,D,F,G SHELL TO TOTAL QUARTET ANGULAR MOMENTUM SUM 5,
        ERIC PROGRAM BY GRAHAM FLETCHER (ELORET AND NASA ADVANCED
        SUPERCOMPUTING DIVISION, AMES RESEARCH CENTER).
     S,P,D,F,G,L SHELL GENERAL RYS QUADRATURE PROGRAMMED BY
        MICHEL DUPUIS (PACIFIC NORTHWEST NATIONAL LABORATORY).

          --------------------
          2 ELECTRON INTEGRALS
          --------------------

 DIRECT SCF METHOD SKIPS INTEGRAL STORAGE ON DISK.
 DIRECT TRANSFORMATION SKIPS AO INTEGRAL STORAGE ON DISK.
  ...... END OF TWO-ELECTRON INTEGRALS .....
 STEP CPU TIME =     0.02 TOTAL CPU TIME =          0.1 (      0.0 MIN)
 TOTAL WALL CLOCK TIME=          0.1 SECONDS, CPU UTILIZATION IS   100.00%
 DDI: Creating Array [0] - 900 x 36 = 32400 words.
 DDI: Creating Array [1] - 21 x 288 = 6048 words.
 DDI: Creating Array [2] - 36 x 36 = 1296 words.
 DDI: Creating Array [3] - 465 x 36 = 16740 words.

          -----------------
          MCSCF CALCULATION
          -----------------

 ----- NUCLEAR ENERGY ----- =        11.8249887463

     -------------------------------------------------
     GMC-PT/GMC-QDPT or general MCSCF input parameters
     -------------------------------------------------
 # of frozen core orbs. =         0 ->         0
 # of doubly occ. orbs. =         1
 # of active      orbs. =         7
 # of virtual     orbs. =        21
 # of active electrons  =         7
 # of states in CI      =         3
 Highest state in CI    =         3
 kstate =  1 1 1
 avecoe =  0.333 0.333 0.333
 State symmetry           = A           
 Assigned symmetry number = 1

 <<<Act. MO sym.: 1111111

 <<<Division of 1-ext.:  0
 <<<Division of 2-ext.:  0

 *** Reference space

 Reference type: ORMAS (= Occupation restricted multiple active space)
 # of orbitals          =  7
 # of minimum electrons =  7
 # of maximum electrons =  7
 State symmetry    =    1 (input)
 2*Sz              =    1 (input)
 Spin multiplicity =    2 (input)
 Dimension of reference space =      1225  (from      3432 walks)

 Dimension of reference space =      1225  (from      1225 walks)

 <<<Ionized spaces for Ref-CI:
      0:         1225 /   -1-0:         1960 /  0-1-0:         2891

 EVALUATING EXCHANGE INTEGRALS FOR DIRECT INTEGRAL TRANSFORMATION
 SCHWARZ INEQUALITY OVERHEAD:       465 INTEGRALS, T=        0.00

     --------------------------------------------
     PARTIAL TWO ELECTRON INTEGRAL TRANSFORMATION
     --------------------------------------------

 NUMBER OF CORE MOLECULAR ORBITALS     =    1
 NUMBER OF OCCUPIED MOLECULAR ORBITALS =    8
 TOTAL NUMBER OF MOLECULAR ORBITALS    =   29
 TOTAL NUMBER OF ATOMIC ORBITALS       =   30
 THRESHOLD FOR KEEPING TRANSFORMED 2E- INTEGRALS = 1.000E-09

 -------------------------------     ------------------------------
 DISTRIBUTED DATA TRANSFORMATION     PROGRAM WRITTEN BY G. FLETCHER
 -------------------------------     ------------------------------

 THE DISTRIBUTED MEMORY REQUIRED FOR THIS STEP IS MEMDDI=         1 MWORDS
 CREATING DISTRIBUTED STORAGE FOR [VIR OCC|VIR OCC] INTEGRALS
 CREATING DISTRIBUTED STORAGE FOR [VIR OCC|OCC OCC] INTEGRALS
 CREATING DISTRIBUTED STORAGE FOR [OCC OCC|OCC OCC] INTEGRALS
 CREATING DISTRIBUTED STORAGE FOR [VIR VIR|OCC OCC] INTEGRALS
 FOR    1 PROCESSORS, THE REPLICATED MEMORY NEEDED IS       73700 WORDS.
 SCHWARZ INEQUALITY OVERHEAD:       465 INTEGRALS, T=        0.01

      DIRECT 4-INDEX TRANSFORMATION 
      SCHWARZ INEQUALITY TEST SKIPPED          0 INTEGRAL BLOCKS
 ----- FROZEN CORE ENERGY =       -47.8292554804
 ... END OF INTEGRAL TRANSFORMATION ...
 CPU     0: STEP CPU TIME=     0.22 TOTAL CPU TIME=          0.3 (      0.0 MIN)
 TOTAL WALL CLOCK TIME=          0.3 SECONDS, CPU UTILIZATION IS   100.00%

     --------------------------------     -----------------------------
     MCHF NEWTON-RAPHSON OPTIMIZATION     CODE WRITTEN BY MICHEL DUPUIS
     --------------------------------     -----------------------------
     PARALLEL VERSION WRITTEN BY G. FLETCHER (ELORET)
     NASA ADVANCED SUPERCOMPUTING DIVISION, AMES RESEARCH CENTER

 NUMBER OF INDEPENDENT ORBITAL ROTATION PARAMETERS =    99
 ..... DONE SOLVING NEWTON-RAPHSON EQUATIONS .....
 CPU     0: STEP CPU TIME=     0.69 TOTAL CPU TIME=          1.0 (      0.0 MIN)
 TOTAL WALL CLOCK TIME=          1.0 SECONDS, CPU UTILIZATION IS   100.00%
 ..... DONE WITH NTN-RPH ORBITAL ROTATIONS ..... 
 CPU     0: STEP CPU TIME=     0.00 TOTAL CPU TIME=          1.0 (      0.0 MIN)
 TOTAL WALL CLOCK TIME=          1.0 SECONDS, CPU UTILIZATION IS   100.00%
 MAXIMUM MEMORY USED BY NTN-RPH CODE WAS     57645 WORDS.

 ITER     TOTAL ENERGY      DEL(E)  LAGRANGIAN ASYMMETRY   SQCDF  MICIT   DAMP
   1      -55.686447466 -0.686447466  0.134907   14    4 1.736E-01  1   0.0000
   2      -55.721609465 -0.035161999  0.025461   12    5 4.526E-01  1   0.0000
   3      -55.753009574 -0.031400109  0.012406   12    5 2.110E-01  1   0.0267
   4      -55.766038745 -0.013029171  0.004056   11    6 3.725E-02  1   0.0046
   5      -55.767617827 -0.001579082  0.000755   12    5 1.160E-03  1   0.0000
   6      -55.767667641 -0.000049814  0.000249   12    5 9.486E-05  1   0.0000
   7      -55.767672571 -0.000004930  0.000110   12    5 1.241E-05  1   0.0000
   8      -55.767673262 -0.000000691  0.000048   12    5 1.764E-06  1   0.0000
   9      -55.767673363 -0.000000101  0.000020   12    5 2.599E-07  1   0.0000
  10      -55.767673378 -0.000000015  0.000008   12    5 4.054E-08  1   0.0000
  11      -55.767673381 -0.000000002  0.000003   12    5 6.751E-09  1   0.0000
  12      -55.767673381 -0.000000000  0.000001   27    5 1.263E-09  1   0.0000
  13      -55.767673381 -0.000000000  0.000001   12    5 2.685E-10  1   0.0000

          --------------------
          LAGRANGIAN CONVERGED
          --------------------

 FINAL MCSCF ENERGY IS      -55.7676733813 AFTER  13 ITERATIONS

 -MCCI- BASED ON OPTIMIZED ORBITALS
 ----------------------------------

 PLEASE NOTE: IF THE ACTIVE ORBITALS ARE CANONICALIZED BELOW,
 THE FOLLOWING CI EXPANSION COEFFICIENTS AND THE DENSITY DO NOT
 CORRESPOND TO THE PRINTED ORBITALS.  THE PRINTED EXPANSIONS MATCH
 THE ORBITALS USED DURING THE LAST ITERATION.  IF YOU WISH TO SEE
 CI EXPANSIONS BASED ON THE CANONICAL (OR NATURAL) ORBITALS, YOU
 MUST RUN A CI CALCULATION WITH THAT ORBITAL CHOICE READ IN $VEC.

 Averaged energy =     -55.767673381

 State #    1  Energy =     -55.911425474  S =  0.500

      Det      Coef    Occupancy (Ignoring core)
      ---      ----    --------- --------- -----
        1    0.954921  11110001110000
        2    0.057380  11101001110000
        5   -0.058306  01111001110000
        8   -0.123847  10110101110000
       17    0.129049  11010011110000
      386    0.095812  11110001010010
      393    0.062426  10110101010010
      701   -0.103931  11110001100001
      717    0.055566  11010011100001

 State #    2  Energy =     -55.710745900  S =  0.500

      Det      Coef    Occupancy (Ignoring core)
      ---      ----    --------- --------- -----
       71   -0.970746  11110001011000
       75    0.050898  01111001011000
       78    0.061216  10110101011000
       87   -0.091746  11010011011000
      316   -0.057338  11110000011100
      806   -0.098665  11110001001001
      822    0.059267  11010011001001

 State #    3  Energy =     -55.680848769  S =  0.500

      Det      Coef    Occupancy (Ignoring core)
      ---      ----    --------- --------- -----
       36    0.971793  11110001101000
       43   -0.082615  10110101101000
       52    0.064909  11010011101000
      281    0.060793  11110000101100
      456    0.094612  11110001001010
      463    0.065842  10110101001010

 DENSITY MATRIX OVER ACTIVE MO-S

             1           2           3           4           5

    1    1.9805712
    2    0.0028567   1.6383942
    3   -0.0000000   0.0000000   1.6378227
    4    0.0041635   0.0001831   0.0000000   1.6559393
    5    0.0917382  -0.0017399  -0.0000000   0.0466307   0.0229111
    6   -0.0014760  -0.1331332   0.0000000   0.0039562   0.0004447
    7   -0.0000000   0.0000000  -0.1435001   0.0000000  -0.0000000

             6           7

    6    0.0321891
    7   -0.0000000   0.0321723

 FORMING THE "STANDARD FOCK OPERATOR" IN DIRECT AO INTEGRAL MODE...
 ONLY THE    1 CORE AND   21 VIRTUAL ORBITALS WILL BE CANONICALIZED

          ----------------------
          MCSCF NATURAL ORBITALS
          ----------------------

                      1          2          3          4          5
                  -15.9877     1.9850     1.6571     1.6505     1.6493
                     A          A          A          A          A   
    1  N  1  S    1.001384   0.008340  -0.011718  -0.000000  -0.000528
    2  N  1  S   -0.001735   0.439627  -0.185553  -0.000000  -0.018104
    3  N  1  S   -0.006435   0.274198  -0.290758  -0.000000  -0.026380
    4  N  1  X   -0.000013   0.007774  -0.026074   0.000000   0.508416
    5  N  1  Y    0.000000  -0.000000  -0.000000   0.500022  -0.000000
    6  N  1  Z    0.001170   0.098786   0.595438   0.000000   0.017752
    7  N  1  X    0.000024  -0.001833  -0.018233   0.000000   0.222803
    8  N  1  Y   -0.000000  -0.000000  -0.000000   0.200538  -0.000000
    9  N  1  Z   -0.000419   0.002031   0.381240   0.000000   0.005162
   10  N  1 XX   -0.000007  -0.000832  -0.012591   0.000000   0.011312
   11  N  1 YY    0.000176  -0.000451  -0.012052  -0.000000  -0.012193
   12  N  1 ZZ   -0.000169   0.001283   0.024643   0.000000   0.000881
   13  N  1 XY    0.000000  -0.000000   0.000000  -0.010873   0.000000
   14  N  1 XZ    0.000038   0.000293  -0.000485   0.000000   0.026273
   15  N  1 YZ   -0.000000   0.000000  -0.000000   0.025606  -0.000000
   16  H  2  S   -0.002100   0.193590   0.111705   0.330103  -0.178849
   17  H  2  S    0.000500   0.003183   0.024561   0.041814  -0.026087
   18  H  2  X   -0.000483   0.016933   0.007915   0.021463   0.009933
   19  H  2  Y    0.000931  -0.033757  -0.015817  -0.021122   0.021330
   20  H  2  Z    0.000436  -0.008256   0.018680  -0.015884   0.009265
   21  H  3  S   -0.002100   0.193590   0.111705  -0.330103  -0.178849
   22  H  3  S    0.000500   0.003183   0.024561  -0.041814  -0.026087
   23  H  3  X   -0.000483   0.016933   0.007915  -0.021463   0.009933
   24  H  3  Y   -0.000931   0.033757   0.015817  -0.021122  -0.021330
   25  H  3  Z    0.000436  -0.008256   0.018680   0.015884   0.009265
   26  H  4  S   -0.002077   0.200302   0.097388   0.000000   0.380861
   27  H  4  S    0.000434   0.005117   0.022219   0.000000   0.055734
   28  H  4  X    0.001010  -0.037304  -0.017487  -0.000000  -0.031115
   29  H  4  Y   -0.000000   0.000000  -0.000000   0.021595  -0.000000
   30  H  4  Z    0.000450  -0.010402   0.019325  -0.000000  -0.018672

                      6          7          8
                    0.0212     0.0194     0.0173
                     A          A          A   
    1  N  1  S   -0.028846   0.000000   0.275853
    2  N  1  S   -0.085747   0.000000   0.860090
    3  N  1  S    0.008789  -0.000000   0.148083
    4  N  1  X    0.904250   0.000000   0.079206
    5  N  1  Y   -0.000000   0.937677  -0.000000
    6  N  1  Z   -0.025517   0.000000   0.699752
    7  N  1  X    0.033810   0.000000   0.016496
    8  N  1  Y   -0.000000   0.054660   0.000000
    9  N  1  Z    0.006516  -0.000000  -0.107183
   10  N  1 XX   -0.010834  -0.000000   0.014467
   11  N  1 YY    0.011331   0.000000  -0.002473
   12  N  1 ZZ   -0.000498  -0.000000  -0.011994
   13  N  1 XY    0.000000  -0.008310   0.000000
   14  N  1 XZ   -0.035379  -0.000000  -0.011982
   15  N  1 YZ    0.000000  -0.044773   0.000000
   16  H  2  S    0.399673  -0.634487  -0.498512
   17  H  2  S    0.070619  -0.114936  -0.050004
   18  H  2  X   -0.001002  -0.035826  -0.037374
   19  H  2  Y   -0.041150   0.044117   0.065641
   20  H  2  Z   -0.003985  -0.000022  -0.011103
   21  H  3  S    0.399673   0.634487  -0.498512
   22  H  3  S    0.070619   0.114936  -0.050004
   23  H  3  X   -0.001002   0.035826  -0.037374
   24  H  3  Y    0.041150   0.044117  -0.065641
   25  H  3  Z   -0.003985   0.000022  -0.011103
   26  H  4  S   -0.693461  -0.000000  -0.565771
   27  H  4  S   -0.132541  -0.000000  -0.063892
   28  H  4  X    0.055123   0.000000   0.081618
   29  H  4  Y    0.000000  -0.028432   0.000000
   30  H  4  Z    0.007464   0.000000  -0.010327

          ------------------------
          MCSCF OPTIMIZED ORBITALS
          ------------------------

                      1          2          3          4          5
                  -15.9877     0.0000     0.0000     0.0000     0.0000
                     A          A          A          A          A   
    1  N  1  S    1.001384  -0.004335   0.001189   0.000000  -0.019431
    2  N  1  S   -0.001735   0.402746  -0.004764  -0.000000  -0.201960
    3  N  1  S   -0.006435   0.273111  -0.015988  -0.000000  -0.290112
    4  N  1  X   -0.000013   0.002006   0.432897  -0.000000  -0.008051
    5  N  1  Y    0.000000  -0.000000  -0.000000   0.415250  -0.000000
    6  N  1  Z    0.001170   0.053758  -0.001136  -0.000000   0.577494
    7  N  1  X    0.000024  -0.004194   0.219659  -0.000000  -0.011435
    8  N  1  Y   -0.000000  -0.000000  -0.000000   0.194926  -0.000000
    9  N  1  Z   -0.000419  -0.000764  -0.007100   0.000000   0.384062
   10  N  1 XX   -0.000007  -0.001377   0.012492   0.000000  -0.012683
   11  N  1 YY    0.000176   0.000048  -0.012684  -0.000000  -0.012321
   12  N  1 ZZ   -0.000169   0.001329   0.000192  -0.000000   0.025004
   13  N  1 XY    0.000000  -0.000000  -0.000000  -0.010097  -0.000000
   14  N  1 XZ    0.000038   0.000539   0.029135  -0.000000   0.000551
   15  N  1 YZ   -0.000000   0.000000  -0.000000   0.029460  -0.000000
   16  H  2  S   -0.002100   0.216816  -0.210844   0.384853   0.125268
   17  H  2  S    0.000500   0.005407  -0.032330   0.051802   0.025460
   18  H  2  X   -0.000483   0.018396   0.010016   0.024543   0.009597
   19  H  2  Y    0.000931  -0.036736   0.024576  -0.024936  -0.017784
   20  H  2  Z    0.000436  -0.008202   0.008934  -0.015820   0.019092
   21  H  3  S   -0.002100   0.216816  -0.210844  -0.384853   0.125268
   22  H  3  S    0.000500   0.005407  -0.032330  -0.051802   0.025460
   23  H  3  X   -0.000483   0.018396   0.010016  -0.024543   0.009597
   24  H  3  Y   -0.000931   0.036736  -0.024576  -0.024936   0.017784
   25  H  3  Z    0.000436  -0.008202   0.008934   0.015820   0.019092
   26  H  4  S   -0.002077   0.219320   0.437044  -0.000000   0.126334
   27  H  4  S    0.000434   0.006819   0.065968   0.000000   0.025318
   28  H  4  X    0.001010  -0.040287  -0.035594   0.000000  -0.021246
   29  H  4  Y   -0.000000   0.000000  -0.000000   0.024022   0.000000
   30  H  4  Z    0.000450  -0.010112  -0.019874   0.000000   0.018826

                      6          7          8          9         10
                    0.0000     0.0000     0.0000     0.1576     0.1968
                     A          A          A          A          A   
    1  N  1  S    0.276776  -0.011475  -0.000000  -0.169170  -0.000000
    2  N  1  S    0.878133  -0.031671  -0.000000  -0.265371  -0.000000
    3  N  1  S    0.152006   0.017635  -0.000000   1.656650   0.000001
    4  N  1  X    0.021904   0.946161   0.000000  -0.009419  -0.000000
    5  N  1  Y    0.000000   0.000000   0.978176   0.000000   0.073986
    6  N  1  Z    0.719897   0.016787   0.000000  -0.250436  -0.000000
    7  N  1  X    0.013594   0.053000  -0.000000   0.036083   0.000004
    8  N  1  Y    0.000000   0.000000   0.072159  -0.000000  -0.641629
    9  N  1  Z   -0.096684  -0.001705  -0.000000   0.591647   0.000000
   10  N  1 XX    0.014700  -0.008885  -0.000000   0.005179   0.000001
   11  N  1 YY   -0.003514   0.010179   0.000000   0.040582  -0.000001
   12  N  1 ZZ   -0.011187  -0.001294   0.000000  -0.045760   0.000000
   13  N  1 XY    0.000000   0.000000  -0.009238   0.000000   0.083151
   14  N  1 XZ   -0.009755  -0.033782   0.000000   0.012169   0.000001
   15  N  1 YZ    0.000000   0.000000  -0.042336  -0.000000  -0.101972
   16  H  2  S   -0.509389   0.351512  -0.602852   0.253722  -0.475598
   17  H  2  S   -0.053391   0.064870  -0.110793  -0.894711   1.659113
   18  H  2  X   -0.036175  -0.002530  -0.033790  -0.045543   0.060004
   19  H  2  Y    0.065940  -0.035056   0.042079   0.107915  -0.063507
   20  H  2  Z   -0.010700  -0.004002  -0.001424   0.020080  -0.067366
   21  H  3  S   -0.509389   0.351512   0.602852   0.253722   0.475594
   22  H  3  S   -0.053391   0.064870   0.110793  -0.894711  -1.659099
   23  H  3  X   -0.036175  -0.002530   0.033790  -0.045543  -0.060005
   24  H  3  Y   -0.065940   0.035056   0.042079  -0.107915  -0.063506
   25  H  3  Z   -0.010700  -0.004002   0.001424   0.020080   0.067366
   26  H  4  S   -0.508778  -0.694062   0.000000   0.192599   0.000004
   27  H  4  S   -0.054604  -0.131357   0.000000  -0.789962  -0.000016
   28  H  4  X    0.075688   0.057407  -0.000000   0.110337   0.000001
   29  H  4  Y    0.000000   0.000000  -0.026413  -0.000000   0.046554
   30  H  4  Z   -0.010705   0.005140  -0.000000   0.032528   0.000001

                     11         12         13         14         15
                    0.1970     0.5489     0.5619     0.6182     0.8710
                     A          A          A          A          A   
    1  N  1  S    0.012101   0.015765   0.000000   0.094714  -0.000000
    2  N  1  S    0.021928   0.006592  -0.000000   0.363735  -0.000000
    3  N  1  S   -0.086063  -0.174027  -0.000000   0.190366   0.000000
    4  N  1  X    0.036365  -0.563943  -0.000000  -0.083252  -0.000000
    5  N  1  Y    0.000001   0.000000  -0.522824  -0.000000  -0.083075
    6  N  1  Z    0.022558   0.136291   0.000000  -0.676837   0.000000
    7  N  1  X   -0.539287   1.813971   0.000001   0.383333   0.000000
    8  N  1  Y   -0.000005  -0.000001   1.920962   0.000000   0.564664
    9  N  1  Z   -0.059466  -0.191125  -0.000000   1.084214   0.000000
   10  N  1 XX   -0.081148   0.001479  -0.000000  -0.033356   0.000000
   11  N  1 YY    0.082774   0.006996   0.000000  -0.045039  -0.000000
   12  N  1 ZZ   -0.001626  -0.008475  -0.000000   0.078395   0.000000
   13  N  1 XY    0.000001  -0.000000   0.028423   0.000000  -0.174030
   14  N  1 XZ   -0.091238   0.038513   0.000000  -0.011972  -0.000000
   15  N  1 YZ   -0.000001  -0.000000   0.027259  -0.000000  -0.179454
   16  H  2  S    0.295707   0.373472  -0.593131  -0.452059  -0.130473
   17  H  2  S   -0.958825   0.537522  -0.847729   0.206765  -0.176032
   18  H  2  X    0.018807   0.079251   0.004028   0.028291  -0.328897
   19  H  2  Y    0.054790  -0.036137   0.149093  -0.055837   0.071651
   20  H  2  Z    0.026525  -0.058106   0.056766   0.054158  -0.310893
   21  H  3  S    0.295714   0.373471   0.593132  -0.452059   0.130473
   22  H  3  S   -0.958850   0.537521   0.847730   0.206765   0.176032
   23  H  3  X    0.018806   0.079251  -0.004028   0.028291   0.328897
   24  H  3  Y   -0.054791   0.036137   0.149093   0.055837   0.071651
   25  H  3  Z    0.026526  -0.058106  -0.056766   0.054158   0.310893
   26  H  4  S   -0.580316  -0.496973  -0.000000  -0.668888  -0.000000
   27  H  4  S    1.998426  -1.025051  -0.000001  -0.084917  -0.000000
   28  H  4  X   -0.097202   0.138590   0.000000  -0.015867   0.000000
   29  H  4  Y    0.000000  -0.000000   0.086524   0.000000  -0.491732
   30  H  4  Z   -0.068961   0.083316   0.000000   0.053409  -0.000000

                     16         17         18         19         20
                    0.9393     0.9544     1.3789     1.5151     1.5555
                     A          A          A          A          A   
    1  N  1  S   -0.104519  -0.538017   0.000000  -0.652078  -0.000000
    2  N  1  S   -0.223972  -1.143767   0.000000  -1.333101  -0.000000
    3  N  1  S    0.521652   2.314117  -0.000000   2.635272   0.000000
    4  N  1  X   -0.072197  -0.015761  -0.000000   0.000173  -0.000000
    5  N  1  Y   -0.000000  -0.000000  -0.073201  -0.000000  -0.006794
    6  N  1  Z    0.045434   0.175395  -0.000000  -0.020031   0.000000
    7  N  1  X    0.481087   0.054657  -0.000000  -0.078929   0.000000
    8  N  1  Y   -0.000000   0.000000   0.302504  -0.000000   1.022148
    9  N  1  Z    0.090844  -0.077978  -0.000000   1.077128   0.000000
   10  N  1 XX    0.158485  -0.125776  -0.000000   0.149947   0.000000
   11  N  1 YY   -0.145643  -0.090154   0.000000   0.162493   0.000000
   12  N  1 ZZ   -0.012841   0.215930   0.000000  -0.312441  -0.000000
   13  N  1 XY    0.000000   0.000000  -0.026499   0.000000  -0.030384
   14  N  1 XZ   -0.221654   0.005575  -0.000000   0.009340   0.000000
   15  N  1 YZ    0.000000   0.000000  -0.007063  -0.000000  -0.124239
   16  H  2  S   -0.006517  -0.328940  -0.129329  -0.752084  -0.345835
   17  H  2  S    0.004681  -0.324558  -0.052307  -0.234981  -0.212470
   18  H  2  X   -0.334000   0.062088  -0.541399   0.105561  -0.007947
   19  H  2  Y   -0.233533  -0.034598  -0.393809   0.093836  -0.249259
   20  H  2  Z    0.203155   0.305279   0.131375  -0.375877   0.592953
   21  H  3  S   -0.006517  -0.328940   0.129329  -0.752084   0.345835
   22  H  3  S    0.004681  -0.324558   0.052307  -0.234981   0.212470
   23  H  3  X   -0.334000   0.062088   0.541399   0.105561   0.007947
   24  H  3  Y    0.233533   0.034598  -0.393809  -0.093836  -0.249259
   25  H  3  Z    0.203155   0.305279  -0.131375  -0.375877  -0.592953
   26  H  4  S   -0.206932  -0.357320   0.000000  -0.706925  -0.000000
   27  H  4  S   -0.239984  -0.314557   0.000000  -0.213235  -0.000000
   28  H  4  X    0.289146  -0.104410  -0.000000   0.106161  -0.000000
   29  H  4  Y    0.000000   0.000000   0.478989   0.000000  -0.747660
   30  H  4  Z   -0.397510   0.347480  -0.000000  -0.387441  -0.000000

                     21         22         23         24         25
                    1.5736     1.8261     1.8498     2.1090     2.3257
                     A          A          A          A          A   
    1  N  1  S   -0.087501   0.034403   0.000000   0.017016   0.092304
    2  N  1  S   -0.173281   0.070475  -0.000000   0.163881   0.235467
    3  N  1  S    0.434953  -0.145949  -0.000000   2.235458   0.539985
    4  N  1  X    0.084342   0.526944   0.000000   0.012662   0.045339
    5  N  1  Y   -0.000000  -0.000000   0.598547  -0.000000   0.000000
    6  N  1  Z    0.009185   0.018118  -0.000000   0.396276   0.141684
    7  N  1  X    0.883459  -0.123444  -0.000000  -0.061782  -0.325202
    8  N  1  Y    0.000000   0.000000  -0.002794  -0.000000  -0.000000
    9  N  1  Z    0.199077  -0.049860  -0.000000   1.007706  -0.074495
   10  N  1 XX    0.020917  -0.247965  -0.000000  -0.205680   0.871533
   11  N  1 YY   -0.010217   0.192003   0.000000  -0.249666  -0.270201
   12  N  1 ZZ   -0.010700   0.055962   0.000000   0.455346  -0.601331
   13  N  1 XY   -0.000000  -0.000000   0.277180   0.000000  -0.000000
   14  N  1 XZ   -0.166684  -0.172709  -0.000000  -0.018261  -0.634521
   15  N  1 YZ   -0.000000   0.000000  -0.189986  -0.000000  -0.000000
   16  H  2  S    0.014456  -0.033917   0.084114  -0.674937  -0.212863
   17  H  2  S    0.087671   0.232838  -0.367232  -0.337740  -0.117544
   18  H  2  X   -0.530933   0.257147  -0.392166  -0.275417   0.329672
   19  H  2  Y   -0.135574  -0.355271   0.595403   0.815837   0.395415
   20  H  2  Z   -0.411998  -0.119270   0.345658  -0.127508   0.195842
   21  H  3  S    0.014456  -0.033917  -0.084114  -0.674937  -0.212863
   22  H  3  S    0.087671   0.232837   0.367232  -0.337740  -0.117544
   23  H  3  X   -0.530933   0.257147   0.392166  -0.275417   0.329672
   24  H  3  Y    0.135574   0.355270   0.595403  -0.815837  -0.395415
   25  H  3  Z   -0.411998  -0.119270  -0.345658  -0.127508   0.195842
   26  H  4  S   -0.412819   0.191654   0.000000  -0.658848  -0.092560
   27  H  4  S   -0.294378  -0.422821  -0.000000  -0.262537  -0.021719
   28  H  4  X   -0.141914   0.861373   0.000000   0.791017   0.091431
   29  H  4  Y    0.000000  -0.000000   0.053763   0.000000   0.000000
   30  H  4  Z    0.661878   0.301239   0.000000  -0.072228   0.637165

                     26         27         28         29
                    2.3852     2.4628     2.8255     2.8959
                     A          A          A          A   
    1  N  1  S   -0.000000   0.054926   0.000000   0.023117
    2  N  1  S   -0.000000   0.231774   0.000000   0.056429
    3  N  1  S   -0.000000   1.754576   0.000000   0.105985
    4  N  1  X   -0.000000   0.062202  -0.000000  -0.678447
    5  N  1  Y   -0.071951  -0.000000   0.697529  -0.000000
    6  N  1  Z   -0.000000   0.307025   0.000000   0.016092
    7  N  1  X   -0.000000   0.402920  -0.000000  -1.217048
    8  N  1  Y    0.376951   0.000000   1.398777  -0.000000
    9  N  1  Z   -0.000000   0.276388   0.000000  -0.032926
   10  N  1 XX    0.000000   0.032174  -0.000000  -0.954198
   11  N  1 YY   -0.000000   0.807415   0.000000   1.060568
   12  N  1 ZZ    0.000000  -0.839590  -0.000000  -0.106370
   13  N  1 XY    0.943236   0.000000  -0.941232   0.000000
   14  N  1 XZ   -0.000000   0.557531  -0.000000  -1.008938
   15  N  1 YZ    0.725359   0.000000   1.140645  -0.000000
   16  H  2  S   -0.068297  -0.550789  -1.233535  -0.747561
   17  H  2  S   -0.038584  -0.142939  -0.467200  -0.272072
   18  H  2  X   -0.311917  -0.460065  -0.400210  -0.219528
   19  H  2  Y   -0.144351   0.198453   0.794938   0.534951
   20  H  2  Z   -0.299399   0.548736   0.357223   0.297469
   21  H  3  S    0.068297  -0.550789   1.233535  -0.747561
   22  H  3  S    0.038584  -0.142939   0.467200  -0.272072
   23  H  3  X    0.311917  -0.460065   0.400210  -0.219528
   24  H  3  Y   -0.144351  -0.198453   0.794937  -0.534952
   25  H  3  Z    0.299399   0.548736  -0.357223   0.297469
   26  H  4  S    0.000000  -0.786798   0.000000   1.367116
   27  H  4  S    0.000000  -0.324308   0.000000   0.503924
   28  H  4  X   -0.000000   0.554236  -0.000000  -0.998718
   29  H  4  Y   -0.649654  -0.000000  -0.110258   0.000000
   30  H  4  Z    0.000000   0.376064  -0.000000  -0.487761
 .....DONE WITH MCSCF ITERATIONS.....
 CPU     0: STEP CPU TIME=     6.98 TOTAL CPU TIME=          8.0 (      0.1 MIN)
 TOTAL WALL CLOCK TIME=          8.0 SECONDS, CPU UTILIZATION IS   100.00%

     ----------------------------------------------------------------
     PROPERTY VALUES FOR THE MCSCF SELF-CONSISTENT FIELD WAVEFUNCTION
     ----------------------------------------------------------------

          -----------------
          ENERGY COMPONENTS
          -----------------

         WAVEFUNCTION NORMALIZATION =       1.0000000000

                ONE ELECTRON ENERGY =     -95.0247991355
                TWO ELECTRON ENERGY =      27.4321370080
           NUCLEAR REPULSION ENERGY =      11.8249887463
                                      ------------------
                       TOTAL ENERGY =     -55.7676733813

 ELECTRON-ELECTRON POTENTIAL ENERGY =      27.4321370080
  NUCLEUS-ELECTRON POTENTIAL ENERGY =    -150.9847538318
   NUCLEUS-NUCLEUS POTENTIAL ENERGY =      11.8249887463
                                      ------------------
             TOTAL POTENTIAL ENERGY =    -111.7276280776
               TOTAL KINETIC ENERGY =      55.9599546963
                 VIRIAL RATIO (V/T) =       1.9965639480

          ---------------------------------------
          MULLIKEN AND LOWDIN POPULATION ANALYSES
          ---------------------------------------

     ATOMIC MULLIKEN POPULATION IN EACH MOLECULAR ORBITAL

                      1          2          3          4          5

                  2.000000   1.985009   1.657148   1.650547   1.649324

    1             2.001090   1.281759   1.546570   0.962989   1.004002
    2            -0.000364   0.228992   0.038892   0.339248   0.104428
    3            -0.000364   0.228992   0.038892   0.339248   0.104428
    4            -0.000362   0.245265   0.032794   0.009062   0.436467

                      6          7          8

                  0.021234   0.019448   0.017291

    1             0.010943   0.010270   0.009309
    2             0.002052   0.004601   0.002423
    3             0.002052   0.004601   0.002423
    4             0.006187  -0.000024   0.003136
 WARNING! MCSCF POPULATIONS SHOWN ABOVE ARE FOR THE NATURAL ORBITALS.
 IGNORE THE ABOVE DATA FOR MCSCF FUNCTIONS WHICH ARE NOT OF -FORS- TYPE.
 THE FOLLOWING POPULATIONS ARE CORRECT FOR ANY MCSCF WAVEFUNCTION.

               ----- POPULATIONS IN EACH AO -----
                             MULLIKEN      LOWDIN
              1  N  1  S      2.00285     1.89146
              2  N  1  S      0.82929     0.57617
              3  N  1  S      0.59967     0.38496
              4  N  1  X      0.69801     0.62581
              5  N  1  Y      0.68625     0.60898
              6  N  1  Z      0.89303     0.83294
              7  N  1  X      0.30637     0.39339
              8  N  1  Y      0.27784     0.38147
              9  N  1  Z      0.51362     0.55078
             10  N  1 XX      0.00058     0.16394
             11  N  1 YY      0.00343     0.17297
             12  N  1 ZZ      0.00224     0.14179
             13  N  1 XY      0.00682     0.00855
             14  N  1 XZ      0.00693     0.01224
             15  N  1 YZ      0.00000     0.01297
             16  H  2  S      0.62800     0.48776
             17  H  2  S      0.03309     0.14017
             18  H  2  X      0.01398     0.02658
             19  H  2  Y      0.03061     0.05128
             20  H  2  Z      0.01460     0.03916
             21  H  3  S      0.62800     0.48776
             22  H  3  S      0.03309     0.14017
             23  H  3  X      0.01398     0.02658
             24  H  3  Y      0.03061     0.05128
             25  H  3  Z      0.01460     0.03916
             26  H  4  S      0.63562     0.49399
             27  H  4  S      0.03720     0.14001
             28  H  4  X      0.03490     0.05750
             29  H  4  Y      0.00904     0.01896
             30  H  4  Z      0.01576     0.04122

          ----- MULLIKEN ATOMIC OVERLAP POPULATIONS -----
          (OFF-DIAGONAL ELEMENTS NEED TO BE MULTIPLIED BY 2)

             1           2           3           4

    1    5.8658301
    2    0.3211564   0.4088796
    3    0.3211564  -0.0050249   0.4088796
    4    0.3187882  -0.0047396  -0.0047396   0.4232170

          TOTAL MULLIKEN AND LOWDIN ATOMIC POPULATIONS
       ATOM         MULL.POP.    CHARGE          LOW.POP.     CHARGE
    1 N             6.826931    0.173069         6.758412    0.241588
    2 H             0.720271    0.279729         0.744953    0.255047
    3 H             0.720271    0.279729         0.744953    0.255047
    4 H             0.732526    0.267474         0.751683    0.248317

          MULLIKEN SPHERICAL HARMONIC POPULATIONS
       ATOM           S       P       D      F      G      H      I    TOTAL
    1 N             3.43    3.38    0.02   0.00   0.00   0.00   0.00    6.83
    2 H             0.66    0.06    0.00   0.00   0.00   0.00   0.00    0.72
    3 H             0.66    0.06    0.00   0.00   0.00   0.00   0.00    0.72
    4 H             0.67    0.06    0.00   0.00   0.00   0.00   0.00    0.73

          ---------------------
          ELECTROSTATIC MOMENTS
          ---------------------

 POINT   1           X           Y           Z (BOHR)    CHARGE
                 0.000001    0.000000   -0.177185        1.00 (A.U.)
         DX          DY          DZ         /D/  (DEBYE)
     0.099062    0.000000    2.144395    2.146682
 ...... END OF PROPERTY EVALUATION ......
 CPU     0: STEP CPU TIME=     0.00 TOTAL CPU TIME=          8.0 (      0.1 MIN)
 TOTAL WALL CLOCK TIME=          8.0 SECONDS, CPU UTILIZATION IS   100.00%

     -------------------------------------------------
     GMC-PT/GMC-QDPT or general MCSCF input parameters
     -------------------------------------------------
 # of frozen core orbs. =         0 ->         0
 # of doubly occ. orbs. =         1
 # of active      orbs. =         7
 # of virtual     orbs. =        21
 # of active electrons  =         7
 # of states in CI      =         3
 Highest state in CI    =         3
 kstate =  1 1 1
 avecoe =  0.333 0.333 0.333
 State symmetry           = A           
 Assigned symmetry number = 1

 <<<Act. MO sym.: 1111111

 <<<Division of 1-ext.:  0
 <<<Division of 2-ext.:  0

     ------------------------
     Orbital canonicalization
     ------------------------

 MOs are canonicalized for core, virtual, and invariant-active orbital spaces.
 This is a part of the GMC-QDPT calculation.
 SCHWARZ INEQUALITY OVERHEAD:       465 INTEGRALS, T=        0.00
 DIRECT TRANSFORMATION SKIPS AO INTEGRAL STORAGE ON DISK.

 Averaged energy =     -55.767673381

 State #    1  Energy =     -55.911425474  S =  0.500
 State #    2  Energy =     -55.710745900  S =  0.500
 State #    3  Energy =     -55.680848769  S =  0.500

 Orbital energies for filled orbital space
  -15.987719
 Orbital energies for active orbital space
   -1.540366  -0.929015  -0.960574  -0.763773   0.447554
    0.355102   0.397530
 Orbital energies for external orbital space
    0.157577   0.196791   0.197042   0.548856   0.561891
    0.618226   0.871008   0.939290   0.954430   1.378889
    1.515058   1.555525   1.573581   1.826055   1.849828
    2.109017   2.325734   2.385234   2.462751   2.825515
    2.895891

 Zero values mean non-canonical orbitals.
 ... done with orbital canonicalization ...
 CPU     0: STEP CPU TIME=     0.50 TOTAL CPU TIME=          8.5 (      0.1 MIN)
 TOTAL WALL CLOCK TIME=          8.5 SECONDS, CPU UTILIZATION IS    99.88%

     --------------------------------------------
     PARTIAL TWO ELECTRON INTEGRAL TRANSFORMATION
     --------------------------------------------

 NUMBER OF CORE MOLECULAR ORBITALS     =    0
 NUMBER OF OCCUPIED MOLECULAR ORBITALS =    8
 TOTAL NUMBER OF MOLECULAR ORBITALS    =   29
 TOTAL NUMBER OF ATOMIC ORBITALS       =   30
 THRESHOLD FOR KEEPING TRANSFORMED 2E- INTEGRALS = 1.000E-09
 AO INTEGRALS WILL BE CALCULATED IN DIRECT MODE...
 DIRECT TRANSFORMATION SKIPS AO INTEGRAL STORAGE ON DISK.
 SCHWARZ INEQUALITY OVERHEAD:       465 INTEGRALS, T=        0.00

 PLAN A: REQUIREMENTS FOR FULLY IN-MEMORY TRANSFORMATION:
 # OF WORDS AVAILABLE =            100000000
 # OF WORDS NEEDED    =               221798

 PARALLEL ONLY WORKS WITH THE SEGMENTED ALGORITHM.
 ADJUSTING MEMORY TO USE SEGMENTED ALGORITHM.


 PLAN B: REQUIREMENTS FOR THE SEGMENTED TRANSFORMATION:
       MINIMUM=         124148 WORDS FOR 1 MOLECULAR ORBITAL PER PASS
       MAXIMUM=         221798 WORDS FOR ALL MOLECULAR ORBITALS IN 1 PASS
              (          13950 EXTRA WORDS INCLUDES 1 EXTRA ORBITAL/PASS)
 THIS RUN USES=         221798 WORDS,
 DISTRIBUTING   1 PASSES EACH CONTAINING     8 ORBITALS OVER   1 PROCESSORS.

 CHOOSING SEGMENTED PARTIAL TRANSFORMATION...
 DIRECT TRANSFORMATION SKIPS AO INTEGRAL STORAGE ON DISK.
 PASS #   1 TOOK        0.04 SECONDS.
 TOTAL NUMBER OF TRANSFORMED 2E- INTEGRALS KEPT =        21880
 ... END OF INTEGRAL TRANSFORMATION ...
 CPU     0: STEP CPU TIME=     0.04 TOTAL CPU TIME=          8.5 (      0.1 MIN)
 TOTAL WALL CLOCK TIME=          8.5 SECONDS, CPU UTILIZATION IS    99.88%

     --------     ------------------------------------------
     GMC-QDPT     Program written by H.Nakano (Kyushu Univ.)
     --------     ------------------------------------------

 *** Reference space

 Reference type: ORMAS (= Occupation restricted multiple active space)
 # of orbitals          =  7
 # of minimum electrons =  7
 # of maximum electrons =  7
 State symmetry    =    1 (input)
 2*Sz              =    1 (input)
 Spin multiplicity =    2 (input)
 Dimension of reference space =      1225  (from      3432 walks)

 Dimension of reference space =      1225  (from      1225 walks)

 <<<Ionized spaces for Ref-CI:
      0:         1225 /   -1-0:         1960 /  0-1-0:         2891

 ***                    ***
 *** Reference space CI ***
 ***                    ***

 Converged after   27 iterations

 Reference wavefunctions:

 State #    1  Energy =     -55.911425474  S =  0.500

      Det      Coef    Occupancy (Ignoring core)
      ---      ----    --------- --------- -----
        1    0.980530  11110001110000
      393    0.071358  10110101010010
      717    0.068619  11010011100001

 State #    2  Energy =     -55.710745900  S =  0.500

      Det      Coef    Occupancy (Ignoring core)
      ---      ----    --------- --------- -----
       71   -0.984490  11110001011000
      822    0.068022  11010011001001

 State #    3  Energy =     -55.680848769  S =  0.500

      Det      Coef    Occupancy (Ignoring core)
      ---      ----    --------- --------- -----
       36   -0.983752  11110001101000
      463   -0.070810  10110101001010

 Davidson method: CPU/Wall time =           0.45 /           0.45 sec.

 Oscillator strength (invalid if E(1)/=E(GS)):
 -----------------------------------------
   State                        f
 -----------------------------------------
     2     F(REF-CI)=        0.0000775548
     3     F(REF-CI)=        0.0000944321
 -----------------------------------------

 Dipole moment matrix elements, x, y, z, in A.U.

 Dimension of ionized spaces for PT:
 (N-2) space:         1715 /  (N-1) space:         2842 /  N space:         2891
 (N+1) space:         2842 /  (N+2) space:         1715

 <<<Ionized spaces for internal:
         0:         1225 /      -1-0:         1960 /     0-1-0:         2891
  -1-0-1-0:         2842 / 0-1-0-1-0:         3381

 Diagonal elements of averaged one-particle density matrix:
       2       3       4       5       6       7       8
  0.9945  0.9890  0.9895  0.9934  0.0094  0.0126  0.0116
  0.9905  0.6601  0.6609  0.6637  0.0080  0.0088  0.0081

 Orbital energies:
 -------- Doubly-occupied orbitals (highest several orbs.) -------
             1
 -1.598772D+01
 -------- Active orbitals ----------------------------------------
             2            3            4            5            6
 -1.540366D+00-9.290146D-01-9.605740D-01-7.637731D-01 4.475536D-01
             7            8
  3.551023D-01 3.975302D-01
 -------- External orbitals (lowest several orbs.) ---------------
             9           10           11           12           13
  1.575768D-01 1.967908D-01 1.970423D-01 5.488556D-01 5.618912D-01
            14           15           16           17           18
  6.182263D-01 8.710083D-01 9.392901D-01 9.544299D-01 1.378889D+00

 *** Quasi-degeneracy checking

 === Det (|Ci| > 1.0D-01 and dE < 5.0D-03)

 # of small denominators (single excitations)
 State       dEmin  dE < 5.0D-03  dE < 5.0D-04  dE < 5.0D-05  dE < 5.0D-06
 ----- ----------- ------------- ------------- ------------- -------------
     1    5.00D-03             0             0             0             0
     2    5.00D-03             0             0             0             0
     3    5.00D-03             0             0             0             0

 # of small denominators (double excitations)
 State       dEmin  dE < 5.0D-03  dE < 5.0D-04  dE < 5.0D-05  dE < 5.0D-06
 ----- ----------- ------------- ------------- ------------- -------------
     1    5.00D-03             0             0             0             0
     2    5.00D-03             0             0             0             0
     3    5.00D-03             0             0             0             0

 *** Zeroth-Order Setup (Granovsky's zeroth-order vectors)
 Zeroth-order effective Hamiltonian
  (= Sum_i e(i)*<I|a+(i)a(i)|J> ):
                   1            2            3
     1 -7.525620D+00
     2 -1.806365D-03-7.379983D+00
     3 -1.341242D-13-1.557740D-09-7.346388D+00

 Zeroth-order vectors:
 State #    1
       MC st            1           2           3
       Coeff    9.999D-01   1.240D-02   1.085D-10
 State #    2
       MC st            2           1           3
       Coeff   -9.999D-01   1.240D-02  -4.640D-08
 State #    3
       MC st            3           2           1
       Coeff    1.000D+00  -4.639D-08   4.668D-10

 *** GMC-QDPT computation

 (Integral reading:  CPU/Wall time =           0.00 /           0.00 sec.)

 One-external:
   0 -ionized terms: CPU/Wall time =           0.03 /           0.04 sec.
 (-1)-ionized terms: CPU/Wall time =           0.10 /           0.09 sec.
 (+1)-ionized terms: CPU/Wall time =           0.03 /           0.03 sec.
 (+1)-ionized terms: CPU/Wall time =           0.00 /           0.00 sec.
 (+2)-ionized terms: CPU/Wall time =           0.00 /           0.00 sec.

 Internal:
 # of macro loops for internal contribution =         1 (input)
 Loop:    1
 Dimension of internal CISD space     =         0  (after screening)
 Space construction: CPU/Wall time =           0.02 /           0.02 sec.
 Internal terms:     CPU/Wall time =           0.00 /           0.00 sec.

 Two-external:
   0 -ionized terms: CPU/Wall time =           0.03 /           0.03 sec.
 (-1)-ionized terms: CPU/Wall time =           0.32 /           0.32 sec.
 (-2)-ionized terms: CPU/Wall time =           0.18 /           0.19 sec.

 Total time:         CPU/Wall time =           0.71 /           0.72 sec.

 ***                  ***
 *** GMC-QDPT Results ***
 ***                  ***

 Diagonal elements of effective Hamiltonian:
 Heff(  1) =   -56.00876669
 Heff(  2) =   -55.82053281
 Heff(  3) =   -55.79123033

 Off-diagonal elements of effective Hamiltonian:
                   1            2
     2 -2.223288D-03
     3 -1.352673D-11-1.140078D-09

 ******** GMC-QDPT energies ********
 ----------------------------------------------------------------------------
   State                        1st order                           2nd order
 ----------------------------------------------------------------------------
     1     E(REF-CI)=      -55.9114254743   E(GMC-QDPT2)=      -56.0087929475
     2     E(REF-CI)=      -55.7107459004   E(GMC-QDPT2)=      -55.8205065502
     3     E(REF-CI)=      -55.6808487690   E(GMC-QDPT2)=      -55.7912303304
 ----------------------------------------------------------------------------

 Excitation energies (invalid if E(1)/=E(GS)):
 ----------------------------------------------------------------------------
   State                        1st order                           2nd order
 ----------------------------------------------------------------------------

     TZ Sorted GMC-PT ENERGIES:
         1      -56.0087929475
         2      -55.8205065502
         3      -55.7912303304
     2     E(REF-CI)=        5.4607722 eV   E(GMC-QDPT2)=        5.1235365 eV
     3     E(REF-CI)=        6.2743150 eV   E(GMC-QDPT2)=        5.9201834 eV
 ----------------------------------------------------------------------------

 Main characters of perturbed GMC-QDPT states:

 State #    1  Energy =     -56.008792947  S =  0.500

      Det      Coef    Occupancy (Ignoring core)
      ---      ----    --------- --------- -----
        1    0.980534  11110001110000
      393    0.071361  10110101010010
      717    0.068619  11010011100001

 State #    2  Energy =     -55.820506550  S =  0.500

      Det      Coef    Occupancy (Ignoring core)
      ---      ----    --------- --------- -----
       71   -0.984494  11110001011000
      822    0.068022  11010011001001

 State #    3  Energy =     -55.791230330  S =  0.500

      Det      Coef    Occupancy (Ignoring core)
      ---      ----    --------- --------- -----
       36   -0.983752  11110001101000
      463   -0.070810  10110101001010

 <<<Max |V/de| = 3.355D-02  Thresh = 1.000D+00

 Oscillator strength (invalid if E(1)/=E(GS)):
 ----------------------------------------------------------------------------
   State                        1st order                           2nd order
 ----------------------------------------------------------------------------
     2     F(REF-CI)=        0.0000775548     F(GMC-PT2)=        0.0000748027
     3     F(REF-CI)=        0.0000944321     F(GMC-PT2)=        0.0000902102
 ----------------------------------------------------------------------------

 Dipole moment matrix elements, x, y, z, in A.U.
States    1    1        0.0559527612        0.0000000011        0.7794595099
States    1    2       -0.0060892808       -0.0000000005       -0.0236398505
States    1    3       -0.0000000024       -0.0249391296        0.0000000013
States    2    1       -0.0060892808       -0.0000000005       -0.0236398505
States    2    2       -0.1613267111       -0.0000000073        0.2510782953
States    2    3        0.0000000078       -0.2596799556       -0.0000000002
States    3    1       -0.0000000024       -0.0249391296        0.0000000013
States    3    2        0.0000000078       -0.2596799556       -0.0000000002
States    3    3        0.3025925321        0.0000000026        0.2506913442

 Oscillator strength (valid only when positive): 
 ----------------------------------------------------------------------------
  States                        1st order                           2nd order
 ----------------------------------------------------------------------------
  1  1     F(REF-CI)=        0.0000000000     F(GMC-PT2)=        0.0000000000
  1  2     F(REF-CI)=       -0.0000775548     F(GMC-PT2)=       -0.0000748027
  1  3     F(REF-CI)=       -0.0000944321     F(GMC-PT2)=       -0.0000902102
  2  1     F(REF-CI)=        0.0000775548     F(GMC-PT2)=        0.0000748027
  2  2     F(REF-CI)=        0.0000000000     F(GMC-PT2)=        0.0000000000
  2  3     F(REF-CI)=       -0.0013442013     F(GMC-PT2)=       -0.0013161355
  3  1     F(REF-CI)=        0.0000944321     F(GMC-PT2)=        0.0000902102
  3  2     F(REF-CI)=        0.0013442013     F(GMC-PT2)=        0.0013161355
  3  3     F(REF-CI)=        0.0000000000     F(GMC-PT2)=        0.0000000000
 CPU     0: STEP CPU TIME=     1.23 TOTAL CPU TIME=          9.7 (      0.2 MIN)
 TOTAL WALL CLOCK TIME=          9.7 SECONDS, CPU UTILIZATION IS    99.90%

     !!! DIABATIZATION FOR REF CI STATES !!!

 *******************************************************
          $DMO GROUP FOUND IN THE INPUT.
        DIABATIZATION OF ADIABATIC STATES BEGINS.
     PROGRAMMED BY TAO ZENG (CARLETON UNIVERSITY).
               Email: toby.zeng@carleton.ca
     See T. Zeng, J. Chem. Phys. 2017, 146, 144103
 *******************************************************

 *************************************************************************
     STEP 1: TRANSFORMATION OF ADIABATIC STATES TO THE DMO REPRESENTATION
         See Atchity and Ruedenberg, J. Chem. Phys. 1999, 111, 2910
 *************************************************************************

Read in Diabatic Molecualr Orbitals:

                      1          2          3          4          5

    1  N  1  S    0.008609   0.000000   0.000000  -0.013219   0.279491
    2  N  1  S    0.442914  -0.000000   0.000000  -0.184329   0.867803
    3  N  1  S    0.276913   0.000000  -0.000000  -0.288315   0.144236
    4  N  1  X   -0.000000   0.493155  -0.024636  -0.000000  -0.000000
    5  N  1  Y    0.000000   0.024636   0.493155  -0.000000   0.000000
    6  N  1  Z    0.090197   0.000000   0.000000   0.593421   0.705309
    7  N  1  X   -0.000000   0.210628  -0.010522   0.000000   0.000000
    8  N  1  Y    0.000000   0.010522   0.210628  -0.000000  -0.000000
    9  N  1  Z   -0.004381   0.000000   0.000000   0.381592  -0.106092
   10  N  1 XX   -0.000457   0.010719  -0.000535  -0.012387   0.006153
   11  N  1 YY   -0.000457  -0.010719   0.000535  -0.012387   0.006153
   12  N  1 ZZ    0.000914  -0.000000   0.000000   0.024773  -0.012306
   13  N  1 XY    0.000000  -0.000618  -0.012377  -0.000000   0.000000
   14  N  1 XZ   -0.000000   0.026529  -0.001325  -0.000000   0.000000
   15  N  1 YZ    0.000000   0.001325   0.026529  -0.000000   0.000000
   16  H  2  S    0.194462  -0.176074   0.343485   0.112865  -0.523343
   17  H  2  S    0.003574  -0.023812   0.046452   0.024014  -0.054445
   18  H  2  X    0.018760   0.009101   0.022834   0.009336  -0.039151
   19  H  2  Y   -0.032493   0.022287  -0.020044  -0.016171   0.067811
   20  H  2  Z   -0.009251   0.008464  -0.016511   0.018769  -0.010566
   21  H  3  S    0.194462  -0.209430  -0.324227   0.112865  -0.523343
   22  H  3  S    0.003574  -0.028322  -0.043847   0.024014  -0.054445
   23  H  3  X    0.018760   0.006781  -0.023627   0.009336  -0.039151
   24  H  3  Y    0.032493  -0.024174  -0.017723   0.016171  -0.067811
   25  H  3  Z   -0.009251   0.010067   0.015585   0.018769  -0.010566
   26  H  4  S    0.194462   0.385503  -0.019258   0.112865  -0.523343
   27  H  4  S    0.003574   0.052134  -0.002604   0.024014  -0.054445
   28  H  4  X   -0.037519  -0.032295   0.001613  -0.018672   0.078302
   29  H  4  Y    0.000000   0.001067   0.021353  -0.000000   0.000000
   30  H  4  Z   -0.009251  -0.018530   0.000926   0.018769  -0.010566

                      6          7

    1  N  1  S    0.000000  -0.000000
    2  N  1  S    0.000000  -0.000000
    3  N  1  S   -0.000000   0.000000
    4  N  1  X   -0.930415  -0.002083
    5  N  1  Y   -0.002083   0.930415
    6  N  1  Z   -0.000000   0.000000
    7  N  1  X   -0.046866  -0.000105
    8  N  1  Y   -0.000105   0.046866
    9  N  1  Z   -0.000000   0.000000
   10  N  1 XX    0.001538   0.000003
   11  N  1 YY   -0.001538  -0.000003
   12  N  1 ZZ   -0.000000   0.000000
   13  N  1 XY   -0.000004   0.001776
   14  N  1 XZ    0.039985   0.000090
   15  N  1 YZ    0.000090  -0.039985
   16  H  2  S   -0.362630  -0.631354
   17  H  2  S   -0.065964  -0.114846
   18  H  2  X    0.002763  -0.037520
   19  H  2  Y    0.037435   0.040736
   20  H  2  Z    0.001882   0.003276
   21  H  3  S   -0.365454   0.629724
   22  H  3  S   -0.066477   0.114549
   23  H  3  X    0.002595   0.037532
   24  H  3  Y   -0.037617   0.040567
   25  H  3  Z    0.001896  -0.003268
   26  H  4  S    0.728084   0.001630
   27  H  4  S    0.132441   0.000297
   28  H  4  X   -0.062317  -0.000140
   29  H  4  Y    0.000055  -0.024345
   30  H  4  Z   -0.003778  -0.000008

NUMBER OF SUB ACTIVE SPACES:   1
ROTATE ACTIVE MOS TO DMOS IN EACH SUB-SPACE

SPACE  1:

OVERLAP BETWEEN ORTHONORMAL AND PRE-ORTHONORMAL REF. DMOS

             1           2           3           4           5

    1    0.9994827   0.0050051  -0.0002500  -0.0001802   0.0000431
    2    0.0050051   0.9874351   0.0011702   0.0069334  -0.0134693
    3   -0.0002500   0.0011702   1.0108016  -0.0003464   0.0006729
    4   -0.0001802   0.0069334  -0.0003464   0.9998709  -0.0002511
    5    0.0000431  -0.0134693   0.0006729  -0.0002511   1.0032846
    6   -0.0012208  -0.0101195   0.0005271   0.0076114   0.0016973
    7   -0.0000027  -0.0005023  -0.0095994   0.0000170   0.0000038

             6           7

    1   -0.0012208  -0.0000027
    2   -0.0101195  -0.0005023
    3    0.0005271  -0.0095994
    4    0.0076114   0.0000170
    5    0.0016973   0.0000038
    6    1.0074318   0.0000274
    7    0.0000274   0.9951978
REFERENCE DMOS AFTER ORTHONORMALIZATION:

                      1          2          3          4          5

    1  N  1  S    0.008579   0.003847  -0.000192  -0.013173   0.278625
    2  N  1  S    0.443019   0.010854  -0.000542  -0.184136   0.865042
    3  N  1  S    0.276988   0.002604  -0.000130  -0.288302   0.143711
    4  N  1  X   -0.003582   0.490148  -0.024486   0.003587   0.008152
    5  N  1  Y   -0.000000   0.024817   0.496782   0.000000  -0.000000
    6  N  1  Z    0.090289   0.004910  -0.000245   0.593699   0.703220
    7  N  1  X   -0.001123   0.212919  -0.010636  -0.001142   0.002940
    8  N  1  Y   -0.000000   0.010432   0.208831  -0.000000  -0.000000
    9  N  1  Z   -0.004292  -0.004128   0.000206   0.381664  -0.105699
   10  N  1 XX   -0.000513   0.011050  -0.000552  -0.012477   0.006276
   11  N  1 YY   -0.000408  -0.010702   0.000535  -0.012301   0.005989
   12  N  1 ZZ    0.000921  -0.000348   0.000017   0.024777  -0.012264
   13  N  1 XY    0.000000  -0.000611  -0.012228   0.000000  -0.000000
   14  N  1 XZ   -0.000088   0.027286  -0.001363  -0.000494   0.000299
   15  N  1 YZ    0.000000   0.001292   0.025865  -0.000000   0.000000
   16  H  2  S    0.195206  -0.191696   0.334667   0.116993  -0.523792
   17  H  2  S    0.003643  -0.025837   0.044973   0.024702  -0.054525
   18  H  2  X    0.018739   0.008510   0.022256   0.009259  -0.038927
   19  H  2  Y   -0.032596   0.024205  -0.019549  -0.016621   0.067861
   20  H  2  Z   -0.009296   0.008385  -0.016304   0.018690  -0.010406
   21  H  3  S    0.195206  -0.224095  -0.313896   0.116993  -0.523792
   22  H  3  S    0.003643  -0.030190  -0.042174   0.024702  -0.054525
   23  H  3  X    0.018739   0.006249  -0.022993   0.009259  -0.038927
   24  H  3  Y    0.032596  -0.026033  -0.017039   0.016621  -0.067861
   25  H  3  Z   -0.009296   0.009968   0.015387   0.018690  -0.010406
   26  H  4  S    0.193538   0.389107  -0.019438   0.104546  -0.517604
   27  H  4  S    0.003476   0.053243  -0.002660   0.022630  -0.053767
   28  H  4  X   -0.037461  -0.031970   0.001597  -0.017966   0.077718
   29  H  4  Y    0.000000   0.001044   0.020893  -0.000000   0.000000
   30  H  4  Z   -0.009161  -0.019043   0.000951   0.018931  -0.010776

                      6          7

    1  N  1  S   -0.000321  -0.000001
    2  N  1  S    0.000580   0.000001
    3  N  1  S    0.002298   0.000005
    4  N  1  X   -0.918660  -0.002057
    5  N  1  Y   -0.002104   0.939709
    6  N  1  Z   -0.005511  -0.000012
    7  N  1  X   -0.044373  -0.000099
    8  N  1  Y   -0.000110   0.049112
    9  N  1  Z   -0.002752  -0.000006
   10  N  1 XX    0.001721   0.000004
   11  N  1 YY   -0.001552  -0.000003
   12  N  1 ZZ   -0.000169  -0.000000
   13  N  1 XY   -0.000004   0.001666
   14  N  1 XZ    0.039968   0.000090
   15  N  1 YZ    0.000089  -0.039928
   16  H  2  S   -0.361803  -0.631259
   17  H  2  S   -0.065847  -0.114977
   18  H  2  X    0.002836  -0.037482
   19  H  2  Y    0.037382   0.040755
   20  H  2  Z    0.001826   0.003139
   21  H  3  S   -0.364627   0.629632
   22  H  3  S   -0.066362   0.114681
   23  H  3  X    0.002668   0.037494
   24  H  3  Y   -0.037565   0.040587
   25  H  3  Z    0.001840  -0.003130
   26  H  4  S    0.726948   0.001628
   27  H  4  S    0.131924   0.000295
   28  H  4  X   -0.062220  -0.000139
   29  H  4  Y    0.000054  -0.024260
   30  H  4  Z   -0.004078  -0.000009

 -------------------------------------------
       MAXIMIZING MORMO OVERLAP TERM        
 -------------------------------------------
   SWEEP    VALUE       PROGRESS
     0     6.95785
     1     6.99888     0.04103798
     2     6.99889     0.00000278
     3     6.99889     0.00000000
     4     6.99889     0.00000000
 THE ROTATION IS DONE
FLIPPING SIGN FOR ORBITAL   7
ACTIVE ORBITALS AFTER MORMO:

                      1          2          3          4          5

    1  N  1  S    0.008547   0.005284  -0.000264  -0.013151   0.277096
    2  N  1  S    0.442530   0.011671  -0.000583  -0.184352   0.862993
    3  N  1  S    0.278611  -0.008689   0.000434  -0.287975   0.145758
    4  N  1  X   -0.001544   0.487179  -0.024337   0.006046   0.005430
    5  N  1  Y    0.000000   0.024887   0.498188   0.000000   0.000000
    6  N  1  Z    0.090024   0.007431  -0.000371   0.593715   0.702833
    7  N  1  X   -0.004917   0.222363  -0.011108  -0.008929   0.009954
    8  N  1  Y   -0.000000   0.010002   0.200217  -0.000000   0.000000
    9  N  1  Z   -0.003458  -0.011935   0.000596   0.381631  -0.105207
   10  N  1 XX   -0.000793   0.012278  -0.000613  -0.012341   0.014922
   11  N  1 YY   -0.000129  -0.012009   0.000600  -0.012376  -0.003125
   12  N  1 ZZ    0.000923  -0.000269   0.000013   0.024717  -0.011797
   13  N  1 XY   -0.000000  -0.000542  -0.010849  -0.000000   0.000000
   14  N  1 XZ    0.000005   0.026908  -0.001344   0.000158  -0.009906
   15  N  1 YZ   -0.000000   0.001280   0.025632  -0.000000   0.000000
   16  H  2  S    0.193653  -0.181672   0.340412   0.114660  -0.521773
   17  H  2  S    0.003047  -0.027426   0.043385   0.024679  -0.054281
   18  H  2  X    0.016679   0.010315   0.021021   0.008700  -0.037336
   19  H  2  Y   -0.033744   0.022469  -0.022327  -0.016265   0.067923
   20  H  2  Z   -0.008644   0.007506  -0.016279   0.018905  -0.010844
   21  H  3  S    0.193653  -0.214693  -0.320611   0.114660  -0.521773
   22  H  3  S    0.003047  -0.031613  -0.040436   0.024679  -0.054281
   23  H  3  X    0.016679   0.008169  -0.021944   0.008700  -0.037336
   24  H  3  Y    0.033744  -0.024583  -0.019977   0.016265  -0.067923
   25  H  3  Z   -0.008644   0.009091   0.015450   0.018905  -0.010844
   26  H  4  S    0.195107   0.386690  -0.019317   0.108783  -0.521201
   27  H  4  S    0.004323   0.057010  -0.002848   0.023031  -0.055159
   28  H  4  X   -0.036741  -0.030887   0.001543  -0.018888   0.077939
   29  H  4  Y    0.000000   0.001079   0.021605  -0.000000   0.000000
   30  H  4  Z   -0.010419  -0.019893   0.000994   0.018544  -0.010380

                      6          7

    1  N  1  S    0.008838   0.000020
    2  N  1  S    0.020611   0.000046
    3  N  1  S   -0.023496  -0.000053
    4  N  1  X   -0.919326  -0.002059
    5  N  1  Y   -0.002101   0.938321
    6  N  1  Z   -0.017102  -0.000038
    7  N  1  X   -0.040256  -0.000090
    8  N  1  Y   -0.000123   0.054919
    9  N  1  Z    0.006321   0.000014
   10  N  1 XX    0.009334   0.000021
   11  N  1 YY   -0.011006  -0.000025
   12  N  1 ZZ    0.001672   0.000004
   13  N  1 XY    0.000019  -0.008324
   14  N  1 XZ    0.035522   0.000080
   15  N  1 YZ    0.000100  -0.044739
   16  H  2  S   -0.356245  -0.634859
   17  H  2  S   -0.065644  -0.115029
   18  H  2  X    0.003592  -0.035790
   19  H  2  Y    0.035611   0.044170
   20  H  2  Z    0.004835  -0.000031
   21  H  3  S   -0.359085   0.633258
   22  H  3  S   -0.066159   0.114734
   23  H  3  X    0.003432   0.035806
   24  H  3  Y   -0.035808   0.044010
   25  H  3  Z    0.004835   0.000053
   26  H  4  S    0.724010   0.001621
   27  H  4  S    0.135741   0.000304
   28  H  4  X   -0.060234  -0.000135
   29  H  4  Y    0.000064  -0.028404
   30  H  4  Z   -0.005980  -0.000013

Actually Used Diabatic Molecualr Orbitals:

                      1          2          3          4          5

    1  N  1  S    0.008547   0.005284  -0.000264  -0.013151   0.277096
    2  N  1  S    0.442530   0.011671  -0.000583  -0.184352   0.862993
    3  N  1  S    0.278611  -0.008689   0.000434  -0.287975   0.145758
    4  N  1  X   -0.001544   0.487179  -0.024337   0.006046   0.005430
    5  N  1  Y    0.000000   0.024887   0.498188   0.000000   0.000000
    6  N  1  Z    0.090024   0.007431  -0.000371   0.593715   0.702833
    7  N  1  X   -0.004917   0.222363  -0.011108  -0.008929   0.009954
    8  N  1  Y   -0.000000   0.010002   0.200217  -0.000000   0.000000
    9  N  1  Z   -0.003458  -0.011935   0.000596   0.381631  -0.105207
   10  N  1 XX   -0.000793   0.012278  -0.000613  -0.012341   0.014922
   11  N  1 YY   -0.000129  -0.012009   0.000600  -0.012376  -0.003125
   12  N  1 ZZ    0.000923  -0.000269   0.000013   0.024717  -0.011797
   13  N  1 XY   -0.000000  -0.000542  -0.010849  -0.000000   0.000000
   14  N  1 XZ    0.000005   0.026908  -0.001344   0.000158  -0.009906
   15  N  1 YZ   -0.000000   0.001280   0.025632  -0.000000   0.000000
   16  H  2  S    0.193653  -0.181672   0.340412   0.114660  -0.521773
   17  H  2  S    0.003047  -0.027426   0.043385   0.024679  -0.054281
   18  H  2  X    0.016679   0.010315   0.021021   0.008700  -0.037336
   19  H  2  Y   -0.033744   0.022469  -0.022327  -0.016265   0.067923
   20  H  2  Z   -0.008644   0.007506  -0.016279   0.018905  -0.010844
   21  H  3  S    0.193653  -0.214693  -0.320611   0.114660  -0.521773
   22  H  3  S    0.003047  -0.031613  -0.040436   0.024679  -0.054281
   23  H  3  X    0.016679   0.008169  -0.021944   0.008700  -0.037336
   24  H  3  Y    0.033744  -0.024583  -0.019977   0.016265  -0.067923
   25  H  3  Z   -0.008644   0.009091   0.015450   0.018905  -0.010844
[...]
      822    0.067942   -0.067942  2+02002
        1    0.046912   -0.046912  222+000
      813   -0.040841    0.040841  20+20+-
      111    0.037306   -0.037306  +22-0+0
      320    0.033176    0.033176  0+22200
      323   -0.032019    0.032019  +022-+0
      810    0.031350    0.031350  -++2+0-
      332    0.030945   -0.030945  ++-2-0+
      113    0.029287   -0.029287  +-220+0
       74    0.027750   -0.027750  2022+00
      180   -0.027300    0.027300  -+2+200
        6    0.026703   -0.026703  22200+0
      317    0.026543   -0.026543  ++2-200
      177    0.026257   -0.026257  2+20200
      183   -0.026184    0.026184  202+-+0
       38   -0.023116    0.023116  2202+00
      391    0.022953   -0.022953  2+20020
       99    0.022918   -0.022918  20-20++
      122   -0.022140   -0.022140  +2-200+
      751    0.022105   -0.022105  2+20002
       51   -0.021910    0.021910  22+-00+
      807    0.021865   -0.021865  2++-+0-
      192    0.021620   -0.021620  2+-+-0+
      248    0.021175   -0.021175  2+02200

 State #    3  Energy =     -55.791230426

      Det      Coef        Coefp    Occupancy (Ignoring core)
      ---      ----        ----    --------- --------- -----
       36   -0.983750   -0.983750  22+2000
      463    0.070810   -0.070810  20+2020
      121    0.041842   -0.041842  +22-00+
      472    0.040343    0.040343  2+020-+
      285    0.033075   -0.033075  02+2200
      460   -0.032898   -0.032898  -++2+-0
      288   -0.032195   -0.032195  +-+2-+0
      297   -0.030727    0.030727  +202-0+
      112   -0.029876   -0.029876  +2-20+0
      145   -0.027122   -0.027122  -2++200
      282    0.027010    0.027010  +2+-200
      249    0.026564   -0.026564  20+2200
       39   -0.025190   -0.025190  2-+2+00
      716    0.025145    0.025145  22+0002
      142    0.025046    0.025046  22+0200
       86   -0.024833   -0.024833  2+2-00+
       73    0.024635   -0.024635  2+-2+00
       16    0.023889   -0.023889  222000+
      148   -0.023470   -0.023470  2-++-+0
      457   -0.023394    0.023394  2++-+-0
       41   -0.022910    0.022910  22+-0+0
      157   -0.022749    0.022749  220+-0+
      771   -0.022694   -0.022694  +22+00-
       64   -0.022518    0.022518  2-020++
      123   -0.021646    0.021646  +-2200+
      494    0.021637   -0.021637  +-+2+-0
      356    0.021217    0.021217  22+0020
      254    0.020812   -0.020812  -++2-+0

 ---------------------------------------
    -DIABATIC STATES IN PROTOTYPES-     
 ---------------------------------------

     STATE:    1
 Group Ref#    Coefficients
     1    1    0.996058
     2    2    0.000431
     3    3    0.000019

WEIGHT OF LISTED PROTOTYPES:   99.21%

     STATE:    2
 Group Ref#    Coefficients
     1    1    0.000431
     2    2    0.995899
     3    3    0.000052

WEIGHT OF LISTED PROTOTYPES:   99.18%

     STATE:    3
 Group Ref#    Coefficients
     1    1    0.000019
     2    2    0.000052
     3    3    0.995219

WEIGHT OF LISTED PROTOTYPES:   99.05%

 --------------------------------------------------
 IN DIRECT MAX. DIABATIZATION FOR GMC-QDPT

 DIRECT MAXIMIZATION (DM) WITHOUT TRUNCATING ADIABATS
 EXPANSIONS INTO THE REFERENCE CONFIGURATION SPACE
 --------------------------------------------------

 -------------------------------------------
 - DM DIABT PT HAMILTONIAN MATRIX ELEMENTS -
 -------------------------------------------
                                            
 --- DIABATIC ENERGIES (DIAGONAL ELEMENT) ---       HARTREE            EV
 STATE #  1'S GMC-PT-LEVEL DIABATIC ENERGY=     -56.008456034       0.000000000
 STATE #  2'S GMC-PT-LEVEL DIABATIC ENERGY=     -55.820843368       5.105200663
 STATE #  3'S GMC-PT-LEVEL DIABATIC ENERGY=     -55.791230426       5.911009858

 --- DIABATIC COUPLINGS (OFF DIAGONAL ELEMENTS)---  HATREE            EV
 STATE #  1 &  2'S GMC-PT-LEVEL COUPLING  =      -0.007957537      -0.216535603
 STATE #  1 &  3'S GMC-PT-LEVEL COUPLING  =       0.000019305       0.000525327
 STATE #  2 &  3'S GMC-PT-LEVEL COUPLING  =       0.000053213       0.001448011

 ---------------------------------------
     - ROTATION TO DIABATIC STATES -    
 ---------------------------------------
 ROWS=ADIABATIC, COLUMNS=DIABATIC STATES

             1           2           3

    1   -0.9991049  -0.0423008   0.0000990
    2    0.0423009  -0.9991033   0.0017881
    3    0.0000233   0.0017907   0.9999984

 ---------------------------------------
          - DIABATIC STATES -           
 ---------------------------------------

 State #    1  Energy =     -56.008456034

      Det      Coef        Coefp    Occupancy (Ignoring core)
      ---      ----        ----    --------- --------- -----
        1    0.979868   -0.979868  222+000
      393   -0.073017   -0.073017  202+020
      717   -0.069006   -0.069006  220+002
        8   -0.056800    0.056800  2-2+0+0
      708    0.037485   -0.037485  2-++0+-
      402    0.036941   -0.036941  2+-+0-+
       17    0.035286    0.035286  22-+00+
      215   -0.033701   -0.033701  022+200
      218    0.032791   -0.032791  +-2+-+0
      390    0.032521   -0.032521  -+2++-0
      227   -0.032234   -0.032234  +2-+-0+
      705   -0.032018   -0.032018  -2+++0-
        2    0.029617   -0.029617  2220+00
      386    0.029028   -0.029028  2+2+0-0
       76    0.027772    0.027772  2+2-0+0
      212    0.027691    0.027691  +220200
       51   -0.026548    0.026548  22+-00+
      113   -0.026029    0.026029  +-220+0
      122    0.024689    0.024689  +2-200+
      106   -0.024455   -0.024455  +222000
      143   -0.022458   -0.022458  220+200
      424   -0.022014   -0.022014  +-2++-0
      387   -0.021754    0.021754  2+20+-0
      702    0.021431    0.021431  22+0+0-
      184   -0.021428   -0.021428  -+2+-+0
      179   -0.021323   -0.021323  202+200
      773    0.020935   -0.020935  +2-++0-
      742   -0.020893   -0.020893  2+-+0+-
      368   -0.020769   -0.020769  2-++0-+
      159    0.020510   -0.020510  -2++-0+

 State #    2  Energy =     -55.820843368

      Det      Coef        Coefp    Occupancy (Ignoring core)
      ---      ----        ----    --------- --------- -----
       71   -0.982275    0.982275  2+22000
      822    0.067943   -0.067943  2+02002
       36    0.047307    0.047307  22+2000
       74    0.042584   -0.042584  2022+00
      813    0.040075   -0.040075  20+20+-
      111    0.038725   -0.038725  +22-0+0
       76    0.035106    0.035106  2+2-0+0
      320    0.033174    0.033174  0+22200
      323   -0.032863    0.032863  +022-+0
      810   -0.032386   -0.032386  -++2+0-
      332   -0.031332    0.031332  ++-2-0+
      180   -0.027860    0.027860  -+2+200
      317    0.027598   -0.027598  ++2-200
      113    0.027513   -0.027513  +-220+0
       38   -0.025637    0.025637  2202+00
      177    0.025587   -0.025587  2+20200
        6    0.025319   -0.025319  22200+0
      183   -0.024963    0.024963  202+-+0
      386   -0.023938    0.023938  2+2+0-0
      248    0.023851   -0.023851  2+02200
      391    0.023816   -0.023816  2+20020
       99   -0.023074    0.023074  20-20++
      122    0.022701    0.022701  +2-200+
      807   -0.022534    0.022534  2++-+0-
      192   -0.022344    0.022344  2+-+-0+
       51    0.021855   -0.021855  22+-00+
      751    0.021682   -0.021682  2+20002
      878    0.020499    0.020499  ++-2+0-
      421   -0.020183   -0.020183  +22+0-0

 State #    3  Energy =     -55.791230426

      Det      Coef        Coefp    Occupancy (Ignoring core)
      ---      ----        ----    --------- --------- -----
       36   -0.982384   -0.982384  22+2000
      463    0.072939   -0.072939  20+2020
       71   -0.047312    0.047312  2+22000
      121   -0.041052    0.041052  +22-00+
      472   -0.040368   -0.040368  2+020-+
      285    0.033447   -0.033447  02+2200
      460   -0.033177   -0.033177  -++2+-0
      288   -0.032340   -0.032340  +-+2-+0
      297    0.031649   -0.031649  +202-0+
      112   -0.028699   -0.028699  +2-20+0
      145   -0.027789   -0.027789  -2++200
      282    0.027571    0.027571  +2+-200
      456   -0.026706   -0.026706  2++20-0
       52    0.026472   -0.026472  220200+
       73    0.026458   -0.026458  2+-2+00
       16   -0.025801    0.025801  222000+
      142    0.025601    0.025601  22+0200
      716    0.024109    0.024109  22+0002
      123    0.023899   -0.023899  +-2200+
      157    0.023785   -0.023785  220+-0+
      457   -0.023350    0.023350  2++-+-0
      148   -0.023295   -0.023295  2-++-+0
      249    0.023295   -0.023295  20+2200
       64    0.023186   -0.023186  2-020++
       86    0.022343    0.022343  2+2-00+
      771    0.022130    0.022130  +22+00-
      356    0.021647    0.021647  22+0020
      494    0.021519   -0.021519  +-+2+-0
      254    0.021326   -0.021326  -++2-+0

 ---------------------------------------
      - DIABATIC STATES IN CMO -        
 ---------------------------------------

 State #    1  Energy =     -56.008456034

      Det      Coef        Coefp    Occupancy (Ignoring core)
      ---      ----        ----    --------- --------- -----
        1    0.979426   -0.979426  222+000
      393   -0.071036   -0.071036  202+020
      717   -0.068602   -0.068602  220+002
       71    0.046624   -0.046624  2+22000
       17   -0.044898   -0.044898  22-+00+
        8   -0.044817    0.044817  2-2+0+0
      402   -0.038451    0.038451  2+-+0-+
      708   -0.037710    0.037710  2-++0+-
      215   -0.033470   -0.033470  022+200
      390    0.032599   -0.032599  -+2++-0
      218    0.032375   -0.032375  +-2+-+0
      227    0.031393    0.031393  +2-+-0+
      705    0.030987    0.030987  -2+++0-
        2    0.029408   -0.029408  2220+00
       76    0.027579    0.027579  2+2-0+0
      212    0.026910    0.026910  +220200
       51    0.026431   -0.026431  22+-00+
      113   -0.025586    0.025586  +-220+0
      106   -0.024967   -0.024967  +222000
      122   -0.024913   -0.024913  +2-200+
      179   -0.024706   -0.024706  202+200
      387   -0.022398    0.022398  2+20+-0
      742    0.022316    0.022316  2+-+0+-
      368    0.021664    0.021664  2-++0-+
      424   -0.021658   -0.021658  +-2++-0
      184   -0.021385   -0.021385  -+2+-+0
      702   -0.020314   -0.020314  22+0+0-
      773   -0.020019    0.020019  +2-++0-

 State #    2  Energy =     -55.820843368

      Det      Coef        Coefp    Occupancy (Ignoring core)
      ---      ----        ----    --------- --------- -----
       71   -0.983400    0.983400  2+22000
      822    0.067942   -0.067942  2+02002
        1    0.046913   -0.046913  222+000
      813   -0.040841    0.040841  20+20+-
      111    0.037306   -0.037306  +22-0+0
      320    0.033176    0.033176  0+22200
      323   -0.032019    0.032019  +022-+0
      810    0.031350    0.031350  -++2+0-
      332    0.030945   -0.030945  ++-2-0+
      113    0.029287   -0.029287  +-220+0
       74    0.027750   -0.027750  2022+00
      180   -0.027300    0.027300  -+2+200
        6    0.026703   -0.026703  22200+0
      317    0.026543   -0.026543  ++2-200
      177    0.026257   -0.026257  2+20200
      183   -0.026184    0.026184  202+-+0
       38   -0.023116    0.023116  2202+00
      391    0.022953   -0.022953  2+20020
       99    0.022918   -0.022918  20-20++
      122   -0.022140   -0.022140  +2-200+
      751    0.022105   -0.022105  2+20002
       51   -0.021910    0.021910  22+-00+
      807    0.021865   -0.021865  2++-+0-
      192    0.021620   -0.021620  2+-+-0+
      248    0.021175   -0.021175  2+02200

 State #    3  Energy =     -55.791230426

      Det      Coef        Coefp    Occupancy (Ignoring core)
      ---      ----        ----    --------- --------- -----
       36   -0.983750   -0.983750  22+2000
      463    0.070810   -0.070810  20+2020
      121    0.041842   -0.041842  +22-00+
      472    0.040343    0.040343  2+020-+
      285    0.033075   -0.033075  02+2200
      460   -0.032898   -0.032898  -++2+-0
      288   -0.032195   -0.032195  +-+2-+0
      297   -0.030727    0.030727  +202-0+
      112   -0.029876   -0.029876  +2-20+0
      145   -0.027122   -0.027122  -2++200
      282    0.027010    0.027010  +2+-200
      249    0.026564   -0.026564  20+2200
       39   -0.025190   -0.025190  2-+2+00
      716    0.025145    0.025145  22+0002
      142    0.025046    0.025046  22+0200
       86   -0.024833   -0.024833  2+2-00+
       73    0.024635   -0.024635  2+-2+00
       16    0.023889   -0.023889  222000+
      148   -0.023470   -0.023470  2-++-+0
      457   -0.023394    0.023394  2++-+-0
       41   -0.022910    0.022910  22+-0+0
      157   -0.022749    0.022749  220+-0+
      771   -0.022694   -0.022694  +22+00-
       64   -0.022518    0.022518  2-020++
      123   -0.021646    0.021646  +-2200+
      494    0.021637   -0.021637  +-+2+-0
      356    0.021217    0.021217  22+0020
      254    0.020812   -0.020812  -++2-+0

 ---------------------------------------
    -DIABATIC STATES IN PROTOTYPES-     
 ---------------------------------------

     STATE:    1
 Group Ref#    Coefficients
     1    1    0.996058
     2    2    0.000431
     3    3    0.000019

WEIGHT OF LISTED PROTOTYPES:   99.21%

     STATE:    2
 Group Ref#    Coefficients
     1    1    0.000431
     2    2    0.995899
     3    3    0.000052

WEIGHT OF LISTED PROTOTYPES:   99.18%

     STATE:    3
 Group Ref#    Coefficients
     1    1    0.000019
     2    2    0.000052
     3    3    0.995219

WEIGHT OF LISTED PROTOTYPES:   99.05%

     DIRECT MAX. DIABATIZATION FINISHED    
 CPU     0: STEP CPU TIME=     0.25 TOTAL CPU TIME=         10.0 (      0.2 MIN)
 TOTAL WALL CLOCK TIME=         10.0 SECONDS, CPU UTILIZATION IS    99.90%

DIABATS FOR SPIN-ORBIT CALCULATION ARE READY

TRANSITION DIPOLES BETWEEN ADIABATS (in A.U.):

STATE PAIR      X         Y         Z
    1    1  0.055953  0.000000  0.779460
    2    1 -0.006089 -0.000000 -0.023640
    2    2 -0.161327 -0.000000  0.251078
    3    1 -0.000000 -0.024939  0.000000
    3    2  0.000000 -0.259680 -0.000000
    3    3  0.302593  0.000000  0.250691


TRANSITION DIPOLES BETWEEN DIABATS (in A.U.):

STATE PAIR      X         Y         Z
    1    1  0.056079  0.000001  0.780512
    2    1  0.003115  0.000031 -0.001224
    2    2 -0.161451  0.000933  0.250026
    3    1  0.000000  0.013932 -0.000010
    3    2  0.000831  0.260501  0.000001
    3    3  0.302591 -0.000934  0.250691

TRANSITION DIPOLES BETWEEN DIRECT MAX. DIABATS (in A.U.):

STATE PAIR      X         Y         Z
    1    1  0.056079  0.000001  0.780512
    2    1  0.003115  0.000031 -0.001224
    2    2 -0.161451  0.000933  0.250026
    3    1  0.000000  0.013932 -0.000010
    3    2  0.000831  0.260501  0.000001
    3    3  0.302591 -0.000934  0.250691
 No $TRANST Group Found.
 Quit without doing spin-orbit coupling
 ..... DONE WITH MP2 ENERGY .....
 CPU     0: STEP CPU TIME=     0.00 TOTAL CPU TIME=         10.0 (      0.2 MIN)
 TOTAL WALL CLOCK TIME=         10.0 SECONDS, CPU UTILIZATION IS    99.90%
            100000000  WORDS OF DYNAMIC MEMORY USED
 EXECUTION OF GAMESS TERMINATED NORMALLY Wed Nov 16 19:23:46 2022
 DDI: 715512 bytes (0.7 MB / 0 MWords) used by master data server.

 ----------------------------------------
 CPU timing information for all processes
 ========================================
 0: 9.735 + 0.256 = 9.991
 ----------------------------------------
Note: The following floating-point exceptions are signalling: IEEE_DENORMAL
 ddikick.x: exited gracefully.
unset echo
----- accounting info -----
Files used on the master node io002 were:
-rw-r--r-- 1 bsonghao nooijen   20699 Nov 16 19:23 /scratch/bsonghao/nh3_diabatization_2d_at_mode_7_8_dist0.0_0.1.F05
-rw-r--r-- 1 bsonghao nooijen  363520 Nov 16 19:23 /scratch/bsonghao/nh3_diabatization_2d_at_mode_7_8_dist0.0_0.1.F09
-rw-r--r-- 1 bsonghao nooijen 1995920 Nov 16 19:23 /scratch/bsonghao/nh3_diabatization_2d_at_mode_7_8_dist0.0_0.1.F10
-rw-r--r-- 1 bsonghao nooijen  103600 Nov 16 19:23 /scratch/bsonghao/nh3_diabatization_2d_at_mode_7_8_dist0.0_0.1.F13
-rw-r--r-- 1 bsonghao nooijen  180312 Nov 16 19:23 /scratch/bsonghao/nh3_diabatization_2d_at_mode_7_8_dist0.0_0.1.F15
-rw-r--r-- 1 bsonghao nooijen       0 Nov 16 19:23 /scratch/bsonghao/nh3_diabatization_2d_at_mode_7_8_dist0.0_0.1.F16
-rw-r--r-- 1 bsonghao nooijen    9808 Nov 16 19:23 /scratch/bsonghao/nh3_diabatization_2d_at_mode_7_8_dist0.0_0.1.F70
-rw-r--r-- 1 bsonghao nooijen    9808 Nov 16 19:23 /scratch/bsonghao/nh3_diabatization_2d_at_mode_7_8_dist0.0_0.1.F71
-rw-r--r-- 1 bsonghao nooijen   19608 Nov 16 19:23 /scratch/bsonghao/nh3_diabatization_2d_at_mode_7_8_dist0.0_0.1.F72
-rw-r--r-- 1 bsonghao nooijen   19608 Nov 16 19:23 /scratch/bsonghao/nh3_diabatization_2d_at_mode_7_8_dist0.0_0.1.F73
-rw-r--r-- 1 bsonghao nooijen 1920824 Nov 16 19:23 /scratch/bsonghao/nh3_diabatization_2d_at_mode_7_8_dist0.0_0.1.F74
-rw-r--r-- 1 bsonghao nooijen       0 Nov 16 19:23 /scratch/bsonghao/nh3_diabatization_2d_at_mode_7_8_dist0.0_0.1.F75
-rw-r--r-- 1 bsonghao nooijen   58848 Nov 16 19:23 /scratch/bsonghao/nh3_diabatization_2d_at_mode_7_8_dist0.0_0.1.F76
-rw-r--r-- 1 bsonghao nooijen       0 Nov 16 19:23 /scratch/bsonghao/nh3_diabatization_2d_at_mode_7_8_dist0.0_0.1.F77
-rw-r--r-- 1 bsonghao nooijen    1864 Nov 16 19:23 /scratch/bsonghao/nh3_diabatization_2d_at_mode_7_8_dist0.0_0.1.F78
-rw-r--r-- 1 bsonghao nooijen   39208 Nov 16 19:23 /scratch/bsonghao/nh3_diabatization_2d_at_mode_7_8_dist0.0_0.1.F79
-rw-r--r-- 1 bsonghao nooijen     104 Nov 16 19:23 /scratch/bsonghao/nh3_diabatization_2d_at_mode_7_8_dist0.0_0.1.F80
-rw-r--r-- 1 bsonghao nooijen   13472 Nov 16 19:23 /scratch/bsonghao/nh3_diabatization_2d_at_mode_7_8_dist0.0_0.1.F81
-rw-r--r-- 1 bsonghao nooijen      16 Nov 16 19:23 /scratch/bsonghao/nh3_diabatization_2d_at_mode_7_8_dist0.0_0.1.F82
-rw-r--r-- 1 bsonghao nooijen   19216 Nov 16 19:23 /scratch/bsonghao/nh3_diabatization_2d_at_mode_7_8_dist0.0_0.1.F83
-rw-r--r-- 1 bsonghao nooijen   29712 Nov 16 19:23 /scratch/bsonghao/nh3_diabatization_2d_at_mode_7_8_dist0.0_0.1.F84
-rw-r--r-- 1 bsonghao nooijen  293672 Nov 16 19:23 /scratch/bsonghao/nh3_diabatization_2d_at_mode_7_8_dist0.0_0.1.F85
-rw-r--r-- 1 bsonghao nooijen  653112 Nov 16 19:23 /scratch/bsonghao/nh3_diabatization_2d_at_mode_7_8_dist0.0_0.1.F86
-rw-r--r-- 1 bsonghao nooijen     656 Nov 16 19:23 /scratch/bsonghao/nh3_diabatization_2d_at_mode_7_8_dist0.0_0.1.F87
-rw-r--r-- 1 bsonghao nooijen   19664 Nov 16 19:23 /scratch/bsonghao/nh3_diabatization_2d_at_mode_7_8_dist0.0_0.1.F88
-rw-r--r-- 1 bsonghao nooijen     240 Nov 16 19:23 /scratch/bsonghao/nh3_diabatization_2d_at_mode_7_8_dist0.0_0.1.F89
-rw-r--r-- 1 bsonghao nooijen       0 Nov 16 19:23 /scratch/bsonghao/nh3_diabatization_2d_at_mode_7_8_dist0.0_0.1.F90
-rw-r--r-- 1 bsonghao nooijen   13760 Nov 16 19:23 /scratch/bsonghao/nh3_diabatization_2d_at_mode_7_8_dist0.0_0.1.F91
-rw-r--r-- 1 bsonghao nooijen   22776 Nov 16 19:23 /scratch/bsonghao/nh3_diabatization_2d_at_mode_7_8_dist0.0_0.1.F92
-rw-r--r-- 1 bsonghao nooijen   23168 Nov 16 19:23 /scratch/bsonghao/nh3_diabatization_2d_at_mode_7_8_dist0.0_0.1.F93
-rw-r--r-- 1 bsonghao nooijen   22776 Nov 16 19:23 /scratch/bsonghao/nh3_diabatization_2d_at_mode_7_8_dist0.0_0.1.F94
-rw-r--r-- 1 bsonghao nooijen   13760 Nov 16 19:23 /scratch/bsonghao/nh3_diabatization_2d_at_mode_7_8_dist0.0_0.1.F95
-rw-r--r-- 1 bsonghao nooijen   29440 Nov 16 19:23 /scratch/bsonghao/nh3_diabatization_2d_at_mode_7_8_dist0.0_0.1.F96
-rw-r--r-- 1 bsonghao nooijen    1184 Nov 16 19:23 /scratch/bsonghao/nh3_diabatization_2d_at_mode_7_8_dist0.0_0.1.F97
-rw-r--r-- 1 bsonghao nooijen    9808 Nov 16 19:23 /scratch/bsonghao/nh3_diabatization_2d_at_mode_7_8_dist0.0_0.1.F98
-rw-r--r-- 1 bsonghao nooijen   30264 Nov 16 19:23 /scratch/bsonghao/nh3_diabatization_2d_at_mode_7_8_dist0.0_0.1.F99
ls: No match.
ls: No match.
ls: No match.
Wed 16 Nov 2022 07:23:49 PM EST
0.278u 0.049s 0:13.35 2.3%	0+0k 48+224io 0pf+0w
