----- GAMESS execution script 'rungms' -----
This job is running on host io002
under operating system Linux at Wed 16 Nov 2022 06:28:49 PM EST
Available scratch disk space (Kbyte units) at beginning of the job is
Filesystem       1K-blocks       Used   Available Use% Mounted on
/dev/sdc1      15378471580 3278917120 11318349060  23% /scratch
GAMESS temporary binary files will be written to /scratch/bsonghao
GAMESS supplementary output files will be written to /home/bsonghao/.gamess_ascii_files/267638
Copying input file nh3_diabatization_2d_at_mode_7_8_dist-0.7_0.0.inp to your run's scratch directory...
cp nh3_diabatization_2d_at_mode_7_8_dist-0.7_0.0.inp /scratch/bsonghao/nh3_diabatization_2d_at_mode_7_8_dist-0.7_0.0.F05
unset echo
/home/bjb2chen/gamess/ddikick.x /home/bjb2chen/gamess/gamess.00.x nh3_diabatization_2d_at_mode_7_8_dist-0.7_0.0 -ddi 1 1 io002 -scr /scratch/bsonghao

 Distributed Data Interface kickoff program.
 Initiating 1 compute processes on 1 nodes to run the following command:
 /home/bjb2chen/gamess/gamess.00.x nh3_diabatization_2d_at_mode_7_8_dist-0.7_0.0 

          ******************************************************
          *         GAMESS VERSION = 02 AUG 2018 (R2)         *
          *             FROM IOWA STATE UNIVERSITY             *
          * M.W.SCHMIDT, K.K.BALDRIDGE, J.A.BOATZ, S.T.ELBERT, *
          *   M.S.GORDON, J.H.JENSEN, S.KOSEKI, N.MATSUNAGA,   *
          *          K.A.NGUYEN, S.J.SU, T.L.WINDUS,           *
          *       TOGETHER WITH M.DUPUIS, J.A.MONTGOMERY       *
          *         J.COMPUT.CHEM.  14, 1347-1363(1993)        *
          **************** 64 BIT LINUX VERSION ****************

  SINCE 1993, STUDENTS AND POSTDOCS WORKING AT IOWA STATE UNIVERSITY
  AND ALSO IN THEIR VARIOUS JOBS AFTER LEAVING ISU HAVE MADE IMPORTANT
  CONTRIBUTIONS TO THE CODE:
     IVANA ADAMOVIC, CHRISTINE AIKENS, YURI ALEXEEV, POOJA ARORA,
     ANDREY ASADCHEV, ROB BELL, PRADIPTA BANDYOPADHYAY, JONATHAN BENTZ,
     BRETT BODE, KURT BRORSEN, CALEB CARLIN, GALINA CHABAN, WEI CHEN,
     CHEOL HO CHOI, PAUL DAY, ALBERT DEFUSCO, NUWAN DESILVA, TIM DUDLEY,
     DMITRI FEDOROV, ALEX FINDLATER, GRAHAM FLETCHER, MARK FREITAG,
     KURT GLAESEMANN, ANASTASIA GUININA,
     DAN KEMP, GRANT MERRILL, NORIYUKI MINEZAWA, JONATHAN MULLIN,
     TAKESHI NAGATA, SEAN NEDD, HEATHER NETZLOFF, BOSILJKA NJEGIC, RYAN OLSON,
     MIKE PAK, BUU PHAM,
     SPENCER PRUITT, LUKE ROSKOP, JIM SHOEMAKER, LYUDMILA SLIPCHENKO,
     TONY SMITH, SAROM SOK LEANG, JIE SONG, TETSUYA TAKETSUGU, SIMON WEBB,
     PENG XU, SOOHAENG YOO, FEDERICO ZAHARIEV

  ADDITIONAL CODE HAS BEEN PROVIDED BY COLLABORATORS IN OTHER GROUPS:
     IOWA STATE UNIVERSITY:
          JOE IVANIC, AARON WEST, LAIMUTIS BYTAUTAS, KLAUS RUEDENBERG
     UNIVERSITY OF TOKYO: KIMIHIKO HIRAO, TAKAHITO NAKAJIMA,
          TAKAO TSUNEDA, MUNEAKI KAMIYA, SUSUMU YANAGISAWA,
          KIYOSHI YAGI, MAHITO CHIBA, SEIKEN TOKURA, NAOAKI KAWAKAMI
     UNIVERSITY OF AARHUS: FRANK JENSEN
     UNIVERSITY OF IOWA: VISVALDAS KAIRYS, HUI LI
     NATIONAL INST. OF STANDARDS AND TECHNOLOGY: WALT STEVENS, DAVID GARMER
     UNIVERSITY OF PISA: BENEDETTA MENNUCCI, JACOPO TOMASI
     UNIVERSITY OF MEMPHIS: HENRY KURTZ, PRAKASHAN KORAMBATH
     UNIVERSITY OF ALBERTA: TOBY ZENG, MARIUSZ KLOBUKOWSKI
     UNIVERSITY OF NEW ENGLAND: MARK SPACKMAN
     MIE UNIVERSITY: HIROAKI UMEDA
     NAT. INST. OF ADVANCED INDUSTRIAL SCIENCE AND TECHNOLOGY: KAZUO KITAURA
     MICHIGAN STATE UNIVERSITY:
          KAROL KOWALSKI, MARTA WLOCH, JEFFREY GOUR, JESSE LUTZ,
          WEI LI, JUN SHEN, J. EMILIANO DEUSTUA, PIOTR PIECUCH
     UNIVERSITY OF MINNESOTA:
          YINAN SHU
     UNIVERSITY OF SILESIA: MONIKA MUSIAL, STANISLAW KUCHARSKI
     FACULTES UNIVERSITAIRES NOTRE-DAME DE LA PAIX:
          OLIVIER QUINET, BENOIT CHAMPAGNE
     UNIVERSITY OF CALIFORNIA - SANTA BARBARA: BERNARD KIRTMAN
     INSTITUTE FOR MOLECULAR SCIENCE:
          KAZUYA ISHIMURA, MICHIO KATOUDA, AND SHIGERU NAGASE
     UNIVERSITY OF NOTRE DAME: ANNA POMOGAEVA, DAN CHIPMAN
     KYUSHU UNIVERSITY:
          HARUYUKI NAKANO,
          FENG LONG GU, JACEK KORCHOWIEC, MARCIN MAKOWSKI, AND YURIKO AOKI,
          HIROTOSHI MORI AND EISAKU MIYOSHI
     PENNSYLVANIA STATE UNIVERSITY:
          TZVETELIN IORDANOV, CHET SWALINA, JONATHAN SKONE,
          SHARON HAMMES-SCHIFFER
     WASEDA UNIVERSITY:
          MASATO KOBAYASHI, TOMOKO AKAMA, TSUGUKI TOUMA,
          TAKESHI YOSHIKAWA, YASUHIRO IKABATA, JUNJI SEINO,
          YUYA NAKAJIMA, HIROMI NAKAI
     NANJING UNIVERSITY: SHUHUA LI
     UNIVERSITY OF NEBRASKA:
          PEIFENG SU, DEJUN SI, NANDUN THELLAMUREGE, YALI WANG, HUI LI
     UNIVERSITY OF ZURICH: ROBERTO PEVERATI, KIM BALDRIDGE
     N. COPERNICUS UNIVERSITY AND JACKSON STATE UNIVERSITY:
          MARIA BARYSZ
     UNIVERSITY OF COPENHAGEN: Jimmy Kromann, CASPER STEINMANN
     TOKYO INSTITUTE OF TECHNOLOGY: HIROYA NAKATA
     NAGOYA UNIVERSITY: YOSHIO NISHIMOTO, STEPHAN IRLE
     MOSCOW STATE UNIVERSITY: VLADIMIR MIRONOV

 EXECUTION OF GAMESS BEGUN Wed Nov 16 18:28:49 2022

            ECHO OF THE FIRST FEW INPUT CARDS -
 INPUT CARD> $system kdiag=3 mwords=100 memddi=1000 parall=.t. $end                         
 INPUT CARD> $contrl runtyp=energy ispher=1 $end                                            
 INPUT CARD> $contrl icut=9 itol=20 inttyp=rysquad qmttol=1.0d-05 nosym=1 $end              
 INPUT CARD> $scf    npunch=2 conv=1.0d-06 dirscf=.t.      $end                             
 INPUT CARD> $contrl scftyp=mcscf  mult=2 maxit=200 icharg=1 mplevl=2 $end                  
 INPUT CARD> $guess  guess=moread norb=29 purify=.t. $end                                   
 INPUT CARD> $basis  gbasis=ccd $end                                                        
 INPUT CARD> $mcscf  cistep=gmcci fullnr=.t. finci=mos                                      
 INPUT CARD>         acurcy=1.d-6 maxit=100 $end                                            
 INPUT CARD> $trans  dirtrf=.t. $end                                                        
 INPUT CARD> $mrmp   mrpt=gmcpt rdvecs=.f. $end                                             
 INPUT CARD> $gmcpt  nmofzc=0 nmodoc=1 nmoact=7 nelact=7 stsym(1)=A                         
 INPUT CARD>         reftyp=ormas nspace=1 mstart(1)=2 mine(1)=7 maxe(1)=7                  
 INPUT CARD>         kstate(1)=1,1,1                                                        
 INPUT CARD>         wstate(1)=1,1,1                                                        
 INPUT CARD>         iwgt=0 thrwgt=-1.0 krot=.f. kszdoe=.f. knospn=.f.                      
 INPUT CARD>         thrde=-1.0 edshft=0.02 $end                                            
 INPUT CARD> $data                                                                          
 INPUT CARD> NH3+ 3 states calculation at NH3 structure.                                    
 INPUT CARD> c1                                                                             
 INPUT CARD>N 7.0 0.0 0.043602321000000006 -0.1693806842                                    
 INPUT CARD>H 1.0 -0.7328153690000001 0.7584502198 0.0964350621                             
 INPUT CARD>H 1.0 -0.19783815 -0.8534890098000001 0.41648538710000005                       
 INPUT CARD>H 1.0 0.93065354 -0.510830208 0.25646023510000004                               
 INPUT CARD>$end                                                                            
 INPUT CARD>--- OPTIMIZED RHF      MO-S --- GENERATED AT Mon Nov 14 16:47:08 2022           
 INPUT CARD>E=      -56.3825050291, E(NUC)=   11.8429239490                                 
 INPUT CARD> $VEC                                                                           
 INPUT CARD> 1  1-1.00134066E+00-2.25158504E-03 3.44925845E-03 0.00000000E+00 0.00000000E+00
 INPUT CARD> 1  2-2.13170927E-03 0.00000000E+00 0.00000000E+00 6.57129898E-04-6.87950443E-05
 INPUT CARD> 1  3-6.87950443E-05 1.37590089E-04 0.00000000E+00 0.00000000E+00 0.00000000E+00
 INPUT CARD> 1  4 3.25502815E-04-4.84772356E-04 3.62525460E-04-6.27912517E-04-3.45956485E-04
 INPUT CARD> 1  5 3.25502815E-04-4.84772356E-04 3.62525460E-04 6.27912517E-04-3.45956485E-04
 INPUT CARD> 1  6 3.25502815E-04-4.84772356E-04-7.25050921E-04 0.00000000E+00-3.45956485E-04
 INPUT CARD> 2  1 1.31286642E-02-4.05911371E-01-2.82090992E-01 0.00000000E+00 0.00000000E+00
 INPUT CARD> 2  2-7.71489043E-02 0.00000000E+00 0.00000000E+00 9.73717494E-03 6.62450916E-04
 INPUT CARD> 2  3 6.62450916E-04-1.32490183E-03 0.00000000E+00 0.00000000E+00 0.00000000E+00
 INPUT CARD> 2  4-1.96090317E-01-1.96656153E-02-1.74855877E-02 3.02859263E-02 8.68214399E-03
 INPUT CARD> 2  5-1.96090317E-01-1.96656153E-02-1.74855877E-02-3.02859263E-02 8.68214399E-03
 INPUT CARD> 2  6-1.96090317E-01-1.96656153E-02 3.49711754E-02 0.00000000E+00 8.68214399E-03
 INPUT CARD> 3  1 0.00000000E+00 0.00000000E+00 0.00000000E+00 4.48608762E-01 0.00000000E+00
 INPUT CARD> 3  2 0.00000000E+00 2.18692520E-01 0.00000000E+00 0.00000000E+00 1.30198027E-02
 INPUT CARD> 3  3-1.30198027E-02 0.00000000E+00 0.00000000E+00 2.71832968E-02 0.00000000E+00
 INPUT CARD> 3  4-1.85332726E-01-7.03958951E-02 8.47929477E-03 1.95242443E-02 8.32835058E-03
 INPUT CARD> 3  5-1.85332726E-01-7.03958951E-02 8.47929477E-03-1.95242443E-02 8.32835058E-03
 INPUT CARD> 3  6 3.70665453E-01 1.40791790E-01-2.53376884E-02 0.00000000E+00-1.66567012E-02
 INPUT CARD> 4  1 0.00000000E+00 0.00000000E+00 0.00000000E+00 0.00000000E+00 4.48608762E-01
 INPUT CARD> 4  2 0.00000000E+00 0.00000000E+00 2.18692520E-01 0.00000000E+00 0.00000000E+00
 INPUT CARD> 4  3 0.00000000E+00 0.00000000E+00-1.50339731E-02 0.00000000E+00 2.71832968E-02
 INPUT CARD> 4  4 3.21005698E-01 1.21929267E-01 1.95242443E-02-1.40653607E-02-1.44251263E-02
  100000000 WORDS OF MEMORY AVAILABLE

     BASIS OPTIONS
     -------------
     GBASIS=CCD          IGAUSS=       0      POLAR=NONE    
     NDFUNC=       0     NFFUNC=       0     DIFFSP=       F
     NPFUNC=       0      DIFFS=       F     BASNAM=        


     RUN TITLE
     ---------
  NH3+ 3 states calculation at NH3 structure.                                    

 THE POINT GROUP OF THE MOLECULE IS C1      
 THE ORDER OF THE PRINCIPAL AXIS IS     0

 ATOM      ATOMIC                      COORDINATES (BOHR)
           CHARGE         X                   Y                   Z
 N           7.0     0.0000000000        0.0823964391       -0.3200830808
 H           1.0    -1.3848202470        1.4332630907        0.1822358430
 H           1.0    -0.3738598934       -1.6128603621        0.7870432595
 H           1.0     1.7586801801       -0.9653291194        0.4846395711

          INTERNUCLEAR DISTANCES (ANGS.)
          ------------------------------

                1 N          2 H          3 H          4 H     

   1 N       0.0000000    1.0576785 *  1.0895650 *  1.1639811 *
   2 H       1.0576785 *  0.0000000    1.7282884 *  2.0985256 *
   3 H       1.0895650 *  1.7282884 *  0.0000000    1.1901750 *
   4 H       1.1639811 *  2.0985256 *  1.1901750 *  0.0000000  

  * ... LESS THAN  3.000


     ATOMIC BASIS SET
     ----------------
 THE CONTRACTED PRIMITIVE FUNCTIONS HAVE BEEN UNNORMALIZED
 THE CONTRACTED BASIS FUNCTIONS ARE NOW NORMALIZED TO UNITY

  SHELL TYPE  PRIMITIVE        EXPONENT          CONTRACTION COEFFICIENT(S)

 N         

      1   S       1          9046.0000000    0.000699617413
      1   S       2          1357.0000000    0.005386054630
      1   S       3           309.3000000    0.027391021189
      1   S       4            87.7300000    0.103150591982
      1   S       5            28.5600000    0.278570663317
      1   S       6            10.2100000    0.448294849454
      1   S       7             3.8380000    0.278085928395
      1   S       8             0.7466000    0.015431561233

      2   S       9          9046.0000000   -0.000304990096
      2   S      10          1357.0000000   -0.002408026379
      2   S      11           309.3000000   -0.011944448725
      2   S      12            87.7300000   -0.048925992909
      2   S      13            28.5600000   -0.134472724725
      2   S      14            10.2100000   -0.315112577700
      2   S      15             3.8380000   -0.242857832550
      2   S      16             0.7466000    1.094382206854

      3   S      17             0.2248000    1.000000000000

      4   P      18            13.5500000    0.058905676772
      4   P      19             2.9170000    0.320461106714
      4   P      20             0.7973000    0.753042061792

      5   P      21             0.2185000    1.000000000000

      6   D      22             0.8170000    1.000000000000

 H         

      7   S      23            13.0100000    0.033498726390
      7   S      24             1.9620000    0.234800801174
      7   S      25             0.4446000    0.813682957883

      8   S      26             0.1220000    1.000000000000

      9   P      27             0.7270000    1.000000000000

 H         

     10   S      28            13.0100000    0.033498726390
     10   S      29             1.9620000    0.234800801174
     10   S      30             0.4446000    0.813682957883

     11   S      31             0.1220000    1.000000000000

     12   P      32             0.7270000    1.000000000000

 H         

     13   S      33            13.0100000    0.033498726390
     13   S      34             1.9620000    0.234800801174
     13   S      35             0.4446000    0.813682957883

     14   S      36             0.1220000    1.000000000000

     15   P      37             0.7270000    1.000000000000

 TOTAL NUMBER OF BASIS SET SHELLS             =   15
 NUMBER OF CARTESIAN GAUSSIAN BASIS FUNCTIONS =   30
 NOTE: THIS RUN WILL RESTRICT THE MO VARIATION SPACE TO SPHERICAL HARMONICS.
 THE NUMBER OF ORBITALS KEPT IN THE VARIATIONAL SPACE WILL BE PRINTED LATER.
 NUMBER OF ELECTRONS                          =    9
 CHARGE OF MOLECULE                           =    1
 SPIN MULTIPLICITY                            =    2
 NUMBER OF OCCUPIED ORBITALS (ALPHA)          =    5
 NUMBER OF OCCUPIED ORBITALS (BETA )          =    4
 TOTAL NUMBER OF ATOMS                        =    4
 THE NUCLEAR REPULSION ENERGY IS       11.0873421575

     $CONTRL OPTIONS
     ---------------
 SCFTYP=MCSCF        RUNTYP=ENERGY       EXETYP=RUN     
 MPLEVL=       2     CITYP =NONE         CCTYP =NONE         VBTYP =NONE    
 DFTTYP=NONE         TDDFT =NONE    
 MULT  =       2     ICHARG=       1     NZVAR =       0     COORD =UNIQUE  
 PP    =NONE         RELWFN=NONE         LOCAL =NONE         NUMGRD=       F
 ISPHER=       1     NOSYM =       1     MAXIT =     200     UNITS =ANGS    
 PLTORB=       F     MOLPLT=       F     AIMPAC=       F     FRIEND=        
 NPRINT=       7     IREST =       0     GEOM  =INPUT   
 NORMF =       0     NORMP =       0     ITOL  =      20     ICUT  =       9
 INTTYP=RYSQUAD      GRDTYP=BEST         QMTTOL= 1.0E-05

     $SYSTEM OPTIONS
     ---------------
  REPLICATED MEMORY=   100000000 WORDS (ON EVERY NODE).
 DISTRIBUTED MEMDDI=        1000 MILLION WORDS IN AGGREGATE,
 MEMDDI DISTRIBUTED OVER   1 PROCESSORS IS  1000000000 WORDS/PROCESSOR.
 TOTAL MEMORY REQUESTED ON EACH PROCESSOR=  1100000000 WORDS.
 TIMLIM=      525600.00 MINUTES, OR     365.0 DAYS.
 PARALL= T  BALTYP=  DLB     KDIAG=    3  COREFL= F
 MXSEQ2=     300 MXSEQ3=     150  mem10=         0

          ----------------
          PROPERTIES INPUT
          ----------------

     MOMENTS            FIELD           POTENTIAL          DENSITY
 IEMOM =       1   IEFLD =       0   IEPOT =       0   IEDEN =       0
 WHERE =COMASS     WHERE =NUCLEI     WHERE =NUCLEI     WHERE =NUCLEI  
 OUTPUT=BOTH       OUTPUT=BOTH       OUTPUT=BOTH       OUTPUT=BOTH    
 IEMINT=       0   IEFINT=       0                     IEDINT=       0
                                                       MORB  =       0

     -------------------------------
     INTEGRAL TRANSFORMATION OPTIONS
     -------------------------------
     NWORD  =            0
     CUTOFF = 1.0E-09     MPTRAN =       0
     DIRTRF =       T     AOINTS =DUP     

          ----------------------
          MCSCF INPUT PARAMETERS
          ----------------------
 CONVERGER SELECTION: FOCAS = F  SOSCF = F  FULLNR = T  QUD = F  JACOBI = F
 SECULAR EQUATION METHOD CISTEP = GMCCI   
 --- GENERAL INPUT OPTIONS:
 MAXIT =     100  MICIT =       1  ACURCY= 1.000E-06
 DAMP  =   0.000  CANONC=       T  ENGTOL= 1.000E-10
 EKT   =       F  NPUNCH=       2  NWORD =         0
 REGENERATE CI AFTER CONVERGENCE = NONE    
 DIABATIZATION AFTER CONVERGENCE =        F
 --- INPUT FOR FULLNR CONVERGER:
 METHOD=DM2       FORS  =       F  DROPC =       T
 LINSER=       F  FCORE =       F  NORB  =      30

          ----------------------
          INTEGRAL INPUT OPTIONS
          ----------------------
 NOPK  =       1 NORDER=       0 SCHWRZ=       T

 ------------------------------------------
 MULTIREFERENCE PERTURBATION THEORY CONTROL
 ------------------------------------------
 MRPT=GMCPT    READ CONVERGED MCSCF VECTORS= F


     ------------------------------------------
     THE POINT GROUP IS C1 , NAXIS= 1, ORDER= 1
     ------------------------------------------

 -- VARIATIONAL SPACE WILL BE RESTRICTED TO PURE SPHERICAL HARMONICS ONLY --
 AFTER EXCLUDING CONTAMINANT COMBINATIONS FROM THE CARTESIAN GAUSSIAN BASIS
 SET, THE NUMBER OF SPHERICAL HARMONICS KEPT IN THE VARIATION SPACE IS   29

     DIMENSIONS OF THE SYMMETRY SUBSPACES ARE
 A   =   29

 ..... DONE SETTING UP THE RUN .....
 CPU     0: STEP CPU TIME=     0.04 TOTAL CPU TIME=          0.0 (      0.0 MIN)
 TOTAL WALL CLOCK TIME=          0.1 SECONDS, CPU UTILIZATION IS    80.00%

          ********************
          1 ELECTRON INTEGRALS
          ********************
 TIME TO DO   DIPOLE INTEGRALS=      0.00
 ...... END OF ONE-ELECTRON INTEGRALS ......
 CPU     0: STEP CPU TIME=     0.00 TOTAL CPU TIME=          0.0 (      0.0 MIN)
 TOTAL WALL CLOCK TIME=          0.1 SECONDS, CPU UTILIZATION IS    80.00%

          -------------
          GUESS OPTIONS
          -------------
          GUESS =MOREAD            NORB  =      29          NORDER=       0
          MIX   =       F          PRTMO =       F          PUNMO =       F
          TOLZ  = 1.0E-08          TOLE  = 1.0E-05
          SYMDEN=       F          PURIFY=       T

 INITIAL GUESS ORBITALS GENERATED BY MOREAD   ROUTINE.

 STATISTICS FOR GENERATION OF SYMMETRY ORBITAL -Q- MATRIX
 NUMBER OF CARTESIAN ATOMIC ORBITALS=         30
 NUMBER OF SPHERICAL CONTAMINANTS DROPPED=     1
 NUMBER OF LINEARLY DEPENDENT MOS DROPPED=     0
 TOTAL NUMBER OF MOS IN VARIATION SPACE=      29
 ORBITAL PURIFICATION WILL OCCUR

 SYMMETRIES FOR INITIAL GUESS ORBITALS FOLLOW.   BOTH SET(S).
     5 ORBITALS ARE OCCUPIED (    1 CORE ORBITALS).
     1=A        2=A        3=A        4=A        5=A        6=A        7=A   
     8=A        9=A       10=A       11=A       12=A       13=A       14=A   
    15=A       16=A       17=A       18=A       19=A       20=A       21=A   
    22=A       23=A       24=A       25=A       26=A       27=A       28=A   
    29=A   
 ...... END OF INITIAL ORBITAL SELECTION ......
 CPU     0: STEP CPU TIME=     0.01 TOTAL CPU TIME=          0.0 (      0.0 MIN)
 TOTAL WALL CLOCK TIME=          0.1 SECONDS, CPU UTILIZATION IS    83.33%

                    ----------------------
                    AO INTEGRAL TECHNOLOGY
                    ----------------------
     S,P,L SHELL ROTATED AXIS INTEGRALS, REPROGRAMMED BY
        KAZUYA ISHIMURA (IMS) AND JOSE SIERRA (SYNSTAR).
     S,P,D,L SHELL ROTATED AXIS INTEGRALS PROGRAMMED BY
        KAZUYA ISHIMURA (INSTITUTE FOR MOLECULAR SCIENCE).
     S,P,D,F,G SHELL TO TOTAL QUARTET ANGULAR MOMENTUM SUM 5,
        ERIC PROGRAM BY GRAHAM FLETCHER (ELORET AND NASA ADVANCED
        SUPERCOMPUTING DIVISION, AMES RESEARCH CENTER).
     S,P,D,F,G,L SHELL GENERAL RYS QUADRATURE PROGRAMMED BY
        MICHEL DUPUIS (PACIFIC NORTHWEST NATIONAL LABORATORY).

          --------------------
          2 ELECTRON INTEGRALS
          --------------------

 DIRECT SCF METHOD SKIPS INTEGRAL STORAGE ON DISK.
 DIRECT TRANSFORMATION SKIPS AO INTEGRAL STORAGE ON DISK.
  ...... END OF TWO-ELECTRON INTEGRALS .....
 STEP CPU TIME =     0.02 TOTAL CPU TIME =          0.1 (      0.0 MIN)
 TOTAL WALL CLOCK TIME=          0.1 SECONDS, CPU UTILIZATION IS    87.50%
 DDI: Creating Array [0] - 900 x 36 = 32400 words.
 DDI: Creating Array [1] - 21 x 288 = 6048 words.
 DDI: Creating Array [2] - 36 x 36 = 1296 words.
 DDI: Creating Array [3] - 465 x 36 = 16740 words.

          -----------------
          MCSCF CALCULATION
          -----------------

 ----- NUCLEAR ENERGY ----- =        11.0873421575

     -------------------------------------------------
     GMC-PT/GMC-QDPT or general MCSCF input parameters
     -------------------------------------------------
 # of frozen core orbs. =         0 ->         0
 # of doubly occ. orbs. =         1
 # of active      orbs. =         7
 # of virtual     orbs. =        21
 # of active electrons  =         7
 # of states in CI      =         3
 Highest state in CI    =         3
 kstate =  1 1 1
 avecoe =  0.333 0.333 0.333
 State symmetry           = A           
 Assigned symmetry number = 1

 <<<Act. MO sym.: 1111111

 <<<Division of 1-ext.:  0
 <<<Division of 2-ext.:  0

 *** Reference space

 Reference type: ORMAS (= Occupation restricted multiple active space)
 # of orbitals          =  7
 # of minimum electrons =  7
 # of maximum electrons =  7
 State symmetry    =    1 (input)
 2*Sz              =    1 (input)
 Spin multiplicity =    2 (input)
 Dimension of reference space =      1225  (from      3432 walks)

 Dimension of reference space =      1225  (from      1225 walks)

 <<<Ionized spaces for Ref-CI:
      0:         1225 /   -1-0:         1960 /  0-1-0:         2891

 EVALUATING EXCHANGE INTEGRALS FOR DIRECT INTEGRAL TRANSFORMATION
 SCHWARZ INEQUALITY OVERHEAD:       465 INTEGRALS, T=        0.00

     --------------------------------------------
     PARTIAL TWO ELECTRON INTEGRAL TRANSFORMATION
     --------------------------------------------

 NUMBER OF CORE MOLECULAR ORBITALS     =    1
 NUMBER OF OCCUPIED MOLECULAR ORBITALS =    8
 TOTAL NUMBER OF MOLECULAR ORBITALS    =   29
 TOTAL NUMBER OF ATOMIC ORBITALS       =   30
 THRESHOLD FOR KEEPING TRANSFORMED 2E- INTEGRALS = 1.000E-09

 -------------------------------     ------------------------------
 DISTRIBUTED DATA TRANSFORMATION     PROGRAM WRITTEN BY G. FLETCHER
 -------------------------------     ------------------------------

 THE DISTRIBUTED MEMORY REQUIRED FOR THIS STEP IS MEMDDI=         1 MWORDS
 CREATING DISTRIBUTED STORAGE FOR [VIR OCC|VIR OCC] INTEGRALS
 CREATING DISTRIBUTED STORAGE FOR [VIR OCC|OCC OCC] INTEGRALS
 CREATING DISTRIBUTED STORAGE FOR [OCC OCC|OCC OCC] INTEGRALS
 CREATING DISTRIBUTED STORAGE FOR [VIR VIR|OCC OCC] INTEGRALS
 FOR    1 PROCESSORS, THE REPLICATED MEMORY NEEDED IS       73700 WORDS.
 SCHWARZ INEQUALITY OVERHEAD:       465 INTEGRALS, T=        0.00

      DIRECT 4-INDEX TRANSFORMATION 
      SCHWARZ INEQUALITY TEST SKIPPED          0 INTEGRAL BLOCKS
 ----- FROZEN CORE ENERGY =       -47.6132117330
 ... END OF INTEGRAL TRANSFORMATION ...
 CPU     0: STEP CPU TIME=     0.21 TOTAL CPU TIME=          0.3 (      0.0 MIN)
 TOTAL WALL CLOCK TIME=          0.3 SECONDS, CPU UTILIZATION IS    93.33%

     --------------------------------     -----------------------------
     MCHF NEWTON-RAPHSON OPTIMIZATION     CODE WRITTEN BY MICHEL DUPUIS
     --------------------------------     -----------------------------
     PARALLEL VERSION WRITTEN BY G. FLETCHER (ELORET)
     NASA ADVANCED SUPERCOMPUTING DIVISION, AMES RESEARCH CENTER

 NUMBER OF INDEPENDENT ORBITAL ROTATION PARAMETERS =   175
 ..... DONE SOLVING NEWTON-RAPHSON EQUATIONS .....
 CPU     0: STEP CPU TIME=     0.71 TOTAL CPU TIME=          1.0 (      0.0 MIN)
 TOTAL WALL CLOCK TIME=          1.0 SECONDS, CPU UTILIZATION IS    98.02%
 ..... DONE WITH NTN-RPH ORBITAL ROTATIONS ..... 
 CPU     0: STEP CPU TIME=     0.00 TOTAL CPU TIME=          1.0 (      0.0 MIN)
 TOTAL WALL CLOCK TIME=          1.0 SECONDS, CPU UTILIZATION IS    98.02%
 MAXIMUM MEMORY USED BY NTN-RPH CODE WAS     57645 WORDS.

 ITER     TOTAL ENERGY      DEL(E)  LAGRANGIAN ASYMMETRY   SQCDF  MICIT   DAMP
   1      -55.596841427 -0.596841427  0.109849   12    5 1.047E-01  1   0.0000
   2      -55.653863850 -0.057022424  0.019866   12    5 4.593E-01  1   0.0000
   3      -55.690085361 -0.036221511  0.013902   11    6 2.321E-01  1   0.0192
   4      -55.706570564 -0.016485203  0.004808   11    6 4.686E-02  1   0.0059
   5      -55.708845439 -0.002274875  0.000961   23    5 1.322E-03  1   0.0000
   6      -55.708916683 -0.000071244  0.000434   23    5 1.164E-04  1   0.0000
   7      -55.708924792 -0.000008109  0.000203   23    5 2.385E-05  1   0.0000
   8      -55.708926519 -0.000001728  0.000101   23    5 5.994E-06  1   0.0000
   9      -55.708926952 -0.000000433  0.000052   23    5 1.688E-06  1   0.0000
  10      -55.708927072 -0.000000120  0.000028   23    5 5.130E-07  1   0.0000
  11      -55.708927108 -0.000000036  0.000015   23    5 1.647E-07  1   0.0000
  12      -55.708927119 -0.000000011  0.000008   23    5 5.505E-08  1   0.0000
  13      -55.708927123 -0.000000004  0.000004   23    5 1.901E-08  1   0.0000
  14      -55.708927124 -0.000000001  0.000003   23    5 6.746E-09  1   0.0000
  15      -55.708927124 -0.000000000  0.000001   23    5 2.450E-09  1   0.0000
  16      -55.708927124 -0.000000000  0.000001   23    5 8.969E-10  1   0.0000

          --------------------
          LAGRANGIAN CONVERGED
          --------------------

 FINAL MCSCF ENERGY IS      -55.7089271245 AFTER  16 ITERATIONS

 -MCCI- BASED ON OPTIMIZED ORBITALS
 ----------------------------------

 PLEASE NOTE: IF THE ACTIVE ORBITALS ARE CANONICALIZED BELOW,
 THE FOLLOWING CI EXPANSION COEFFICIENTS AND THE DENSITY DO NOT
 CORRESPOND TO THE PRINTED ORBITALS.  THE PRINTED EXPANSIONS MATCH
 THE ORBITALS USED DURING THE LAST ITERATION.  IF YOU WISH TO SEE
 CI EXPANSIONS BASED ON THE CANONICAL (OR NATURAL) ORBITALS, YOU
 MUST RUN A CI CALCULATION WITH THAT ORBITAL CHOICE READ IN $VEC.

 Averaged energy =     -55.708927124

 State #    1  Energy =     -55.845485827  S =  0.500

      Det      Coef    Occupancy (Ignoring core)
      ---      ----    --------- --------- -----
        1    0.901535  11110001110000
        5   -0.070998  01111001110000
        8   -0.129735  10110101110000
       17   -0.138684  11010011110000
       36   -0.254925  11110001101000
       71    0.121639  11110001011000
      211    0.052507  11110000110100
      386    0.102620  11110001010010
      393    0.055225  10110101010010
      701    0.098012  11110001100001
      717    0.062384  11010011100001

 State #    2  Energy =     -55.733011294  S =  0.500

      Det      Coef    Occupancy (Ignoring core)
      ---      ----    --------- --------- -----
        1    0.254381  11110001110000
       36    0.606760  11110001101000
       38   -0.052654  11011001101000
       43   -0.070635  10110101101000
       52   -0.067891  11010011101000
       71   -0.691836  11110001011000
       75    0.051635  01111001011000
       78    0.072172  10110101011000
       87    0.082665  11010011011000
      456    0.061426  11110001001010
      701    0.062862  11110001100001
      806    0.070463  11110001001001

 State #    3  Energy =     -55.548284253  S =  0.500

      Det      Coef    Occupancy (Ignoring core)
      ---      ----    --------- --------- -----
        1    0.106760  11110001110000
       36    0.692228  11110001101000
       43   -0.062897  10110101101000
       52   -0.055200  11010011101000
       71    0.653863  11110001011000
       87   -0.059704  11010011011000
      281    0.057000  11110000101100
      316    0.057190  11110000011100
      456    0.067514  11110001001010
      806   -0.087368  11110001001001

 DENSITY MATRIX OVER ACTIVE MO-S

             1           2           3           4           5

    1    1.9732579
    2   -0.0088479   1.6274647
    3   -0.0218027  -0.0075716   1.6265944
    4   -0.0006902  -0.0040188  -0.0053726   1.6510438
    5    0.1094019   0.0215476   0.0643108   0.0122742   0.0363019
    6   -0.0134194  -0.1499280   0.0062967  -0.0169346  -0.0067553
    7    0.0025100   0.0215007   0.1664279   0.0630126   0.0093850

             6           7

    6    0.0387018
    7   -0.0078215   0.0466354

 FORMING THE "STANDARD FOCK OPERATOR" IN DIRECT AO INTEGRAL MODE...
 ONLY THE    1 CORE AND   21 VIRTUAL ORBITALS WILL BE CANONICALIZED

          ----------------------
          MCSCF NATURAL ORBITALS
          ----------------------

                      1          2          3          4          5
                  -15.9819     1.9806     1.6546     1.6485     1.6384
                     A          A          A          A          A   
    1  N  1  S    1.001089   0.009011  -0.008666   0.003614   0.002811
    2  N  1  S   -0.001936   0.434189  -0.142188   0.125563   0.052707
    3  N  1  S   -0.006302   0.328990  -0.236232   0.171104   0.081628
    4  N  1  X   -0.000178  -0.015916  -0.086677  -0.210311   0.460512
    5  N  1  Y    0.000041  -0.043306   0.217351   0.350331   0.288021
    6  N  1  Z    0.001125   0.085780   0.547636  -0.205765   0.010506
    7  N  1  X   -0.000025   0.002035  -0.021817  -0.064206   0.257639
    8  N  1  Y    0.000042  -0.006276   0.127800   0.119217   0.171354
    9  N  1  Z   -0.000550   0.015807   0.370479  -0.114268   0.031564
   10  N  1 XX    0.000027  -0.000557  -0.009379   0.008295   0.006916
   11  N  1 YY    0.000151   0.000778  -0.011890   0.000825  -0.007297
   12  N  1 ZZ   -0.000178  -0.000221   0.021269  -0.009121   0.000382
   13  N  1 XY   -0.000352  -0.004125  -0.003100  -0.005898  -0.012391
   14  N  1 XZ   -0.000062   0.000796  -0.005351  -0.007683   0.019829
   15  N  1 YZ   -0.000113  -0.003277   0.004337   0.017901   0.013006
   16  H  2  S   -0.001825   0.166364   0.224398   0.300075  -0.035601
   17  H  2  S    0.000640  -0.000755   0.042469   0.033411   0.007627
   18  H  2  X   -0.000686   0.021288   0.019817   0.026141   0.008584
   19  H  2  Y    0.000715  -0.025175  -0.015705  -0.020014   0.019760
   20  H  2  Z    0.000308  -0.002679   0.014981  -0.017339   0.001096
   21  H  3  S   -0.001712   0.209595   0.053843  -0.257890  -0.285458
   22  H  3  S    0.000274   0.008651   0.021656  -0.041874  -0.102681
   23  H  3  X   -0.000210   0.008554   0.002982  -0.023984   0.007426
   24  H  3  Y   -0.000814   0.032501   0.016039  -0.014545  -0.020984
   25  H  3  Z    0.000519  -0.016707   0.021326   0.006896   0.019662
   26  H  4  S   -0.001394   0.164540   0.012404  -0.249472   0.266929
   27  H  4  S    0.000338  -0.001031   0.019549  -0.034560   0.098164
   28  H  4  X    0.000649  -0.025861  -0.001488   0.031866  -0.015064
   29  H  4  Y   -0.000334   0.013100   0.004054  -0.002861   0.026337
   30  H  4  Z    0.000362  -0.006716   0.023421   0.001472  -0.008959

                      6          7          8
                    0.0335     0.0253     0.0191
                     A          A          A   
    1  N  1  S   -0.118349  -0.121498  -0.127006
    2  N  1  S   -0.407415  -0.452425  -0.382236
    3  N  1  S   -0.029062  -0.214834   0.006874
    4  N  1  X   -0.524687   0.092416   0.682841
    5  N  1  Y   -0.347421   0.559635  -0.534793
    6  N  1  Z   -0.229490  -0.561320  -0.192162
    7  N  1  X    0.047764  -0.039715   0.060573
    8  N  1  Y    0.053849   0.095505  -0.055013
    9  N  1  Z    0.048281   0.025587   0.076997
   10  N  1 XX    0.021501  -0.025779   0.035396
   11  N  1 YY   -0.017464   0.024195  -0.021091
   12  N  1 ZZ   -0.004038   0.001584  -0.014305
   13  N  1 XY   -0.069710  -0.018065  -0.001839
   14  N  1 XZ    0.013591   0.002929  -0.042768
   15  N  1 YZ   -0.009460  -0.048009   0.014491
   16  H  2  S    0.330101   0.116955   0.788894
   17  H  2  S    0.053952  -0.011779   0.151023
   18  H  2  X    0.031320   0.013877   0.054866
   19  H  2  Y   -0.013619  -0.019893  -0.060002
   20  H  2  Z   -0.002159   0.004604   0.026689
   21  H  3  S   -0.341878   0.761113   0.041034
   22  H  3  S   -0.160834   0.163105   0.024591
   23  H  3  X    0.019614   0.043815  -0.030049
   24  H  3  Y   -0.012960   0.047921   0.029107
   25  H  3  Z    0.025068  -0.000395  -0.003862
   26  H  4  S    0.682700   0.227293  -0.318259
   27  H  4  S    0.199165  -0.004607  -0.104077
   28  H  4  X   -0.050012  -0.039535   0.027061
   29  H  4  Y    0.046211  -0.015681   0.001364
   30  H  4  Z    0.002044   0.029968  -0.007645

          ------------------------
          MCSCF OPTIMIZED ORBITALS
          ------------------------

                      1          2          3          4          5
                  -15.9819     0.0000     0.0000     0.0000     0.0000
                     A          A          A          A          A   
    1  N  1  S    1.001089  -0.001828   0.002375  -0.013897  -0.013062
    2  N  1  S   -0.001936   0.398904  -0.001975   0.012697  -0.189237
    3  N  1  S   -0.006302   0.323968   0.021813   0.093055  -0.278873
    4  N  1  X   -0.000178  -0.009908   0.424563   0.079848  -0.006788
    5  N  1  Y    0.000041  -0.012662   0.006188   0.414270   0.043473
    6  N  1  Z    0.001125   0.050754  -0.007185  -0.009405   0.583905
    7  N  1  X   -0.000025   0.011596   0.248356   0.100589   0.009456
    8  N  1  Y    0.000042   0.011332   0.054806   0.223774   0.074788
    9  N  1  Z   -0.000550   0.021206   0.001599   0.048540   0.388606
   10  N  1 XX    0.000027  -0.000036   0.002883   0.012435  -0.010014
   11  N  1 YY    0.000151   0.000540  -0.003855  -0.010657  -0.012730
   12  N  1 ZZ   -0.000178  -0.000504   0.000972  -0.001778   0.022744
   13  N  1 XY   -0.000352  -0.008127  -0.010983  -0.017561  -0.002861
   14  N  1 XZ   -0.000062   0.001458   0.024987   0.001881  -0.002116
   15  N  1 YZ   -0.000113  -0.004365  -0.001010   0.023987  -0.001802
   16  H  2  S   -0.001825   0.201757  -0.266455   0.343542   0.116250
   17  H  2  S    0.000640   0.004209  -0.026294   0.057537   0.031196
   18  H  2  X   -0.000686   0.024938  -0.012865   0.035434   0.010309
   19  H  2  Y    0.000715  -0.027068   0.033492  -0.011990  -0.007889
   20  H  2  Z    0.000308  -0.002551   0.004904  -0.006392   0.020607
   21  H  3  S   -0.001712   0.210759  -0.144612  -0.399334   0.119096
   22  H  3  S    0.000274   0.004820  -0.080718  -0.100221   0.026728
   23  H  3  X   -0.000210   0.010387   0.020848  -0.015230   0.011246
   24  H  3  Y   -0.000814   0.033186  -0.016653  -0.020301   0.019251
   25  H  3  Z    0.000519  -0.014563   0.009962   0.025385   0.018159
   26  H  4  S   -0.001394   0.198366   0.410432  -0.014757   0.121850
   27  H  4  S    0.000338   0.007970   0.114627   0.044678   0.037283
   28  H  4  X    0.000649  -0.028647  -0.033273   0.015389  -0.014046
   29  H  4  Y   -0.000334   0.015122   0.025154   0.017642   0.006955
   30  H  4  Z    0.000362  -0.005520  -0.012757   0.002088   0.020482

                      6          7          8          9         10
                    0.0000     0.0000     0.0000     0.1320     0.2012
                     A          A          A          A          A   
    1  N  1  S    0.195924  -0.042316   0.067277  -0.110044   0.025198
    2  N  1  S    0.710136  -0.105320   0.183237  -0.162148   0.025867
    3  N  1  S    0.205990   0.001146  -0.112833   1.173333  -0.358593
    4  N  1  X    0.012759   0.909335   0.018718   0.005609  -0.130896
    5  N  1  Y   -0.093889  -0.155175   0.876413   0.046210   0.089515
    6  N  1  Z    0.633883  -0.068178  -0.065321  -0.157275   0.032610
    7  N  1  X   -0.002478   0.038161  -0.070875   0.024910   0.558493
    8  N  1  Y   -0.077784  -0.060660   0.080399  -0.227029  -0.570934
    9  N  1  Z   -0.062045   0.039111  -0.035637   0.363604  -0.023406
   10  N  1 XX   -0.000450   0.012492  -0.046532   0.001069  -0.024536
   11  N  1 YY   -0.004648  -0.004071   0.034672   0.037789  -0.006215
   12  N  1 ZZ    0.005099  -0.008421   0.011860  -0.038858   0.030751
   13  N  1 XY    0.050382   0.037683   0.030699  -0.068127   0.060848
   14  N  1 XZ    0.003405  -0.039575   0.017077   0.001171   0.060926
   15  N  1 YZ    0.039998   0.011870  -0.028000  -0.066255  -0.069748
   16  H  2  S   -0.473994   0.416791  -0.522224   0.293084  -0.544200
   17  H  2  S   -0.060334   0.083891  -0.114741  -0.562229   1.932865
   18  H  2  X   -0.040785   0.025149  -0.036627  -0.038133   0.095153
   19  H  2  Y    0.038934  -0.038706   0.027902   0.066364  -0.081252
   20  H  2  Z   -0.010480   0.023695  -0.010213  -0.022126  -0.070455
   21  H  3  S   -0.447945   0.311483   0.596674   0.324531   0.191889
   22  H  3  S   -0.058042   0.127359   0.170382  -0.876827  -0.636555
   23  H  3  X   -0.036408  -0.028848   0.029345   0.053652  -0.001781
   24  H  3  Y   -0.039101   0.035068   0.018896  -0.095191  -0.011085
   25  H  3  Z   -0.011265  -0.017323  -0.009955   0.060034   0.041706
   26  H  4  S   -0.432114  -0.600130  -0.099992   0.412881   0.199541
   27  H  4  S   -0.066792  -0.192585  -0.059957  -0.905274  -0.696974
   28  H  4  X    0.048626   0.043984  -0.006996   0.020359   0.021889
   29  H  4  Y   -0.010163  -0.026050  -0.035638  -0.073835  -0.029106
   30  H  4  Z   -0.023145  -0.005117   0.021397   0.041690   0.066282

                     11         12         13         14         15
                    0.2461     0.5299     0.5852     0.6763     0.8385
                     A          A          A          A          A   
    1  N  1  S    0.020162  -0.098698   0.012822  -0.027844  -0.473956
    2  N  1  S    0.045150  -0.131314  -0.078731  -0.043560  -1.073966
    3  N  1  S   -0.121632   0.659425  -0.517743   0.096484   1.786201
    4  N  1  X   -0.048790  -0.278938  -0.305444  -0.433369  -0.026993
    5  N  1  Y    0.025233  -0.455053  -0.320578   0.203690   0.058873
    6  N  1  Z    0.024672  -0.542679   0.452377  -0.109203   0.287610
    7  N  1  X    0.465382   0.334593   0.668561   1.518337   0.022037
    8  N  1  Y    0.121561   0.880201   1.016852  -1.143306  -0.039628
    9  N  1  Z   -0.106959   0.704715  -0.914788   0.330493  -0.193881
   10  N  1 XX    0.060828   0.007338  -0.027564  -0.031588   0.113431
   11  N  1 YY   -0.052198  -0.029019   0.049928   0.054219  -0.097441
   12  N  1 ZZ   -0.008630   0.021682  -0.022364  -0.022631  -0.015990
   13  N  1 XY   -0.054957   0.006773  -0.038324   0.006347   0.053917
   14  N  1 XZ    0.051298   0.005548  -0.000679  -0.072967  -0.053561
   15  N  1 YZ    0.039711   0.006825  -0.005603   0.049891  -0.021965
   16  H  2  S    0.100374  -0.468598   0.276120   0.605975  -0.139758
   17  H  2  S   -0.176901  -0.363953  -0.281503   0.621099  -0.422815
   18  H  2  X   -0.008712  -0.049474   0.052806   0.186430  -0.170423
   19  H  2  Y   -0.037896   0.035848   0.087825  -0.079665  -0.089545
   20  H  2  Z   -0.003541   0.044726  -0.058466   0.148129   0.131997
   21  H  3  S   -0.617833   0.012358   0.685785  -0.173095   0.088859
   22  H  3  S    2.106250   0.479124   0.826605  -0.052832  -0.238542
   23  H  3  X    0.054806  -0.054799   0.104143  -0.110829  -0.347030
   24  H  3  Y    0.068358   0.082607   0.083874  -0.138537   0.028352
   25  H  3  Z   -0.039605   0.019710  -0.113594  -0.071616   0.124221
   26  H  4  S    0.570366  -0.253223   0.084710  -0.645294   0.078770
   27  H  4  S   -1.923327  -0.378158  -0.461667  -0.560461  -0.359823
   28  H  4  X    0.077251   0.054031  -0.100718   0.182764   0.286449
   29  H  4  Y    0.007547   0.056110  -0.084581  -0.161309   0.217918
   30  H  4  Z    0.004001   0.098570  -0.011043  -0.141921  -0.017533

                     16         17         18         19         20
                    1.0262     1.0726     1.2119     1.3256     1.4290
                     A          A          A          A          A   
    1  N  1  S   -0.324540  -0.332978   0.015043  -0.262004  -0.349360
    2  N  1  S   -0.677793  -0.699061   0.034699  -0.560640  -0.740175
    3  N  1  S    1.330208   1.484490  -0.071435   0.951779   1.234953
    4  N  1  X   -0.050134   0.148130   0.208298  -0.040679  -0.037200
    5  N  1  Y    0.085173  -0.022392  -0.129703  -0.010554   0.008971
    6  N  1  Z    0.090757   0.037506  -0.033156  -0.021038  -0.056102
    7  N  1  X    0.164431  -0.728596  -0.688274  -0.011057  -0.143296
    8  N  1  Y   -0.515292   0.118487   0.829437   0.453524  -0.436526
    9  N  1  Z   -0.107630   0.345348  -0.129260   0.379455   0.640999
   10  N  1 XX   -0.171338  -0.127141  -0.021043   0.143928  -0.032670
   11  N  1 YY   -0.086667   0.196875  -0.004405   0.008780   0.042509
   12  N  1 ZZ    0.258005  -0.069734   0.025448  -0.152708  -0.009838
   13  N  1 XY   -0.081355   0.059236  -0.058526   0.065314  -0.124273
   14  N  1 XZ    0.002883   0.158271  -0.217024   0.022325   0.090174
   15  N  1 YZ    0.045145   0.158881  -0.058123  -0.005646   0.050647
   16  H  2  S    0.012600  -0.499043  -0.495022  -0.364779  -0.272691
   17  H  2  S   -0.096572  -0.384671  -0.238509  -0.188536  -0.049230
   18  H  2  X    0.020048   0.293091   0.132282  -0.477435   0.187856
   19  H  2  Y   -0.008819   0.413081  -0.105782  -0.508692   0.214199
   20  H  2  Z    0.266995   0.146924   0.421773  -0.052309  -0.643694
   21  H  3  S   -0.407371  -0.328933   0.140854  -0.135325  -0.454179
   22  H  3  S   -0.192838  -0.236825   0.099497  -0.046791  -0.290694
   23  H  3  X    0.329625   0.008044  -0.053145   0.295349   0.022671
   24  H  3  Y    0.106651  -0.306325   0.243814  -0.347885   0.047415
   25  H  3  Z    0.384340  -0.420020   0.065966  -0.353900   0.355033
   26  H  4  S   -0.422448   0.116242   0.511835  -0.229892  -0.410394
   27  H  4  S   -0.132372   0.018565   0.106809   0.006156   0.109140
   28  H  4  X   -0.184694   0.063093   0.053264  -0.240340  -0.119066
   29  H  4  Y   -0.174392  -0.120971  -0.555451  -0.229204  -0.069462
   30  H  4  Z    0.379246   0.101761  -0.468794  -0.172329  -0.577457

                     21         22         23         24         25
                    1.6097     1.7773     1.8635     2.0054     2.0614
                     A          A          A          A          A   
    1  N  1  S   -0.135790   0.130204   0.063213  -0.061547  -0.066735
    2  N  1  S   -0.254981   0.385660   0.141415  -0.116205  -0.146088
    3  N  1  S    0.684344   0.756781   0.216746   0.211762   0.004755
    4  N  1  X    0.053518   0.016752  -0.373172   0.139685   0.164130
    5  N  1  Y    0.189562  -0.319095   0.426003   0.021302  -0.005474
    6  N  1  Z   -0.019883   0.256809  -0.025096  -0.030867  -0.054535
    7  N  1  X    0.696003   0.062546  -0.291385   0.005497  -0.138823
    8  N  1  Y   -0.414828   0.036563   0.243318   0.107211  -0.176011
    9  N  1  Z    0.328503   0.250419   0.049690   0.261315  -0.121379
   10  N  1 XX   -0.017753  -0.016401   0.020999  -0.632793   0.153957
   11  N  1 YY    0.119544  -0.080338  -0.066275   0.008816   0.378488
   12  N  1 ZZ   -0.101791   0.096739   0.045276   0.623977  -0.532445
   13  N  1 XY    0.099271   0.119824   0.169456  -0.375460   0.355030
   14  N  1 XZ   -0.145437   0.144611   0.227805   0.004475  -0.055743
   15  N  1 YZ   -0.061148   0.245458  -0.098892  -0.153471   0.074734
   16  H  2  S    0.209074  -0.099187  -0.125311  -0.075862   0.064852
   17  H  2  S   -0.039149  -0.111045  -0.523114  -0.080917   0.047557
   18  H  2  X   -0.344332  -0.372389  -0.635480  -0.209744   0.197049
   19  H  2  Y    0.140600   0.196593   0.708792  -0.178661  -0.146705
   20  H  2  Z   -0.477357  -0.175885   0.423312  -0.187130   0.021297
   21  H  3  S   -0.415015  -0.001114  -0.018936   0.088116   0.119373
   22  H  3  S    0.269017  -0.229539   0.242877   0.271420   0.236642
   23  H  3  X   -0.239730   0.081834   0.216598   0.351953   0.910297
   24  H  3  Y    0.481266  -0.612229   0.244206   0.025667   0.377069
   25  H  3  Z   -0.232852   0.494482  -0.094233  -0.430667   0.240260
   26  H  4  S   -0.275554  -0.053858   0.014484  -0.169307  -0.171023
   27  H  4  S   -0.491518  -0.321285   0.114034  -0.268628  -0.251594
   28  H  4  X    0.189310   0.551670  -0.099434   0.696564   0.667921
   29  H  4  Y   -0.582314  -0.487500   0.106365   0.241799   0.307870
   30  H  4  Z    0.413163   0.036861  -0.490681  -0.207146  -0.047081

                     26         27         28         29
                    2.2659     2.5374     2.6382     3.0333
                     A          A          A          A   
    1  N  1  S    0.104966  -0.026032  -0.150060   0.063458
    2  N  1  S    0.177858  -0.105133  -0.153952   0.026459
    3  N  1  S   -0.716034  -0.795480   1.944428  -1.204467
    4  N  1  X   -0.009293   0.360889  -0.024330   0.037635
    5  N  1  Y    0.018387  -0.148172  -0.303684  -0.366226
    6  N  1  Z   -0.033231  -0.130881   0.270199  -0.073702
    7  N  1  X    0.337945   1.026016   0.192324   0.088524
    8  N  1  Y    0.258106  -0.472780  -0.993782  -0.550538
    9  N  1  Z   -0.401169  -0.177763   0.581627  -0.088635
   10  N  1 XX   -0.530032   0.399448  -0.129428  -0.782146
   11  N  1 YY    0.743699  -0.616146   0.552212   0.197245
   12  N  1 ZZ   -0.213667   0.216698  -0.422784   0.584900
   13  N  1 XY   -0.132617   0.207104  -0.262397   1.285667
   14  N  1 XZ    0.579329   0.945675   0.163262  -0.144278
   15  N  1 YZ    0.372226  -0.285182  -1.124739  -0.378640
   16  H  2  S    0.188291   1.021920  -0.122241   1.172279
   17  H  2  S    0.070022   0.425885   0.055006   0.336058
   18  H  2  X   -0.340181   0.698744  -0.029676   0.600192
   19  H  2  Y   -0.516123  -0.539232   0.109293  -0.688986
   20  H  2  Z    0.230509  -0.007653   0.258925  -0.394246
   21  H  3  S    0.293613   0.388963  -1.260499  -0.618284
   22  H  3  S    0.146548   0.234807  -0.495602  -0.167654
   23  H  3  X   -0.460197   0.006014  -0.247414  -0.192566
   24  H  3  Y    0.402914   0.418870  -0.816220  -0.500351
   25  H  3  Z    0.233766  -0.275570   0.589188   0.327393
   26  H  4  S    0.178439  -0.580149  -0.672321   0.719835
   27  H  4  S    0.024298  -0.367492  -0.144258   0.194809
   28  H  4  X   -0.171844   0.460654   0.342963  -0.694261
   29  H  4  Y   -0.002617  -0.454788  -0.206355   0.297502
   30  H  4  Z   -0.031520   0.062060   0.226561  -0.391362
 .....DONE WITH MCSCF ITERATIONS.....
 CPU     0: STEP CPU TIME=    10.20 TOTAL CPU TIME=         11.2 (      0.2 MIN)
 TOTAL WALL CLOCK TIME=         11.2 SECONDS, CPU UTILIZATION IS    99.82%

     ----------------------------------------------------------------
     PROPERTY VALUES FOR THE MCSCF SELF-CONSISTENT FIELD WAVEFUNCTION
     ----------------------------------------------------------------

          -----------------
          ENERGY COMPONENTS
          -----------------

         WAVEFUNCTION NORMALIZATION =       1.0000000000

                ONE ELECTRON ENERGY =     -93.7251193838
                TWO ELECTRON ENERGY =      26.9288501018
           NUCLEAR REPULSION ENERGY =      11.0873421575
                                      ------------------
                       TOTAL ENERGY =     -55.7089271245

 ELECTRON-ELECTRON POTENTIAL ENERGY =      26.9288501018
  NUCLEUS-ELECTRON POTENTIAL ENERGY =    -149.4117724263
   NUCLEUS-NUCLEUS POTENTIAL ENERGY =      11.0873421575
                                      ------------------
             TOTAL POTENTIAL ENERGY =    -111.3955801671
               TOTAL KINETIC ENERGY =      55.6866530426
                 VIRIAL RATIO (V/T) =       2.0003999896

          ---------------------------------------
          MULLIKEN AND LOWDIN POPULATION ANALYSES
          ---------------------------------------

     ATOMIC MULLIKEN POPULATION IN EACH MOLECULAR ORBITAL

                      1          2          3          4          5

                  2.000000   1.980587   1.654649   1.648507   1.638361

    1             2.000642   1.360041   1.481872   0.911059   1.172895
    2            -0.000257   0.171856   0.147869   0.314384   0.012127
    3            -0.000253   0.274926   0.017566   0.210805   0.224173
    4            -0.000133   0.173764   0.007343   0.212259   0.229167

                      6          7          8

                  0.033459   0.025338   0.019098

    1             0.014384   0.013439   0.010257
    2             0.003051   0.000175   0.007600
    3             0.002512   0.010495   0.000071
    4             0.013512   0.001229   0.001170
 WARNING! MCSCF POPULATIONS SHOWN ABOVE ARE FOR THE NATURAL ORBITALS.
 IGNORE THE ABOVE DATA FOR MCSCF FUNCTIONS WHICH ARE NOT OF -FORS- TYPE.
 THE FOLLOWING POPULATIONS ARE CORRECT FOR ANY MCSCF WAVEFUNCTION.

               ----- POPULATIONS IN EACH AO -----
                             MULLIKEN      LOWDIN
              1  N  1  S      2.00227     1.90354
              2  N  1  S      0.81863     0.57873
              3  N  1  S      0.70271     0.41422
              4  N  1  X      0.69443     0.62587
              5  N  1  Y      0.68135     0.61145
              6  N  1  Z      0.85451     0.80449
              7  N  1  X      0.35765     0.44313
              8  N  1  Y      0.31124     0.41634
              9  N  1  Z      0.52547     0.56369
             10  N  1 XX      0.00054     0.17066
             11  N  1 YY      0.00165     0.16873
             12  N  1 ZZ      0.00390     0.14400
             13  N  1 XY      0.00416     0.01031
             14  N  1 XZ      0.00607     0.00646
             15  N  1 YZ      0.00000     0.01287
             16  H  2  S      0.57034     0.44455
             17  H  2  S      0.03069     0.14800
             18  H  2  X      0.02224     0.04294
             19  H  2  Y      0.02288     0.04129
             20  H  2  Z      0.01065     0.02928
             21  H  3  S      0.62332     0.47823
             22  H  3  S      0.05793     0.15015
             23  H  3  X      0.01342     0.03801
             24  H  3  Y      0.02681     0.04483
             25  H  3  Z      0.01880     0.04019
             26  H  4  S      0.53125     0.40832
             27  H  4  S      0.05519     0.15247
             28  H  4  X      0.02619     0.04949
             29  H  4  Y      0.01395     0.03051
             30  H  4  Z      0.01173     0.02725

          ----- MULLIKEN ATOMIC OVERLAP POPULATIONS -----
          (OFF-DIAGONAL ELEMENTS NEED TO BE MULTIPLIED BY 2)

             1           2           3           4

    1    6.1442962
    2    0.3029370   0.3640016
    3    0.2671963  -0.0046513   0.4877736
    4    0.2501599  -0.0054824  -0.0100240   0.4036575

          TOTAL MULLIKEN AND LOWDIN ATOMIC POPULATIONS
       ATOM         MULL.POP.    CHARGE          LOW.POP.     CHARGE
    1 N             6.964589    0.035411         6.874496    0.125504
    2 H             0.656805    0.343195         0.706053    0.293947
    3 H             0.740295    0.259705         0.751413    0.248587
    4 H             0.638311    0.361689         0.668037    0.331963

          MULLIKEN SPHERICAL HARMONIC POPULATIONS
       ATOM           S       P       D      F      G      H      I    TOTAL
    1 N             3.52    3.42    0.02   0.00   0.00   0.00   0.00    6.96
    2 H             0.60    0.06    0.00   0.00   0.00   0.00   0.00    0.66
    3 H             0.68    0.06    0.00   0.00   0.00   0.00   0.00    0.74
    4 H             0.59    0.05    0.00   0.00   0.00   0.00   0.00    0.64

          ---------------------
          ELECTROSTATIC MOMENTS
          ---------------------

 POINT   1           X           Y           Z (BOHR)    CHARGE
                 0.000000   -0.000005   -0.177185        1.00 (A.U.)
         DX          DY          DZ         /D/  (DEBYE)
     0.007893   -0.858857    2.156828    2.321552
 ...... END OF PROPERTY EVALUATION ......
 CPU     0: STEP CPU TIME=     0.00 TOTAL CPU TIME=         11.2 (      0.2 MIN)
 TOTAL WALL CLOCK TIME=         11.2 SECONDS, CPU UTILIZATION IS    99.82%

     -------------------------------------------------
     GMC-PT/GMC-QDPT or general MCSCF input parameters
     -------------------------------------------------
 # of frozen core orbs. =         0 ->         0
 # of doubly occ. orbs. =         1
 # of active      orbs. =         7
 # of virtual     orbs. =        21
 # of active electrons  =         7
 # of states in CI      =         3
 Highest state in CI    =         3
 kstate =  1 1 1
 avecoe =  0.333 0.333 0.333
 State symmetry           = A           
 Assigned symmetry number = 1

 <<<Act. MO sym.: 1111111

 <<<Division of 1-ext.:  0
 <<<Division of 2-ext.:  0

     ------------------------
     Orbital canonicalization
     ------------------------

 MOs are canonicalized for core, virtual, and invariant-active orbital spaces.
 This is a part of the GMC-QDPT calculation.
 SCHWARZ INEQUALITY OVERHEAD:       465 INTEGRALS, T=        0.00
 DIRECT TRANSFORMATION SKIPS AO INTEGRAL STORAGE ON DISK.

 Averaged energy =     -55.708927124

 State #    1  Energy =     -55.845485827  S =  0.500
 State #    2  Energy =     -55.733011294  S =  0.500
 State #    3  Energy =     -55.548284253  S =  0.500

 Orbital energies for filled orbital space
  -15.981852
 Orbital energies for active orbital space
   -1.496240  -0.805129  -0.992069  -0.726454   0.143713
    0.398896   0.273241
 Orbital energies for external orbital space
    0.132028   0.201224   0.246127   0.529942   0.585197
    0.676318   0.838488   1.026204   1.072560   1.211876
    1.325621   1.429007   1.609686   1.777329   1.863541
    2.005377   2.061374   2.265921   2.537351   2.638230
    3.033338

 Zero values mean non-canonical orbitals.
 ... done with orbital canonicalization ...
 CPU     0: STEP CPU TIME=     0.58 TOTAL CPU TIME=         11.8 (      0.2 MIN)
 TOTAL WALL CLOCK TIME=         11.8 SECONDS, CPU UTILIZATION IS    99.75%

     --------------------------------------------
     PARTIAL TWO ELECTRON INTEGRAL TRANSFORMATION
     --------------------------------------------

 NUMBER OF CORE MOLECULAR ORBITALS     =    0
 NUMBER OF OCCUPIED MOLECULAR ORBITALS =    8
 TOTAL NUMBER OF MOLECULAR ORBITALS    =   29
 TOTAL NUMBER OF ATOMIC ORBITALS       =   30
 THRESHOLD FOR KEEPING TRANSFORMED 2E- INTEGRALS = 1.000E-09
 AO INTEGRALS WILL BE CALCULATED IN DIRECT MODE...
 DIRECT TRANSFORMATION SKIPS AO INTEGRAL STORAGE ON DISK.
 SCHWARZ INEQUALITY OVERHEAD:       465 INTEGRALS, T=        0.00

 PLAN A: REQUIREMENTS FOR FULLY IN-MEMORY TRANSFORMATION:
 # OF WORDS AVAILABLE =            100000000
 # OF WORDS NEEDED    =               221798

 PARALLEL ONLY WORKS WITH THE SEGMENTED ALGORITHM.
 ADJUSTING MEMORY TO USE SEGMENTED ALGORITHM.


 PLAN B: REQUIREMENTS FOR THE SEGMENTED TRANSFORMATION:
       MINIMUM=         124148 WORDS FOR 1 MOLECULAR ORBITAL PER PASS
       MAXIMUM=         221798 WORDS FOR ALL MOLECULAR ORBITALS IN 1 PASS
              (          13950 EXTRA WORDS INCLUDES 1 EXTRA ORBITAL/PASS)
 THIS RUN USES=         221798 WORDS,
 DISTRIBUTING   1 PASSES EACH CONTAINING     8 ORBITALS OVER   1 PROCESSORS.

 CHOOSING SEGMENTED PARTIAL TRANSFORMATION...
 DIRECT TRANSFORMATION SKIPS AO INTEGRAL STORAGE ON DISK.
 PASS #   1 TOOK        0.04 SECONDS.
 TOTAL NUMBER OF TRANSFORMED 2E- INTEGRALS KEPT =        29226
 ... END OF INTEGRAL TRANSFORMATION ...
 CPU     0: STEP CPU TIME=     0.05 TOTAL CPU TIME=         11.8 (      0.2 MIN)
 TOTAL WALL CLOCK TIME=         11.8 SECONDS, CPU UTILIZATION IS    99.83%

     --------     ------------------------------------------
     GMC-QDPT     Program written by H.Nakano (Kyushu Univ.)
     --------     ------------------------------------------

 *** Reference space

 Reference type: ORMAS (= Occupation restricted multiple active space)
 # of orbitals          =  7
 # of minimum electrons =  7
 # of maximum electrons =  7
 State symmetry    =    1 (input)
 2*Sz              =    1 (input)
 Spin multiplicity =    2 (input)
 Dimension of reference space =      1225  (from      3432 walks)

 Dimension of reference space =      1225  (from      1225 walks)

 <<<Ionized spaces for Ref-CI:
      0:         1225 /   -1-0:         1960 /  0-1-0:         2891

 ***                    ***
 *** Reference space CI ***
 ***                    ***

 Converged after   28 iterations

 Reference wavefunctions:

 State #    1  Energy =     -55.845485827  S =  0.500

      Det      Coef    Occupancy (Ignoring core)
      ---      ----    --------- --------- -----
        1    0.970054  11110001110000
       71   -0.106296  11110001011000
      179    0.051882  10111001010100
      357    0.054331  11010101100010
      753    0.060176  10110011010001

 State #    2  Energy =     -55.733011294  S =  0.500

      Det      Coef    Occupancy (Ignoring core)
      ---      ----    --------- --------- -----
        1    0.110642  11110001110000
       71    0.974503  11110001011000
      462   -0.055234  11010101001010

 State #    3  Energy =     -55.548284253  S =  0.500

      Det      Coef    Occupancy (Ignoring core)
      ---      ----    --------- --------- -----
       36   -0.974742  11110001101000
      249   -0.052138  10111001001100
      823   -0.061985  10110011001001

 Davidson method: CPU/Wall time =           0.42 /           0.41 sec.

 Oscillator strength (invalid if E(1)/=E(GS)):
 -----------------------------------------
   State                        f
 -----------------------------------------
     2     F(REF-CI)=        0.0016443013
     3     F(REF-CI)=        0.0047440765
 -----------------------------------------

 Dipole moment matrix elements, x, y, z, in A.U.

 Dimension of ionized spaces for PT:
 (N-2) space:         1715 /  (N-1) space:         2842 /  N space:         2891
 (N+1) space:         2842 /  (N+2) space:         1715

 <<<Ionized spaces for internal:
         0:         1225 /      -1-0:         1960 /     0-1-0:         2891
  -1-0-1-0:         2842 / 0-1-0-1-0:         3381

 Diagonal elements of averaged one-particle density matrix:
       2       3       4       5       6       7       8
  0.9928  0.9842  0.9868  0.9907  0.0195  0.0113  0.0147
  0.9876  0.6563  0.6618  0.6614  0.0137  0.0080  0.0111

 Orbital energies:
 -------- Doubly-occupied orbitals (highest several orbs.) -------
             1
 -1.598185D+01
 -------- Active orbitals ----------------------------------------
             2            3            4            5            6
 -1.496240D+00-8.051295D-01-9.920690D-01-7.264540D-01 1.437130D-01
             7            8
  3.988960D-01 2.732407D-01
 -------- External orbitals (lowest several orbs.) ---------------
             9           10           11           12           13
  1.320285D-01 2.012235D-01 2.461267D-01 5.299419D-01 5.851968D-01
            14           15           16           17           18
  6.763184D-01 8.384878D-01 1.026204D+00 1.072560D+00 1.211876D+00

 *** Quasi-degeneracy checking

 === Det (|Ci| > 1.0D-01 and dE < 5.0D-03)

 # of small denominators (single excitations)
 State       dEmin  dE < 5.0D-03  dE < 5.0D-04  dE < 5.0D-05  dE < 5.0D-06
 ----- ----------- ------------- ------------- ------------- -------------
     1    5.00D-03             0             0             0             0
     2    5.00D-03             0             0             0             0
     3    5.00D-03             0             0             0             0

 # of small denominators (double excitations)
 State       dEmin  dE < 5.0D-03  dE < 5.0D-04  dE < 5.0D-05  dE < 5.0D-06
 ----- ----------- ------------- ------------- ------------- -------------
     1    5.00D-03             0             0             0             0
     2    5.00D-03             0             0             0             0
     3    5.00D-03             0             0             0             0

 *** Zeroth-Order Setup (Granovsky's zeroth-order vectors)
 Zeroth-order effective Hamiltonian
  (= Sum_i e(i)*<I|a+(i)a(i)|J> ):
                   1            2            3
     1 -7.205043D+00
     2 -1.484405D-02-7.147668D+00
     3 -6.204423D-04 5.683486D-03-6.948114D+00

 Zeroth-order vectors:
 State #    1
       MC st            1           2           3
       Coeff    9.716D-01   2.367D-01  -2.850D-03
 State #    2
       MC st            2           1           3
       Coeff   -9.712D-01   2.367D-01   2.889D-02
 State #    3
       MC st            3           2           1
       Coeff    9.996D-01   2.875D-02  -4.072D-03

 *** GMC-QDPT computation

 (Integral reading:  CPU/Wall time =           0.00 /           0.00 sec.)

 One-external:
   0 -ionized terms: CPU/Wall time =           0.03 /           0.03 sec.
 (-1)-ionized terms: CPU/Wall time =           0.09 /           0.09 sec.
 (+1)-ionized terms: CPU/Wall time =           0.02 /           0.02 sec.
 (+1)-ionized terms: CPU/Wall time =           0.01 /           0.01 sec.
 (+2)-ionized terms: CPU/Wall time =           0.00 /           0.00 sec.

 Internal:
 # of macro loops for internal contribution =         1 (input)
 Loop:    1
 Dimension of internal CISD space     =         0  (after screening)
 Space construction: CPU/Wall time =           0.01 /           0.02 sec.
 Internal terms:     CPU/Wall time =           0.00 /           0.00 sec.

 Two-external:
   0 -ionized terms: CPU/Wall time =           0.06 /           0.06 sec.
 (-1)-ionized terms: CPU/Wall time =           1.00 /           1.00 sec.
 (-2)-ionized terms: CPU/Wall time =           0.16 /           0.17 sec.

 Total time:         CPU/Wall time =           1.38 /           1.40 sec.

 ***                  ***
 *** GMC-QDPT Results ***
 ***                  ***

 Diagonal elements of effective Hamiltonian:
 Heff(  1) =   -55.93894824
 Heff(  2) =   -55.84581037
 Heff(  3) =   -55.65972815

 Off-diagonal elements of effective Hamiltonian:
                   1            2
     2 -2.301621D-02
     3 -6.496724D-04 5.070708D-03

 ******** GMC-QDPT energies ********
 ----------------------------------------------------------------------------
   State                        1st order                           2nd order
 ----------------------------------------------------------------------------
     1     E(REF-CI)=      -55.8454858269   E(GMC-QDPT2)=      -55.9443264991
     2     E(REF-CI)=      -55.7330112940   E(GMC-QDPT2)=      -55.8405760774
     3     E(REF-CI)=      -55.5482842526   E(GMC-QDPT2)=      -55.6595841847
 ----------------------------------------------------------------------------

 Excitation energies (invalid if E(1)/=E(GS)):
 ----------------------------------------------------------------------------
   State                        1st order                           2nd order
 ----------------------------------------------------------------------------

     TZ Sorted GMC-PT ENERGIES:
         1      -55.9443264991
         2      -55.8405760774
         3      -55.6595841847
     2     E(REF-CI)=        3.0605895 eV   E(GMC-QDPT2)=        2.8231942 eV
     3     E(REF-CI)=        8.0872709 eV   E(GMC-QDPT2)=        7.7482370 eV
 ----------------------------------------------------------------------------

 Main characters of perturbed GMC-QDPT states:

 State #    1  Energy =     -55.944326499  S =  0.500

      Det      Coef    Occupancy (Ignoring core)
      ---      ----    --------- --------- -----
        1    0.971043  11110001110000
       71   -0.097130  11110001011000
      179    0.051664  10111001010100
      357    0.054347  11010101100010
      753    0.060321  10110011010001

 State #    2  Energy =     -55.840576077  S =  0.500

      Det      Coef    Occupancy (Ignoring core)
      ---      ----    --------- --------- -----
        1    0.101487  11110001110000
       71    0.975475  11110001011000
      462   -0.055279  11010101001010

 State #    3  Energy =     -55.659584185  S =  0.500

      Det      Coef    Occupancy (Ignoring core)
      ---      ----    --------- --------- -----
       36   -0.974745  11110001101000
      249   -0.052152  10111001001100
      823   -0.061960  10110011001001

 <<<Max |V/de| = 2.795D-02  Thresh = 1.000D+00

 Oscillator strength (invalid if E(1)/=E(GS)):
 ----------------------------------------------------------------------------
   State                        1st order                           2nd order
 ----------------------------------------------------------------------------
     2     F(REF-CI)=        0.0016443013     F(GMC-PT2)=        0.0015891268
     3     F(REF-CI)=        0.0047440765     F(GMC-PT2)=        0.0046443272
 ----------------------------------------------------------------------------

 Dipole moment matrix elements, x, y, z, in A.U.
States    1    1        0.0268969929       -0.3325670751        0.6789183008
States    1    2       -0.0056742682        0.0331076751       -0.1478070320
States    1    3        0.0946803815       -0.1004799483       -0.0735211106
States    2    1       -0.0056742682        0.0331076751       -0.1478070320
States    2    2       -0.1696746974       -0.2600597707        0.3213490897
States    2    3        0.1417958072        0.0020518882       -0.0006926866
States    3    1        0.0946803815       -0.1004799483       -0.0735211106
States    3    2        0.1417958072        0.0020518882       -0.0006926866
States    3    3        0.1335229292       -0.5925215420        0.2661680351

 Oscillator strength (valid only when positive): 
 ----------------------------------------------------------------------------
  States                        1st order                           2nd order
 ----------------------------------------------------------------------------
  1  1     F(REF-CI)=        0.0000000000     F(GMC-PT2)=        0.0000000000
  1  2     F(REF-CI)=       -0.0016443013     F(GMC-PT2)=       -0.0015891268
  1  3     F(REF-CI)=       -0.0047440765     F(GMC-PT2)=       -0.0046443272
  2  1     F(REF-CI)=        0.0016443013     F(GMC-PT2)=        0.0015891268
  2  2     F(REF-CI)=        0.0000000000     F(GMC-PT2)=        0.0000000000
  2  3     F(REF-CI)=       -0.0025143824     F(GMC-PT2)=       -0.0024265874
  3  1     F(REF-CI)=        0.0047440765     F(GMC-PT2)=        0.0046443272
  3  2     F(REF-CI)=        0.0025143824     F(GMC-PT2)=        0.0024265874
  3  3     F(REF-CI)=        0.0000000000     F(GMC-PT2)=        0.0000000000
 CPU     0: STEP CPU TIME=     1.88 TOTAL CPU TIME=         13.7 (      0.2 MIN)
 TOTAL WALL CLOCK TIME=         13.7 SECONDS, CPU UTILIZATION IS    99.85%

     !!! DIABATIZATION FOR REF CI STATES !!!

 *******************************************************
          $DMO GROUP FOUND IN THE INPUT.
        DIABATIZATION OF ADIABATIC STATES BEGINS.
     PROGRAMMED BY TAO ZENG (CARLETON UNIVERSITY).
               Email: toby.zeng@carleton.ca
     See T. Zeng, J. Chem. Phys. 2017, 146, 144103
 *******************************************************

 *************************************************************************
     STEP 1: TRANSFORMATION OF ADIABATIC STATES TO THE DMO REPRESENTATION
         See Atchity and Ruedenberg, J. Chem. Phys. 1999, 111, 2910
 *************************************************************************

Read in Diabatic Molecualr Orbitals:

                      1          2          3          4          5

    1  N  1  S    0.008609   0.000000   0.000000  -0.013219   0.279491
    2  N  1  S    0.442914  -0.000000   0.000000  -0.184329   0.867803
    3  N  1  S    0.276913   0.000000  -0.000000  -0.288315   0.144236
    4  N  1  X   -0.000000   0.493155  -0.024636  -0.000000  -0.000000
    5  N  1  Y    0.000000   0.024636   0.493155  -0.000000   0.000000
    6  N  1  Z    0.090197   0.000000   0.000000   0.593421   0.705309
    7  N  1  X   -0.000000   0.210628  -0.010522   0.000000   0.000000
    8  N  1  Y    0.000000   0.010522   0.210628  -0.000000  -0.000000
    9  N  1  Z   -0.004381   0.000000   0.000000   0.381592  -0.106092
   10  N  1 XX   -0.000457   0.010719  -0.000535  -0.012387   0.006153
   11  N  1 YY   -0.000457  -0.010719   0.000535  -0.012387   0.006153
   12  N  1 ZZ    0.000914  -0.000000   0.000000   0.024773  -0.012306
   13  N  1 XY    0.000000  -0.000618  -0.012377  -0.000000   0.000000
   14  N  1 XZ   -0.000000   0.026529  -0.001325  -0.000000   0.000000
   15  N  1 YZ    0.000000   0.001325   0.026529  -0.000000   0.000000
   16  H  2  S    0.194462  -0.176074   0.343485   0.112865  -0.523343
   17  H  2  S    0.003574  -0.023812   0.046452   0.024014  -0.054445
   18  H  2  X    0.018760   0.009101   0.022834   0.009336  -0.039151
   19  H  2  Y   -0.032493   0.022287  -0.020044  -0.016171   0.067811
   20  H  2  Z   -0.009251   0.008464  -0.016511   0.018769  -0.010566
   21  H  3  S    0.194462  -0.209430  -0.324227   0.112865  -0.523343
   22  H  3  S    0.003574  -0.028322  -0.043847   0.024014  -0.054445
   23  H  3  X    0.018760   0.006781  -0.023627   0.009336  -0.039151
   24  H  3  Y    0.032493  -0.024174  -0.017723   0.016171  -0.067811
   25  H  3  Z   -0.009251   0.010067   0.015585   0.018769  -0.010566
   26  H  4  S    0.194462   0.385503  -0.019258   0.112865  -0.523343
   27  H  4  S    0.003574   0.052134  -0.002604   0.024014  -0.054445
   28  H  4  X   -0.037519  -0.032295   0.001613  -0.018672   0.078302
   29  H  4  Y    0.000000   0.001067   0.021353  -0.000000   0.000000
   30  H  4  Z   -0.009251  -0.018530   0.000926   0.018769  -0.010566

                      6          7

    1  N  1  S    0.000000  -0.000000
    2  N  1  S    0.000000  -0.000000
    3  N  1  S   -0.000000   0.000000
    4  N  1  X   -0.930415  -0.002083
    5  N  1  Y   -0.002083   0.930415
    6  N  1  Z   -0.000000   0.000000
    7  N  1  X   -0.046866  -0.000105
    8  N  1  Y   -0.000105   0.046866
    9  N  1  Z   -0.000000   0.000000
   10  N  1 XX    0.001538   0.000003
   11  N  1 YY   -0.001538  -0.000003
   12  N  1 ZZ   -0.000000   0.000000
   13  N  1 XY   -0.000004   0.001776
   14  N  1 XZ    0.039985   0.000090
   15  N  1 YZ    0.000090  -0.039985
   16  H  2  S   -0.362630  -0.631354
   17  H  2  S   -0.065964  -0.114846
   18  H  2  X    0.002763  -0.037520
   19  H  2  Y    0.037435   0.040736
   20  H  2  Z    0.001882   0.003276
   21  H  3  S   -0.365454   0.629724
   22  H  3  S   -0.066477   0.114549
   23  H  3  X    0.002595   0.037532
   24  H  3  Y   -0.037617   0.040567
   25  H  3  Z    0.001896  -0.003268
   26  H  4  S    0.728084   0.001630
   27  H  4  S    0.132441   0.000297
   28  H  4  X   -0.062317  -0.000140
   29  H  4  Y    0.000055  -0.024345
   30  H  4  Z   -0.003778  -0.000008

NUMBER OF SUB ACTIVE SPACES:   1
ROTATE ACTIVE MOS TO DMOS IN EACH SUB-SPACE

SPACE  1:

OVERLAP BETWEEN ORTHONORMAL AND PRE-ORTHONORMAL REF. DMOS

             1           2           3           4           5

    1    0.9769584  -0.0130036  -0.0288595  -0.0080015   0.0014038
    2   -0.0130036   0.9398710  -0.0754913  -0.0070848  -0.0051634
    3   -0.0288595  -0.0754913   0.9828961  -0.0429837   0.0757289
    4   -0.0080015  -0.0070848  -0.0429837   0.9944445  -0.0103825
    5    0.0014038  -0.0051634   0.0757289  -0.0103825   1.1348737
    6   -0.0021953  -0.0313354  -0.0555487   0.0066446  -0.0609975
    7   -0.0008718   0.0764128  -0.0048200   0.0523473  -0.0139425

             6           7

    1   -0.0021953  -0.0008718
    2   -0.0313354   0.0764128
    3   -0.0555487  -0.0048200
    4    0.0066446   0.0523473
    5   -0.0609975  -0.0139425
    6    1.0448059  -0.0155262
    7   -0.0155262   1.0592309
REFERENCE DMOS AFTER ORTHONORMALIZATION:

                      1          2          3          4          5

    1  N  1  S    0.007844   0.000021  -0.018612  -0.011743   0.248183
    2  N  1  S    0.449488   0.004947  -0.050765  -0.177193   0.768541
    3  N  1  S    0.280549   0.000321  -0.013407  -0.287846   0.125708
    4  N  1  X    0.003758   0.496802  -0.033031   0.010308  -0.043422
    5  N  1  Y    0.015685  -0.003511   0.508909  -0.024825  -0.021391
    6  N  1  Z    0.096074   0.010856  -0.016704   0.604375   0.629524
    7  N  1  X    0.003052   0.224640   0.004641   0.002960  -0.001528
    8  N  1  Y    0.006947   0.025745   0.218706   0.007208  -0.013239
    9  N  1  Z   -0.000450   0.005763   0.023884   0.384963  -0.092142
   10  N  1 XX   -0.000436   0.011375  -0.000526  -0.012352   0.005512
   11  N  1 YY   -0.000779  -0.011768  -0.001418  -0.012621   0.005287
   12  N  1 ZZ    0.001215   0.000393   0.001944   0.024974  -0.010799
   13  N  1 XY   -0.000411  -0.001865  -0.012869  -0.000654   0.000831
   14  N  1 XZ    0.000574   0.029924   0.003039   0.000184   0.002035
   15  N  1 YZ    0.000907   0.006809   0.027723   0.003240  -0.002205
   16  H  2  S    0.209024  -0.119542   0.368956   0.159279  -0.512468
   17  H  2  S    0.004965  -0.014731   0.047690   0.031816  -0.055850
   18  H  2  X    0.020366   0.015237   0.028286   0.012460  -0.036587
   19  H  2  Y   -0.033806   0.019716  -0.023197  -0.019059   0.063866
   20  H  2  Z   -0.009650   0.007657  -0.015041   0.018035  -0.008042
   21  H  3  S    0.186004  -0.310725  -0.329795   0.064801  -0.454001
   22  H  3  S    0.001810  -0.045160  -0.047033   0.016049  -0.047254
   23  H  3  X    0.018773   0.002921  -0.020286   0.006531  -0.032667
   24  H  3  Y    0.032497  -0.031304  -0.016363   0.013209  -0.060442
   25  H  3  Z   -0.008581   0.012644   0.018338   0.019829  -0.010220
   26  H  4  S    0.210935   0.444968   0.097623   0.115145  -0.428159
   27  H  4  S    0.005413   0.061135   0.013608   0.024142  -0.041629
   28  H  4  X   -0.039627  -0.037817  -0.011603  -0.018972   0.066430
   29  H  4  Y    0.000725   0.004872   0.022284   0.002209  -0.001683
   30  H  4  Z   -0.009567  -0.019916   0.000402   0.018590  -0.009505

                      6          7

    1  N  1  S    0.013651   0.003967
    2  N  1  S    0.044676   0.019310
    3  N  1  S    0.009296   0.016163
    4  N  1  X   -0.880736  -0.051944
    5  N  1  Y    0.037013   0.882457
    6  N  1  Z    0.032223  -0.021890
    7  N  1  X   -0.038226  -0.017008
    8  N  1  Y    0.012135   0.043036
    9  N  1  Z   -0.006693  -0.020643
   10  N  1 XX    0.002183  -0.000105
   11  N  1 YY   -0.001491   0.001510
   12  N  1 ZZ   -0.000692  -0.001405
   13  N  1 XY   -0.000666   0.001786
   14  N  1 XZ    0.039427  -0.001464
   15  N  1 YZ    0.001048  -0.038288
   16  H  2  S   -0.370540  -0.605624
   17  H  2  S   -0.066135  -0.110417
   18  H  2  X    0.001877  -0.037445
   19  H  2  Y    0.039549   0.039264
   20  H  2  Z    0.000648   0.001477
   21  H  3  S   -0.394236   0.600621
   22  H  3  S   -0.068722   0.108766
   23  H  3  X    0.000095   0.034394
   24  H  3  Y   -0.040785   0.038463
   25  H  3  Z    0.002354  -0.005001
   26  H  4  S    0.689647  -0.031160
   27  H  4  S    0.126687  -0.003948
   28  H  4  X   -0.057428   0.003481
   29  H  4  Y    0.000925  -0.023351
   30  H  4  Z   -0.004881   0.000307

 -------------------------------------------
       MAXIMIZING MORMO OVERLAP TERM        
 -------------------------------------------
   SWEEP    VALUE       PROGRESS
     0     4.57088
     1     6.92811     2.35723652
     2     6.95475     0.02663338
     3     6.95475     0.00000124
     4     6.95475     0.00000000
     5     6.95475     0.00000000
 THE ROTATION IS DONE
ACTIVE ORBITALS AFTER MORMO:

                      1          2          3          4          5

    1  N  1  S    0.006187  -0.006245  -0.026708  -0.012115   0.199319
    2  N  1  S    0.426567  -0.021942  -0.060352  -0.188505   0.707649
    3  N  1  S    0.330039   0.041997   0.036581  -0.272770   0.197862
    4  N  1  X   -0.007766   0.460425  -0.057364  -0.002699  -0.037383
    5  N  1  Y    0.005848  -0.024086   0.482213  -0.041660   0.000447
    6  N  1  Z    0.083729   0.003141  -0.041056   0.602725   0.614475
    7  N  1  X    0.016028   0.267081   0.057703   0.008245  -0.003466
    8  N  1  Y    0.017902   0.076224   0.232958   0.054975  -0.051478
    9  N  1  Z    0.025254   0.015056   0.067913   0.385711  -0.069806
   10  N  1 XX   -0.000223   0.009516   0.007444  -0.007178  -0.002360
   11  N  1 YY    0.000111  -0.008948  -0.007699  -0.014763  -0.003215
   12  N  1 ZZ    0.000112  -0.000568   0.000254   0.021941   0.005576
   13  N  1 XY   -0.006710  -0.014496  -0.022091  -0.002110   0.048351
   14  N  1 XZ    0.002152   0.021784   0.002366  -0.003982   0.006382
   15  N  1 YZ   -0.002304   0.005965   0.016902   0.000371   0.039909
   16  H  2  S    0.186725  -0.152229   0.353593   0.127447  -0.497663
   17  H  2  S    0.002510  -0.003757   0.053434   0.035895  -0.065956
   18  H  2  X    0.024028  -0.003619   0.036024   0.010115  -0.041692
   19  H  2  Y   -0.025283   0.027699  -0.014869  -0.008526   0.042081
   20  H  2  Z   -0.003046   0.005805  -0.007338   0.021540  -0.013266
   21  H  3  S    0.183648  -0.251833  -0.316491   0.085276  -0.476348
   22  H  3  S   -0.000183  -0.106166  -0.080689   0.019877  -0.064621
   23  H  3  X    0.009125   0.014098  -0.009525   0.008204  -0.035217
   24  H  3  Y    0.031043  -0.020471  -0.015451   0.017836  -0.043229
   25  H  3  Z   -0.013838   0.014020   0.026877   0.017182  -0.008233
   26  H  4  S    0.187199   0.384793   0.019798   0.104007  -0.417055
   27  H  4  S    0.008559   0.117739   0.049559   0.034048  -0.056844
   28  H  4  X   -0.026881  -0.027617   0.010539  -0.011707   0.048680
   29  H  4  Y    0.015381   0.029596   0.014916   0.007611  -0.009996
   30  H  4  Z   -0.005977  -0.014485   0.009059   0.018255  -0.021295

                      6          7

    1  N  1  S    0.026768   0.060776
    2  N  1  S    0.050747   0.138212
    3  N  1  S   -0.004548  -0.146369
    4  N  1  X   -0.892372  -0.033205
    5  N  1  Y    0.025903   0.859739
    6  N  1  Z    0.048849  -0.049351
    7  N  1  X   -0.028314  -0.052039
    8  N  1  Y    0.038820   0.086110
    9  N  1  Z   -0.034747  -0.011941
   10  N  1 XX   -0.007963  -0.048147
   11  N  1 YY    0.000973   0.034096
   12  N  1 ZZ    0.006990   0.014051
   13  N  1 XY   -0.041977   0.023592
   14  N  1 XZ    0.037819   0.023070
   15  N  1 YZ   -0.012262  -0.032460
   16  H  2  S   -0.368845  -0.575601
   17  H  2  S   -0.072750  -0.122595
   18  H  2  X   -0.022173  -0.039577
   19  H  2  Y    0.035564   0.033422
   20  H  2  Z   -0.021075  -0.009523
   21  H  3  S   -0.329324   0.593913
   22  H  3  S   -0.137674   0.156873
   23  H  3  X    0.028806   0.037547
   24  H  3  Y   -0.034054   0.017580
   25  H  3  Z    0.017153  -0.006623
   26  H  4  S    0.640407   0.037024
   27  H  4  S    0.200951  -0.023876
   28  H  4  X   -0.047323  -0.019162
   29  H  4  Y    0.029798  -0.029872
   30  H  4  Z    0.003063   0.022652

Actually Used Diabatic Molecualr Orbitals:

                      1          2          3          4          5

    1  N  1  S    0.006187  -0.006245  -0.026708  -0.012115   0.199319
    2  N  1  S    0.426567  -0.021942  -0.060352  -0.188505   0.707649
    3  N  1  S    0.330039   0.041997   0.036581  -0.272770   0.197862
    4  N  1  X   -0.007766   0.460425  -0.057364  -0.002699  -0.037383
    5  N  1  Y    0.005848  -0.024086   0.482213  -0.041660   0.000447
    6  N  1  Z    0.083729   0.003141  -0.041056   0.602725   0.614475
    7  N  1  X    0.016028   0.267081   0.057703   0.008245  -0.003466
    8  N  1  Y    0.017902   0.076224   0.232958   0.054975  -0.051478
    9  N  1  Z    0.025254   0.015056   0.067913   0.385711  -0.069806
   10  N  1 XX   -0.000223   0.009516   0.007444  -0.007178  -0.002360
   11  N  1 YY    0.000111  -0.008948  -0.007699  -0.014763  -0.003215
   12  N  1 ZZ    0.000112  -0.000568   0.000254   0.021941   0.005576
[...]

 ---------------------------------------
    -DIABATIC STATES IN PROTOTYPES-     
 ---------------------------------------

     STATE:    1
 Group Ref#    Coefficients
     1    1    0.949850
     2    2   -0.006317
     3    3   -0.001332

WEIGHT OF LISTED PROTOTYPES:   90.23%

     STATE:    2
 Group Ref#    Coefficients
     1    1   -0.006317
     2    2    0.946634
     3    3    0.003401

WEIGHT OF LISTED PROTOTYPES:   89.62%

     STATE:    3
 Group Ref#    Coefficients
     1    1   -0.001332
     2    2    0.003401
     3    3    0.946776

WEIGHT OF LISTED PROTOTYPES:   89.64%

 --------------------------------------------------
 IN DIRECT MAX. DIABATIZATION FOR GMC-QDPT

 DIRECT MAXIMIZATION (DM) WITHOUT TRUNCATING ADIABATS
 EXPANSIONS INTO THE REFERENCE CONFIGURATION SPACE
 --------------------------------------------------

 -------------------------------------------
 - DM DIABT PT HAMILTONIAN MATRIX ELEMENTS -
 -------------------------------------------
                                            
 --- DIABATIC ENERGIES (DIAGONAL ELEMENT) ---       HARTREE            EV
 STATE #  1'S GMC-PT-LEVEL DIABATIC ENERGY=     -55.927385865       0.000000000
 STATE #  2'S GMC-PT-LEVEL DIABATIC ENERGY=     -55.775582096       4.130790955
 STATE #  3'S GMC-PT-LEVEL DIABATIC ENERGY=     -55.741518800       5.057700457

 --- DIABATIC COUPLINGS (OFF DIAGONAL ELEMENTS)---  HATREE            EV
 STATE #  1 &  2'S GMC-PT-LEVEL COUPLING  =      -0.001197790      -0.032593533
 STATE #  1 &  3'S GMC-PT-LEVEL COUPLING  =       0.051641756       1.405243767
 STATE #  2 &  3'S GMC-PT-LEVEL COUPLING  =      -0.091140284      -2.480053448

 ---------------------------------------
     - ROTATION TO DIABATIC STATES -    
 ---------------------------------------
 ROWS=ADIABATIC, COLUMNS=DIABATIC STATES

             1           2           3

    1   -0.9366212   0.1613212   0.3109923
    2    0.3154375   0.7745699   0.5482159
    3    0.1524464  -0.6115693   0.7763653

 ---------------------------------------
          - DIABATIC STATES -           
 ---------------------------------------

 State #    1  Energy =     -55.927385865

      Det      Coef        Coefp    Occupancy (Ignoring core)
      ---      ----        ----    --------- --------- -----
        1    0.929545   -0.929545  222+000
        3    0.124807    0.124807  22-++00
      141   -0.120486   -0.120486  22++-00
       18    0.108361   -0.108361  2-2+00+
      736   -0.103231    0.103231  2+2+00-
        8   -0.102577    0.102577  2-2+0+0
       16    0.086382   -0.086382  222000+
      717   -0.072182   -0.072182  220+002
      393   -0.071763   -0.071763  202+020
        7   -0.071623   -0.071623  22-+0+0
      386    0.071245   -0.071245  2+2+0-0
      351    0.069149    0.069149  22++0-0
       17    0.062229    0.062229  22-+00+
      215   -0.038046   -0.038046  022+200
      708    0.037959   -0.037959  2-++0+-
      402    0.037029   -0.037029  2+-+0-+
      701   -0.035760   -0.035760  22++00-
      218    0.034923   -0.034923  +-2+-+0
      390    0.034619   -0.034619  -+2++-0
      705   -0.033384   -0.033384  -2+++0-
      227   -0.032920   -0.032920  +2-+-0+
       76    0.031332    0.031332  2+2-0+0
      212    0.030547    0.030547  +220200
      179   -0.030336   -0.030336  202+200
     1051   -0.027371   -0.027371  2+++0--
        5    0.027205    0.027205  -22++00
      738   -0.026926   -0.026926  2+-++0-
       51   -0.026468    0.026468  22+-00+
      158   -0.026436   -0.026436  2-++-0+
      113   -0.025943    0.025943  +-220+0
      387   -0.025574    0.025574  2+20+-0
      122    0.025539    0.025539  +2-200+
      773    0.025350   -0.025350  +2-++0-
      702    0.024454    0.024454  22+0+0-
      424   -0.024170   -0.024170  +-2++-0
       29   -0.023982   -0.023982  2--+0++
      184   -0.023806   -0.023806  -+2+-+0
      159    0.022872   -0.022872  -2++-0+
       20   -0.021869   -0.021869  22-0+0+
       13   -0.020625   -0.020625  2--+++0
      751   -0.020556    0.020556  2+20002

 State #    2  Energy =     -55.775582096

      Det      Coef        Coefp    Occupancy (Ignoring core)
      ---      ----        ----    --------- --------- -----
       71   -0.932582    0.932582  2+22000
      246   -0.138388   -0.138388  2++2-00
       73    0.132422   -0.132422  2+-2+00
      736   -0.103132    0.103132  2+2+00-
       86    0.098870    0.098870  2+2-00+
       88   -0.097385    0.097385  202200+
       77   -0.085466    0.085466  2+-20+0
      456    0.081337    0.081337  2++20-0
      822    0.073790   -0.073790  2+02002
       78    0.045746   -0.045746  20220+0
       36    0.045410    0.045410  22+2000
      813    0.044226   -0.044226  20+20+-
      320    0.038711    0.038711  0+22200
       99   -0.036270    0.036270  20-20++
      111    0.035525   -0.035525  +22-0+0
      810   -0.035049   -0.035049  -++2+0-
      323   -0.034189    0.034189  +022-+0
      332   -0.033329    0.033329  ++-2-0+
      806   -0.033069   -0.033069  2++200-
      177    0.032621   -0.032621  2+20200
       72   -0.032545   -0.032545  2+2-+00
      317    0.032540   -0.032540  ++2-200
      180   -0.032503    0.032503  -+2+200
      183   -0.030324    0.030324  202+-+0
       90    0.027969    0.027969  2+--+0+
      807   -0.027853    0.027853  2++-+0-
      263   -0.027331   -0.027331  20+2-0+
      192   -0.026962    0.026962  2+-+-0+
      911    0.025968    0.025968  2+++-0-
      878    0.025629    0.025629  ++-2+0-
      108    0.025457    0.025457  +2-2+00
      526   -0.025006   -0.025006  ++220-0
      391    0.024840   -0.024840  2+20020
        6    0.024659   -0.024659  22200+0
      264    0.024429   -0.024429  -++2-0+
      316    0.023127    0.023127  ++22-00
       87    0.023086   -0.023086  2+-200+
      753    0.022640    0.022640  202+002
      122    0.021288    0.021288  +2-200+
       93    0.021273   -0.021273  20-2+0+
       81    0.021006    0.021006  202-++0
      113    0.020647   -0.020647  +-220+0
      529    0.020469    0.020469  +022+-0

 State #    3  Energy =     -55.741518800

      Det      Coef        Coefp    Occupancy (Ignoring core)
      ---      ----        ----    --------- --------- -----
       36   -0.929736   -0.929736  22+2000
       38   -0.124689    0.124689  2202+00
       53   -0.123598   -0.123598  2-+200+
      806    0.112710    0.112710  2++200-
       51    0.104046   -0.104046  22+-00+
      701   -0.098961   -0.098961  22++00-
      463    0.074719   -0.074719  20+2020
      106   -0.073531   -0.073531  +222000
       43    0.064714    0.064714  2-+20+0
       42    0.064167   -0.064167  22020+0
      456   -0.059836   -0.059836  2++20-0
       39   -0.047262   -0.047262  2-+2+00
       71   -0.044102    0.044102  2+22000
      472   -0.043477   -0.043477  2+020-+
       73    0.041541   -0.041541  2+-2+00
      123    0.039037   -0.039037  +-2200+
      285    0.038125   -0.038125  02+2200
      288   -0.037712   -0.037712  +-+2-+0
      460   -0.036901   -0.036901  -++2+-0
       64    0.035789   -0.035789  2-020++
      297    0.034417   -0.034417  +202-0+
      249    0.034058   -0.034058  20+2200
      282    0.033814    0.033814  +2+-200
      145   -0.033484   -0.033484  -2++200
      142    0.032262    0.032262  22+0200
      121   -0.030255    0.030255  +22-00+
      457   -0.029594    0.029594  2++-+-0
      148   -0.028509   -0.028509  2-++-+0
       86    0.028306    0.028306  2+2-00+
       55   -0.027955   -0.027955  220-+0+
       41   -0.027675    0.027675  22+-0+0
      157    0.027267   -0.027267  220+-0+
      109    0.027201   -0.027201  +-22+00
      112   -0.026848   -0.026848  +2-20+0
      808    0.026304   -0.026304  2+02+0-
      494    0.025587   -0.025587  +-+2+-0
      718    0.025222   -0.025222  2-++002
      876   -0.025057   -0.025057  ++2200-
      254    0.024632   -0.024632  -++2-+0
       16   -0.024349    0.024349  222000+
      113   -0.023800    0.023800  +-220+0
       37   -0.023077    0.023077  22+-+00
       44    0.022909   -0.022909  -2+20+0
      821   -0.022645    0.022645  2++-002
      843   -0.020811   -0.020811  +202+0-
      253    0.020353    0.020353  20+2-+0
      859    0.020208   -0.020208  02+2002

 ---------------------------------------
      - DIABATIC STATES IN CMO -        
 ---------------------------------------

 State #    1  Energy =     -55.927385865

      Det      Coef        Coefp    Occupancy (Ignoring core)
      ---      ----        ----    --------- --------- -----
        1    0.878568   -0.878568  222+000
       71   -0.395959    0.395959  2+22000
       36   -0.148916   -0.148916  22+2000
      179   -0.055873   -0.055873  202+200
      753   -0.051787   -0.051787  202+002
      357   -0.051667   -0.051667  220+020
      177    0.042313   -0.042313  2+20200
      106   -0.034929   -0.034929  +222000
        7    0.033577    0.033577  22-+0+0
      193    0.033396   -0.033396  202+-0+
       18    0.033197   -0.033197  2-2+00+
      180   -0.032808    0.032808  -+2+200
        2    0.032668   -0.032668  2220+00
      143   -0.032136   -0.032136  220+200
      182   -0.027431    0.027431  2+-+-+0
      752    0.026537    0.026537  2+-+002
      718   -0.026417    0.026417  2-++002
      789   -0.025497   -0.025497  022+002
      212    0.025127    0.025127  +220200
      462    0.025124   -0.025124  2+02020
      739   -0.024891   -0.024891  202++0-
      754    0.024115   -0.024115  -+2+002
       17    0.023921    0.023921  22-+00+
       74   -0.023917    0.023917  2022+00
       86   -0.023900   -0.023900  2+2-00+
      215   -0.023572   -0.023572  022+200
      788   -0.023363   -0.023363  +-2+002
      717   -0.023058   -0.023058  220+002
      214    0.022459    0.022459  +-2+200
      192   -0.022442    0.022442  2+-+-0+
      352    0.022262    0.022262  22+0+-0
      123    0.022099   -0.022099  +-2200+
      109    0.021538   -0.021538  +-22+00
      355   -0.021363   -0.021363  -2+++-0
      217   -0.021182   -0.021182  +2-+-+0
      122    0.020476    0.020476  +2-200+

 State #    2  Energy =     -55.775582096

      Det      Coef        Coefp    Occupancy (Ignoring core)
      ---      ----        ----    --------- --------- -----
       71   -0.750801    0.750801  2+22000
       36    0.582025    0.582025  22+2000
        1   -0.239596    0.239596  222+000
      823   -0.061593    0.061593  20+2002
      108    0.041785    0.041785  +2-2+00
      822    0.039637   -0.039637  2+02002
      809   -0.036045    0.036045  20+2+0-
      462    0.032396   -0.032396  2+02020
      111    0.031754   -0.031754  +22-0+0
        3   -0.029461   -0.029461  22-++00
      177    0.027459   -0.027459  2+20200
      824    0.027283    0.027283  -++2002
       37    0.026676   -0.026676  22+-+00
      142   -0.023960   -0.023960  22+0200
      248    0.023166   -0.023166  2+02200
       73    0.023103   -0.023103  2+-2+00
       40   -0.022447    0.022447  -2+2+00
      812    0.022443   -0.022443  2+020+-
      894    0.021768    0.021768  0+22002
      753    0.021671    0.021671  202+002
      320    0.021232    0.021232  0+22200
      357    0.020785    0.020785  220+020
      317    0.020682   -0.020682  ++2-200

 State #    3  Energy =     -55.741518800

      Det      Coef        Coefp    Occupancy (Ignoring core)
      ---      ----        ----    --------- --------- -----
       36   -0.767802   -0.767802  22+2000
       71   -0.490731    0.490731  2+22000
        1   -0.352117    0.352117  222+000
      249    0.049311   -0.049311  20+2200
      462    0.040608   -0.040608  2+02020
      109    0.040556   -0.040556  +-22+00
      123    0.037044   -0.037044  +-2200+
      142    0.035906    0.035906  22+0200
      248    0.033945   -0.033945  2+02200
      823    0.031810   -0.031810  20+2002
        2   -0.029537    0.029537  2220+00
      247    0.028754   -0.028754  2++-200
      144   -0.028335    0.028335  2-++200
       72    0.028301    0.028301  2+2-+00
      753    0.026754    0.026754  202+002
       38    0.026476   -0.026476  2202+00
      121   -0.026319    0.026319  +22-00+
      263   -0.025386   -0.025386  20+2-0+
      145   -0.024896   -0.024896  -2++200
        4   -0.024518    0.024518  2-2++00
      859    0.024182   -0.024182  02+2002
      143    0.023904    0.023904  220+200
      250    0.023675    0.023675  -++2200
      282    0.021825    0.021825  +2+-200
       43   -0.021680   -0.021680  2-+20+0
       74   -0.021677    0.021677  2022+00
      285    0.021544   -0.021544  02+2200
       75   -0.021154   -0.021154  -+22+00
      463    0.021097   -0.021097  20+2020
       88    0.020928   -0.020928  202200+
        3    0.020503    0.020503  22-++00
       89   -0.020342   -0.020342  -+2200+
      473    0.020167    0.020167  20+20-+
      284   -0.020154    0.020154  +-+2200

 ---------------------------------------
    -DIABATIC STATES IN PROTOTYPES-     
 ---------------------------------------

     STATE:    1
 Group Ref#    Coefficients
     1    1    0.949850
     2    2   -0.006306
     3    3   -0.001330

WEIGHT OF LISTED PROTOTYPES:   90.23%

     STATE:    2
 Group Ref#    Coefficients
     1    1   -0.006328
     2    2    0.946634
     3    3    0.003401

WEIGHT OF LISTED PROTOTYPES:   89.62%

     STATE:    3
 Group Ref#    Coefficients
     1    1   -0.001334
     2    2    0.003401
     3    3    0.946776

WEIGHT OF LISTED PROTOTYPES:   89.64%

     DIRECT MAX. DIABATIZATION FINISHED    
 CPU     0: STEP CPU TIME=     0.25 TOTAL CPU TIME=         13.9 (      0.2 MIN)
 TOTAL WALL CLOCK TIME=         14.0 SECONDS, CPU UTILIZATION IS    99.93%

DIABATS FOR SPIN-ORBIT CALCULATION ARE READY

TRANSITION DIPOLES BETWEEN ADIABATS (in A.U.):

STATE PAIR      X         Y         Z
    1    1  0.026897 -0.332567  0.678918
    2    1 -0.005674  0.033108 -0.147807
    2    2 -0.169675 -0.260060  0.321349
    3    1  0.094680 -0.100480 -0.073521
    3    2  0.141796  0.002052 -0.000693
    3    3  0.133523 -0.592522  0.266168


TRANSITION DIPOLES BETWEEN DIABATS (in A.U.):

STATE PAIR      X         Y         Z
    1    1 -0.000231 -0.322065  0.742014
    2    1 -0.008187 -0.040563  0.006962
    2    2 -0.205597 -0.360138  0.288241
    3    1 -0.036799  0.036994  0.000460
    3    2 -0.104387  0.172191  0.000054
    3    3  0.196573 -0.502946  0.236180

TRANSITION DIPOLES BETWEEN DIRECT MAX. DIABATS (in A.U.):

STATE PAIR      X         Y         Z
    1    1 -0.000232 -0.322066  0.742014
    2    1 -0.008190 -0.040563  0.006957
    2    2 -0.205596 -0.360137  0.288241
    3    1 -0.036800  0.036995  0.000459
    3    2 -0.104386  0.172191  0.000054
    3    3  0.196573 -0.502946  0.236180
 No $TRANST Group Found.
 Quit without doing spin-orbit coupling
 ..... DONE WITH MP2 ENERGY .....
 CPU     0: STEP CPU TIME=     0.00 TOTAL CPU TIME=         13.9 (      0.2 MIN)
 TOTAL WALL CLOCK TIME=         14.0 SECONDS, CPU UTILIZATION IS    99.86%
            100000000  WORDS OF DYNAMIC MEMORY USED
 EXECUTION OF GAMESS TERMINATED NORMALLY Wed Nov 16 18:29:03 2022
 DDI: 715512 bytes (0.7 MB / 0 MWords) used by master data server.

 ----------------------------------------
 CPU timing information for all processes
 ========================================
 0: 13.627 + 0.331 = 13.959
 ----------------------------------------
Note: The following floating-point exceptions are signalling: IEEE_DENORMAL
 ddikick.x: exited gracefully.
unset echo
----- accounting info -----
Files used on the master node io002 were:
-rw-r--r-- 1 bsonghao nooijen   20705 Nov 16 18:28 /scratch/bsonghao/nh3_diabatization_2d_at_mode_7_8_dist-0.7_0.0.F05
-rw-r--r-- 1 bsonghao nooijen  363520 Nov 16 18:29 /scratch/bsonghao/nh3_diabatization_2d_at_mode_7_8_dist-0.7_0.0.F09
-rw-r--r-- 1 bsonghao nooijen 1995920 Nov 16 18:29 /scratch/bsonghao/nh3_diabatization_2d_at_mode_7_8_dist-0.7_0.0.F10
-rw-r--r-- 1 bsonghao nooijen  131264 Nov 16 18:29 /scratch/bsonghao/nh3_diabatization_2d_at_mode_7_8_dist-0.7_0.0.F13
-rw-r--r-- 1 bsonghao nooijen  180312 Nov 16 18:29 /scratch/bsonghao/nh3_diabatization_2d_at_mode_7_8_dist-0.7_0.0.F15
-rw-r--r-- 1 bsonghao nooijen       0 Nov 16 18:28 /scratch/bsonghao/nh3_diabatization_2d_at_mode_7_8_dist-0.7_0.0.F16
-rw-r--r-- 1 bsonghao nooijen    9808 Nov 16 18:29 /scratch/bsonghao/nh3_diabatization_2d_at_mode_7_8_dist-0.7_0.0.F70
-rw-r--r-- 1 bsonghao nooijen    9808 Nov 16 18:29 /scratch/bsonghao/nh3_diabatization_2d_at_mode_7_8_dist-0.7_0.0.F71
-rw-r--r-- 1 bsonghao nooijen   19608 Nov 16 18:29 /scratch/bsonghao/nh3_diabatization_2d_at_mode_7_8_dist-0.7_0.0.F72
-rw-r--r-- 1 bsonghao nooijen   19608 Nov 16 18:29 /scratch/bsonghao/nh3_diabatization_2d_at_mode_7_8_dist-0.7_0.0.F73
-rw-r--r-- 1 bsonghao nooijen 1920824 Nov 16 18:29 /scratch/bsonghao/nh3_diabatization_2d_at_mode_7_8_dist-0.7_0.0.F74
-rw-r--r-- 1 bsonghao nooijen       0 Nov 16 18:28 /scratch/bsonghao/nh3_diabatization_2d_at_mode_7_8_dist-0.7_0.0.F75
-rw-r--r-- 1 bsonghao nooijen   58848 Nov 16 18:29 /scratch/bsonghao/nh3_diabatization_2d_at_mode_7_8_dist-0.7_0.0.F76
-rw-r--r-- 1 bsonghao nooijen       0 Nov 16 18:28 /scratch/bsonghao/nh3_diabatization_2d_at_mode_7_8_dist-0.7_0.0.F77
-rw-r--r-- 1 bsonghao nooijen    1864 Nov 16 18:29 /scratch/bsonghao/nh3_diabatization_2d_at_mode_7_8_dist-0.7_0.0.F78
-rw-r--r-- 1 bsonghao nooijen   39208 Nov 16 18:29 /scratch/bsonghao/nh3_diabatization_2d_at_mode_7_8_dist-0.7_0.0.F79
-rw-r--r-- 1 bsonghao nooijen     104 Nov 16 18:29 /scratch/bsonghao/nh3_diabatization_2d_at_mode_7_8_dist-0.7_0.0.F80
-rw-r--r-- 1 bsonghao nooijen   13472 Nov 16 18:29 /scratch/bsonghao/nh3_diabatization_2d_at_mode_7_8_dist-0.7_0.0.F81
-rw-r--r-- 1 bsonghao nooijen      16 Nov 16 18:29 /scratch/bsonghao/nh3_diabatization_2d_at_mode_7_8_dist-0.7_0.0.F82
-rw-r--r-- 1 bsonghao nooijen   19216 Nov 16 18:29 /scratch/bsonghao/nh3_diabatization_2d_at_mode_7_8_dist-0.7_0.0.F83
-rw-r--r-- 1 bsonghao nooijen   29712 Nov 16 18:29 /scratch/bsonghao/nh3_diabatization_2d_at_mode_7_8_dist-0.7_0.0.F84
-rw-r--r-- 1 bsonghao nooijen  401576 Nov 16 18:29 /scratch/bsonghao/nh3_diabatization_2d_at_mode_7_8_dist-0.7_0.0.F85
-rw-r--r-- 1 bsonghao nooijen  903672 Nov 16 18:29 /scratch/bsonghao/nh3_diabatization_2d_at_mode_7_8_dist-0.7_0.0.F86
-rw-r--r-- 1 bsonghao nooijen     656 Nov 16 18:29 /scratch/bsonghao/nh3_diabatization_2d_at_mode_7_8_dist-0.7_0.0.F87
-rw-r--r-- 1 bsonghao nooijen   40400 Nov 16 18:29 /scratch/bsonghao/nh3_diabatization_2d_at_mode_7_8_dist-0.7_0.0.F88
-rw-r--r-- 1 bsonghao nooijen     240 Nov 16 18:29 /scratch/bsonghao/nh3_diabatization_2d_at_mode_7_8_dist-0.7_0.0.F89
-rw-r--r-- 1 bsonghao nooijen       0 Nov 16 18:28 /scratch/bsonghao/nh3_diabatization_2d_at_mode_7_8_dist-0.7_0.0.F90
-rw-r--r-- 1 bsonghao nooijen   13760 Nov 16 18:29 /scratch/bsonghao/nh3_diabatization_2d_at_mode_7_8_dist-0.7_0.0.F91
-rw-r--r-- 1 bsonghao nooijen   22776 Nov 16 18:29 /scratch/bsonghao/nh3_diabatization_2d_at_mode_7_8_dist-0.7_0.0.F92
-rw-r--r-- 1 bsonghao nooijen   23168 Nov 16 18:29 /scratch/bsonghao/nh3_diabatization_2d_at_mode_7_8_dist-0.7_0.0.F93
-rw-r--r-- 1 bsonghao nooijen   22776 Nov 16 18:29 /scratch/bsonghao/nh3_diabatization_2d_at_mode_7_8_dist-0.7_0.0.F94
-rw-r--r-- 1 bsonghao nooijen   13760 Nov 16 18:29 /scratch/bsonghao/nh3_diabatization_2d_at_mode_7_8_dist-0.7_0.0.F95
-rw-r--r-- 1 bsonghao nooijen   29440 Nov 16 18:29 /scratch/bsonghao/nh3_diabatization_2d_at_mode_7_8_dist-0.7_0.0.F96
-rw-r--r-- 1 bsonghao nooijen    1184 Nov 16 18:29 /scratch/bsonghao/nh3_diabatization_2d_at_mode_7_8_dist-0.7_0.0.F97
-rw-r--r-- 1 bsonghao nooijen    9808 Nov 16 18:29 /scratch/bsonghao/nh3_diabatization_2d_at_mode_7_8_dist-0.7_0.0.F98
-rw-r--r-- 1 bsonghao nooijen   30264 Nov 16 18:29 /scratch/bsonghao/nh3_diabatization_2d_at_mode_7_8_dist-0.7_0.0.F99
ls: No match.
ls: No match.
ls: No match.
Wed 16 Nov 2022 06:29:06 PM EST
0.281u 0.047s 0:17.32 1.8%	0+0k 48+224io 0pf+0w
