----- GAMESS execution script 'rungms' -----
This job is running on host io002
under operating system Linux at Wed 16 Nov 2022 08:10:33 PM EST
Available scratch disk space (Kbyte units) at beginning of the job is
Filesystem       1K-blocks       Used   Available Use% Mounted on
/dev/sdc1      15378471580 3278917120 11318349060  23% /scratch
GAMESS temporary binary files will be written to /scratch/bsonghao
GAMESS supplementary output files will be written to /home/bsonghao/.gamess_ascii_files/267638
Copying input file nh3_diabatization_2d_at_mode_7_8_dist0.6_0.3.inp to your run's scratch directory...
cp nh3_diabatization_2d_at_mode_7_8_dist0.6_0.3.inp /scratch/bsonghao/nh3_diabatization_2d_at_mode_7_8_dist0.6_0.3.F05
unset echo
/home/bjb2chen/gamess/ddikick.x /home/bjb2chen/gamess/gamess.00.x nh3_diabatization_2d_at_mode_7_8_dist0.6_0.3 -ddi 1 1 io002 -scr /scratch/bsonghao

 Distributed Data Interface kickoff program.
 Initiating 1 compute processes on 1 nodes to run the following command:
 /home/bjb2chen/gamess/gamess.00.x nh3_diabatization_2d_at_mode_7_8_dist0.6_0.3 

          ******************************************************
          *         GAMESS VERSION = 02 AUG 2018 (R2)         *
          *             FROM IOWA STATE UNIVERSITY             *
          * M.W.SCHMIDT, K.K.BALDRIDGE, J.A.BOATZ, S.T.ELBERT, *
          *   M.S.GORDON, J.H.JENSEN, S.KOSEKI, N.MATSUNAGA,   *
          *          K.A.NGUYEN, S.J.SU, T.L.WINDUS,           *
          *       TOGETHER WITH M.DUPUIS, J.A.MONTGOMERY       *
          *         J.COMPUT.CHEM.  14, 1347-1363(1993)        *
          **************** 64 BIT LINUX VERSION ****************

  SINCE 1993, STUDENTS AND POSTDOCS WORKING AT IOWA STATE UNIVERSITY
  AND ALSO IN THEIR VARIOUS JOBS AFTER LEAVING ISU HAVE MADE IMPORTANT
  CONTRIBUTIONS TO THE CODE:
     IVANA ADAMOVIC, CHRISTINE AIKENS, YURI ALEXEEV, POOJA ARORA,
     ANDREY ASADCHEV, ROB BELL, PRADIPTA BANDYOPADHYAY, JONATHAN BENTZ,
     BRETT BODE, KURT BRORSEN, CALEB CARLIN, GALINA CHABAN, WEI CHEN,
     CHEOL HO CHOI, PAUL DAY, ALBERT DEFUSCO, NUWAN DESILVA, TIM DUDLEY,
     DMITRI FEDOROV, ALEX FINDLATER, GRAHAM FLETCHER, MARK FREITAG,
     KURT GLAESEMANN, ANASTASIA GUININA,
     DAN KEMP, GRANT MERRILL, NORIYUKI MINEZAWA, JONATHAN MULLIN,
     TAKESHI NAGATA, SEAN NEDD, HEATHER NETZLOFF, BOSILJKA NJEGIC, RYAN OLSON,
     MIKE PAK, BUU PHAM,
     SPENCER PRUITT, LUKE ROSKOP, JIM SHOEMAKER, LYUDMILA SLIPCHENKO,
     TONY SMITH, SAROM SOK LEANG, JIE SONG, TETSUYA TAKETSUGU, SIMON WEBB,
     PENG XU, SOOHAENG YOO, FEDERICO ZAHARIEV

  ADDITIONAL CODE HAS BEEN PROVIDED BY COLLABORATORS IN OTHER GROUPS:
     IOWA STATE UNIVERSITY:
          JOE IVANIC, AARON WEST, LAIMUTIS BYTAUTAS, KLAUS RUEDENBERG
     UNIVERSITY OF TOKYO: KIMIHIKO HIRAO, TAKAHITO NAKAJIMA,
          TAKAO TSUNEDA, MUNEAKI KAMIYA, SUSUMU YANAGISAWA,
          KIYOSHI YAGI, MAHITO CHIBA, SEIKEN TOKURA, NAOAKI KAWAKAMI
     UNIVERSITY OF AARHUS: FRANK JENSEN
     UNIVERSITY OF IOWA: VISVALDAS KAIRYS, HUI LI
     NATIONAL INST. OF STANDARDS AND TECHNOLOGY: WALT STEVENS, DAVID GARMER
     UNIVERSITY OF PISA: BENEDETTA MENNUCCI, JACOPO TOMASI
     UNIVERSITY OF MEMPHIS: HENRY KURTZ, PRAKASHAN KORAMBATH
     UNIVERSITY OF ALBERTA: TOBY ZENG, MARIUSZ KLOBUKOWSKI
     UNIVERSITY OF NEW ENGLAND: MARK SPACKMAN
     MIE UNIVERSITY: HIROAKI UMEDA
     NAT. INST. OF ADVANCED INDUSTRIAL SCIENCE AND TECHNOLOGY: KAZUO KITAURA
     MICHIGAN STATE UNIVERSITY:
          KAROL KOWALSKI, MARTA WLOCH, JEFFREY GOUR, JESSE LUTZ,
          WEI LI, JUN SHEN, J. EMILIANO DEUSTUA, PIOTR PIECUCH
     UNIVERSITY OF MINNESOTA:
          YINAN SHU
     UNIVERSITY OF SILESIA: MONIKA MUSIAL, STANISLAW KUCHARSKI
     FACULTES UNIVERSITAIRES NOTRE-DAME DE LA PAIX:
          OLIVIER QUINET, BENOIT CHAMPAGNE
     UNIVERSITY OF CALIFORNIA - SANTA BARBARA: BERNARD KIRTMAN
     INSTITUTE FOR MOLECULAR SCIENCE:
          KAZUYA ISHIMURA, MICHIO KATOUDA, AND SHIGERU NAGASE
     UNIVERSITY OF NOTRE DAME: ANNA POMOGAEVA, DAN CHIPMAN
     KYUSHU UNIVERSITY:
          HARUYUKI NAKANO,
          FENG LONG GU, JACEK KORCHOWIEC, MARCIN MAKOWSKI, AND YURIKO AOKI,
          HIROTOSHI MORI AND EISAKU MIYOSHI
     PENNSYLVANIA STATE UNIVERSITY:
          TZVETELIN IORDANOV, CHET SWALINA, JONATHAN SKONE,
          SHARON HAMMES-SCHIFFER
     WASEDA UNIVERSITY:
          MASATO KOBAYASHI, TOMOKO AKAMA, TSUGUKI TOUMA,
          TAKESHI YOSHIKAWA, YASUHIRO IKABATA, JUNJI SEINO,
          YUYA NAKAJIMA, HIROMI NAKAI
     NANJING UNIVERSITY: SHUHUA LI
     UNIVERSITY OF NEBRASKA:
          PEIFENG SU, DEJUN SI, NANDUN THELLAMUREGE, YALI WANG, HUI LI
     UNIVERSITY OF ZURICH: ROBERTO PEVERATI, KIM BALDRIDGE
     N. COPERNICUS UNIVERSITY AND JACKSON STATE UNIVERSITY:
          MARIA BARYSZ
     UNIVERSITY OF COPENHAGEN: Jimmy Kromann, CASPER STEINMANN
     TOKYO INSTITUTE OF TECHNOLOGY: HIROYA NAKATA
     NAGOYA UNIVERSITY: YOSHIO NISHIMOTO, STEPHAN IRLE
     MOSCOW STATE UNIVERSITY: VLADIMIR MIRONOV

 EXECUTION OF GAMESS BEGUN Wed Nov 16 20:10:33 2022

            ECHO OF THE FIRST FEW INPUT CARDS -
 INPUT CARD> $system kdiag=3 mwords=100 memddi=1000 parall=.t. $end                         
 INPUT CARD> $contrl runtyp=energy ispher=1 $end                                            
 INPUT CARD> $contrl icut=9 itol=20 inttyp=rysquad qmttol=1.0d-05 nosym=1 $end              
 INPUT CARD> $scf    npunch=2 conv=1.0d-06 dirscf=.t.      $end                             
 INPUT CARD> $contrl scftyp=mcscf  mult=2 maxit=200 icharg=1 mplevl=2 $end                  
 INPUT CARD> $guess  guess=moread norb=29 purify=.t. $end                                   
 INPUT CARD> $basis  gbasis=ccd $end                                                        
 INPUT CARD> $mcscf  cistep=gmcci fullnr=.t. finci=mos                                      
 INPUT CARD>         acurcy=1.d-6 maxit=100 $end                                            
 INPUT CARD> $trans  dirtrf=.t. $end                                                        
 INPUT CARD> $mrmp   mrpt=gmcpt rdvecs=.f. $end                                             
 INPUT CARD> $gmcpt  nmofzc=0 nmodoc=1 nmoact=7 nelact=7 stsym(1)=A                         
 INPUT CARD>         reftyp=ormas nspace=1 mstart(1)=2 mine(1)=7 maxe(1)=7                  
 INPUT CARD>         kstate(1)=1,1,1                                                        
 INPUT CARD>         wstate(1)=1,1,1                                                        
 INPUT CARD>         iwgt=0 thrwgt=-1.0 krot=.f. kszdoe=.f. knospn=.f.                      
 INPUT CARD>         thrde=-1.0 edshft=0.02 $end                                            
 INPUT CARD> $data                                                                          
 INPUT CARD> NH3+ 3 states calculation at NH3 structure.                                    
 INPUT CARD> c1                                                                             
 INPUT CARD>N 7.0 -0.018686754000000003 -0.037373418000000005 -0.1693808462                 
 INPUT CARD>H 1.0 -0.08331103299999998 0.9613384288000001 0.35402934510000006               
 INPUT CARD>H 1.0 -0.541862941 -0.8798766058 0.0797004891                                   
 INPUT CARD>H 1.0 0.884831414 0.43785447000000005 0.33565333110000006                       
 INPUT CARD>$end                                                                            
 INPUT CARD>--- OPTIMIZED RHF      MO-S --- GENERATED AT Mon Nov 14 16:47:08 2022           
 INPUT CARD>E=      -56.3825050291, E(NUC)=   11.8429239490                                 
 INPUT CARD> $VEC                                                                           
 INPUT CARD> 1  1-1.00134066E+00-2.25158504E-03 3.44925845E-03 0.00000000E+00 0.00000000E+00
 INPUT CARD> 1  2-2.13170927E-03 0.00000000E+00 0.00000000E+00 6.57129898E-04-6.87950443E-05
 INPUT CARD> 1  3-6.87950443E-05 1.37590089E-04 0.00000000E+00 0.00000000E+00 0.00000000E+00
 INPUT CARD> 1  4 3.25502815E-04-4.84772356E-04 3.62525460E-04-6.27912517E-04-3.45956485E-04
 INPUT CARD> 1  5 3.25502815E-04-4.84772356E-04 3.62525460E-04 6.27912517E-04-3.45956485E-04
 INPUT CARD> 1  6 3.25502815E-04-4.84772356E-04-7.25050921E-04 0.00000000E+00-3.45956485E-04
 INPUT CARD> 2  1 1.31286642E-02-4.05911371E-01-2.82090992E-01 0.00000000E+00 0.00000000E+00
 INPUT CARD> 2  2-7.71489043E-02 0.00000000E+00 0.00000000E+00 9.73717494E-03 6.62450916E-04
 INPUT CARD> 2  3 6.62450916E-04-1.32490183E-03 0.00000000E+00 0.00000000E+00 0.00000000E+00
 INPUT CARD> 2  4-1.96090317E-01-1.96656153E-02-1.74855877E-02 3.02859263E-02 8.68214399E-03
 INPUT CARD> 2  5-1.96090317E-01-1.96656153E-02-1.74855877E-02-3.02859263E-02 8.68214399E-03
 INPUT CARD> 2  6-1.96090317E-01-1.96656153E-02 3.49711754E-02 0.00000000E+00 8.68214399E-03
 INPUT CARD> 3  1 0.00000000E+00 0.00000000E+00 0.00000000E+00 4.48608762E-01 0.00000000E+00
 INPUT CARD> 3  2 0.00000000E+00 2.18692520E-01 0.00000000E+00 0.00000000E+00 1.30198027E-02
 INPUT CARD> 3  3-1.30198027E-02 0.00000000E+00 0.00000000E+00 2.71832968E-02 0.00000000E+00
 INPUT CARD> 3  4-1.85332726E-01-7.03958951E-02 8.47929477E-03 1.95242443E-02 8.32835058E-03
 INPUT CARD> 3  5-1.85332726E-01-7.03958951E-02 8.47929477E-03-1.95242443E-02 8.32835058E-03
 INPUT CARD> 3  6 3.70665453E-01 1.40791790E-01-2.53376884E-02 0.00000000E+00-1.66567012E-02
 INPUT CARD> 4  1 0.00000000E+00 0.00000000E+00 0.00000000E+00 0.00000000E+00 4.48608762E-01
 INPUT CARD> 4  2 0.00000000E+00 0.00000000E+00 2.18692520E-01 0.00000000E+00 0.00000000E+00
 INPUT CARD> 4  3 0.00000000E+00 0.00000000E+00-1.50339731E-02 0.00000000E+00 2.71832968E-02
 INPUT CARD> 4  4 3.21005698E-01 1.21929267E-01 1.95242443E-02-1.40653607E-02-1.44251263E-02
  100000000 WORDS OF MEMORY AVAILABLE

     BASIS OPTIONS
     -------------
     GBASIS=CCD          IGAUSS=       0      POLAR=NONE    
     NDFUNC=       0     NFFUNC=       0     DIFFSP=       F
     NPFUNC=       0      DIFFS=       F     BASNAM=        


     RUN TITLE
     ---------
  NH3+ 3 states calculation at NH3 structure.                                    

 THE POINT GROUP OF THE MOLECULE IS C1      
 THE ORDER OF THE PRINCIPAL AXIS IS     0

 ATOM      ATOMIC                      COORDINATES (BOHR)
           CHARGE         X                   Y                   Z
 N           7.0    -0.0353128447       -0.0706255192       -0.3200833869
 H           1.0    -0.1574350241        1.8166662119        0.6690184539
 H           1.0    -1.0239724814       -1.6627256880        0.1506120855
 H           1.0     1.6720889178        0.8274249708        0.6342928226

          INTERNUCLEAR DISTANCES (ANGS.)
          ------------------------------

                1 N          2 H          3 H          4 H     

   1 N       0.0000000    1.1294069 *  1.0225294 *  1.1389671 *
   2 H       1.1294069 *  0.0000000    1.9171852 *  1.1007602 *
   3 H       1.0225294 *  1.9171852 *  0.0000000    1.9589242 *
   4 H       1.1389671 *  1.1007602 *  1.9589242 *  0.0000000  

  * ... LESS THAN  3.000


     ATOMIC BASIS SET
     ----------------
 THE CONTRACTED PRIMITIVE FUNCTIONS HAVE BEEN UNNORMALIZED
 THE CONTRACTED BASIS FUNCTIONS ARE NOW NORMALIZED TO UNITY

  SHELL TYPE  PRIMITIVE        EXPONENT          CONTRACTION COEFFICIENT(S)

 N         

      1   S       1          9046.0000000    0.000699617413
      1   S       2          1357.0000000    0.005386054630
      1   S       3           309.3000000    0.027391021189
      1   S       4            87.7300000    0.103150591982
      1   S       5            28.5600000    0.278570663317
      1   S       6            10.2100000    0.448294849454
      1   S       7             3.8380000    0.278085928395
      1   S       8             0.7466000    0.015431561233

      2   S       9          9046.0000000   -0.000304990096
      2   S      10          1357.0000000   -0.002408026379
      2   S      11           309.3000000   -0.011944448725
      2   S      12            87.7300000   -0.048925992909
      2   S      13            28.5600000   -0.134472724725
      2   S      14            10.2100000   -0.315112577700
      2   S      15             3.8380000   -0.242857832550
      2   S      16             0.7466000    1.094382206854

      3   S      17             0.2248000    1.000000000000

      4   P      18            13.5500000    0.058905676772
      4   P      19             2.9170000    0.320461106714
      4   P      20             0.7973000    0.753042061792

      5   P      21             0.2185000    1.000000000000

      6   D      22             0.8170000    1.000000000000

 H         

      7   S      23            13.0100000    0.033498726390
      7   S      24             1.9620000    0.234800801174
      7   S      25             0.4446000    0.813682957883

      8   S      26             0.1220000    1.000000000000

      9   P      27             0.7270000    1.000000000000

 H         

     10   S      28            13.0100000    0.033498726390
     10   S      29             1.9620000    0.234800801174
     10   S      30             0.4446000    0.813682957883

     11   S      31             0.1220000    1.000000000000

     12   P      32             0.7270000    1.000000000000

 H         

     13   S      33            13.0100000    0.033498726390
     13   S      34             1.9620000    0.234800801174
     13   S      35             0.4446000    0.813682957883

     14   S      36             0.1220000    1.000000000000

     15   P      37             0.7270000    1.000000000000

 TOTAL NUMBER OF BASIS SET SHELLS             =   15
 NUMBER OF CARTESIAN GAUSSIAN BASIS FUNCTIONS =   30
 NOTE: THIS RUN WILL RESTRICT THE MO VARIATION SPACE TO SPHERICAL HARMONICS.
 THE NUMBER OF ORBITALS KEPT IN THE VARIATIONAL SPACE WILL BE PRINTED LATER.
 NUMBER OF ELECTRONS                          =    9
 CHARGE OF MOLECULE                           =    1
 SPIN MULTIPLICITY                            =    2
 NUMBER OF OCCUPIED ORBITALS (ALPHA)          =    5
 NUMBER OF OCCUPIED ORBITALS (BETA )          =    4
 TOTAL NUMBER OF ATOMS                        =    4
 THE NUCLEAR REPULSION ENERGY IS       11.1816088375

     $CONTRL OPTIONS
     ---------------
 SCFTYP=MCSCF        RUNTYP=ENERGY       EXETYP=RUN     
 MPLEVL=       2     CITYP =NONE         CCTYP =NONE         VBTYP =NONE    
 DFTTYP=NONE         TDDFT =NONE    
 MULT  =       2     ICHARG=       1     NZVAR =       0     COORD =UNIQUE  
 PP    =NONE         RELWFN=NONE         LOCAL =NONE         NUMGRD=       F
 ISPHER=       1     NOSYM =       1     MAXIT =     200     UNITS =ANGS    
 PLTORB=       F     MOLPLT=       F     AIMPAC=       F     FRIEND=        
 NPRINT=       7     IREST =       0     GEOM  =INPUT   
 NORMF =       0     NORMP =       0     ITOL  =      20     ICUT  =       9
 INTTYP=RYSQUAD      GRDTYP=BEST         QMTTOL= 1.0E-05

     $SYSTEM OPTIONS
     ---------------
  REPLICATED MEMORY=   100000000 WORDS (ON EVERY NODE).
 DISTRIBUTED MEMDDI=        1000 MILLION WORDS IN AGGREGATE,
 MEMDDI DISTRIBUTED OVER   1 PROCESSORS IS  1000000000 WORDS/PROCESSOR.
 TOTAL MEMORY REQUESTED ON EACH PROCESSOR=  1100000000 WORDS.
 TIMLIM=      525600.00 MINUTES, OR     365.0 DAYS.
 PARALL= T  BALTYP=  DLB     KDIAG=    3  COREFL= F
 MXSEQ2=     300 MXSEQ3=     150  mem10=         0

          ----------------
          PROPERTIES INPUT
          ----------------

     MOMENTS            FIELD           POTENTIAL          DENSITY
 IEMOM =       1   IEFLD =       0   IEPOT =       0   IEDEN =       0
 WHERE =COMASS     WHERE =NUCLEI     WHERE =NUCLEI     WHERE =NUCLEI  
 OUTPUT=BOTH       OUTPUT=BOTH       OUTPUT=BOTH       OUTPUT=BOTH    
 IEMINT=       0   IEFINT=       0                     IEDINT=       0
                                                       MORB  =       0

     -------------------------------
     INTEGRAL TRANSFORMATION OPTIONS
     -------------------------------
     NWORD  =            0
     CUTOFF = 1.0E-09     MPTRAN =       0
     DIRTRF =       T     AOINTS =DUP     

          ----------------------
          MCSCF INPUT PARAMETERS
          ----------------------
 CONVERGER SELECTION: FOCAS = F  SOSCF = F  FULLNR = T  QUD = F  JACOBI = F
 SECULAR EQUATION METHOD CISTEP = GMCCI   
 --- GENERAL INPUT OPTIONS:
 MAXIT =     100  MICIT =       1  ACURCY= 1.000E-06
 DAMP  =   0.000  CANONC=       T  ENGTOL= 1.000E-10
 EKT   =       F  NPUNCH=       2  NWORD =         0
 REGENERATE CI AFTER CONVERGENCE = NONE    
 DIABATIZATION AFTER CONVERGENCE =        F
 --- INPUT FOR FULLNR CONVERGER:
 METHOD=DM2       FORS  =       F  DROPC =       T
 LINSER=       F  FCORE =       F  NORB  =      30

          ----------------------
          INTEGRAL INPUT OPTIONS
          ----------------------
 NOPK  =       1 NORDER=       0 SCHWRZ=       T

 ------------------------------------------
 MULTIREFERENCE PERTURBATION THEORY CONTROL
 ------------------------------------------
 MRPT=GMCPT    READ CONVERGED MCSCF VECTORS= F


     ------------------------------------------
     THE POINT GROUP IS C1 , NAXIS= 1, ORDER= 1
     ------------------------------------------

 -- VARIATIONAL SPACE WILL BE RESTRICTED TO PURE SPHERICAL HARMONICS ONLY --
 AFTER EXCLUDING CONTAMINANT COMBINATIONS FROM THE CARTESIAN GAUSSIAN BASIS
 SET, THE NUMBER OF SPHERICAL HARMONICS KEPT IN THE VARIATION SPACE IS   29

     DIMENSIONS OF THE SYMMETRY SUBSPACES ARE
 A   =   29

 ..... DONE SETTING UP THE RUN .....
 CPU     0: STEP CPU TIME=     0.04 TOTAL CPU TIME=          0.0 (      0.0 MIN)
 TOTAL WALL CLOCK TIME=          0.0 SECONDS, CPU UTILIZATION IS   100.00%

          ********************
          1 ELECTRON INTEGRALS
          ********************
 TIME TO DO   DIPOLE INTEGRALS=      0.00
 ...... END OF ONE-ELECTRON INTEGRALS ......
 CPU     0: STEP CPU TIME=     0.00 TOTAL CPU TIME=          0.0 (      0.0 MIN)
 TOTAL WALL CLOCK TIME=          0.1 SECONDS, CPU UTILIZATION IS    80.00%

          -------------
          GUESS OPTIONS
          -------------
          GUESS =MOREAD            NORB  =      29          NORDER=       0
          MIX   =       F          PRTMO =       F          PUNMO =       F
          TOLZ  = 1.0E-08          TOLE  = 1.0E-05
          SYMDEN=       F          PURIFY=       T

 INITIAL GUESS ORBITALS GENERATED BY MOREAD   ROUTINE.

 STATISTICS FOR GENERATION OF SYMMETRY ORBITAL -Q- MATRIX
 NUMBER OF CARTESIAN ATOMIC ORBITALS=         30
 NUMBER OF SPHERICAL CONTAMINANTS DROPPED=     1
 NUMBER OF LINEARLY DEPENDENT MOS DROPPED=     0
 TOTAL NUMBER OF MOS IN VARIATION SPACE=      29
 ORBITAL PURIFICATION WILL OCCUR

 SYMMETRIES FOR INITIAL GUESS ORBITALS FOLLOW.   BOTH SET(S).
     5 ORBITALS ARE OCCUPIED (    1 CORE ORBITALS).
     1=A        2=A        3=A        4=A        5=A        6=A        7=A   
     8=A        9=A       10=A       11=A       12=A       13=A       14=A   
    15=A       16=A       17=A       18=A       19=A       20=A       21=A   
    22=A       23=A       24=A       25=A       26=A       27=A       28=A   
    29=A   
 ...... END OF INITIAL ORBITAL SELECTION ......
 CPU     0: STEP CPU TIME=     0.00 TOTAL CPU TIME=          0.0 (      0.0 MIN)
 TOTAL WALL CLOCK TIME=          0.1 SECONDS, CPU UTILIZATION IS    80.00%

                    ----------------------
                    AO INTEGRAL TECHNOLOGY
                    ----------------------
     S,P,L SHELL ROTATED AXIS INTEGRALS, REPROGRAMMED BY
        KAZUYA ISHIMURA (IMS) AND JOSE SIERRA (SYNSTAR).
     S,P,D,L SHELL ROTATED AXIS INTEGRALS PROGRAMMED BY
        KAZUYA ISHIMURA (INSTITUTE FOR MOLECULAR SCIENCE).
     S,P,D,F,G SHELL TO TOTAL QUARTET ANGULAR MOMENTUM SUM 5,
        ERIC PROGRAM BY GRAHAM FLETCHER (ELORET AND NASA ADVANCED
        SUPERCOMPUTING DIVISION, AMES RESEARCH CENTER).
     S,P,D,F,G,L SHELL GENERAL RYS QUADRATURE PROGRAMMED BY
        MICHEL DUPUIS (PACIFIC NORTHWEST NATIONAL LABORATORY).

          --------------------
          2 ELECTRON INTEGRALS
          --------------------

 DIRECT SCF METHOD SKIPS INTEGRAL STORAGE ON DISK.
 DIRECT TRANSFORMATION SKIPS AO INTEGRAL STORAGE ON DISK.
  ...... END OF TWO-ELECTRON INTEGRALS .....
 STEP CPU TIME =     0.03 TOTAL CPU TIME =          0.1 (      0.0 MIN)
 TOTAL WALL CLOCK TIME=          0.1 SECONDS, CPU UTILIZATION IS    87.50%
 DDI: Creating Array [0] - 900 x 36 = 32400 words.
 DDI: Creating Array [1] - 21 x 288 = 6048 words.
 DDI: Creating Array [2] - 36 x 36 = 1296 words.
 DDI: Creating Array [3] - 465 x 36 = 16740 words.

          -----------------
          MCSCF CALCULATION
          -----------------

 ----- NUCLEAR ENERGY ----- =        11.1816088375

     -------------------------------------------------
     GMC-PT/GMC-QDPT or general MCSCF input parameters
     -------------------------------------------------
 # of frozen core orbs. =         0 ->         0
 # of doubly occ. orbs. =         1
 # of active      orbs. =         7
 # of virtual     orbs. =        21
 # of active electrons  =         7
 # of states in CI      =         3
 Highest state in CI    =         3
 kstate =  1 1 1
 avecoe =  0.333 0.333 0.333
 State symmetry           = A           
 Assigned symmetry number = 1

 <<<Act. MO sym.: 1111111

 <<<Division of 1-ext.:  0
 <<<Division of 2-ext.:  0

 *** Reference space

 Reference type: ORMAS (= Occupation restricted multiple active space)
 # of orbitals          =  7
 # of minimum electrons =  7
 # of maximum electrons =  7
 State symmetry    =    1 (input)
 2*Sz              =    1 (input)
 Spin multiplicity =    2 (input)
 Dimension of reference space =      1225  (from      3432 walks)

 Dimension of reference space =      1225  (from      1225 walks)

 <<<Ionized spaces for Ref-CI:
      0:         1225 /   -1-0:         1960 /  0-1-0:         2891

 EVALUATING EXCHANGE INTEGRALS FOR DIRECT INTEGRAL TRANSFORMATION
 SCHWARZ INEQUALITY OVERHEAD:       465 INTEGRALS, T=        0.00

     --------------------------------------------
     PARTIAL TWO ELECTRON INTEGRAL TRANSFORMATION
     --------------------------------------------

 NUMBER OF CORE MOLECULAR ORBITALS     =    1
 NUMBER OF OCCUPIED MOLECULAR ORBITALS =    8
 TOTAL NUMBER OF MOLECULAR ORBITALS    =   29
 TOTAL NUMBER OF ATOMIC ORBITALS       =   30
 THRESHOLD FOR KEEPING TRANSFORMED 2E- INTEGRALS = 1.000E-09

 -------------------------------     ------------------------------
 DISTRIBUTED DATA TRANSFORMATION     PROGRAM WRITTEN BY G. FLETCHER
 -------------------------------     ------------------------------

 THE DISTRIBUTED MEMORY REQUIRED FOR THIS STEP IS MEMDDI=         1 MWORDS
 CREATING DISTRIBUTED STORAGE FOR [VIR OCC|VIR OCC] INTEGRALS
 CREATING DISTRIBUTED STORAGE FOR [VIR OCC|OCC OCC] INTEGRALS
 CREATING DISTRIBUTED STORAGE FOR [OCC OCC|OCC OCC] INTEGRALS
 CREATING DISTRIBUTED STORAGE FOR [VIR VIR|OCC OCC] INTEGRALS
 FOR    1 PROCESSORS, THE REPLICATED MEMORY NEEDED IS       73700 WORDS.
 SCHWARZ INEQUALITY OVERHEAD:       465 INTEGRALS, T=        0.00

      DIRECT 4-INDEX TRANSFORMATION 
      SCHWARZ INEQUALITY TEST SKIPPED          0 INTEGRAL BLOCKS
 ----- FROZEN CORE ENERGY =       -47.6333188526
 ... END OF INTEGRAL TRANSFORMATION ...
 CPU     0: STEP CPU TIME=     0.21 TOTAL CPU TIME=          0.3 (      0.0 MIN)
 TOTAL WALL CLOCK TIME=          0.3 SECONDS, CPU UTILIZATION IS    93.33%

     --------------------------------     -----------------------------
     MCHF NEWTON-RAPHSON OPTIMIZATION     CODE WRITTEN BY MICHEL DUPUIS
     --------------------------------     -----------------------------
     PARALLEL VERSION WRITTEN BY G. FLETCHER (ELORET)
     NASA ADVANCED SUPERCOMPUTING DIVISION, AMES RESEARCH CENTER

 NUMBER OF INDEPENDENT ORBITAL ROTATION PARAMETERS =   175
 ..... DONE SOLVING NEWTON-RAPHSON EQUATIONS .....
 CPU     0: STEP CPU TIME=     0.97 TOTAL CPU TIME=          1.2 (      0.0 MIN)
 TOTAL WALL CLOCK TIME=          1.3 SECONDS, CPU UTILIZATION IS    99.21%
 ..... DONE WITH NTN-RPH ORBITAL ROTATIONS ..... 
 CPU     0: STEP CPU TIME=     0.00 TOTAL CPU TIME=          1.2 (      0.0 MIN)
 TOTAL WALL CLOCK TIME=          1.3 SECONDS, CPU UTILIZATION IS    99.21%
 MAXIMUM MEMORY USED BY NTN-RPH CODE WAS     57645 WORDS.

 ITER     TOTAL ENERGY      DEL(E)  LAGRANGIAN ASYMMETRY   SQCDF  MICIT   DAMP
   1      -55.591299629 -0.591299629  0.112374   12    5 1.092E-01  1   0.0000
   2      -55.645947733 -0.054648105  0.020601   12    5 4.562E-01  1   0.0000
   3      -55.681994746 -0.036047012  0.013693   11    6 2.406E-01  1   0.0201
   4      -55.698420755 -0.016426009  0.004700   11    6 5.304E-02  1   0.0058
   5      -55.700832515 -0.002411760  0.000868   12    5 1.738E-03  1   0.0000
   6      -55.700910356 -0.000077841  0.000303   24    5 1.652E-04  1   0.0000
   7      -55.700919056 -0.000008700  0.000138   23    5 3.056E-05  1   0.0000
   8      -55.700920751 -0.000001695  0.000071   23    5 6.813E-06  1   0.0000
   9      -55.700921141 -0.000000389  0.000038   23    5 1.777E-06  1   0.0000
  10      -55.700921244 -0.000000104  0.000021   23    5 5.360E-07  1   0.0000
  11      -55.700921276 -0.000000031  0.000012   23    5 1.811E-07  1   0.0000
  12      -55.700921286 -0.000000011  0.000007   23    5 6.588E-08  1   0.0000
  13      -55.700921290 -0.000000004  0.000004   23    5 2.497E-08  1   0.0000
  14      -55.700921292 -0.000000001  0.000002   23    5 9.701E-09  1   0.0000
  15      -55.700921292 -0.000000001  0.000001   23    5 3.799E-09  1   0.0000
  16      -55.700921292 -0.000000000  0.000001   23    5 1.514E-09  1   0.0000

          --------------------
          LAGRANGIAN CONVERGED
          --------------------

 FINAL MCSCF ENERGY IS      -55.7009212925 AFTER  16 ITERATIONS

 -MCCI- BASED ON OPTIMIZED ORBITALS
 ----------------------------------

 PLEASE NOTE: IF THE ACTIVE ORBITALS ARE CANONICALIZED BELOW,
 THE FOLLOWING CI EXPANSION COEFFICIENTS AND THE DENSITY DO NOT
 CORRESPOND TO THE PRINTED ORBITALS.  THE PRINTED EXPANSIONS MATCH
 THE ORBITALS USED DURING THE LAST ITERATION.  IF YOU WISH TO SEE
 CI EXPANSIONS BASED ON THE CANONICAL (OR NATURAL) ORBITALS, YOU
 MUST RUN A CI CALCULATION WITH THAT ORBITAL CHOICE READ IN $VEC.

 Averaged energy =     -55.700921292

 State #    1  Energy =     -55.833435894  S =  0.500

      Det      Coef    Occupancy (Ignoring core)
      ---      ----    --------- --------- -----
        1   -0.940032  11110001110000
        5    0.069244  01111001110000
        8    0.132122  10110101110000
       17   -0.134227  11010011110000
       36   -0.117577  11110001101000
      211   -0.052463  11110000110100
      386   -0.101661  11110001010010
      393   -0.062371  10110101010010
      701    0.105284  11110001100001
      717   -0.056095  11010011100001

 State #    2  Energy =     -55.748038846  S =  0.500

      Det      Coef    Occupancy (Ignoring core)
      ---      ----    --------- --------- -----
       36    0.563229  11110001101000
       43   -0.062925  10110101101000
       52    0.057818  11010011101000
       71    0.777950  11110001011000
       75   -0.057606  01111001011000
       78   -0.080429  10110101011000
       87    0.087760  11010011011000
      456    0.062718  11110001001010
      806    0.078898  11110001001001

 State #    3  Energy =     -55.521289137  S =  0.500

      Det      Coef    Occupancy (Ignoring core)
      ---      ----    --------- --------- -----
        1   -0.116898  11110001110000
       36    0.770607  11110001101000
       43   -0.064360  10110101101000
       52    0.050248  11010011101000
       71   -0.564334  11110001011000
       87   -0.050564  11010011011000
      281    0.063754  11110000101100
      456    0.072014  11110001001010
      463    0.056882  10110101001010
      806   -0.060433  11110001001001

 DENSITY MATRIX OVER ACTIVE MO-S

             1           2           3           4           5

    1    1.9739100
    2    0.0033767   1.6286142
    3    0.0088713   0.0046824   1.6313818
    4    0.0020951  -0.0004254   0.0003243   1.6526287
    5    0.1060905  -0.0165966  -0.0352044  -0.0162259   0.0348652
    6   -0.0079276  -0.1493544  -0.0142456   0.0166083  -0.0008517
    7   -0.0077058   0.0026864  -0.1543111   0.0299800   0.0008383

             6           7

    6    0.0397803
    7   -0.0041848   0.0388197

 FORMING THE "STANDARD FOCK OPERATOR" IN DIRECT AO INTEGRAL MODE...
 ONLY THE    1 CORE AND   21 VIRTUAL ORBITALS WILL BE CANONICALIZED

          ----------------------
          MCSCF NATURAL ORBITALS
          ----------------------

                      1          2          3          4          5
                  -15.9866     1.9800     1.6555     1.6492     1.6385
                     A          A          A          A          A   
    1  N  1  S    1.001128   0.008284  -0.008811  -0.004790   0.000358
    2  N  1  S   -0.001835   0.434092  -0.117317  -0.155982   0.005445
    3  N  1  S   -0.006233   0.329378  -0.207235  -0.213633   0.008549
    4  N  1  X   -0.000132   0.008332  -0.153714   0.170095   0.479553
    5  N  1  Y   -0.000189   0.023139  -0.272598   0.297867  -0.277350
    6  N  1  Z    0.001196   0.085503   0.493273   0.310182   0.003399
    7  N  1  X   -0.000044   0.002815  -0.064293   0.042287   0.277836
    8  N  1  Y   -0.000077   0.005126  -0.121574   0.076264  -0.162473
    9  N  1  Z   -0.000588   0.017922   0.336655   0.185970   0.005007
   10  N  1 XX   -0.000079  -0.001825  -0.010398  -0.006300   0.008372
   11  N  1 YY    0.000322   0.002038  -0.008585  -0.007133  -0.008535
   12  N  1 ZZ   -0.000243  -0.000213   0.018983   0.013432   0.000163
   13  N  1 XY    0.000437   0.004311   0.002926  -0.002523   0.006582
   14  N  1 XZ    0.000008   0.001450  -0.005805   0.008233   0.021235
   15  N  1 YZ    0.000040   0.002689  -0.009535   0.015201  -0.012328
   16  H  2  S   -0.001529   0.188796  -0.017981   0.267681  -0.272174
   17  H  2  S    0.000284   0.004083   0.014703   0.041182  -0.107307
   18  H  2  X   -0.000108   0.004116  -0.002811   0.018494   0.010987
   19  H  2  Y    0.000779  -0.032192  -0.005538  -0.024638   0.023904
   20  H  2  Z    0.000450  -0.011746   0.023698  -0.000673   0.015128
   21  H  3  S   -0.002060   0.171861   0.291645  -0.250052  -0.005883
   22  H  3  S    0.000698  -0.002015   0.043158  -0.018998   0.000744
   23  H  3  X   -0.000579   0.017444   0.017077  -0.014749   0.016214
   24  H  3  Y   -0.000939   0.028875   0.026612  -0.022700  -0.011345
   25  H  3  Z    0.000349  -0.002656   0.010091   0.020550   0.000289
   26  H  4  S   -0.001492   0.183196  -0.022145   0.261923   0.273354
   27  H  4  S    0.000290   0.002647   0.014343   0.039437   0.107442
   28  H  4  X    0.000709  -0.028963  -0.001550  -0.030785  -0.015705
   29  H  4  Y    0.000307  -0.012961  -0.004642   0.001947  -0.022686
   30  H  4  Z    0.000434  -0.010499   0.023833   0.000186  -0.013737

                      6          7          8
                    0.0303     0.0286     0.0181
                     A          A          A   
    1  N  1  S   -0.047881  -0.148819  -0.156157
    2  N  1  S   -0.172846  -0.549528  -0.454125
    3  N  1  S   -0.050387  -0.216082   0.045131
    4  N  1  X   -0.687523   0.010951   0.464049
    5  N  1  Y    0.317520  -0.411544   0.724384
    6  N  1  Z   -0.153727  -0.576008  -0.159833
    7  N  1  X    0.042090  -0.063391   0.058080
    8  N  1  Y   -0.052687  -0.085049   0.095704
    9  N  1  Z    0.008979   0.017477   0.082290
   10  N  1 XX    0.028435  -0.031253   0.009958
   11  N  1 YY   -0.027981   0.030561   0.011015
   12  N  1 ZZ   -0.000453   0.000692  -0.020973
   13  N  1 XY    0.040076   0.037556   0.009026
   14  N  1 XZ    0.020651   0.015202  -0.022167
   15  N  1 YZ    0.000497   0.039534  -0.031062
   16  H  2  S   -0.468599   0.657424  -0.144855
   17  H  2  S   -0.202469   0.130997  -0.034011
   18  H  2  X    0.024492   0.033749  -0.026263
   19  H  2  Y    0.034371  -0.055086  -0.007065
   20  H  2  Z    0.023601   0.012623  -0.006088
   21  H  3  S    0.102993   0.265663   0.862836
   22  H  3  S    0.009163   0.010937   0.150710
   23  H  3  X    0.013398   0.018067   0.045182
   24  H  3  Y    0.006061   0.033226   0.073223
   25  H  3  Z   -0.000480   0.000155   0.023359
   26  H  4  S    0.722849   0.323509  -0.188262
   27  H  4  S    0.237403   0.009832  -0.051569
   28  H  4  X   -0.047971  -0.046454   0.011909
   29  H  4  Y   -0.037533   0.018977  -0.021141
   30  H  4  Z   -0.011524   0.024680  -0.006224

          ------------------------
          MCSCF OPTIMIZED ORBITALS
          ------------------------

                      1          2          3          4          5
                  -15.9866     0.0000     0.0000     0.0000     0.0000
                     A          A          A          A          A   
    1  N  1  S    1.001128  -0.001657   0.008879   0.013646  -0.010257
    2  N  1  S   -0.001835   0.399837  -0.005236  -0.008628  -0.181952
    3  N  1  S   -0.006233   0.319437  -0.027597  -0.053456  -0.285791
    4  N  1  X   -0.000132  -0.000252   0.444433  -0.091083  -0.022654
    5  N  1  Y   -0.000189   0.003149  -0.010824   0.401867  -0.043180
    6  N  1  Z    0.001196   0.050722  -0.001104   0.001151   0.588956
    7  N  1  X   -0.000044   0.000589   0.267536  -0.109486  -0.026499
    8  N  1  Y   -0.000077  -0.002946  -0.065179   0.193260  -0.056324
    9  N  1  Z   -0.000588   0.019625  -0.020303  -0.034450   0.384286
   10  N  1 XX   -0.000079  -0.002836   0.009055  -0.007239  -0.011451
   11  N  1 YY    0.000322   0.003287  -0.010636   0.005018  -0.011421
   12  N  1 ZZ   -0.000243  -0.000451   0.001581   0.002221   0.022873
   13  N  1 XY    0.000437   0.007077   0.005032  -0.008990   0.000620
   14  N  1 XZ    0.000008   0.002219   0.025621  -0.003010  -0.000753
   15  N  1 YZ    0.000040   0.003954   0.001528   0.024814  -0.000665
   16  H  2  S   -0.001529   0.206531  -0.121746   0.396576   0.120551
   17  H  2  S    0.000284   0.006096  -0.086889   0.098433   0.032025
   18  H  2  X   -0.000108   0.005628   0.021438   0.008946   0.007037
   19  H  2  Y    0.000779  -0.033936   0.012939  -0.030747  -0.017550
   20  H  2  Z    0.000450  -0.010407   0.006123  -0.020605   0.019036
   21  H  3  S   -0.002060   0.203506  -0.262612  -0.364734   0.114012
   22  H  3  S    0.000698   0.001012  -0.030640  -0.045295   0.027660
   23  H  3  X   -0.000579   0.019565  -0.001071  -0.030668   0.006587
   24  H  3  Y   -0.000939   0.032040  -0.032632  -0.025947   0.010219
   25  H  3  Z    0.000349  -0.002740   0.005297   0.007308   0.020206
   26  H  4  S   -0.001492   0.204870   0.413236   0.016873   0.120745
   27  H  4  S    0.000290   0.006281   0.121359  -0.049495   0.033295
   28  H  4  X    0.000709  -0.031411  -0.030576  -0.010965  -0.017634
   29  H  4  Y    0.000307  -0.012957  -0.017890   0.020111  -0.003571
   30  H  4  Z    0.000434  -0.009256  -0.019676  -0.001452   0.019305

                      6          7          8          9         10
                    0.0000     0.0000     0.0000     0.1125     0.1945
                     A          A          A          A          A   
    1  N  1  S    0.192536  -0.065969  -0.084846  -0.092632   0.027644
    2  N  1  S    0.702166  -0.171130  -0.221914  -0.129328   0.030431
    3  N  1  S    0.223384   0.058709   0.087938   1.077281  -0.415993
    4  N  1  X    0.047502   0.871040  -0.058752  -0.014747  -0.076300
    5  N  1  Y    0.092023   0.186722   0.910269  -0.032519  -0.113540
    6  N  1  Z    0.614996  -0.012223   0.002098  -0.119756   0.021843
    7  N  1  X    0.031673   0.024548   0.080091   0.104086   0.402939
    8  N  1  Y    0.063961   0.093227   0.092884   0.199934   0.651894
    9  N  1  Z   -0.042655   0.039200   0.049083   0.299694  -0.004807
   10  N  1 XX    0.018631  -0.016684   0.034737  -0.014919   0.006840
   11  N  1 YY   -0.023452   0.029468  -0.018491   0.052883  -0.044304
   12  N  1 ZZ    0.004821  -0.012784  -0.016246  -0.037964   0.037464
   13  N  1 XY   -0.047500  -0.023632   0.014268   0.070629  -0.062035
   14  N  1 XZ   -0.013733  -0.026967  -0.010800   0.025679   0.049112
   15  N  1 YZ   -0.028716  -0.017566  -0.035241   0.051215   0.080902
   16  H  2  S   -0.441127   0.299840  -0.583690   0.379584   0.176515
   17  H  2  S   -0.058894   0.136276  -0.180036  -0.882779  -0.628235
   18  H  2  X   -0.030958  -0.032024  -0.017646   0.063419   0.002691
   19  H  2  Y    0.042546  -0.032996   0.032246   0.069306   0.015439
   20  H  2  Z   -0.016779  -0.021568   0.001684   0.043510   0.061847
   21  H  3  S   -0.486009   0.443009   0.560315   0.297153  -0.543886
   22  H  3  S   -0.052186   0.083992   0.107753  -0.523288   1.940825
   23  H  3  X   -0.030850   0.018224   0.031175  -0.033842   0.070505
   24  H  3  Y   -0.049620   0.039332   0.042545  -0.059825   0.111913
   25  H  3  Z   -0.006889   0.015318   0.017257  -0.025578  -0.071920
   26  H  4  S   -0.438306  -0.631603   0.146128   0.387765   0.174325
   27  H  4  S   -0.059305  -0.207535   0.086687  -0.882230  -0.622591
   28  H  4  X    0.051765   0.040026  -0.001508   0.023958   0.012955
   29  H  4  Y   -0.002693   0.015632  -0.042036   0.086426   0.013506
   30  H  4  Z   -0.018545   0.004245  -0.020930   0.041850   0.064692

                     11         12         13         14         15
                    0.2532     0.5256     0.5704     0.6403     0.8646
                     A          A          A          A          A   
    1  N  1  S    0.002323  -0.113542   0.004182  -0.021302  -0.593529
    2  N  1  S    0.005312  -0.127773  -0.005994   0.010747  -1.325794
    3  N  1  S   -0.015044   0.979780  -0.086743   0.201525   2.331057
    4  N  1  X   -0.025946   0.048364  -0.597372  -0.242870  -0.057311
    5  N  1  Y    0.007581   0.211165   0.367312  -0.330303  -0.098273
    6  N  1  Z    0.002387  -0.677643   0.063687  -0.285922   0.292476
    7  N  1  X    0.402504  -0.213514   1.246308   1.032692   0.064648
    8  N  1  Y   -0.208153  -0.554782  -0.808682   1.579794   0.120378
    9  N  1  Z   -0.011503   1.008202  -0.130805   0.679572  -0.101695
   10  N  1 XX    0.068137  -0.000566  -0.024446   0.004397   0.039037
   11  N  1 YY   -0.067293  -0.022928   0.027102   0.010444  -0.026971
   12  N  1 ZZ   -0.000844   0.023494  -0.002656  -0.014840  -0.012066
   13  N  1 XY    0.046340  -0.017533  -0.009000  -0.008469  -0.048567
   14  N  1 XZ    0.049251   0.002990  -0.002460  -0.031853  -0.015883
   15  N  1 YZ   -0.029241   0.004016   0.000382  -0.047546  -0.013601
   16  H  2  S   -0.611407  -0.174652   0.418867  -0.488811  -0.016882
   17  H  2  S    2.107271   0.035157   0.899464  -0.318651  -0.357048
   18  H  2  X    0.073292  -0.091074  -0.029695  -0.043241  -0.268087
   19  H  2  Y   -0.069249  -0.026685  -0.079985   0.217155   0.096429
   20  H  2  Z   -0.017728   0.108531  -0.069152  -0.067180   0.095170
   21  H  3  S    0.010611  -0.630070   0.039972   0.474006  -0.190469
   22  H  3  S   -0.012162  -0.405043  -0.033955   0.733298  -0.518337
   23  H  3  X   -0.034803  -0.054688   0.077450   0.103770  -0.066798
   24  H  3  Y    0.025108  -0.083480  -0.049530   0.148688  -0.072830
   25  H  3  Z   -0.000209   0.039649  -0.006794   0.142858   0.170076
   26  H  4  S    0.606395  -0.207259  -0.316645  -0.549659  -0.018957
   27  H  4  S   -2.093891  -0.079435  -0.839944  -0.396023  -0.368384
   28  H  4  X    0.096856   0.036123   0.022614   0.209051   0.230178
   29  H  4  Y   -0.027376  -0.086680   0.077050   0.096083  -0.175078
   30  H  4  Z    0.013627   0.118727   0.045883  -0.072301   0.078278

                     16         17         18         19         20
                    1.0453     1.1252     1.2263     1.3214     1.4751
                     A          A          A          A          A   
    1  N  1  S   -0.193590  -0.051993   0.237872  -0.044192  -0.468520
    2  N  1  S   -0.389922  -0.108129   0.495890  -0.094034  -0.997023
    3  N  1  S    0.824894   0.235459  -1.012089   0.166856   1.522689
    4  N  1  X   -0.031269   0.100597  -0.116741  -0.103694  -0.096301
    5  N  1  Y   -0.049189  -0.031318  -0.185721   0.052116  -0.162597
    6  N  1  Z    0.070237   0.002795   0.015537   0.001063  -0.083712
    7  N  1  X    0.253524  -0.456024   0.660049   0.204053   0.283416
    8  N  1  Y    0.445938   0.114398   1.145747  -0.139686   0.589130
    9  N  1  Z   -0.176883   0.048169  -0.216846   0.065343   0.774734
   10  N  1 XX   -0.185186  -0.169871  -0.057961   0.026354   0.009154
   11  N  1 YY   -0.085280   0.178624  -0.022326  -0.003838   0.081533
   12  N  1 ZZ    0.270466  -0.008753   0.080288  -0.022517  -0.090687
   13  N  1 XY    0.101957  -0.105860   0.000122  -0.005900   0.075820
   14  N  1 XZ   -0.021073   0.236635   0.059978   0.191323   0.028222
   15  N  1 YZ   -0.037334  -0.147830   0.009661  -0.104508   0.014673
   16  H  2  S   -0.374225  -0.194988  -0.108363   0.149453  -0.677245
   17  H  2  S   -0.088896  -0.101855  -0.049521  -0.041441  -0.108641
   18  H  2  X    0.329835   0.047107  -0.313090   0.315412   0.174007
   19  H  2  Y   -0.106666   0.092792  -0.204218   0.476829  -0.130296
   20  H  2  Z    0.389285  -0.393123   0.322673  -0.362374  -0.071786
   21  H  3  S    0.091954  -0.105417   0.818617  -0.041876  -0.149434
   22  H  3  S   -0.018510  -0.076121   0.469907  -0.025506  -0.057388
   23  H  3  X    0.026011   0.564552  -0.017978  -0.431120   0.000867
   24  H  3  Y    0.050457  -0.352957  -0.152321   0.265739  -0.101525
   25  H  3  Z    0.288637   0.041367  -0.360122  -0.024456  -0.780897
   26  H  4  S   -0.383547   0.179145  -0.140902  -0.243428  -0.662996
   27  H  4  S   -0.085184   0.084873  -0.050719   0.029585  -0.050841
   28  H  4  X   -0.247485  -0.023257  -0.034732  -0.252815  -0.203520
   29  H  4  Y    0.225229   0.001372  -0.469072  -0.426305   0.123514
   30  H  4  Z    0.384062   0.324460   0.437956   0.301540  -0.213697

                     21         22         23         24         25
                    1.6071     1.8042     1.8817     1.9753     2.1266
                     A          A          A          A          A   
    1  N  1  S   -0.027981  -0.002805  -0.084379   0.039642  -0.008981
    2  N  1  S   -0.057163   0.115797  -0.177981   0.129965  -0.018233
    3  N  1  S    0.105374   1.174624  -0.240819   0.657996   0.009679
    4  N  1  X    0.147068   0.159205   0.292577  -0.102370   0.115346
    5  N  1  Y   -0.125129   0.303339   0.465969  -0.171082  -0.054282
    6  N  1  Z   -0.005834   0.256444  -0.000665   0.080548  -0.006249
    7  N  1  X    0.460433   0.209404   0.030614  -0.074863  -0.080748
    8  N  1  Y   -0.136017   0.330257   0.021794  -0.197056   0.052190
    9  N  1  Z    0.053212   0.446282   0.005044   0.421558  -0.002932
   10  N  1 XX   -0.058181   0.154183  -0.366030  -0.526323  -0.256826
   11  N  1 YY    0.086599  -0.026612   0.049594  -0.244171   0.287816
   12  N  1 ZZ   -0.028418  -0.127572   0.316435   0.770494  -0.030990
   13  N  1 XY   -0.066586  -0.195785   0.420647   0.253813  -0.184012
   14  N  1 XZ   -0.270201  -0.054504  -0.077334   0.122754   0.049341
   15  N  1 YZ    0.157128  -0.179846  -0.065835   0.132260  -0.027728
   16  H  2  S   -0.145794  -0.255445   0.108555  -0.070892   0.366539
   17  H  2  S    0.401595  -0.355453  -0.101486   0.004404   0.361554
   18  H  2  X   -0.177757   0.163250  -0.189054  -0.035059   1.011642
   19  H  2  Y   -0.354350   0.650816   0.185943   0.244052  -0.512650
   20  H  2  Z   -0.570972   0.412342   0.032152  -0.299165   0.127634
   21  H  3  S    0.032229  -0.077021  -0.006498  -0.246910   0.008375
   22  H  3  S   -0.001532  -0.005523   0.370700  -0.344814  -0.002531
   23  H  3  X   -0.419964  -0.158953   0.429617  -0.420935  -0.115173
   24  H  3  Y    0.210149  -0.234932   0.741177  -0.578685   0.094967
   25  H  3  Z   -0.066126  -0.487587  -0.361325  -0.090830  -0.001209
   26  H  4  S    0.015975  -0.253385   0.098103  -0.094552  -0.375791
   27  H  4  S   -0.423236  -0.366402  -0.109764  -0.060512  -0.361660
   28  H  4  X    0.176616   0.481193   0.259299   0.276613   0.967152
   29  H  4  Y    0.360226   0.533843  -0.083707   0.115875  -0.577715
   30  H  4  Z    0.582379   0.346725   0.114052  -0.303604  -0.141894

                     26         27         28         29
                    2.1635     2.6391     2.7661     2.8388
                     A          A          A          A   
    1  N  1  S    0.014693  -0.149301  -0.011185  -0.011046
    2  N  1  S    0.019205  -0.219226   0.056657   0.110813
    3  N  1  S   -0.182858   0.924339   1.030377   1.727564
    4  N  1  X    0.031895   0.235232  -0.293163  -0.070815
    5  N  1  Y   -0.011670   0.381574  -0.001302  -0.370485
    6  N  1  Z   -0.018017   0.113066   0.144753   0.221114
    7  N  1  X    0.454840   0.739265  -0.493143  -0.064694
    8  N  1  Y   -0.275904   1.204672   0.087548  -0.547533
    9  N  1  Z   -0.088957   0.346934   0.184088   0.253013
   10  N  1 XX   -0.280425   0.129725  -0.863172   0.342918
   11  N  1 YY    0.316501   0.019306   1.221003   0.316483
   12  N  1 ZZ   -0.036076  -0.149032  -0.357832  -0.659401
   13  N  1 XY   -0.150563   0.012827  -0.017171   1.251147
   14  N  1 XZ    0.753563   0.693920  -0.404604   0.169030
   15  N  1 YZ   -0.441967   1.141388   0.292972  -0.194899
   16  H  2  S    0.118366  -0.784235  -0.990532   0.169488
   17  H  2  S    0.209428  -0.267643  -0.378741   0.091210
   18  H  2  X   -0.445990  -0.013259  -0.201428   0.015478
   19  H  2  Y   -0.351139   0.506049   0.881572  -0.203071
   20  H  2  Z    0.162911   0.252289   0.553361   0.004387
   21  H  3  S    0.049708   0.701405  -0.677317  -1.369420
   22  H  3  S    0.031284   0.327955  -0.206575  -0.411873
   23  H  3  X   -0.489026   0.302989  -0.493018  -0.443979
   24  H  3  Y    0.384415   0.429348  -0.324855  -0.960915
   25  H  3  Z    0.045315   0.190356   0.228836   0.431280
   26  H  4  S   -0.010803  -0.865667   0.540678  -0.705438
   27  H  4  S   -0.167396  -0.308368   0.256619  -0.225189
   28  H  4  X    0.003468   0.518897  -0.541330   0.619197
   29  H  4  Y    0.456182   0.314283  -0.218564   0.177552
   30  H  4  Z   -0.144674   0.281617  -0.215138   0.448131
 .....DONE WITH MCSCF ITERATIONS.....
 CPU     0: STEP CPU TIME=    10.54 TOTAL CPU TIME=         11.8 (      0.2 MIN)
 TOTAL WALL CLOCK TIME=         11.8 SECONDS, CPU UTILIZATION IS    99.83%

     ----------------------------------------------------------------
     PROPERTY VALUES FOR THE MCSCF SELF-CONSISTENT FIELD WAVEFUNCTION
     ----------------------------------------------------------------

          -----------------
          ENERGY COMPONENTS
          -----------------

         WAVEFUNCTION NORMALIZATION =       1.0000000000

                ONE ELECTRON ENERGY =     -93.8336258240
                TWO ELECTRON ENERGY =      26.9510956940
           NUCLEAR REPULSION ENERGY =      11.1816088375
                                      ------------------
                       TOTAL ENERGY =     -55.7009212925

 ELECTRON-ELECTRON POTENTIAL ENERGY =      26.9510956940
  NUCLEUS-ELECTRON POTENTIAL ENERGY =    -149.5556518323
   NUCLEUS-NUCLEUS POTENTIAL ENERGY =      11.1816088375
                                      ------------------
             TOTAL POTENTIAL ENERGY =    -111.4229473008
               TOTAL KINETIC ENERGY =      55.7220260083
                 VIRIAL RATIO (V/T) =       1.9996212500

          ---------------------------------------
          MULLIKEN AND LOWDIN POPULATION ANALYSES
          ---------------------------------------

     ATOMIC MULLIKEN POPULATION IN EACH MOLECULAR ORBITAL

                      1          2          3          4          5

                  2.000000   1.979965   1.655458   1.649159   1.638475

    1             2.000700   1.357205   1.385413   0.962636   1.196515
    2            -0.000187   0.227499   0.010544   0.233501   0.213549
    3            -0.000340   0.180501   0.248379   0.227046   0.008481
    4            -0.000173   0.214760   0.011121   0.225976   0.219929

                      6          7          8

                  0.030264   0.028590   0.018090

    1             0.013564   0.014769   0.009495
    2             0.004569   0.009732   0.000231
    3             0.000218   0.001433   0.007993
    4             0.011913   0.002656   0.000370
 WARNING! MCSCF POPULATIONS SHOWN ABOVE ARE FOR THE NATURAL ORBITALS.
 IGNORE THE ABOVE DATA FOR MCSCF FUNCTIONS WHICH ARE NOT OF -FORS- TYPE.
 THE FOLLOWING POPULATIONS ARE CORRECT FOR ANY MCSCF WAVEFUNCTION.

               ----- POPULATIONS IN EACH AO -----
                             MULLIKEN      LOWDIN
              1  N  1  S      2.00234     1.90189
              2  N  1  S      0.81765     0.57846
              3  N  1  S      0.69634     0.40864
              4  N  1  X      0.72481     0.66082
              5  N  1  Y      0.65962     0.58327
              6  N  1  Z      0.84737     0.79771
              7  N  1  X      0.38194     0.45555
              8  N  1  Y      0.27487     0.39686
              9  N  1  Z      0.52032     0.55730
             10  N  1 XX      0.00040     0.16084
             11  N  1 YY      0.00229     0.18010
             12  N  1 ZZ      0.00220     0.14272
             13  N  1 XY      0.00449     0.00833
             14  N  1 XZ      0.00567     0.00714
             15  N  1 YZ      0.00000     0.01187
             16  H  2  S      0.58678     0.44498
             17  H  2  S      0.05707     0.15043
             18  H  2  X      0.01126     0.04118
             19  H  2  Y      0.02907     0.04693
             20  H  2  Z      0.01525     0.03322
             21  H  3  S      0.59303     0.45895
             22  H  3  S      0.02420     0.14476
             23  H  3  X      0.01633     0.03600
             24  H  3  Y      0.02929     0.05446
             25  H  3  Z      0.01086     0.03164
             26  H  4  S      0.57504     0.43559
             27  H  4  S      0.05682     0.15067
             28  H  4  X      0.02741     0.05395
             29  H  4  Y      0.01290     0.03396
             30  H  4  Z      0.01439     0.03178

          ----- MULLIKEN ATOMIC OVERLAP POPULATIONS -----
          (OFF-DIAGONAL ELEMENTS NEED TO BE MULTIPLIED BY 2)

             1           2           3           4

    1    6.1234859
    2    0.2531005   0.4598471
    3    0.3131913  -0.0051009   0.3709065
    4    0.2505196  -0.0084075  -0.0052860   0.4497265

          TOTAL MULLIKEN AND LOWDIN ATOMIC POPULATIONS
       ATOM         MULL.POP.    CHARGE          LOW.POP.     CHARGE
    1 N             6.940297    0.059703         6.851512    0.148488
    2 H             0.699439    0.300561         0.716732    0.283268
    3 H             0.673711    0.326289         0.725802    0.274198
    4 H             0.686553    0.313447         0.705954    0.294046

          MULLIKEN SPHERICAL HARMONIC POPULATIONS
       ATOM           S       P       D      F      G      H      I    TOTAL
    1 N             3.52    3.41    0.02   0.00   0.00   0.00   0.00    6.94
    2 H             0.64    0.06    0.00   0.00   0.00   0.00   0.00    0.70
    3 H             0.62    0.06    0.00   0.00   0.00   0.00   0.00    0.67
    4 H             0.63    0.05    0.00   0.00   0.00   0.00   0.00    0.69

          ---------------------
          ELECTROSTATIC MOMENTS
          ---------------------

 POINT   1           X           Y           Z (BOHR)    CHARGE
                 0.000002    0.000004   -0.177185        1.00 (A.U.)
         DX          DY          DZ         /D/  (DEBYE)
     0.357085    0.714522    2.191639    2.332667
 ...... END OF PROPERTY EVALUATION ......
 CPU     0: STEP CPU TIME=     0.01 TOTAL CPU TIME=         11.8 (      0.2 MIN)
 TOTAL WALL CLOCK TIME=         11.8 SECONDS, CPU UTILIZATION IS    99.92%

     -------------------------------------------------
     GMC-PT/GMC-QDPT or general MCSCF input parameters
     -------------------------------------------------
 # of frozen core orbs. =         0 ->         0
 # of doubly occ. orbs. =         1
 # of active      orbs. =         7
 # of virtual     orbs. =        21
 # of active electrons  =         7
 # of states in CI      =         3
 Highest state in CI    =         3
 kstate =  1 1 1
 avecoe =  0.333 0.333 0.333
 State symmetry           = A           
 Assigned symmetry number = 1

 <<<Act. MO sym.: 1111111

 <<<Division of 1-ext.:  0
 <<<Division of 2-ext.:  0

     ------------------------
     Orbital canonicalization
     ------------------------

 MOs are canonicalized for core, virtual, and invariant-active orbital spaces.
 This is a part of the GMC-QDPT calculation.
 SCHWARZ INEQUALITY OVERHEAD:       465 INTEGRALS, T=        0.00
 DIRECT TRANSFORMATION SKIPS AO INTEGRAL STORAGE ON DISK.

 Averaged energy =     -55.700921292

 State #    1  Energy =     -55.833435894  S =  0.500
 State #    2  Energy =     -55.748038846  S =  0.500
 State #    3  Energy =     -55.521289137  S =  0.500

 Orbital energies for filled orbital space
  -15.986625
 Orbital energies for active orbital space
   -1.502656  -0.785660  -1.022261  -0.740148   0.180229
    0.222538   0.418528
 Orbital energies for external orbital space
    0.112516   0.194477   0.253249   0.525646   0.570354
    0.640289   0.864641   1.045269   1.125159   1.226263
    1.321419   1.475139   1.607115   1.804185   1.881658
    1.975298   2.126643   2.163489   2.639141   2.766061
    2.838800

 Zero values mean non-canonical orbitals.
 ... done with orbital canonicalization ...
 CPU     0: STEP CPU TIME=     0.61 TOTAL CPU TIME=         12.4 (      0.2 MIN)
 TOTAL WALL CLOCK TIME=         12.4 SECONDS, CPU UTILIZATION IS    99.92%

     --------------------------------------------
     PARTIAL TWO ELECTRON INTEGRAL TRANSFORMATION
     --------------------------------------------

 NUMBER OF CORE MOLECULAR ORBITALS     =    0
 NUMBER OF OCCUPIED MOLECULAR ORBITALS =    8
 TOTAL NUMBER OF MOLECULAR ORBITALS    =   29
 TOTAL NUMBER OF ATOMIC ORBITALS       =   30
 THRESHOLD FOR KEEPING TRANSFORMED 2E- INTEGRALS = 1.000E-09
 AO INTEGRALS WILL BE CALCULATED IN DIRECT MODE...
 DIRECT TRANSFORMATION SKIPS AO INTEGRAL STORAGE ON DISK.
 SCHWARZ INEQUALITY OVERHEAD:       465 INTEGRALS, T=        0.00

 PLAN A: REQUIREMENTS FOR FULLY IN-MEMORY TRANSFORMATION:
 # OF WORDS AVAILABLE =            100000000
 # OF WORDS NEEDED    =               221798

 PARALLEL ONLY WORKS WITH THE SEGMENTED ALGORITHM.
 ADJUSTING MEMORY TO USE SEGMENTED ALGORITHM.


 PLAN B: REQUIREMENTS FOR THE SEGMENTED TRANSFORMATION:
       MINIMUM=         124148 WORDS FOR 1 MOLECULAR ORBITAL PER PASS
       MAXIMUM=         221798 WORDS FOR ALL MOLECULAR ORBITALS IN 1 PASS
              (          13950 EXTRA WORDS INCLUDES 1 EXTRA ORBITAL/PASS)
 THIS RUN USES=         221798 WORDS,
 DISTRIBUTING   1 PASSES EACH CONTAINING     8 ORBITALS OVER   1 PROCESSORS.

 CHOOSING SEGMENTED PARTIAL TRANSFORMATION...
 DIRECT TRANSFORMATION SKIPS AO INTEGRAL STORAGE ON DISK.
 PASS #   1 TOOK        0.05 SECONDS.
 TOTAL NUMBER OF TRANSFORMED 2E- INTEGRALS KEPT =        29226
 ... END OF INTEGRAL TRANSFORMATION ...
 CPU     0: STEP CPU TIME=     0.05 TOTAL CPU TIME=         12.5 (      0.2 MIN)
 TOTAL WALL CLOCK TIME=         12.5 SECONDS, CPU UTILIZATION IS    99.92%

     --------     ------------------------------------------
     GMC-QDPT     Program written by H.Nakano (Kyushu Univ.)
     --------     ------------------------------------------

 *** Reference space

 Reference type: ORMAS (= Occupation restricted multiple active space)
 # of orbitals          =  7
 # of minimum electrons =  7
 # of maximum electrons =  7
 State symmetry    =    1 (input)
 2*Sz              =    1 (input)
 Spin multiplicity =    2 (input)
 Dimension of reference space =      1225  (from      3432 walks)

 Dimension of reference space =      1225  (from      1225 walks)

 <<<Ionized spaces for Ref-CI:
      0:         1225 /   -1-0:         1960 /  0-1-0:         2891

 ***                    ***
 *** Reference space CI ***
 ***                    ***

 Converged after   32 iterations

 Reference wavefunctions:

 State #    1  Energy =     -55.833435894  S =  0.500

      Det      Coef    Occupancy (Ignoring core)
      ---      ----    --------- --------- -----
        1    0.975313  11110001110000
      393    0.088133  10110101010010
      717    0.057709  11010011100001

 State #    2  Energy =     -55.748038846  S =  0.500

      Det      Coef    Occupancy (Ignoring core)
      ---      ----    --------- --------- -----
       71    0.981888  11110001011000
      822   -0.057451  11010011001001

 State #    3  Energy =     -55.521289137  S =  0.500

      Det      Coef    Occupancy (Ignoring core)
      ---      ----    --------- --------- -----
       36   -0.974223  11110001101000
      113   -0.053424  10110100111000
      463   -0.090377  10110101001010

 Davidson method: CPU/Wall time =           0.42 /           0.44 sec.

 Oscillator strength (invalid if E(1)/=E(GS)):
 -----------------------------------------
   State                        f
 -----------------------------------------
     2     F(REF-CI)=        0.0002621375
     3     F(REF-CI)=        0.0048939570
 -----------------------------------------

 Dipole moment matrix elements, x, y, z, in A.U.

 Dimension of ionized spaces for PT:
 (N-2) space:         1715 /  (N-1) space:         2842 /  N space:         2891
 (N+1) space:         2842 /  (N+2) space:         1715

 <<<Ionized spaces for internal:
         0:         1225 /      -1-0:         1960 /     0-1-0:         2891
  -1-0-1-0:         2842 / 0-1-0-1-0:         3381

 Diagonal elements of averaged one-particle density matrix:
       2       3       4       5       6       7       8
  0.9927  0.9835  0.9874  0.9915  0.0165  0.0178  0.0106
  0.9872  0.6549  0.6630  0.6626  0.0125  0.0122  0.0076

 Orbital energies:
 -------- Doubly-occupied orbitals (highest several orbs.) -------
             1
 -1.598662D+01
 -------- Active orbitals ----------------------------------------
             2            3            4            5            6
 -1.502656D+00-7.856597D-01-1.022261D+00-7.401484D-01 1.802293D-01
             7            8
  2.225380D-01 4.185279D-01
 -------- External orbitals (lowest several orbs.) ---------------
             9           10           11           12           13
  1.125163D-01 1.944768D-01 2.532494D-01 5.256459D-01 5.703541D-01
            14           15           16           17           18
  6.402887D-01 8.646407D-01 1.045269D+00 1.125159D+00 1.226263D+00

 *** Quasi-degeneracy checking

 === Det (|Ci| > 1.0D-01 and dE < 5.0D-03)

 # of small denominators (single excitations)
 State       dEmin  dE < 5.0D-03  dE < 5.0D-04  dE < 5.0D-05  dE < 5.0D-06
 ----- ----------- ------------- ------------- ------------- -------------
     1    5.00D-03             0             0             0             0
     2    5.00D-03             0             0             0             0
     3    5.00D-03             0             0             0             0

 # of small denominators (double excitations)
 State       dEmin  dE < 5.0D-03  dE < 5.0D-04  dE < 5.0D-05  dE < 5.0D-06
 ----- ----------- ------------- ------------- ------------- -------------
     1    5.00D-03             0             0             0             0
     2    5.00D-03             0             0             0             0
     3    5.00D-03             0             0             0             0

 *** Zeroth-Order Setup (Granovsky's zeroth-order vectors)
 Zeroth-order effective Hamiltonian
  (= Sum_i e(i)*<I|a+(i)a(i)|J> ):
                   1            2            3
     1 -7.253574D+00
     2 -2.341316D-03-7.231369D+00
     3  2.218694D-04-7.334648D-04-6.977253D+00

 Zeroth-order vectors:
 State #    1
       MC st            1           2           3
       Coeff    9.946D-01   1.037D-01  -5.228D-04
 State #    2
       MC st            2           1           3
       Coeff   -9.946D-01   1.037D-01  -2.964D-03
 State #    3
       MC st            3           2           1
       Coeff    1.000D+00  -2.894D-03   8.274D-04

 *** GMC-QDPT computation

 (Integral reading:  CPU/Wall time =           0.00 /           0.00 sec.)

 One-external:
   0 -ionized terms: CPU/Wall time =           0.03 /           0.03 sec.
 (-1)-ionized terms: CPU/Wall time =           0.09 /           0.09 sec.
 (+1)-ionized terms: CPU/Wall time =           0.02 /           0.02 sec.
 (+1)-ionized terms: CPU/Wall time =           0.01 /           0.01 sec.
 (+2)-ionized terms: CPU/Wall time =           0.00 /           0.00 sec.

 Internal:
 # of macro loops for internal contribution =         1 (input)
 Loop:    1
 Dimension of internal CISD space     =         0  (after screening)
 Space construction: CPU/Wall time =           0.02 /           0.02 sec.
 Internal terms:     CPU/Wall time =           0.00 /           0.00 sec.

 Two-external:
   0 -ionized terms: CPU/Wall time =           0.06 /           0.06 sec.
 (-1)-ionized terms: CPU/Wall time =           0.99 /           0.99 sec.
 (-2)-ionized terms: CPU/Wall time =           0.17 /           0.17 sec.

 Total time:         CPU/Wall time =           1.39 /           1.39 sec.

 ***                  ***
 *** GMC-QDPT Results ***
 ***                  ***

 Diagonal elements of effective Hamiltonian:
 Heff(  1) =   -55.93164824
 Heff(  2) =   -55.85605945
 Heff(  3) =   -55.63292016

 Off-diagonal elements of effective Hamiltonian:
                   1            2
     2 -7.815201D-03
     3  3.095128D-04-5.975944D-04

 ******** GMC-QDPT energies ********
 ----------------------------------------------------------------------------
   State                        1st order                           2nd order
 ----------------------------------------------------------------------------
     1     E(REF-CI)=      -55.8334358945   E(GMC-QDPT2)=      -55.9324480032
     2     E(REF-CI)=      -55.7480388457   E(GMC-QDPT2)=      -55.8552616532
     3     E(REF-CI)=      -55.5212891372   E(GMC-QDPT2)=      -55.6329181917
 ----------------------------------------------------------------------------

 Excitation energies (invalid if E(1)/=E(GS)):
 ----------------------------------------------------------------------------
   State                        1st order                           2nd order
 ----------------------------------------------------------------------------

     TZ Sorted GMC-PT ENERGIES:
         1      -55.9324480032
         2      -55.8552616532
         3      -55.6329181917
     2     E(REF-CI)=        2.3237733 eV   E(GMC-QDPT2)=        2.1003486 eV
     3     E(REF-CI)=        8.4939503 eV   E(GMC-QDPT2)=        8.1506255 eV
 ----------------------------------------------------------------------------

 Main characters of perturbed GMC-QDPT states:

 State #    1  Energy =     -55.932448003  S =  0.500

      Det      Coef    Occupancy (Ignoring core)
      ---      ----    --------- --------- -----
        1    0.975359  11110001110000
      393    0.088141  10110101010010
      717    0.057679  11010011100001

 State #    2  Energy =     -55.855261653  S =  0.500

      Det      Coef    Occupancy (Ignoring core)
      ---      ----    --------- --------- -----
       71    0.981944  11110001011000
      822   -0.057454  11010011001001

 State #    3  Energy =     -55.632918192  S =  0.500

      Det      Coef    Occupancy (Ignoring core)
      ---      ----    --------- --------- -----
       36   -0.974211  11110001101000
      113   -0.053460  10110100111000
      463   -0.090377  10110101001010

 <<<Max |V/de| = 3.060D-02  Thresh = 1.000D+00

 Oscillator strength (invalid if E(1)/=E(GS)):
 ----------------------------------------------------------------------------
   State                        1st order                           2nd order
 ----------------------------------------------------------------------------
     2     F(REF-CI)=        0.0002621375     F(GMC-PT2)=        0.0002400089
     3     F(REF-CI)=        0.0048939570     F(GMC-PT2)=        0.0047468913
 ----------------------------------------------------------------------------

 Dipole moment matrix elements, x, y, z, in A.U.
States    1    1        0.1657711549        0.3133610606        0.7196064588
States    1    2        0.0526752245       -0.0373924354       -0.0221661068
States    1    3       -0.0697281749       -0.1124042623        0.0792147548
States    2    1        0.0526752245       -0.0373924354       -0.0221661068
States    2    2        0.0522410355        0.1652169232        0.2713490065
States    2    3       -0.0990382256        0.0520964678       -0.0002946203
States    3    1       -0.0697281749       -0.1124042623        0.0792147548
States    3    2       -0.0990382256        0.0520964678       -0.0002946203
States    3    3        0.3029214093        0.5628513670        0.2343275846

 Oscillator strength (valid only when positive): 
 ----------------------------------------------------------------------------
  States                        1st order                           2nd order
 ----------------------------------------------------------------------------
  1  1     F(REF-CI)=        0.0000000000     F(GMC-PT2)=        0.0000000000
  1  2     F(REF-CI)=       -0.0002621375     F(GMC-PT2)=       -0.0002400089
  1  3     F(REF-CI)=       -0.0048939570     F(GMC-PT2)=       -0.0047468913
  2  1     F(REF-CI)=        0.0002621375     F(GMC-PT2)=        0.0002400089
  2  2     F(REF-CI)=        0.0000000000     F(GMC-PT2)=        0.0000000000
  2  3     F(REF-CI)=       -0.0018972899     F(GMC-PT2)=       -0.0018562268
  3  1     F(REF-CI)=        0.0048939570     F(GMC-PT2)=        0.0047468913
  3  2     F(REF-CI)=        0.0018972899     F(GMC-PT2)=        0.0018562268
  3  3     F(REF-CI)=        0.0000000000     F(GMC-PT2)=        0.0000000000
 CPU     0: STEP CPU TIME=     1.88 TOTAL CPU TIME=         14.3 (      0.2 MIN)
 TOTAL WALL CLOCK TIME=         14.4 SECONDS, CPU UTILIZATION IS    99.86%

     !!! DIABATIZATION FOR REF CI STATES !!!

 *******************************************************
          $DMO GROUP FOUND IN THE INPUT.
        DIABATIZATION OF ADIABATIC STATES BEGINS.
     PROGRAMMED BY TAO ZENG (CARLETON UNIVERSITY).
               Email: toby.zeng@carleton.ca
     See T. Zeng, J. Chem. Phys. 2017, 146, 144103
 *******************************************************

 *************************************************************************
     STEP 1: TRANSFORMATION OF ADIABATIC STATES TO THE DMO REPRESENTATION
         See Atchity and Ruedenberg, J. Chem. Phys. 1999, 111, 2910
 *************************************************************************

Read in Diabatic Molecualr Orbitals:

                      1          2          3          4          5

    1  N  1  S    0.008609   0.000000   0.000000  -0.013219   0.279491
    2  N  1  S    0.442914  -0.000000   0.000000  -0.184329   0.867803
    3  N  1  S    0.276913   0.000000  -0.000000  -0.288315   0.144236
    4  N  1  X   -0.000000   0.493155  -0.024636  -0.000000  -0.000000
    5  N  1  Y    0.000000   0.024636   0.493155  -0.000000   0.000000
    6  N  1  Z    0.090197   0.000000   0.000000   0.593421   0.705309
    7  N  1  X   -0.000000   0.210628  -0.010522   0.000000   0.000000
    8  N  1  Y    0.000000   0.010522   0.210628  -0.000000  -0.000000
    9  N  1  Z   -0.004381   0.000000   0.000000   0.381592  -0.106092
   10  N  1 XX   -0.000457   0.010719  -0.000535  -0.012387   0.006153
   11  N  1 YY   -0.000457  -0.010719   0.000535  -0.012387   0.006153
   12  N  1 ZZ    0.000914  -0.000000   0.000000   0.024773  -0.012306
   13  N  1 XY    0.000000  -0.000618  -0.012377  -0.000000   0.000000
   14  N  1 XZ   -0.000000   0.026529  -0.001325  -0.000000   0.000000
   15  N  1 YZ    0.000000   0.001325   0.026529  -0.000000   0.000000
   16  H  2  S    0.194462  -0.176074   0.343485   0.112865  -0.523343
   17  H  2  S    0.003574  -0.023812   0.046452   0.024014  -0.054445
   18  H  2  X    0.018760   0.009101   0.022834   0.009336  -0.039151
   19  H  2  Y   -0.032493   0.022287  -0.020044  -0.016171   0.067811
   20  H  2  Z   -0.009251   0.008464  -0.016511   0.018769  -0.010566
   21  H  3  S    0.194462  -0.209430  -0.324227   0.112865  -0.523343
   22  H  3  S    0.003574  -0.028322  -0.043847   0.024014  -0.054445
   23  H  3  X    0.018760   0.006781  -0.023627   0.009336  -0.039151
   24  H  3  Y    0.032493  -0.024174  -0.017723   0.016171  -0.067811
   25  H  3  Z   -0.009251   0.010067   0.015585   0.018769  -0.010566
   26  H  4  S    0.194462   0.385503  -0.019258   0.112865  -0.523343
   27  H  4  S    0.003574   0.052134  -0.002604   0.024014  -0.054445
   28  H  4  X   -0.037519  -0.032295   0.001613  -0.018672   0.078302
   29  H  4  Y    0.000000   0.001067   0.021353  -0.000000   0.000000
   30  H  4  Z   -0.009251  -0.018530   0.000926   0.018769  -0.010566

                      6          7

    1  N  1  S    0.000000  -0.000000
    2  N  1  S    0.000000  -0.000000
    3  N  1  S   -0.000000   0.000000
    4  N  1  X   -0.930415  -0.002083
    5  N  1  Y   -0.002083   0.930415
    6  N  1  Z   -0.000000   0.000000
    7  N  1  X   -0.046866  -0.000105
    8  N  1  Y   -0.000105   0.046866
    9  N  1  Z   -0.000000   0.000000
   10  N  1 XX    0.001538   0.000003
   11  N  1 YY   -0.001538  -0.000003
   12  N  1 ZZ   -0.000000   0.000000
   13  N  1 XY   -0.000004   0.001776
   14  N  1 XZ    0.039985   0.000090
   15  N  1 YZ    0.000090  -0.039985
   16  H  2  S   -0.362630  -0.631354
   17  H  2  S   -0.065964  -0.114846
   18  H  2  X    0.002763  -0.037520
   19  H  2  Y    0.037435   0.040736
   20  H  2  Z    0.001882   0.003276
   21  H  3  S   -0.365454   0.629724
   22  H  3  S   -0.066477   0.114549
   23  H  3  X    0.002595   0.037532
   24  H  3  Y   -0.037617   0.040567
   25  H  3  Z    0.001896  -0.003268
   26  H  4  S    0.728084   0.001630
   27  H  4  S    0.132441   0.000297
   28  H  4  X   -0.062317  -0.000140
   29  H  4  Y    0.000055  -0.024345
   30  H  4  Z   -0.003778  -0.000008

NUMBER OF SUB ACTIVE SPACES:   1
ROTATE ACTIVE MOS TO DMOS IN EACH SUB-SPACE

SPACE  1:

OVERLAP BETWEEN ORTHONORMAL AND PRE-ORTHONORMAL REF. DMOS

             1           2           3           4           5

    1    0.9812648   0.0069330   0.0162318  -0.0070087  -0.0050065
    2    0.0069330   0.9272112   0.0822990   0.0178337  -0.0412403
    3    0.0162318   0.0822990   0.9948926   0.0333377  -0.0702664
    4   -0.0070087   0.0178337   0.0333377   0.9941580  -0.0081769
    5   -0.0050065  -0.0412403  -0.0702664  -0.0081769   1.1387723
    6   -0.0015386  -0.0528597   0.0722304   0.0269718  -0.0423106
    7    0.0022896  -0.0736561  -0.0162229  -0.0510189   0.0610531

             6           7

    1   -0.0015386   0.0022896
    2   -0.0528597  -0.0736561
    3    0.0722304  -0.0162229
    4    0.0269718  -0.0510189
    5   -0.0423106   0.0610531
    6    1.0403862   0.0086123
    7    0.0086123   1.0348421
REFERENCE DMOS AFTER ORTHONORMALIZATION:

                      1          2          3          4          5

    1  N  1  S    0.009664   0.009190   0.016065  -0.012904   0.247849
    2  N  1  S    0.453203   0.027986   0.047392  -0.181646   0.770830
    3  N  1  S    0.280609   0.007077   0.012307  -0.288984   0.128482
    4  N  1  X   -0.004809   0.484699  -0.002644   0.016981  -0.017097
    5  N  1  Y   -0.010826   0.050330   0.507547   0.029926  -0.017294
    6  N  1  Z    0.099003   0.013770   0.020568   0.601245   0.626566
    7  N  1  X   -0.001253   0.229223  -0.026599  -0.001531   0.004632
    8  N  1  Y   -0.003638  -0.004244   0.214838  -0.004214   0.009938
    9  N  1  Z   -0.001915  -0.008884  -0.017407   0.385371  -0.093564
   10  N  1 XX   -0.000594   0.012294  -0.000911  -0.012686   0.005807
   11  N  1 YY   -0.000484  -0.011534   0.002367  -0.012334   0.005068
   12  N  1 ZZ    0.001078  -0.000760  -0.001456   0.025020  -0.010875
   13  N  1 XY    0.000201   0.000582  -0.012600   0.000467  -0.000808
   14  N  1 XZ   -0.000053   0.031778  -0.006685  -0.001343   0.002146
   15  N  1 YZ   -0.000329  -0.003904   0.026806  -0.002756   0.003520
   16  H  2  S    0.193697  -0.313824   0.354373   0.085548  -0.430734
   17  H  2  S    0.003197  -0.045132   0.050027   0.019258  -0.042963
   18  H  2  X    0.018740   0.003801   0.019331   0.006819  -0.031105
   19  H  2  Y   -0.032851   0.034292  -0.020196  -0.015180   0.058851
   20  H  2  Z   -0.009113   0.010606  -0.018799   0.019365  -0.010134
   21  H  3  S    0.201267  -0.196854  -0.318896   0.167258  -0.531907
   22  H  3  S    0.004055  -0.024992  -0.040698   0.033162  -0.059553
   23  H  3  X    0.019303   0.011008  -0.027586   0.011889  -0.037518
   24  H  3  Y    0.033251  -0.026944  -0.017829   0.020285  -0.065066
   25  H  3  Z   -0.009629   0.008954   0.013863   0.018059  -0.007943
   26  H  4  S    0.196833   0.451310  -0.143991   0.091608  -0.427037
   27  H  4  S    0.003655   0.063732  -0.020910   0.020227  -0.042181
   28  H  4  X   -0.038084  -0.036511   0.014732  -0.017069   0.066198
   29  H  4  Y   -0.000287  -0.002567   0.021619  -0.001838   0.002445
   30  H  4  Z   -0.009233  -0.021221   0.001903   0.019211  -0.010053

                      6          7

    1  N  1  S    0.009900  -0.014456
    2  N  1  S    0.035298  -0.052994
    3  N  1  S    0.012818  -0.021858
    4  N  1  X   -0.870974   0.041549
    5  N  1  Y   -0.043740   0.913512
    6  N  1  Z    0.009365  -0.006318
    7  N  1  X   -0.031457   0.015713
    8  N  1  Y   -0.015119   0.047694
    9  N  1  Z   -0.013238   0.023728
   10  N  1 XX    0.002731  -0.000125
   11  N  1 YY   -0.001689  -0.001679
   12  N  1 ZZ   -0.001042   0.001805
   13  N  1 XY    0.000842   0.001623
   14  N  1 XZ    0.040620   0.001713
   15  N  1 YZ   -0.001438  -0.038828
   16  H  2  S   -0.403630  -0.594318
   17  H  2  S   -0.070506  -0.109343
   18  H  2  X    0.000371  -0.033556
   19  H  2  Y    0.041558   0.036995
   20  H  2  Z    0.002682   0.005176
   21  H  3  S   -0.370029   0.631773
   22  H  3  S   -0.066560   0.113969
   23  H  3  X    0.002838   0.039352
   24  H  3  Y   -0.039759   0.042100
   25  H  3  Z    0.000518  -0.000927
   26  H  4  S    0.712844   0.054783
   27  H  4  S    0.129698   0.006893
   28  H  4  X   -0.059642  -0.006669
   29  H  4  Y   -0.001237  -0.023593
   30  H  4  Z   -0.005763   0.000120

 -------------------------------------------
       MAXIMIZING MORMO OVERLAP TERM        
 -------------------------------------------
   SWEEP    VALUE       PROGRESS
     0     5.33329
     1     6.93551     1.60222097
     2     6.95652     0.02100829
     3     6.95652     0.00000171
     4     6.95652     0.00000000
     5     6.95652     0.00000000
 THE ROTATION IS DONE
FLIPPING SIGN FOR ORBITAL   7
ACTIVE ORBITALS AFTER MORMO:

                      1          2          3          4          5

    1  N  1  S    0.008273   0.010101   0.019734  -0.012207   0.200580
    2  N  1  S    0.433598   0.018063   0.038908  -0.187726   0.708402
    3  N  1  S    0.325643   0.005969  -0.003229  -0.276811   0.204081
    4  N  1  X   -0.007175   0.446930   0.019100   0.016707  -0.022283
    5  N  1  Y   -0.011361   0.068147   0.488585   0.034031  -0.029104
    6  N  1  Z    0.086929   0.020242   0.034588   0.602701   0.596028
    7  N  1  X    0.000200   0.281624  -0.085674  -0.018545   0.018472
    8  N  1  Y   -0.005342  -0.059913   0.212568  -0.040014   0.038028
    9  N  1  Z    0.022504  -0.024171  -0.047011   0.384641  -0.052542
   10  N  1 XX   -0.002285   0.014090  -0.003941  -0.009549   0.017084
   11  N  1 YY    0.002005  -0.013568   0.004647  -0.011954  -0.023460
   12  N  1 ZZ    0.000279  -0.000522  -0.000707   0.021504   0.006376
   13  N  1 XY    0.005015   0.004177  -0.014571  -0.001111  -0.046428
   14  N  1 XZ    0.001704   0.023594  -0.006794  -0.002608  -0.011993
   15  N  1 YZ    0.002627  -0.005008   0.017628  -0.003581  -0.026478
   16  H  2  S    0.184594  -0.225153   0.333889   0.093061  -0.445142
   17  H  2  S    0.003517  -0.112900   0.088740   0.026703  -0.056661
   18  H  2  X    0.004331   0.016989   0.001933   0.004305  -0.029141
   19  H  2  Y   -0.031744   0.020078  -0.026826  -0.016072   0.045357
   20  H  2  Z   -0.010454   0.005759  -0.024771   0.017295  -0.013724
   21  H  3  S    0.181898  -0.210470  -0.332218   0.134563  -0.526790
   22  H  3  S   -0.001726  -0.020179  -0.035715   0.034234  -0.061644
   23  H  3  X    0.018291   0.002064  -0.029110   0.007162  -0.032908
   24  H  3  Y    0.029844  -0.029254  -0.024388   0.011301  -0.053293
   25  H  3  Z   -0.003287   0.005839   0.008649   0.021968  -0.010353
   26  H  4  S    0.184913   0.394873  -0.066849   0.095170  -0.437005
   27  H  4  S    0.004448   0.126677  -0.066796   0.028409  -0.054855
   28  H  4  X   -0.028981  -0.026638  -0.002759  -0.014996   0.052843
   29  H  4  Y   -0.013003  -0.023148   0.017566  -0.005022  -0.000199
   30  H  4  Z   -0.009467  -0.023089  -0.005889   0.017386  -0.015609

                      6          7

    1  N  1  S    0.044765  -0.077773
    2  N  1  S    0.095966  -0.168866
    3  N  1  S   -0.070910   0.137929
    4  N  1  X   -0.877234   0.016513
    5  N  1  Y   -0.019764   0.888554
    6  N  1  Z    0.001806   0.012385
    7  N  1  X   -0.026301   0.065244
    8  N  1  Y   -0.063853   0.101296
    9  N  1  Z   -0.020962   0.031237
   10  N  1 XX    0.019376   0.033585
   11  N  1 YY   -0.030349  -0.014689
   12  N  1 ZZ    0.010974  -0.018896
   13  N  1 XY    0.026597   0.007468
   14  N  1 XZ    0.025269  -0.017565
   15  N  1 YZ    0.016063  -0.041165
   16  H  2  S   -0.313951  -0.594008
   17  H  2  S   -0.145871  -0.164070
   18  H  2  X    0.031514  -0.027279
   19  H  2  Y    0.031472   0.032782
   20  H  2  Z    0.020796  -0.002504
   21  H  3  S   -0.366179   0.620780
   22  H  3  S   -0.068436   0.117491
   23  H  3  X   -0.014944   0.032861
   24  H  3  Y   -0.032612   0.048122
   25  H  3  Z   -0.010916   0.015765
   26  H  4  S    0.666883  -0.025252
   27  H  4  S    0.215109   0.042563
   28  H  4  X   -0.043538   0.012912
   29  H  4  Y   -0.019264  -0.038909
   30  H  4  Z   -0.005766  -0.020276

Actually Used Diabatic Molecualr Orbitals:

                      1          2          3          4          5

    1  N  1  S    0.008273   0.010101   0.019734  -0.012207   0.200580
    2  N  1  S    0.433598   0.018063   0.038908  -0.187726   0.708402
    3  N  1  S    0.325643   0.005969  -0.003229  -0.276811   0.204081
    4  N  1  X   -0.007175   0.446930   0.019100   0.016707  -0.022283
    5  N  1  Y   -0.011361   0.068147   0.488585   0.034031  -0.029104
    6  N  1  Z    0.086929   0.020242   0.034588   0.602701   0.596028
    7  N  1  X    0.000200   0.281624  -0.085674  -0.018545   0.018472
    8  N  1  Y   -0.005342  -0.059913   0.212568  -0.040014   0.038028
    9  N  1  Z    0.022504  -0.024171  -0.047011   0.384641  -0.052542
   10  N  1 XX   -0.002285   0.014090  -0.003941  -0.009549   0.017084
   11  N  1 YY    0.002005  -0.013568   0.004647  -0.011954  -0.023460
   12  N  1 ZZ    0.000279  -0.000522  -0.000707   0.021504   0.006376
   13  N  1 XY    0.005015   0.004177  -0.014571  -0.001111  -0.046428
   14  N  1 XZ    0.001704   0.023594  -0.006794  -0.002608  -0.011993
   15  N  1 YZ    0.002627  -0.005008   0.017628  -0.003581  -0.026478
   16  H  2  S    0.184594  -0.225153   0.333889   0.093061  -0.445142
   17  H  2  S    0.003517  -0.112900   0.088740   0.026703  -0.056661
[...]
 IN DIRECT MAX. DIABATIZATION FOR GMC-QDPT

 DIRECT MAXIMIZATION (DM) WITHOUT TRUNCATING ADIABATS
 EXPANSIONS INTO THE REFERENCE CONFIGURATION SPACE
 --------------------------------------------------

 -------------------------------------------
 - DM DIABT PT HAMILTONIAN MATRIX ELEMENTS -
 -------------------------------------------
                                            
 --- DIABATIC ENERGIES (DIAGONAL ELEMENT) ---       HARTREE            EV
 STATE #  1'S GMC-PT-LEVEL DIABATIC ENERGY=     -55.923643060       0.000000000
 STATE #  2'S GMC-PT-LEVEL DIABATIC ENERGY=     -55.798457389       3.406475610
 STATE #  3'S GMC-PT-LEVEL DIABATIC ENERGY=     -55.698527400       6.125709109

 --- DIABATIC COUPLINGS (OFF DIAGONAL ELEMENTS)---  HATREE            EV
 STATE #  1 &  2'S GMC-PT-LEVEL COUPLING  =      -0.022752246      -0.619120140
 STATE #  1 &  3'S GMC-PT-LEVEL COUPLING  =      -0.044798885      -1.219039757
 STATE #  2 &  3'S GMC-PT-LEVEL COUPLING  =       0.094543034       2.572646990

 ---------------------------------------
     - ROTATION TO DIABATIC STATES -    
 ---------------------------------------
 ROWS=ADIABATIC, COLUMNS=DIABATIC STATES

             1           2           3

    1   -0.9844192  -0.0477516  -0.1692297
    2    0.0452959   0.8610740  -0.5064582
    3   -0.1699034   0.5062325   0.8454948

 ---------------------------------------
          - DIABATIC STATES -           
 ---------------------------------------

 State #    1  Energy =     -55.923643060

      Det      Coef        Coefp    Occupancy (Ignoring core)
      ---      ----        ----    --------- --------- -----
        1    0.929783   -0.929783  222+000
        8   -0.125084    0.125084  2-2+0+0
        3   -0.102772   -0.102772  22-++00
      141    0.099270    0.099270  22++-00
      386    0.095173   -0.095173  2+2+0-0
        7    0.092802    0.092802  22-+0+0
       18   -0.089573    0.089573  2-2+00+
      351   -0.086670   -0.086670  22++0-0
      736    0.086088   -0.086088  2+2+00-
      393   -0.069822   -0.069822  202+020
       16   -0.068364    0.068364  222000+
      717   -0.067839   -0.067839  220+002
        4   -0.056402    0.056402  2-2++00
      176    0.054549   -0.054549  2+2+-00
       17    0.039911    0.039911  22-+00+
      708    0.039550   -0.039550  2-++0+-
      215   -0.038748   -0.038748  022+200
      402    0.037492   -0.037492  2+-+0-+
      218    0.035483   -0.035483  +-2+-+0
      390    0.034747   -0.034747  -+2++-0
      705   -0.034167   -0.034167  -2+++0-
      227   -0.034142   -0.034142  +2-+-0+
        6    0.033152   -0.033152  22200+0
      212    0.030753    0.030753  +220200
       13    0.030659    0.030659  2--+++0
       76    0.029910    0.029910  2+2-0+0
     1051   -0.028599   -0.028599  2+++0--
      113   -0.027312    0.027312  +-220+0
      179   -0.027265   -0.027265  202+200
      387   -0.027114    0.027114  2+20+-0
      561    0.026486    0.026486  2+++--0
       29   -0.025460   -0.025460  2--+0++
      424   -0.025377   -0.025377  +-2++-0
      773    0.025140   -0.025140  +2-++0-
       51   -0.025007    0.025007  22+-00+
      184   -0.024692   -0.024692  -+2+-+0
      122    0.024379    0.024379  +2-200+
      702    0.024087    0.024087  22+0+0-
      159    0.023685   -0.023685  -2++-0+
      738   -0.022173   -0.022173  2+-++0-
      143   -0.021750   -0.021750  220+200
       27   -0.021645    0.021645  2-200++
      158   -0.021506   -0.021506  2-++-0+
      147    0.021463   -0.021463  220+-+0
      353   -0.020920   -0.020920  220++-0
      183   -0.020541    0.020541  202+-+0
      389    0.020278    0.020278  202++-0

 State #    2  Energy =     -55.798457389

      Det      Coef        Coefp    Occupancy (Ignoring core)
      ---      ----        ----    --------- --------- -----
       71   -0.932776    0.932776  2+22000
      246    0.117572    0.117572  2++2-00
       73   -0.101889    0.101889  2+-2+00
       77    0.100809   -0.100809  2+-20+0
      456   -0.090952   -0.090952  2++20-0
       88    0.087307   -0.087307  202200+
       74    0.085120   -0.085120  2022+00
      736    0.083480   -0.083480  2+2+00-
       86   -0.079630   -0.079630  2+2-00+
       78    0.075223   -0.075223  20220+0
      822    0.067729   -0.067729  2+02002
       76    0.063067    0.063067  2+2-0+0
      386   -0.048250    0.048250  2+2+0-0
      813    0.044725   -0.044725  20+20+-
       36    0.043215    0.043215  22+2000
       72   -0.042873   -0.042873  2+2-+00
      320    0.039077    0.039077  0+22200
       99   -0.037469    0.037469  20-20++
      323   -0.036759    0.036759  +022-+0
      810   -0.035054   -0.035054  -++2+0-
      111    0.033872   -0.033872  +22-0+0
      183   -0.033523    0.033523  202+-+0
      180   -0.033137    0.033137  -+2+200
      317    0.032965   -0.032965  ++2-200
      177    0.032717   -0.032717  2+20200
      332   -0.032611    0.032611  ++-2-0+
       83    0.030435   -0.030435  20-2++0
      113    0.029871   -0.029871  +-220+0
       81    0.029463    0.029463  202-++0
       38   -0.028677    0.028677  2202+00
      176    0.027060   -0.027060  2+2+-00
      807   -0.025906    0.025906  2++-+0-
      192   -0.025692    0.025692  2+-+-0+
      252   -0.025650   -0.025650  2+02-+0
      526   -0.025421   -0.025421  ++220-0
      878    0.024628    0.024628  ++-2+0-
      264    0.023538   -0.023538  -++2-0+
      263   -0.023467   -0.023467  20+2-0+
      529    0.023243    0.023243  +022+-0
       97   -0.022763   -0.022763  202-0++
      391    0.022120   -0.022120  2+20020
      248    0.021461   -0.021461  2+02200
       89   -0.021361   -0.021361  -+2200+
      742    0.021359    0.021359  2+-+0+-
        6    0.021211   -0.021211  22200+0
       90    0.020477    0.020477  2+--+0+
      106    0.020403    0.020403  +222000
      534    0.020104    0.020104  0+22020

 State #    3  Energy =     -55.698527400

      Det      Coef        Coefp    Occupancy (Ignoring core)
      ---      ----        ----    --------- --------- -----
       36   -0.933871   -0.933871  22+2000
       38    0.106698   -0.106698  2202+00
       53    0.100232    0.100232  2-+200+
      456   -0.096087   -0.096087  2++20-0
      806   -0.096074   -0.096074  2++200-
       51   -0.087505    0.087505  22+-00+
       43    0.086519    0.086519  2-+20+0
       42   -0.084200    0.084200  22020+0
      701    0.079952    0.079952  22++00-
      463    0.074110   -0.074110  20+2020
      246   -0.057792   -0.057792  2++2-00
      106    0.047702    0.047702  +222000
       71   -0.046353    0.046353  2+22000
      472   -0.045577   -0.045577  2+020-+
       37   -0.041828    0.041828  22+-+00
      285    0.039483   -0.039483  02+2200
      121   -0.038754    0.038754  +22-00+
      460   -0.037592   -0.037592  -++2+-0
       64    0.037532   -0.037532  2-020++
      288   -0.036343   -0.036343  +-+2-+0
      112   -0.035577   -0.035577  +2-20+0
      297    0.034532   -0.034532  +202-0+
      282    0.034421    0.034421  +2+-200
      145   -0.033452   -0.033452  -2++200
      457   -0.033362    0.033362  2++-+-0
      142    0.032587    0.032587  22+0200
      351   -0.031984   -0.031984  22++0-0
      249    0.031517   -0.031517  20+2200
      148   -0.031350   -0.031350  2-++-+0
       73    0.031186   -0.031186  2+-2+00
       39    0.026606    0.026606  2-+2+00
      254    0.026332   -0.026332  -++2-+0
      123    0.026279   -0.026279  +-2200+
      157    0.025963   -0.025963  220+-0+
      494    0.025847   -0.025847  +-+2+-0
       16   -0.024549    0.024549  222000+
       44    0.023882   -0.023882  -2+20+0
       46    0.023341   -0.023341  2-+-++0
       48   -0.022643    0.022643  2-02++0
      808    0.022373   -0.022373  2+02+0-
      843   -0.021521   -0.021521  +202+0-
       55   -0.021323   -0.021323  220-+0+
      141    0.021175    0.021175  22++-00
      561    0.021094    0.021094  2+++--0
      253    0.021039    0.021039  20+2-+0
      113    0.020818   -0.020818  +-220+0
        3    0.020653    0.020653  22-++00
      109   -0.020542    0.020542  +-22+00
       19    0.020159    0.020159  -22+00+
       62   -0.020049    0.020049  2-+-0++

 ---------------------------------------
      - DIABATIC STATES IN CMO -        
 ---------------------------------------

 State #    1  Energy =     -55.923643060

      Det      Coef        Coefp    Occupancy (Ignoring core)
      ---      ----        ----    --------- --------- -----
        1    0.960198   -0.960198  222+000
       36    0.157404    0.157404  22+2000
      393   -0.086974   -0.086974  202+020
       71   -0.071303    0.071303  2+22000
      717   -0.060213   -0.060213  220+002
      215   -0.038064   -0.038064  022+200
        8   -0.037661    0.037661  2-2+0+0
       17   -0.037382   -0.037382  22-+00+
      106   -0.036676   -0.036676  +222000
      388   -0.035747   -0.035747  2+-++-0
      390    0.034747   -0.034747  -+2++-0
      218    0.033286   -0.033286  +-2+-+0
      143   -0.033200   -0.033200  220+200
       76    0.032616    0.032616  2+2-0+0
        2    0.032345   -0.032345  2220+00
      179   -0.032130   -0.032130  202+200
      402   -0.031375    0.031375  2+-+0-+
      113   -0.030334    0.030334  +-220+0
      708   -0.029880    0.029880  2-++0+-
      387   -0.028586    0.028586  2+20+-0
      148   -0.028050   -0.028050  2-++-+0
      212    0.025693    0.025693  +220200
      705    0.024961    0.024961  -2+++0-
      424   -0.023663   -0.023663  +-2++-0
      716   -0.023537   -0.023537  22+0002
      227    0.023124    0.023124  +2-+-0+
      787   -0.022595    0.022595  +2-+002
        3    0.022133    0.022133  22-++00
      184   -0.022041   -0.022041  -+2+-+0
       13    0.021805    0.021805  2--+++0
      108    0.021800    0.021800  +2-2+00
      719    0.021709    0.021709  -2++002
       51    0.021700   -0.021700  22+-00+
       74   -0.021087    0.021087  2022+00
      122   -0.020575   -0.020575  +2-200+
      357   -0.020216   -0.020216  220+020
       11    0.020149   -0.020149  2-20++0

 State #    2  Energy =     -55.798457389

      Det      Coef        Coefp    Occupancy (Ignoring core)
      ---      ----        ----    --------- --------- -----
       71   -0.847608    0.847608  2+22000
       36   -0.492250   -0.492250  22+2000
      463    0.056314   -0.056314  20+2020
      822    0.048121   -0.048121  2+02002
      177    0.034268   -0.034268  2+20200
      320    0.032667    0.032667  0+22200
      248    0.030075   -0.030075  2+02200
      323   -0.029983    0.029983  +022-+0
      253   -0.029643   -0.029643  20+2-+0
      183   -0.028407    0.028407  202+-+0
      813   -0.028339    0.028339  20+20+-
      462    0.027000   -0.027000  2+02020
       83    0.026181   -0.026181  20-2++0
      112    0.026175    0.026175  +2-20+0
      113    0.023867   -0.023867  +-220+0
      108   -0.023305   -0.023305  +2-2+00
       81    0.023253    0.023253  202-++0
      121    0.022540   -0.022540  +22-00+
      180   -0.022530    0.022530  -+2+200
      317    0.021708   -0.021708  ++2-200
      751    0.021488   -0.021488  2+20002
      285    0.020570   -0.020570  02+2200
      460   -0.020320   -0.020320  -++2+-0
      111    0.020064   -0.020064  +22-0+0
      107   -0.020027    0.020027  +22-+00

 State #    3  Energy =     -55.698527400

      Det      Coef        Coefp    Occupancy (Ignoring core)
      ---      ----        ----    --------- --------- -----
       36   -0.825877   -0.825877  22+2000
       71    0.491375   -0.491375  2+22000
        1    0.172847   -0.172847  222+000
      463    0.070070   -0.070070  20+2020
      113    0.042843   -0.042843  +-220+0
       74    0.039886   -0.039886  2022+00
      285    0.033382   -0.033382  02+2200
      121    0.033012   -0.033012  +22-00+
      142    0.032700    0.032700  22+0200
      249    0.032422   -0.032422  20+2200
      822   -0.031206    0.031206  2+02002
      148   -0.029870   -0.029870  2-++-+0
      460   -0.028858   -0.028858  -++2+-0
      288   -0.028793   -0.028793  +-+2-+0
      458    0.028332   -0.028332  2+02+-0
      253    0.028101    0.028101  20+2-+0
      107   -0.028074    0.028074  +22-+00
      248   -0.027612    0.027612  2+02200
      108   -0.026488   -0.026488  +2-2+00
      472    0.025767    0.025767  2+020-+
      145   -0.025420   -0.025420  -2++200
      457   -0.024381    0.024381  2++-+-0
       76    0.023450    0.023450  2+2-0+0
        8   -0.023172    0.023172  2-2+0+0
        3    0.022960    0.022960  22-++00
       51   -0.022541    0.022541  22+-00+
       79   -0.022278   -0.022278  -+220+0
       52   -0.021728    0.021728  220200+
      282    0.021675    0.021675  +2+-200
      716    0.021434    0.021434  22+0002
      561    0.021090    0.021090  2+++--0
      112   -0.020584   -0.020584  +2-20+0
      526   -0.020565   -0.020565  ++220-0

 ---------------------------------------
    -DIABATIC STATES IN PROTOTYPES-     
 ---------------------------------------

     STATE:    1
 Group Ref#    Coefficients
     1    1    0.949626
     2    2   -0.002362
     3    3   -0.002468

WEIGHT OF LISTED PROTOTYPES:   90.18%

     STATE:    2
 Group Ref#    Coefficients
     1    1   -0.002362
     2    2    0.949767
     3    3   -0.000984

WEIGHT OF LISTED PROTOTYPES:   90.21%

     STATE:    3
 Group Ref#    Coefficients
     1    1   -0.002472
     2    2   -0.000986
     3    3    0.948257

WEIGHT OF LISTED PROTOTYPES:   89.92%

     DIRECT MAX. DIABATIZATION FINISHED    
 CPU     0: STEP CPU TIME=     0.25 TOTAL CPU TIME=         14.6 (      0.2 MIN)
 TOTAL WALL CLOCK TIME=         14.6 SECONDS, CPU UTILIZATION IS    99.93%

DIABATS FOR SPIN-ORBIT CALCULATION ARE READY

TRANSITION DIPOLES BETWEEN ADIABATS (in A.U.):

STATE PAIR      X         Y         Z
    1    1  0.165771  0.313361  0.719606
    2    1  0.052675 -0.037392 -0.022166
    2    2  0.052241  0.165217  0.271349
    3    1 -0.069728 -0.112404  0.079215
    3    2 -0.099038  0.052096 -0.000295
    3    3  0.302921  0.562851  0.234328


TRANSITION DIPOLES BETWEEN DIABATS (in A.U.):

STATE PAIR      X         Y         Z
    1    1  0.142999  0.285191  0.733158
    2    1 -0.014588  0.053217  0.004296
    2    2  0.029439  0.321384  0.260620
    3    1  0.052477  0.046005  0.005423
    3    2  0.063888  0.214675 -0.019653
    3    3  0.348495  0.434854  0.231505

TRANSITION DIPOLES BETWEEN DIRECT MAX. DIABATS (in A.U.):

STATE PAIR      X         Y         Z
    1    1  0.142999  0.285191  0.733158
    2    1 -0.014588  0.053217  0.004296
    2    2  0.029439  0.321384  0.260620
    3    1  0.052477  0.046005  0.005422
    3    2  0.063889  0.214675 -0.019653
    3    3  0.348495  0.434853  0.231505
 No $TRANST Group Found.
 Quit without doing spin-orbit coupling
 ..... DONE WITH MP2 ENERGY .....
 CPU     0: STEP CPU TIME=     0.00 TOTAL CPU TIME=         14.6 (      0.2 MIN)
 TOTAL WALL CLOCK TIME=         14.6 SECONDS, CPU UTILIZATION IS    99.93%
            100000000  WORDS OF DYNAMIC MEMORY USED
 EXECUTION OF GAMESS TERMINATED NORMALLY Wed Nov 16 20:10:48 2022
 DDI: 715512 bytes (0.7 MB / 0 MWords) used by master data server.

 ----------------------------------------
 CPU timing information for all processes
 ========================================
 0: 14.294 + 0.308 = 14.602
 ----------------------------------------
Note: The following floating-point exceptions are signalling: IEEE_DENORMAL
 ddikick.x: exited gracefully.
unset echo
----- accounting info -----
Files used on the master node io002 were:
-rw-r--r-- 1 bsonghao nooijen   20734 Nov 16 20:10 /scratch/bsonghao/nh3_diabatization_2d_at_mode_7_8_dist0.6_0.3.F05
-rw-r--r-- 1 bsonghao nooijen  363520 Nov 16 20:10 /scratch/bsonghao/nh3_diabatization_2d_at_mode_7_8_dist0.6_0.3.F09
-rw-r--r-- 1 bsonghao nooijen 1995920 Nov 16 20:10 /scratch/bsonghao/nh3_diabatization_2d_at_mode_7_8_dist0.6_0.3.F10
-rw-r--r-- 1 bsonghao nooijen  131264 Nov 16 20:10 /scratch/bsonghao/nh3_diabatization_2d_at_mode_7_8_dist0.6_0.3.F13
-rw-r--r-- 1 bsonghao nooijen  180312 Nov 16 20:10 /scratch/bsonghao/nh3_diabatization_2d_at_mode_7_8_dist0.6_0.3.F15
-rw-r--r-- 1 bsonghao nooijen       0 Nov 16 20:10 /scratch/bsonghao/nh3_diabatization_2d_at_mode_7_8_dist0.6_0.3.F16
-rw-r--r-- 1 bsonghao nooijen    9808 Nov 16 20:10 /scratch/bsonghao/nh3_diabatization_2d_at_mode_7_8_dist0.6_0.3.F70
-rw-r--r-- 1 bsonghao nooijen    9808 Nov 16 20:10 /scratch/bsonghao/nh3_diabatization_2d_at_mode_7_8_dist0.6_0.3.F71
-rw-r--r-- 1 bsonghao nooijen   19608 Nov 16 20:10 /scratch/bsonghao/nh3_diabatization_2d_at_mode_7_8_dist0.6_0.3.F72
-rw-r--r-- 1 bsonghao nooijen   19608 Nov 16 20:10 /scratch/bsonghao/nh3_diabatization_2d_at_mode_7_8_dist0.6_0.3.F73
-rw-r--r-- 1 bsonghao nooijen 1920824 Nov 16 20:10 /scratch/bsonghao/nh3_diabatization_2d_at_mode_7_8_dist0.6_0.3.F74
-rw-r--r-- 1 bsonghao nooijen       0 Nov 16 20:10 /scratch/bsonghao/nh3_diabatization_2d_at_mode_7_8_dist0.6_0.3.F75
-rw-r--r-- 1 bsonghao nooijen   58848 Nov 16 20:10 /scratch/bsonghao/nh3_diabatization_2d_at_mode_7_8_dist0.6_0.3.F76
-rw-r--r-- 1 bsonghao nooijen       0 Nov 16 20:10 /scratch/bsonghao/nh3_diabatization_2d_at_mode_7_8_dist0.6_0.3.F77
-rw-r--r-- 1 bsonghao nooijen    1864 Nov 16 20:10 /scratch/bsonghao/nh3_diabatization_2d_at_mode_7_8_dist0.6_0.3.F78
-rw-r--r-- 1 bsonghao nooijen   39208 Nov 16 20:10 /scratch/bsonghao/nh3_diabatization_2d_at_mode_7_8_dist0.6_0.3.F79
-rw-r--r-- 1 bsonghao nooijen     104 Nov 16 20:10 /scratch/bsonghao/nh3_diabatization_2d_at_mode_7_8_dist0.6_0.3.F80
-rw-r--r-- 1 bsonghao nooijen   13472 Nov 16 20:10 /scratch/bsonghao/nh3_diabatization_2d_at_mode_7_8_dist0.6_0.3.F81
-rw-r--r-- 1 bsonghao nooijen      16 Nov 16 20:10 /scratch/bsonghao/nh3_diabatization_2d_at_mode_7_8_dist0.6_0.3.F82
-rw-r--r-- 1 bsonghao nooijen   19216 Nov 16 20:10 /scratch/bsonghao/nh3_diabatization_2d_at_mode_7_8_dist0.6_0.3.F83
-rw-r--r-- 1 bsonghao nooijen   29712 Nov 16 20:10 /scratch/bsonghao/nh3_diabatization_2d_at_mode_7_8_dist0.6_0.3.F84
-rw-r--r-- 1 bsonghao nooijen  401576 Nov 16 20:10 /scratch/bsonghao/nh3_diabatization_2d_at_mode_7_8_dist0.6_0.3.F85
-rw-r--r-- 1 bsonghao nooijen  903672 Nov 16 20:10 /scratch/bsonghao/nh3_diabatization_2d_at_mode_7_8_dist0.6_0.3.F86
-rw-r--r-- 1 bsonghao nooijen     656 Nov 16 20:10 /scratch/bsonghao/nh3_diabatization_2d_at_mode_7_8_dist0.6_0.3.F87
-rw-r--r-- 1 bsonghao nooijen   30832 Nov 16 20:10 /scratch/bsonghao/nh3_diabatization_2d_at_mode_7_8_dist0.6_0.3.F88
-rw-r--r-- 1 bsonghao nooijen     240 Nov 16 20:10 /scratch/bsonghao/nh3_diabatization_2d_at_mode_7_8_dist0.6_0.3.F89
-rw-r--r-- 1 bsonghao nooijen       0 Nov 16 20:10 /scratch/bsonghao/nh3_diabatization_2d_at_mode_7_8_dist0.6_0.3.F90
-rw-r--r-- 1 bsonghao nooijen   13760 Nov 16 20:10 /scratch/bsonghao/nh3_diabatization_2d_at_mode_7_8_dist0.6_0.3.F91
-rw-r--r-- 1 bsonghao nooijen   22776 Nov 16 20:10 /scratch/bsonghao/nh3_diabatization_2d_at_mode_7_8_dist0.6_0.3.F92
-rw-r--r-- 1 bsonghao nooijen   23168 Nov 16 20:10 /scratch/bsonghao/nh3_diabatization_2d_at_mode_7_8_dist0.6_0.3.F93
-rw-r--r-- 1 bsonghao nooijen   22776 Nov 16 20:10 /scratch/bsonghao/nh3_diabatization_2d_at_mode_7_8_dist0.6_0.3.F94
-rw-r--r-- 1 bsonghao nooijen   13760 Nov 16 20:10 /scratch/bsonghao/nh3_diabatization_2d_at_mode_7_8_dist0.6_0.3.F95
-rw-r--r-- 1 bsonghao nooijen   29440 Nov 16 20:10 /scratch/bsonghao/nh3_diabatization_2d_at_mode_7_8_dist0.6_0.3.F96
-rw-r--r-- 1 bsonghao nooijen    1184 Nov 16 20:10 /scratch/bsonghao/nh3_diabatization_2d_at_mode_7_8_dist0.6_0.3.F97
-rw-r--r-- 1 bsonghao nooijen    9808 Nov 16 20:10 /scratch/bsonghao/nh3_diabatization_2d_at_mode_7_8_dist0.6_0.3.F98
-rw-r--r-- 1 bsonghao nooijen   30264 Nov 16 20:10 /scratch/bsonghao/nh3_diabatization_2d_at_mode_7_8_dist0.6_0.3.F99
ls: No match.
ls: No match.
ls: No match.
Wed 16 Nov 2022 08:10:51 PM EST
0.280u 0.048s 0:17.98 1.7%	0+0k 48+224io 0pf+0w
