----- GAMESS execution script 'rungms' -----
This job is running on host io002
under operating system Linux at Wed 16 Nov 2022 08:08:42 PM EST
Available scratch disk space (Kbyte units) at beginning of the job is
Filesystem       1K-blocks       Used   Available Use% Mounted on
/dev/sdc1      15378471580 3278917120 11318349060  23% /scratch
GAMESS temporary binary files will be written to /scratch/bsonghao
GAMESS supplementary output files will be written to /home/bsonghao/.gamess_ascii_files/267638
Copying input file nh3_diabatization_2d_at_mode_7_8_dist0.6_-0.1.inp to your run's scratch directory...
cp nh3_diabatization_2d_at_mode_7_8_dist0.6_-0.1.inp /scratch/bsonghao/nh3_diabatization_2d_at_mode_7_8_dist0.6_-0.1.F05
unset echo
/home/bjb2chen/gamess/ddikick.x /home/bjb2chen/gamess/gamess.00.x nh3_diabatization_2d_at_mode_7_8_dist0.6_-0.1 -ddi 1 1 io002 -scr /scratch/bsonghao

 Distributed Data Interface kickoff program.
 Initiating 1 compute processes on 1 nodes to run the following command:
 /home/bjb2chen/gamess/gamess.00.x nh3_diabatization_2d_at_mode_7_8_dist0.6_-0.1 

          ******************************************************
          *         GAMESS VERSION = 02 AUG 2018 (R2)         *
          *             FROM IOWA STATE UNIVERSITY             *
          * M.W.SCHMIDT, K.K.BALDRIDGE, J.A.BOATZ, S.T.ELBERT, *
          *   M.S.GORDON, J.H.JENSEN, S.KOSEKI, N.MATSUNAGA,   *
          *          K.A.NGUYEN, S.J.SU, T.L.WINDUS,           *
          *       TOGETHER WITH M.DUPUIS, J.A.MONTGOMERY       *
          *         J.COMPUT.CHEM.  14, 1347-1363(1993)        *
          **************** 64 BIT LINUX VERSION ****************

  SINCE 1993, STUDENTS AND POSTDOCS WORKING AT IOWA STATE UNIVERSITY
  AND ALSO IN THEIR VARIOUS JOBS AFTER LEAVING ISU HAVE MADE IMPORTANT
  CONTRIBUTIONS TO THE CODE:
     IVANA ADAMOVIC, CHRISTINE AIKENS, YURI ALEXEEV, POOJA ARORA,
     ANDREY ASADCHEV, ROB BELL, PRADIPTA BANDYOPADHYAY, JONATHAN BENTZ,
     BRETT BODE, KURT BRORSEN, CALEB CARLIN, GALINA CHABAN, WEI CHEN,
     CHEOL HO CHOI, PAUL DAY, ALBERT DEFUSCO, NUWAN DESILVA, TIM DUDLEY,
     DMITRI FEDOROV, ALEX FINDLATER, GRAHAM FLETCHER, MARK FREITAG,
     KURT GLAESEMANN, ANASTASIA GUININA,
     DAN KEMP, GRANT MERRILL, NORIYUKI MINEZAWA, JONATHAN MULLIN,
     TAKESHI NAGATA, SEAN NEDD, HEATHER NETZLOFF, BOSILJKA NJEGIC, RYAN OLSON,
     MIKE PAK, BUU PHAM,
     SPENCER PRUITT, LUKE ROSKOP, JIM SHOEMAKER, LYUDMILA SLIPCHENKO,
     TONY SMITH, SAROM SOK LEANG, JIE SONG, TETSUYA TAKETSUGU, SIMON WEBB,
     PENG XU, SOOHAENG YOO, FEDERICO ZAHARIEV

  ADDITIONAL CODE HAS BEEN PROVIDED BY COLLABORATORS IN OTHER GROUPS:
     IOWA STATE UNIVERSITY:
          JOE IVANIC, AARON WEST, LAIMUTIS BYTAUTAS, KLAUS RUEDENBERG
     UNIVERSITY OF TOKYO: KIMIHIKO HIRAO, TAKAHITO NAKAJIMA,
          TAKAO TSUNEDA, MUNEAKI KAMIYA, SUSUMU YANAGISAWA,
          KIYOSHI YAGI, MAHITO CHIBA, SEIKEN TOKURA, NAOAKI KAWAKAMI
     UNIVERSITY OF AARHUS: FRANK JENSEN
     UNIVERSITY OF IOWA: VISVALDAS KAIRYS, HUI LI
     NATIONAL INST. OF STANDARDS AND TECHNOLOGY: WALT STEVENS, DAVID GARMER
     UNIVERSITY OF PISA: BENEDETTA MENNUCCI, JACOPO TOMASI
     UNIVERSITY OF MEMPHIS: HENRY KURTZ, PRAKASHAN KORAMBATH
     UNIVERSITY OF ALBERTA: TOBY ZENG, MARIUSZ KLOBUKOWSKI
     UNIVERSITY OF NEW ENGLAND: MARK SPACKMAN
     MIE UNIVERSITY: HIROAKI UMEDA
     NAT. INST. OF ADVANCED INDUSTRIAL SCIENCE AND TECHNOLOGY: KAZUO KITAURA
     MICHIGAN STATE UNIVERSITY:
          KAROL KOWALSKI, MARTA WLOCH, JEFFREY GOUR, JESSE LUTZ,
          WEI LI, JUN SHEN, J. EMILIANO DEUSTUA, PIOTR PIECUCH
     UNIVERSITY OF MINNESOTA:
          YINAN SHU
     UNIVERSITY OF SILESIA: MONIKA MUSIAL, STANISLAW KUCHARSKI
     FACULTES UNIVERSITAIRES NOTRE-DAME DE LA PAIX:
          OLIVIER QUINET, BENOIT CHAMPAGNE
     UNIVERSITY OF CALIFORNIA - SANTA BARBARA: BERNARD KIRTMAN
     INSTITUTE FOR MOLECULAR SCIENCE:
          KAZUYA ISHIMURA, MICHIO KATOUDA, AND SHIGERU NAGASE
     UNIVERSITY OF NOTRE DAME: ANNA POMOGAEVA, DAN CHIPMAN
     KYUSHU UNIVERSITY:
          HARUYUKI NAKANO,
          FENG LONG GU, JACEK KORCHOWIEC, MARCIN MAKOWSKI, AND YURIKO AOKI,
          HIROTOSHI MORI AND EISAKU MIYOSHI
     PENNSYLVANIA STATE UNIVERSITY:
          TZVETELIN IORDANOV, CHET SWALINA, JONATHAN SKONE,
          SHARON HAMMES-SCHIFFER
     WASEDA UNIVERSITY:
          MASATO KOBAYASHI, TOMOKO AKAMA, TSUGUKI TOUMA,
          TAKESHI YOSHIKAWA, YASUHIRO IKABATA, JUNJI SEINO,
          YUYA NAKAJIMA, HIROMI NAKAI
     NANJING UNIVERSITY: SHUHUA LI
     UNIVERSITY OF NEBRASKA:
          PEIFENG SU, DEJUN SI, NANDUN THELLAMUREGE, YALI WANG, HUI LI
     UNIVERSITY OF ZURICH: ROBERTO PEVERATI, KIM BALDRIDGE
     N. COPERNICUS UNIVERSITY AND JACKSON STATE UNIVERSITY:
          MARIA BARYSZ
     UNIVERSITY OF COPENHAGEN: Jimmy Kromann, CASPER STEINMANN
     TOKYO INSTITUTE OF TECHNOLOGY: HIROYA NAKATA
     NAGOYA UNIVERSITY: YOSHIO NISHIMOTO, STEPHAN IRLE
     MOSCOW STATE UNIVERSITY: VLADIMIR MIRONOV

 EXECUTION OF GAMESS BEGUN Wed Nov 16 20:08:43 2022

            ECHO OF THE FIRST FEW INPUT CARDS -
 INPUT CARD> $system kdiag=3 mwords=100 memddi=1000 parall=.t. $end                         
 INPUT CARD> $contrl runtyp=energy ispher=1 $end                                            
 INPUT CARD> $contrl icut=9 itol=20 inttyp=rysquad qmttol=1.0d-05 nosym=1 $end              
 INPUT CARD> $scf    npunch=2 conv=1.0d-06 dirscf=.t.      $end                             
 INPUT CARD> $contrl scftyp=mcscf  mult=2 maxit=200 icharg=1 mplevl=2 $end                  
 INPUT CARD> $guess  guess=moread norb=29 purify=.t. $end                                   
 INPUT CARD> $basis  gbasis=ccd $end                                                        
 INPUT CARD> $mcscf  cistep=gmcci fullnr=.t. finci=mos                                      
 INPUT CARD>         acurcy=1.d-6 maxit=100 $end                                            
 INPUT CARD> $trans  dirtrf=.t. $end                                                        
 INPUT CARD> $mrmp   mrpt=gmcpt rdvecs=.f. $end                                             
 INPUT CARD> $gmcpt  nmofzc=0 nmodoc=1 nmoact=7 nelact=7 stsym(1)=A                         
 INPUT CARD>         reftyp=ormas nspace=1 mstart(1)=2 mine(1)=7 maxe(1)=7                  
 INPUT CARD>         kstate(1)=1,1,1                                                        
 INPUT CARD>         wstate(1)=1,1,1                                                        
 INPUT CARD>         iwgt=0 thrwgt=-1.0 krot=.f. kszdoe=.f. knospn=.f.                      
 INPUT CARD>         thrde=-1.0 edshft=0.02 $end                                            
 INPUT CARD> $data                                                                          
 INPUT CARD> NH3+ 3 states calculation at NH3 structure.                                    
 INPUT CARD> c1                                                                             
 INPUT CARD>N 7.0 0.006228917999999998 -0.037373418000000005 -0.1693806302                  
 INPUT CARD>H 1.0 -0.2869640929999999 0.8084878728 0.4068230931000001                       
 INPUT CARD>H 1.0 -0.745515993 -0.7270260538000001 0.13249424509999996                      
 INPUT CARD>H 1.0 0.945927582 0.43785446200000006 0.23006251910000003                       
 INPUT CARD>$end                                                                            
 INPUT CARD>--- OPTIMIZED RHF      MO-S --- GENERATED AT Mon Nov 14 16:47:08 2022           
 INPUT CARD>E=      -56.3825050291, E(NUC)=   11.8429239490                                 
 INPUT CARD> $VEC                                                                           
 INPUT CARD> 1  1-1.00134066E+00-2.25158504E-03 3.44925845E-03 0.00000000E+00 0.00000000E+00
 INPUT CARD> 1  2-2.13170927E-03 0.00000000E+00 0.00000000E+00 6.57129898E-04-6.87950443E-05
 INPUT CARD> 1  3-6.87950443E-05 1.37590089E-04 0.00000000E+00 0.00000000E+00 0.00000000E+00
 INPUT CARD> 1  4 3.25502815E-04-4.84772356E-04 3.62525460E-04-6.27912517E-04-3.45956485E-04
 INPUT CARD> 1  5 3.25502815E-04-4.84772356E-04 3.62525460E-04 6.27912517E-04-3.45956485E-04
 INPUT CARD> 1  6 3.25502815E-04-4.84772356E-04-7.25050921E-04 0.00000000E+00-3.45956485E-04
 INPUT CARD> 2  1 1.31286642E-02-4.05911371E-01-2.82090992E-01 0.00000000E+00 0.00000000E+00
 INPUT CARD> 2  2-7.71489043E-02 0.00000000E+00 0.00000000E+00 9.73717494E-03 6.62450916E-04
 INPUT CARD> 2  3 6.62450916E-04-1.32490183E-03 0.00000000E+00 0.00000000E+00 0.00000000E+00
 INPUT CARD> 2  4-1.96090317E-01-1.96656153E-02-1.74855877E-02 3.02859263E-02 8.68214399E-03
 INPUT CARD> 2  5-1.96090317E-01-1.96656153E-02-1.74855877E-02-3.02859263E-02 8.68214399E-03
 INPUT CARD> 2  6-1.96090317E-01-1.96656153E-02 3.49711754E-02 0.00000000E+00 8.68214399E-03
 INPUT CARD> 3  1 0.00000000E+00 0.00000000E+00 0.00000000E+00 4.48608762E-01 0.00000000E+00
 INPUT CARD> 3  2 0.00000000E+00 2.18692520E-01 0.00000000E+00 0.00000000E+00 1.30198027E-02
 INPUT CARD> 3  3-1.30198027E-02 0.00000000E+00 0.00000000E+00 2.71832968E-02 0.00000000E+00
 INPUT CARD> 3  4-1.85332726E-01-7.03958951E-02 8.47929477E-03 1.95242443E-02 8.32835058E-03
 INPUT CARD> 3  5-1.85332726E-01-7.03958951E-02 8.47929477E-03-1.95242443E-02 8.32835058E-03
 INPUT CARD> 3  6 3.70665453E-01 1.40791790E-01-2.53376884E-02 0.00000000E+00-1.66567012E-02
 INPUT CARD> 4  1 0.00000000E+00 0.00000000E+00 0.00000000E+00 0.00000000E+00 4.48608762E-01
 INPUT CARD> 4  2 0.00000000E+00 0.00000000E+00 2.18692520E-01 0.00000000E+00 0.00000000E+00
 INPUT CARD> 4  3 0.00000000E+00 0.00000000E+00-1.50339731E-02 0.00000000E+00 2.71832968E-02
 INPUT CARD> 4  4 3.21005698E-01 1.21929267E-01 1.95242443E-02-1.40653607E-02-1.44251263E-02
  100000000 WORDS OF MEMORY AVAILABLE

     BASIS OPTIONS
     -------------
     GBASIS=CCD          IGAUSS=       0      POLAR=NONE    
     NDFUNC=       0     NFFUNC=       0     DIFFSP=       F
     NPFUNC=       0      DIFFS=       F     BASNAM=        


     RUN TITLE
     ---------
  NH3+ 3 states calculation at NH3 structure.                                    

 THE POINT GROUP OF THE MOLECULE IS C1      
 THE ORDER OF THE PRINCIPAL AXIS IS     0

 ATOM      ATOMIC                      COORDINATES (BOHR)
           CHARGE         X                   Y                   Z
 N           7.0     0.0117709482       -0.0706255192       -0.3200829787
 H           1.0    -0.5422835041        1.5278205440        0.7687841714
 H           1.0    -1.4088209462       -1.3738800276        0.2503778182
 H           1.0     1.7875439342        0.8274249557        0.4347551211

          INTERNUCLEAR DISTANCES (ANGS.)
          ------------------------------

                1 N          2 H          3 H          4 H     

   1 N       0.0000000    1.0646381 *  1.0638936 *  1.1262460 *
   2 H       1.0646381 *  0.0000000    1.6258318 *  1.2994750 *
   3 H       1.0638936 *  1.6258318 *  0.0000000    2.0560758 *
   4 H       1.1262460 *  1.2994750 *  2.0560758 *  0.0000000  

  * ... LESS THAN  3.000


     ATOMIC BASIS SET
     ----------------
 THE CONTRACTED PRIMITIVE FUNCTIONS HAVE BEEN UNNORMALIZED
 THE CONTRACTED BASIS FUNCTIONS ARE NOW NORMALIZED TO UNITY

  SHELL TYPE  PRIMITIVE        EXPONENT          CONTRACTION COEFFICIENT(S)

 N         

      1   S       1          9046.0000000    0.000699617413
      1   S       2          1357.0000000    0.005386054630
      1   S       3           309.3000000    0.027391021189
      1   S       4            87.7300000    0.103150591982
      1   S       5            28.5600000    0.278570663317
      1   S       6            10.2100000    0.448294849454
      1   S       7             3.8380000    0.278085928395
      1   S       8             0.7466000    0.015431561233

      2   S       9          9046.0000000   -0.000304990096
      2   S      10          1357.0000000   -0.002408026379
      2   S      11           309.3000000   -0.011944448725
      2   S      12            87.7300000   -0.048925992909
      2   S      13            28.5600000   -0.134472724725
      2   S      14            10.2100000   -0.315112577700
      2   S      15             3.8380000   -0.242857832550
      2   S      16             0.7466000    1.094382206854

      3   S      17             0.2248000    1.000000000000

      4   P      18            13.5500000    0.058905676772
      4   P      19             2.9170000    0.320461106714
      4   P      20             0.7973000    0.753042061792

      5   P      21             0.2185000    1.000000000000

      6   D      22             0.8170000    1.000000000000

 H         

      7   S      23            13.0100000    0.033498726390
      7   S      24             1.9620000    0.234800801174
      7   S      25             0.4446000    0.813682957883

      8   S      26             0.1220000    1.000000000000

      9   P      27             0.7270000    1.000000000000

 H         

     10   S      28            13.0100000    0.033498726390
     10   S      29             1.9620000    0.234800801174
     10   S      30             0.4446000    0.813682957883

     11   S      31             0.1220000    1.000000000000

     12   P      32             0.7270000    1.000000000000

 H         

     13   S      33            13.0100000    0.033498726390
     13   S      34             1.9620000    0.234800801174
     13   S      35             0.4446000    0.813682957883

     14   S      36             0.1220000    1.000000000000

     15   P      37             0.7270000    1.000000000000

 TOTAL NUMBER OF BASIS SET SHELLS             =   15
 NUMBER OF CARTESIAN GAUSSIAN BASIS FUNCTIONS =   30
 NOTE: THIS RUN WILL RESTRICT THE MO VARIATION SPACE TO SPHERICAL HARMONICS.
 THE NUMBER OF ORBITALS KEPT IN THE VARIATIONAL SPACE WILL BE PRINTED LATER.
 NUMBER OF ELECTRONS                          =    9
 CHARGE OF MOLECULE                           =    1
 SPIN MULTIPLICITY                            =    2
 NUMBER OF OCCUPIED ORBITALS (ALPHA)          =    5
 NUMBER OF OCCUPIED ORBITALS (BETA )          =    4
 TOTAL NUMBER OF ATOMS                        =    4
 THE NUCLEAR REPULSION ENERGY IS       11.2402132577

     $CONTRL OPTIONS
     ---------------
 SCFTYP=MCSCF        RUNTYP=ENERGY       EXETYP=RUN     
 MPLEVL=       2     CITYP =NONE         CCTYP =NONE         VBTYP =NONE    
 DFTTYP=NONE         TDDFT =NONE    
 MULT  =       2     ICHARG=       1     NZVAR =       0     COORD =UNIQUE  
 PP    =NONE         RELWFN=NONE         LOCAL =NONE         NUMGRD=       F
 ISPHER=       1     NOSYM =       1     MAXIT =     200     UNITS =ANGS    
 PLTORB=       F     MOLPLT=       F     AIMPAC=       F     FRIEND=        
 NPRINT=       7     IREST =       0     GEOM  =INPUT   
 NORMF =       0     NORMP =       0     ITOL  =      20     ICUT  =       9
 INTTYP=RYSQUAD      GRDTYP=BEST         QMTTOL= 1.0E-05

     $SYSTEM OPTIONS
     ---------------
  REPLICATED MEMORY=   100000000 WORDS (ON EVERY NODE).
 DISTRIBUTED MEMDDI=        1000 MILLION WORDS IN AGGREGATE,
 MEMDDI DISTRIBUTED OVER   1 PROCESSORS IS  1000000000 WORDS/PROCESSOR.
 TOTAL MEMORY REQUESTED ON EACH PROCESSOR=  1100000000 WORDS.
 TIMLIM=      525600.00 MINUTES, OR     365.0 DAYS.
 PARALL= T  BALTYP=  DLB     KDIAG=    3  COREFL= F
 MXSEQ2=     300 MXSEQ3=     150  mem10=         0

          ----------------
          PROPERTIES INPUT
          ----------------

     MOMENTS            FIELD           POTENTIAL          DENSITY
 IEMOM =       1   IEFLD =       0   IEPOT =       0   IEDEN =       0
 WHERE =COMASS     WHERE =NUCLEI     WHERE =NUCLEI     WHERE =NUCLEI  
 OUTPUT=BOTH       OUTPUT=BOTH       OUTPUT=BOTH       OUTPUT=BOTH    
 IEMINT=       0   IEFINT=       0                     IEDINT=       0
                                                       MORB  =       0

     -------------------------------
     INTEGRAL TRANSFORMATION OPTIONS
     -------------------------------
     NWORD  =            0
     CUTOFF = 1.0E-09     MPTRAN =       0
     DIRTRF =       T     AOINTS =DUP     

          ----------------------
          MCSCF INPUT PARAMETERS
          ----------------------
 CONVERGER SELECTION: FOCAS = F  SOSCF = F  FULLNR = T  QUD = F  JACOBI = F
 SECULAR EQUATION METHOD CISTEP = GMCCI   
 --- GENERAL INPUT OPTIONS:
 MAXIT =     100  MICIT =       1  ACURCY= 1.000E-06
 DAMP  =   0.000  CANONC=       T  ENGTOL= 1.000E-10
 EKT   =       F  NPUNCH=       2  NWORD =         0
 REGENERATE CI AFTER CONVERGENCE = NONE    
 DIABATIZATION AFTER CONVERGENCE =        F
 --- INPUT FOR FULLNR CONVERGER:
 METHOD=DM2       FORS  =       F  DROPC =       T
 LINSER=       F  FCORE =       F  NORB  =      30

          ----------------------
          INTEGRAL INPUT OPTIONS
          ----------------------
 NOPK  =       1 NORDER=       0 SCHWRZ=       T

 ------------------------------------------
 MULTIREFERENCE PERTURBATION THEORY CONTROL
 ------------------------------------------
 MRPT=GMCPT    READ CONVERGED MCSCF VECTORS= F


     ------------------------------------------
     THE POINT GROUP IS C1 , NAXIS= 1, ORDER= 1
     ------------------------------------------

 -- VARIATIONAL SPACE WILL BE RESTRICTED TO PURE SPHERICAL HARMONICS ONLY --
 AFTER EXCLUDING CONTAMINANT COMBINATIONS FROM THE CARTESIAN GAUSSIAN BASIS
 SET, THE NUMBER OF SPHERICAL HARMONICS KEPT IN THE VARIATION SPACE IS   29

     DIMENSIONS OF THE SYMMETRY SUBSPACES ARE
 A   =   29

 ..... DONE SETTING UP THE RUN .....
 CPU     0: STEP CPU TIME=     0.04 TOTAL CPU TIME=          0.0 (      0.0 MIN)
 TOTAL WALL CLOCK TIME=          0.1 SECONDS, CPU UTILIZATION IS    80.00%

          ********************
          1 ELECTRON INTEGRALS
          ********************
 TIME TO DO   DIPOLE INTEGRALS=      0.00
 ...... END OF ONE-ELECTRON INTEGRALS ......
 CPU     0: STEP CPU TIME=     0.00 TOTAL CPU TIME=          0.0 (      0.0 MIN)
 TOTAL WALL CLOCK TIME=          0.1 SECONDS, CPU UTILIZATION IS    80.00%

          -------------
          GUESS OPTIONS
          -------------
          GUESS =MOREAD            NORB  =      29          NORDER=       0
          MIX   =       F          PRTMO =       F          PUNMO =       F
          TOLZ  = 1.0E-08          TOLE  = 1.0E-05
          SYMDEN=       F          PURIFY=       T

 INITIAL GUESS ORBITALS GENERATED BY MOREAD   ROUTINE.

 STATISTICS FOR GENERATION OF SYMMETRY ORBITAL -Q- MATRIX
 NUMBER OF CARTESIAN ATOMIC ORBITALS=         30
 NUMBER OF SPHERICAL CONTAMINANTS DROPPED=     1
 NUMBER OF LINEARLY DEPENDENT MOS DROPPED=     0
 TOTAL NUMBER OF MOS IN VARIATION SPACE=      29
 ORBITAL PURIFICATION WILL OCCUR

 SYMMETRIES FOR INITIAL GUESS ORBITALS FOLLOW.   BOTH SET(S).
     5 ORBITALS ARE OCCUPIED (    1 CORE ORBITALS).
     1=A        2=A        3=A        4=A        5=A        6=A        7=A   
     8=A        9=A       10=A       11=A       12=A       13=A       14=A   
    15=A       16=A       17=A       18=A       19=A       20=A       21=A   
    22=A       23=A       24=A       25=A       26=A       27=A       28=A   
    29=A   
 ...... END OF INITIAL ORBITAL SELECTION ......
 CPU     0: STEP CPU TIME=     0.01 TOTAL CPU TIME=          0.0 (      0.0 MIN)
 TOTAL WALL CLOCK TIME=          0.1 SECONDS, CPU UTILIZATION IS    83.33%

                    ----------------------
                    AO INTEGRAL TECHNOLOGY
                    ----------------------
     S,P,L SHELL ROTATED AXIS INTEGRALS, REPROGRAMMED BY
        KAZUYA ISHIMURA (IMS) AND JOSE SIERRA (SYNSTAR).
     S,P,D,L SHELL ROTATED AXIS INTEGRALS PROGRAMMED BY
        KAZUYA ISHIMURA (INSTITUTE FOR MOLECULAR SCIENCE).
     S,P,D,F,G SHELL TO TOTAL QUARTET ANGULAR MOMENTUM SUM 5,
        ERIC PROGRAM BY GRAHAM FLETCHER (ELORET AND NASA ADVANCED
        SUPERCOMPUTING DIVISION, AMES RESEARCH CENTER).
     S,P,D,F,G,L SHELL GENERAL RYS QUADRATURE PROGRAMMED BY
        MICHEL DUPUIS (PACIFIC NORTHWEST NATIONAL LABORATORY).

          --------------------
          2 ELECTRON INTEGRALS
          --------------------

 DIRECT SCF METHOD SKIPS INTEGRAL STORAGE ON DISK.
 DIRECT TRANSFORMATION SKIPS AO INTEGRAL STORAGE ON DISK.
  ...... END OF TWO-ELECTRON INTEGRALS .....
 STEP CPU TIME =     0.02 TOTAL CPU TIME =          0.1 (      0.0 MIN)
 TOTAL WALL CLOCK TIME=          0.1 SECONDS, CPU UTILIZATION IS    87.50%
 DDI: Creating Array [0] - 900 x 36 = 32400 words.
 DDI: Creating Array [1] - 21 x 288 = 6048 words.
 DDI: Creating Array [2] - 36 x 36 = 1296 words.
 DDI: Creating Array [3] - 465 x 36 = 16740 words.

          -----------------
          MCSCF CALCULATION
          -----------------

 ----- NUCLEAR ENERGY ----- =        11.2402132577

     -------------------------------------------------
     GMC-PT/GMC-QDPT or general MCSCF input parameters
     -------------------------------------------------
 # of frozen core orbs. =         0 ->         0
 # of doubly occ. orbs. =         1
 # of active      orbs. =         7
 # of virtual     orbs. =        21
 # of active electrons  =         7
 # of states in CI      =         3
 Highest state in CI    =         3
 kstate =  1 1 1
 avecoe =  0.333 0.333 0.333
 State symmetry           = A           
 Assigned symmetry number = 1

 <<<Act. MO sym.: 1111111

 <<<Division of 1-ext.:  0
 <<<Division of 2-ext.:  0

 *** Reference space

 Reference type: ORMAS (= Occupation restricted multiple active space)
 # of orbitals          =  7
 # of minimum electrons =  7
 # of maximum electrons =  7
 State symmetry    =    1 (input)
 2*Sz              =    1 (input)
 Spin multiplicity =    2 (input)
 Dimension of reference space =      1225  (from      3432 walks)

 Dimension of reference space =      1225  (from      1225 walks)

 <<<Ionized spaces for Ref-CI:
      0:         1225 /   -1-0:         1960 /  0-1-0:         2891

 EVALUATING EXCHANGE INTEGRALS FOR DIRECT INTEGRAL TRANSFORMATION
 SCHWARZ INEQUALITY OVERHEAD:       465 INTEGRALS, T=        0.00

     --------------------------------------------
     PARTIAL TWO ELECTRON INTEGRAL TRANSFORMATION
     --------------------------------------------

 NUMBER OF CORE MOLECULAR ORBITALS     =    1
 NUMBER OF OCCUPIED MOLECULAR ORBITALS =    8
 TOTAL NUMBER OF MOLECULAR ORBITALS    =   29
 TOTAL NUMBER OF ATOMIC ORBITALS       =   30
 THRESHOLD FOR KEEPING TRANSFORMED 2E- INTEGRALS = 1.000E-09

 -------------------------------     ------------------------------
 DISTRIBUTED DATA TRANSFORMATION     PROGRAM WRITTEN BY G. FLETCHER
 -------------------------------     ------------------------------

 THE DISTRIBUTED MEMORY REQUIRED FOR THIS STEP IS MEMDDI=         1 MWORDS
 CREATING DISTRIBUTED STORAGE FOR [VIR OCC|VIR OCC] INTEGRALS
 CREATING DISTRIBUTED STORAGE FOR [VIR OCC|OCC OCC] INTEGRALS
 CREATING DISTRIBUTED STORAGE FOR [OCC OCC|OCC OCC] INTEGRALS
 CREATING DISTRIBUTED STORAGE FOR [VIR VIR|OCC OCC] INTEGRALS
 FOR    1 PROCESSORS, THE REPLICATED MEMORY NEEDED IS       73700 WORDS.
 SCHWARZ INEQUALITY OVERHEAD:       465 INTEGRALS, T=        0.01

      DIRECT 4-INDEX TRANSFORMATION 
      SCHWARZ INEQUALITY TEST SKIPPED          0 INTEGRAL BLOCKS
 ----- FROZEN CORE ENERGY =       -47.6606170237
 ... END OF INTEGRAL TRANSFORMATION ...
 CPU     0: STEP CPU TIME=     0.21 TOTAL CPU TIME=          0.3 (      0.0 MIN)
 TOTAL WALL CLOCK TIME=          0.3 SECONDS, CPU UTILIZATION IS    93.33%

     --------------------------------     -----------------------------
     MCHF NEWTON-RAPHSON OPTIMIZATION     CODE WRITTEN BY MICHEL DUPUIS
     --------------------------------     -----------------------------
     PARALLEL VERSION WRITTEN BY G. FLETCHER (ELORET)
     NASA ADVANCED SUPERCOMPUTING DIVISION, AMES RESEARCH CENTER

 NUMBER OF INDEPENDENT ORBITAL ROTATION PARAMETERS =   175
 ..... DONE SOLVING NEWTON-RAPHSON EQUATIONS .....
 CPU     0: STEP CPU TIME=     0.79 TOTAL CPU TIME=          1.1 (      0.0 MIN)
 TOTAL WALL CLOCK TIME=          1.1 SECONDS, CPU UTILIZATION IS    99.07%
 ..... DONE WITH NTN-RPH ORBITAL ROTATIONS ..... 
 CPU     0: STEP CPU TIME=     0.00 TOTAL CPU TIME=          1.1 (      0.0 MIN)
 TOTAL WALL CLOCK TIME=          1.1 SECONDS, CPU UTILIZATION IS    99.07%
 MAXIMUM MEMORY USED BY NTN-RPH CODE WAS     57645 WORDS.

 ITER     TOTAL ENERGY      DEL(E)  LAGRANGIAN ASYMMETRY   SQCDF  MICIT   DAMP
   1      -55.624876677 -0.624876677  0.114727   12    5 1.184E-01  1   0.0000
   2      -55.674916362 -0.050039685  0.020423   12    5 4.584E-01  1   0.0000
   3      -55.710092227 -0.035175865  0.013364   11    6 2.229E-01  1   0.0214
   4      -55.725568663 -0.015476436  0.004609   11    6 4.177E-02  1   0.0052
   5      -55.727555780 -0.001987118  0.000817   23    5 1.041E-03  1   0.0000
   6      -55.727610662 -0.000054881  0.000350   23    5 7.676E-05  1   0.0000
   7      -55.727616088 -0.000005426  0.000156   23    5 1.397E-05  1   0.0000
   8      -55.727617134 -0.000001046  0.000075   23    5 3.238E-06  1   0.0000
   9      -55.727617377 -0.000000243  0.000038   23    5 8.625E-07  1   0.0000
  10      -55.727617441 -0.000000064  0.000020   23    5 2.516E-07  1   0.0000
  11      -55.727617459 -0.000000018  0.000011   23    5 7.776E-08  1   0.0000
  12      -55.727617465 -0.000000005  0.000006   23    5 2.496E-08  1   0.0000
  13      -55.727617466 -0.000000002  0.000003   23    5 8.250E-09  1   0.0000
  14      -55.727617467 -0.000000001  0.000002   23    5 2.784E-09  1   0.0000
  15      -55.727617467 -0.000000000  0.000001   23    5 9.517E-10  1   0.0000

          --------------------
          LAGRANGIAN CONVERGED
          --------------------

 FINAL MCSCF ENERGY IS      -55.7276174671 AFTER  15 ITERATIONS

 -MCCI- BASED ON OPTIMIZED ORBITALS
 ----------------------------------

 PLEASE NOTE: IF THE ACTIVE ORBITALS ARE CANONICALIZED BELOW,
 THE FOLLOWING CI EXPANSION COEFFICIENTS AND THE DENSITY DO NOT
 CORRESPOND TO THE PRINTED ORBITALS.  THE PRINTED EXPANSIONS MATCH
 THE ORBITALS USED DURING THE LAST ITERATION.  IF YOU WISH TO SEE
 CI EXPANSIONS BASED ON THE CANONICAL (OR NATURAL) ORBITALS, YOU
 MUST RUN A CI CALCULATION WITH THAT ORBITAL CHOICE READ IN $VEC.

 Averaged energy =     -55.727617467

 State #    1  Energy =     -55.866366018  S =  0.500

      Det      Coef    Occupancy (Ignoring core)
      ---      ----    --------- --------- -----
        1   -0.910976  11110001110000
        2   -0.051384  11101001110000
        5    0.068707  01111001110000
        8    0.128923  10110101110000
       17   -0.136575  11010011110000
       36   -0.234076  11110001101000
       71   -0.112751  11110001011000
      211   -0.051333  11110000110100
      386   -0.102335  11110001010010
      393   -0.055018  10110101010010
      701    0.097472  11110001100001
      717   -0.064702  11010011100001

 State #    2  Energy =     -55.730852251  S =  0.500

      Det      Coef    Occupancy (Ignoring core)
      ---      ----    --------- --------- -----
        1    0.241121  11110001110000
       36   -0.669758  11110001101000
       43    0.073104  10110101101000
       52   -0.067738  11010011101000
       71   -0.641400  11110001011000
       78    0.060172  10110101011000
       87   -0.071979  11010011011000
      456   -0.067617  11110001001010
      701   -0.058615  11110001100001
      806   -0.065416  11110001001001

 State #    3  Energy =     -55.585634132  S =  0.500

      Det      Coef    Occupancy (Ignoring core)
      ---      ----    --------- --------- -----
        1    0.076716  11110001110000
       36   -0.645810  11110001101000
       43    0.058893  10110101101000
       71    0.709249  11110001011000
       87    0.064579  11010011011000
      281   -0.050746  11110000101100
      316    0.057916  11110000011100
      456   -0.063224  11110001001010
      806    0.087641  11110001001001
      822   -0.054022  11010011001001

 DENSITY MATRIX OVER ACTIVE MO-S

             1           2           3           4           5

    1    1.9750680
    2   -0.0090724   1.6307786
    3    0.0206025   0.0045667   1.6291909
    4   -0.0002503  -0.0033244   0.0052102   1.6521618
    5    0.1061460   0.0211567  -0.0481028   0.0318598   0.0319841
    6   -0.0094596  -0.1467921  -0.0076166  -0.0206331  -0.0056644
    7    0.0025163   0.0112038  -0.1596950   0.0549956   0.0085943

             6           7

    6    0.0367606
    7   -0.0059186   0.0440560

 FORMING THE "STANDARD FOCK OPERATOR" IN DIRECT AO INTEGRAL MODE...
 ONLY THE    1 CORE AND   21 VIRTUAL ORBITALS WILL BE CANONICALIZED

          ----------------------
          MCSCF NATURAL ORBITALS
          ----------------------

                      1          2          3          4          5
                  -15.9821     1.9820     1.6552     1.6486     1.6413
                     A          A          A          A          A   
    1  N  1  S    1.001135   0.009236  -0.009327  -0.002126   0.003041
    2  N  1  S   -0.001937   0.435812  -0.163071  -0.080861   0.067075
    3  N  1  S   -0.006315   0.317884  -0.261630  -0.110209   0.101879
    4  N  1  X   -0.000121  -0.017790  -0.031201   0.275461   0.421632
    5  N  1  Y   -0.000008   0.042905  -0.149005   0.363098  -0.321809
    6  N  1  Z    0.001110   0.089823   0.578308   0.111650  -0.011261
    7  N  1  X   -0.000029   0.002136   0.003218   0.095742   0.223580
    8  N  1  Y    0.000008   0.002361  -0.101919   0.135051  -0.178400
    9  N  1  Z   -0.000501   0.012944   0.384451   0.055080   0.022109
   10  N  1 XX    0.000088  -0.000458  -0.010759  -0.005378   0.008286
   11  N  1 YY    0.000083   0.000194  -0.012180   0.000145  -0.007517
   12  N  1 ZZ   -0.000171   0.000263   0.022939   0.005233  -0.000768
   13  N  1 XY    0.000329   0.002957   0.001987  -0.006119   0.013780
   14  N  1 XZ   -0.000072   0.000326  -0.003443   0.010609   0.018652
   15  N  1 YZ    0.000141   0.002831  -0.001407   0.017592  -0.015347
   16  H  2  S   -0.001843   0.212778   0.089371   0.194221  -0.327585
   17  H  2  S    0.000279   0.008577   0.022679   0.029144  -0.092100
   18  H  2  X   -0.000296   0.011309   0.006776   0.024967   0.001527
   19  H  2  Y    0.000823  -0.031903  -0.018330  -0.005408   0.023693
   20  H  2  Z    0.000529  -0.016797   0.019883  -0.007075   0.020762
   21  H  3  S   -0.001836   0.168409   0.167377  -0.338508  -0.000061
   22  H  3  S    0.000596  -0.000530   0.036746  -0.043268   0.013445
   23  H  3  X   -0.000689   0.022322   0.015629  -0.027944   0.010759
   24  H  3  Y   -0.000705   0.025041   0.012349  -0.022732  -0.018069
   25  H  3  Z    0.000336  -0.003596   0.017582   0.015876  -0.000837
   26  H  4  S   -0.001569   0.167251   0.055451   0.267306   0.252138
   27  H  4  S    0.000410  -0.001133   0.025071   0.037011   0.076375
   28  H  4  X    0.000758  -0.028123  -0.007398  -0.033157  -0.014144
   29  H  4  Y    0.000320  -0.011854  -0.005112  -0.001992  -0.025146
   30  H  4  Z    0.000377  -0.006424   0.022332  -0.006117  -0.009548

                      6          7          8
                    0.0313     0.0224     0.0192
                     A          A          A   
    1  N  1  S   -0.116620  -0.155916  -0.107650
    2  N  1  S   -0.386565  -0.545633  -0.329882
    3  N  1  S    0.004085  -0.197881  -0.012431
    4  N  1  X   -0.492698   0.008991   0.737871
    5  N  1  Y    0.469695  -0.522621   0.484244
    6  N  1  Z   -0.167129  -0.604208  -0.200091
    7  N  1  X    0.031333  -0.012206   0.064106
    8  N  1  Y   -0.031579  -0.092073   0.038258
    9  N  1  Z    0.050809   0.059034   0.058527
   10  N  1 XX    0.024117  -0.019226   0.036464
   11  N  1 YY   -0.020575   0.016264  -0.029559
   12  N  1 ZZ   -0.003542   0.002963  -0.006905
   13  N  1 XY    0.063128   0.025468  -0.007251
   14  N  1 XZ    0.011160   0.000676  -0.047063
   15  N  1 YZ    0.001789   0.051822  -0.015000
   16  H  2  S   -0.430290   0.725873   0.097870
   17  H  2  S   -0.150796   0.130334   0.025774
   18  H  2  X    0.006088   0.048859  -0.029451
   19  H  2  Y    0.016691  -0.052352  -0.034312
   20  H  2  Z    0.022361   0.002251  -0.002362
   21  H  3  S    0.373897   0.126685   0.760116
   22  H  3  S    0.066133  -0.010293   0.146281
   23  H  3  X    0.036156   0.015711   0.053340
   24  H  3  Y    0.014326   0.021493   0.060089
   25  H  3  Z   -0.002823   0.007904   0.024020
   26  H  4  S    0.624609   0.356513  -0.367335
   27  H  4  S    0.156939   0.038423  -0.107838
   28  H  4  X   -0.048426  -0.051588   0.031620
   29  H  4  Y   -0.042545   0.003867   0.001100
   30  H  4  Z   -0.001697   0.028079  -0.008186

          ------------------------
          MCSCF OPTIMIZED ORBITALS
          ------------------------

                      1          2          3          4          5
                  -15.9821     0.0000     0.0000     0.0000     0.0000
                     A          A          A          A          A   
    1  N  1  S    1.001135  -0.002351   0.000573   0.010410  -0.015299
    2  N  1  S   -0.001937   0.399838   0.002590  -0.015461  -0.194190
    3  N  1  S   -0.006315   0.315545   0.029343  -0.090612  -0.279370
    4  N  1  X   -0.000121  -0.008920   0.418073  -0.065996   0.001824
    5  N  1  Y   -0.000008   0.013557  -0.005879   0.421862  -0.037554
    6  N  1  Z    0.001110   0.051576  -0.005405   0.006508   0.580620
    7  N  1  X   -0.000029   0.011370   0.227539  -0.079616   0.018055
    8  N  1  Y    0.000008  -0.014314  -0.043691   0.229523  -0.067678
    9  N  1  Z   -0.000501   0.017529   0.008512  -0.043951   0.389152
   10  N  1 XX    0.000088   0.000352   0.002950  -0.012115  -0.010470
   11  N  1 YY    0.000083  -0.000395  -0.003411   0.010848  -0.012825
   12  N  1 ZZ   -0.000171   0.000043   0.000460   0.001267   0.023296
   13  N  1 XY    0.000329   0.006604   0.010916  -0.017573   0.002711
   14  N  1 XZ   -0.000072   0.000664   0.025150  -0.001590  -0.001844
   15  N  1 YZ    0.000141   0.003837   0.001169   0.025315   0.002520
   16  H  2  S   -0.001843   0.213609  -0.167053   0.397304   0.120916
   17  H  2  S    0.000279   0.005426  -0.064144   0.091241   0.025025
   18  H  2  X   -0.000296   0.012698   0.018795   0.019447   0.011579
   19  H  2  Y    0.000823  -0.032899   0.020169  -0.018400  -0.019557
   20  H  2  Z    0.000529  -0.014864   0.010972  -0.024398   0.018166
   21  H  3  S   -0.001836   0.203051  -0.264135  -0.342270   0.119017
   22  H  3  S    0.000596   0.004558  -0.027205  -0.061220   0.031025
   23  H  3  X   -0.000689   0.025934  -0.013001  -0.034755   0.011424
   24  H  3  Y   -0.000705   0.026872  -0.033027  -0.010208   0.009339
   25  H  3  Z    0.000336  -0.003448   0.005828   0.008113   0.020578
   26  H  4  S   -0.001569   0.200674   0.418064   0.015821   0.122379
   27  H  4  S    0.000410   0.006291   0.096069  -0.031196   0.034775
   28  H  4  X    0.000758  -0.031131  -0.035957  -0.014954  -0.015225
   29  H  4  Y    0.000320  -0.013969  -0.022226   0.018377  -0.006409
   30  H  4  Z    0.000377  -0.005565  -0.012796  -0.001172   0.020652

                      6          7          8          9         10
                    0.0000     0.0000     0.0000     0.1462     0.2035
                     A          A          A          A          A   
    1  N  1  S    0.214838  -0.023105  -0.051448  -0.131531   0.009596
    2  N  1  S    0.749782  -0.053866  -0.143632  -0.198815   0.004287
    3  N  1  S    0.185805  -0.011249   0.100082   1.329855  -0.184443
    4  N  1  X   -0.005913   0.928879  -0.012336   0.012909  -0.132391
    5  N  1  Y    0.085696   0.141362   0.883607  -0.045693  -0.084659
    6  N  1  Z    0.661609  -0.061738   0.082146  -0.197630   0.009318
    7  N  1  X   -0.015615   0.056474   0.049081  -0.019224   0.589673
    8  N  1  Y    0.071100   0.046043   0.069619   0.203683   0.568191
    9  N  1  Z   -0.079654   0.025470   0.015506   0.440037   0.014155
   10  N  1 XX   -0.004637   0.016912   0.043837   0.018345  -0.017174
   11  N  1 YY    0.003151  -0.013501  -0.035781   0.024721  -0.002828
   12  N  1 ZZ    0.001486  -0.003410  -0.008056  -0.043067   0.020002
   13  N  1 XY   -0.045831  -0.040728   0.026232   0.065926  -0.051283
   14  N  1 XZ    0.008956  -0.043144  -0.015225  -0.010982   0.066825
   15  N  1 YZ   -0.041063  -0.013483  -0.030618   0.063925   0.075176
   16  H  2  S   -0.462699   0.309098  -0.603553   0.249033   0.206355
   17  H  2  S   -0.056476   0.100575  -0.154631  -0.795934  -0.700052
   18  H  2  X   -0.035017  -0.026150  -0.033975   0.024455  -0.008048
   19  H  2  Y    0.046300  -0.036319   0.021636   0.099410   0.017313
   20  H  2  Z   -0.010460  -0.013513   0.010521   0.066255   0.039066
   21  H  3  S   -0.475414   0.397711   0.527338   0.313272  -0.531016
   22  H  3  S   -0.060921   0.082095   0.115580  -0.715767   1.901067
   23  H  3  X   -0.042372   0.022850   0.039254  -0.053415   0.087993
   24  H  3  Y   -0.040877   0.038977   0.026574  -0.071406   0.069386
   25  H  3  Z   -0.012608   0.022333   0.005421  -0.010741  -0.073954
   26  H  4  S   -0.447213  -0.618188   0.076253   0.381874   0.236128
   27  H  4  S   -0.065462  -0.169127   0.035030  -0.928794  -0.868512
   28  H  4  X    0.053590   0.050126   0.007022   0.045952   0.038864
   29  H  4  Y    0.013041   0.022750  -0.029558   0.066448   0.028865
   30  H  4  Z   -0.020839  -0.006929  -0.020543   0.036193   0.070546

                     11         12         13         14         15
                    0.2301     0.5338     0.6005     0.6738     0.7948
                     A          A          A          A          A   
    1  N  1  S    0.028267   0.084198   0.021704  -0.000608  -0.316172
    2  N  1  S    0.059942   0.111495   0.169005   0.020838  -0.732766
    3  N  1  S   -0.168689  -0.532374   0.438838   0.045218   1.160102
    4  N  1  X   -0.043729   0.308129   0.248419  -0.415554  -0.021510
    5  N  1  Y   -0.031752  -0.509192  -0.227743  -0.220950  -0.019665
    6  N  1  Z    0.041213   0.460057  -0.505497  -0.105455   0.259889
    7  N  1  X    0.459877  -0.476451  -0.683116   1.578335   0.116475
    8  N  1  Y   -0.144886   1.038484   0.847410   1.161018  -0.015367
    9  N  1  Z   -0.141634  -0.567472   0.990055   0.288417  -0.225136
   10  N  1 XX    0.058875  -0.009413   0.023970  -0.036098   0.141930
   11  N  1 YY   -0.049419   0.028164  -0.058427   0.045930  -0.106601
   12  N  1 ZZ   -0.009457  -0.018750   0.034458  -0.009832  -0.035329
   13  N  1 XY    0.061116  -0.002926  -0.051524   0.002650  -0.069635
   14  N  1 XZ    0.059434  -0.009855   0.003054  -0.067453  -0.069883
   15  N  1 YZ   -0.044340   0.020390  -0.019598  -0.050807   0.010701
   16  H  2  S   -0.599605  -0.073894  -0.740616  -0.186143   0.163319
   17  H  2  S    2.059096  -0.674940  -0.669366  -0.050180  -0.132272
   18  H  2  X    0.039929   0.029039  -0.148300  -0.101637  -0.429515
   19  H  2  Y   -0.075664   0.098447   0.037620   0.077454  -0.091497
   20  H  2  Z   -0.050077   0.030396   0.091372  -0.048863   0.054221
   21  H  3  S    0.121895   0.417418  -0.376715   0.628046  -0.065425
   22  H  3  S   -0.247056   0.418233   0.271184   0.667269  -0.280109
   23  H  3  X   -0.006557   0.040539  -0.051967   0.201308  -0.154478
   24  H  3  Y    0.034854   0.032788   0.096105   0.079185   0.177365
   25  H  3  Z   -0.009501  -0.057732   0.068602   0.138979   0.149100
   26  H  4  S    0.530862   0.268712  -0.140007  -0.706053   0.124884
   27  H  4  S   -1.749848   0.442231   0.448945  -0.562481  -0.328332
   28  H  4  X    0.060696  -0.052807   0.084751   0.184084   0.318465
   29  H  4  Y    0.007384   0.039294  -0.119344   0.147537  -0.254800
   30  H  4  Z    0.012963  -0.078453   0.004221  -0.130381  -0.113813

                     16         17         18         19         20
                    0.9959     1.0455     1.2148     1.3728     1.4324
                     A          A          A          A          A   
    1  N  1  S   -0.488487  -0.297560   0.003840  -0.324403  -0.328146
    2  N  1  S   -1.033019  -0.626393   0.005889  -0.690295  -0.684624
    3  N  1  S    2.034068   1.391756   0.003055   1.149872   1.274832
    4  N  1  X   -0.011868   0.088342  -0.251625  -0.007377  -0.046187
    5  N  1  Y   -0.089974  -0.000406  -0.124010  -0.032550   0.059391
    6  N  1  Z    0.132268   0.060487   0.024461  -0.038185  -0.023262
    7  N  1  X   -0.029779  -0.509208   0.855530  -0.037480  -0.169423
    8  N  1  Y    0.460034   0.092378   0.710632  -0.437953   0.471713
    9  N  1  Z   -0.025856   0.414787   0.074174   0.472503   0.646324
   10  N  1 XX   -0.147202  -0.068981   0.076213   0.135516  -0.014198
   11  N  1 YY   -0.083523   0.185542  -0.061816   0.056198   0.030049
   12  N  1 ZZ    0.230725  -0.116560  -0.014397  -0.191714  -0.015851
   13  N  1 XY    0.054894  -0.085203  -0.065411  -0.057119   0.100058
   14  N  1 XZ    0.024521   0.168091   0.128487  -0.012766   0.084386
   15  N  1 YZ   -0.049348  -0.157161  -0.009212   0.019857  -0.068934
   16  H  2  S   -0.470544  -0.318990  -0.063339  -0.230614  -0.445230
   17  H  2  S   -0.300721  -0.249996  -0.053409  -0.047040  -0.339494
   18  H  2  X    0.223361  -0.090788   0.098091   0.220076  -0.043238
   19  H  2  Y   -0.071217   0.403609   0.198176   0.242929   0.024075
   20  H  2  Z    0.337110  -0.452808  -0.004838  -0.366320   0.433904
   21  H  3  S   -0.168615  -0.343845   0.522725  -0.420960  -0.291758
   22  H  3  S   -0.242216  -0.281590   0.251423  -0.200249  -0.013224
   23  H  3  X    0.011991   0.217484  -0.326547  -0.443909   0.194562
   24  H  3  Y   -0.032944  -0.413920   0.069698   0.503569  -0.233640
   25  H  3  Z    0.277664   0.035655  -0.417345  -0.072730  -0.650717
   26  H  4  S   -0.383201  -0.006255  -0.543732  -0.228535  -0.400592
   27  H  4  S   -0.220745  -0.041330  -0.159238  -0.038759   0.071702
   28  H  4  X   -0.099935   0.124712  -0.066113  -0.218409  -0.033434
   29  H  4  Y    0.123447  -0.070904  -0.550657   0.390525  -0.032334
   30  H  4  Z    0.367112   0.112032   0.405767  -0.255799  -0.565797

                     21         22         23         24         25
                    1.6319     1.8220     1.8685     1.9662     2.0922
                     A          A          A          A          A   
    1  N  1  S   -0.124095   0.114469   0.082588  -0.142166  -0.031158
    2  N  1  S   -0.232891   0.341729   0.213603  -0.310302  -0.051922
    3  N  1  S    0.627071   0.903058   0.092472   0.080887   0.235827
    4  N  1  X    0.106762  -0.105942   0.296128   0.339731  -0.038075
    5  N  1  Y   -0.151859   0.031798   0.515552  -0.010416  -0.069033
    6  N  1  Z   -0.018068   0.206354   0.163298  -0.114689   0.007559
    7  N  1  X    0.726915  -0.135805   0.312576  -0.115630   0.071986
    8  N  1  Y    0.446751  -0.186286   0.057161   0.142897  -0.145856
    9  N  1  Z    0.285589   0.312274   0.029882   0.083847   0.344863
   10  N  1 XX   -0.023907  -0.076697  -0.081882  -0.227203  -0.563476
   11  N  1 YY    0.118844  -0.043209  -0.011547   0.235057  -0.243914
   12  N  1 ZZ   -0.094937   0.119906   0.093429  -0.007854   0.807390
   13  N  1 XY   -0.060677  -0.178213   0.115337   0.052430   0.542327
   14  N  1 XZ   -0.126250   0.172729  -0.089194  -0.151258   0.011142
   15  N  1 YZ    0.035331  -0.130755  -0.221082   0.099598   0.263854
   16  H  2  S   -0.346062  -0.105430   0.070252  -0.021328  -0.059646
   17  H  2  S    0.221916   0.057595  -0.316065   0.321391   0.049941
   18  H  2  X   -0.389811   0.296056  -0.241008   0.761939  -0.336603
   19  H  2  Y   -0.541825   0.298195   0.589186  -0.339371   0.193639
   20  H  2  Z   -0.188246   0.289229   0.288106  -0.212976  -0.548982
   21  H  3  S    0.214709  -0.201566   0.049366  -0.003035  -0.125980
   22  H  3  S   -0.003794  -0.406181   0.384544   0.081111  -0.118893
   23  H  3  X   -0.231494  -0.714174   0.255998   0.225638  -0.288881
   24  H  3  Y   -0.199621  -0.440366   0.548117   0.306132  -0.026295
   25  H  3  Z   -0.519600   0.063841  -0.378043  -0.201438  -0.130740
   26  H  4  S   -0.323969  -0.074260  -0.048681  -0.103438  -0.079081
   27  H  4  S   -0.452102  -0.315120  -0.230750  -0.328021   0.003841
   28  H  4  X    0.173941   0.659632   0.348956   0.797360   0.053584
   29  H  4  Y    0.511606   0.342118   0.338956  -0.382185  -0.052478
   30  H  4  Z    0.442430  -0.229176   0.453093  -0.047146  -0.219018

                     26         27         28         29
                    2.2869     2.5727     2.6209     3.0674
                     A          A          A          A   
    1  N  1  S    0.090986  -0.036965  -0.140087  -0.051315
    2  N  1  S    0.161609   0.016177  -0.144238  -0.014961
    3  N  1  S   -0.537617   1.359536   1.904735   0.990283
    4  N  1  X   -0.053337  -0.400082   0.074794   0.064031
    5  N  1  Y   -0.029125  -0.069116   0.344488  -0.382597
    6  N  1  Z   -0.017307   0.198664   0.260292   0.048555
    7  N  1  X    0.243152  -1.111387   0.390450   0.066017
    8  N  1  Y   -0.168825  -0.203705   1.075285  -0.575777
    9  N  1  Z   -0.342854   0.373741   0.576337   0.034086
   10  N  1 XX   -0.648401  -0.243886   0.145831   0.848027
   11  N  1 YY    0.903655   0.558842   0.274542  -0.302468
   12  N  1 ZZ   -0.255254  -0.314955  -0.420373  -0.545559
   13  N  1 XY    0.224089   0.268539   0.188900   1.288395
   14  N  1 XZ    0.491252  -1.033499   0.306374   0.212350
   15  N  1 YZ   -0.245305  -0.000128   1.151659  -0.470576
   16  H  2  S    0.233293  -0.730016  -1.172426   0.772682
   17  H  2  S    0.096213  -0.340157  -0.442947   0.223737
   18  H  2  X   -0.366732  -0.035726  -0.326536   0.240208
   19  H  2  Y   -0.353706   0.583278   0.640820  -0.589361
   20  H  2  Z    0.264701   0.360954   0.492130  -0.405875
   21  H  3  S    0.134218  -1.122731   0.059523  -1.055604
   22  H  3  S    0.015478  -0.418389   0.144897  -0.301068
   23  H  3  X   -0.379337  -0.651404   0.163099  -0.587185
   24  H  3  Y    0.429591  -0.613137  -0.039899  -0.605029
   25  H  3  Z    0.245589   0.120818   0.231096   0.412291
   26  H  4  S    0.135883   0.410196  -0.945845  -0.769453
   27  H  4  S    0.058725   0.314321  -0.257822  -0.216966
   28  H  4  X   -0.119307  -0.334871   0.575576   0.701572
   29  H  4  Y   -0.164332  -0.382574   0.232981   0.283843
   30  H  4  Z   -0.051008   0.028066   0.253315   0.407064
 .....DONE WITH MCSCF ITERATIONS.....
 CPU     0: STEP CPU TIME=    10.24 TOTAL CPU TIME=         11.3 (      0.2 MIN)
 TOTAL WALL CLOCK TIME=         11.3 SECONDS, CPU UTILIZATION IS    99.91%

     ----------------------------------------------------------------
     PROPERTY VALUES FOR THE MCSCF SELF-CONSISTENT FIELD WAVEFUNCTION
     ----------------------------------------------------------------

          -----------------
          ENERGY COMPONENTS
          -----------------

         WAVEFUNCTION NORMALIZATION =       1.0000000000

                ONE ELECTRON ENERGY =     -94.0160305241
                TWO ELECTRON ENERGY =      27.0481997993
           NUCLEAR REPULSION ENERGY =      11.2402132577
                                      ------------------
                       TOTAL ENERGY =     -55.7276174671

 ELECTRON-ELECTRON POTENTIAL ENERGY =      27.0481997993
  NUCLEUS-ELECTRON POTENTIAL ENERGY =    -149.7539133874
   NUCLEUS-NUCLEUS POTENTIAL ENERGY =      11.2402132577
                                      ------------------
             TOTAL POTENTIAL ENERGY =    -111.4655003304
               TOTAL KINETIC ENERGY =      55.7378828632
                 VIRIAL RATIO (V/T) =       1.9998158273

          ---------------------------------------
          MULLIKEN AND LOWDIN POPULATION ANALYSES
          ---------------------------------------

     ATOMIC MULLIKEN POPULATION IN EACH MOLECULAR ORBITAL

                      1          2          3          4          5

                  2.000000   1.981985   1.655213   1.648613   1.641292

    1             2.000729   1.347119   1.526909   0.900809   1.128238
    2            -0.000297   0.280908   0.032965   0.123036   0.299322
    3            -0.000257   0.176539   0.081441   0.385265   0.008341
    4            -0.000176   0.177419   0.013898   0.239504   0.205391

                      6          7          8

                  0.031344   0.022379   0.019174

    1             0.013830   0.012036   0.010359
    2             0.003872   0.007917   0.000155
    3             0.003567   0.000182   0.007093
    4             0.010075   0.002244   0.001567
 WARNING! MCSCF POPULATIONS SHOWN ABOVE ARE FOR THE NATURAL ORBITALS.
 IGNORE THE ABOVE DATA FOR MCSCF FUNCTIONS WHICH ARE NOT OF -FORS- TYPE.
 THE FOLLOWING POPULATIONS ARE CORRECT FOR ANY MCSCF WAVEFUNCTION.

               ----- POPULATIONS IN EACH AO -----
                             MULLIKEN      LOWDIN
              1  N  1  S      2.00237     1.90184
              2  N  1  S      0.82127     0.57753
              3  N  1  S      0.68401     0.40882
              4  N  1  X      0.68280     0.61088
              5  N  1  Y      0.69128     0.62219
              6  N  1  Z      0.86801     0.81526
              7  N  1  X      0.32904     0.42344
              8  N  1  Y      0.31835     0.41699
              9  N  1  Z      0.52559     0.56363
             10  N  1 XX      0.00059     0.17254
             11  N  1 YY      0.00167     0.16501
             12  N  1 ZZ      0.00418     0.14356
             13  N  1 XY      0.00465     0.01134
             14  N  1 XZ      0.00622     0.00800
             15  N  1 YZ      0.00000     0.01287
             16  H  2  S      0.63374     0.48925
             17  H  2  S      0.05408     0.14687
             18  H  2  X      0.01392     0.03241
             19  H  2  Y      0.02684     0.04614
             20  H  2  Z      0.01930     0.04293
             21  H  3  S      0.57303     0.44668
             22  H  3  S      0.03303     0.14738
             23  H  3  X      0.02275     0.04281
             24  H  3  Y      0.02209     0.03856
             25  H  3  Z      0.01127     0.03025
             26  H  4  S      0.54886     0.42550
             27  H  4  S      0.04742     0.15010
             28  H  4  X      0.02847     0.04936
             29  H  4  Y      0.01310     0.02874
             30  H  4  Z      0.01207     0.02912

          ----- MULLIKEN ATOMIC OVERLAP POPULATIONS -----
          (OFF-DIAGONAL ELEMENTS NEED TO BE MULTIPLIED BY 2)

             1           2           3           4

    1    6.0832458
    2    0.2836700   0.4794816
    3    0.3021892  -0.0053561   0.3711093
    4    0.2709243  -0.0099180  -0.0057722   0.3946891

          TOTAL MULLIKEN AND LOWDIN ATOMIC POPULATIONS
       ATOM         MULL.POP.    CHARGE          LOW.POP.     CHARGE
    1 N             6.940029    0.059971         6.853912    0.146088
    2 H             0.747877    0.252123         0.757594    0.242406
    3 H             0.662170    0.337830         0.705683    0.294317
    4 H             0.649923    0.350077         0.682810    0.317190

          MULLIKEN SPHERICAL HARMONIC POPULATIONS
       ATOM           S       P       D      F      G      H      I    TOTAL
    1 N             3.51    3.42    0.02   0.00   0.00   0.00   0.00    6.94
    2 H             0.69    0.06    0.00   0.00   0.00   0.00   0.00    0.75
    3 H             0.61    0.06    0.00   0.00   0.00   0.00   0.00    0.66
    4 H             0.60    0.05    0.00   0.00   0.00   0.00   0.00    0.65

          ---------------------
          ELECTROSTATIC MOMENTS
          ---------------------

 POINT   1           X           Y           Z (BOHR)    CHARGE
                -0.000001    0.000004   -0.177185        1.00 (A.U.)
         DX          DY          DZ         /D/  (DEBYE)
    -0.107678    0.707491    2.141471    2.257883
 ...... END OF PROPERTY EVALUATION ......
 CPU     0: STEP CPU TIME=     0.00 TOTAL CPU TIME=         11.3 (      0.2 MIN)
 TOTAL WALL CLOCK TIME=         11.3 SECONDS, CPU UTILIZATION IS    99.82%

     -------------------------------------------------
     GMC-PT/GMC-QDPT or general MCSCF input parameters
     -------------------------------------------------
 # of frozen core orbs. =         0 ->         0
 # of doubly occ. orbs. =         1
 # of active      orbs. =         7
 # of virtual     orbs. =        21
 # of active electrons  =         7
 # of states in CI      =         3
 Highest state in CI    =         3
 kstate =  1 1 1
 avecoe =  0.333 0.333 0.333
 State symmetry           = A           
 Assigned symmetry number = 1

 <<<Act. MO sym.: 1111111

 <<<Division of 1-ext.:  0
 <<<Division of 2-ext.:  0

     ------------------------
     Orbital canonicalization
     ------------------------

 MOs are canonicalized for core, virtual, and invariant-active orbital spaces.
 This is a part of the GMC-QDPT calculation.
 SCHWARZ INEQUALITY OVERHEAD:       465 INTEGRALS, T=        0.01
 DIRECT TRANSFORMATION SKIPS AO INTEGRAL STORAGE ON DISK.

 Averaged energy =     -55.727617467

 State #    1  Energy =     -55.866366018  S =  0.500
 State #    2  Energy =     -55.730852251  S =  0.500
 State #    3  Energy =     -55.585634132  S =  0.500

 Orbital energies for filled orbital space
  -15.982122
 Orbital energies for active orbital space
   -1.505696  -0.980079  -0.833878  -0.732730   0.331315
    0.400904   0.173338
 Orbital energies for external orbital space
    0.146221   0.203463   0.230127   0.533840   0.600537
    0.673772   0.794799   0.995900   1.045460   1.214810
    1.372831   1.432367   1.631897   1.822043   1.868459
    1.966221   2.092201   2.286864   2.572666   2.620850
    3.067368

 Zero values mean non-canonical orbitals.
 ... done with orbital canonicalization ...
 CPU     0: STEP CPU TIME=     0.64 TOTAL CPU TIME=         12.0 (      0.2 MIN)
 TOTAL WALL CLOCK TIME=         12.0 SECONDS, CPU UTILIZATION IS    99.83%

     --------------------------------------------
     PARTIAL TWO ELECTRON INTEGRAL TRANSFORMATION
     --------------------------------------------

 NUMBER OF CORE MOLECULAR ORBITALS     =    0
 NUMBER OF OCCUPIED MOLECULAR ORBITALS =    8
 TOTAL NUMBER OF MOLECULAR ORBITALS    =   29
 TOTAL NUMBER OF ATOMIC ORBITALS       =   30
 THRESHOLD FOR KEEPING TRANSFORMED 2E- INTEGRALS = 1.000E-09
 AO INTEGRALS WILL BE CALCULATED IN DIRECT MODE...
 DIRECT TRANSFORMATION SKIPS AO INTEGRAL STORAGE ON DISK.
 SCHWARZ INEQUALITY OVERHEAD:       465 INTEGRALS, T=        0.00

 PLAN A: REQUIREMENTS FOR FULLY IN-MEMORY TRANSFORMATION:
 # OF WORDS AVAILABLE =            100000000
 # OF WORDS NEEDED    =               221798

 PARALLEL ONLY WORKS WITH THE SEGMENTED ALGORITHM.
 ADJUSTING MEMORY TO USE SEGMENTED ALGORITHM.


 PLAN B: REQUIREMENTS FOR THE SEGMENTED TRANSFORMATION:
       MINIMUM=         124148 WORDS FOR 1 MOLECULAR ORBITAL PER PASS
       MAXIMUM=         221798 WORDS FOR ALL MOLECULAR ORBITALS IN 1 PASS
              (          13950 EXTRA WORDS INCLUDES 1 EXTRA ORBITAL/PASS)
 THIS RUN USES=         221798 WORDS,
 DISTRIBUTING   1 PASSES EACH CONTAINING     8 ORBITALS OVER   1 PROCESSORS.

 CHOOSING SEGMENTED PARTIAL TRANSFORMATION...
 DIRECT TRANSFORMATION SKIPS AO INTEGRAL STORAGE ON DISK.
 PASS #   1 TOOK        0.04 SECONDS.
 TOTAL NUMBER OF TRANSFORMED 2E- INTEGRALS KEPT =        29226
 ... END OF INTEGRAL TRANSFORMATION ...
 CPU     0: STEP CPU TIME=     0.04 TOTAL CPU TIME=         12.0 (      0.2 MIN)
 TOTAL WALL CLOCK TIME=         12.0 SECONDS, CPU UTILIZATION IS    99.83%

     --------     ------------------------------------------
     GMC-QDPT     Program written by H.Nakano (Kyushu Univ.)
     --------     ------------------------------------------

 *** Reference space

 Reference type: ORMAS (= Occupation restricted multiple active space)
 # of orbitals          =  7
 # of minimum electrons =  7
 # of maximum electrons =  7
 State symmetry    =    1 (input)
 2*Sz              =    1 (input)
 Spin multiplicity =    2 (input)
 Dimension of reference space =      1225  (from      3432 walks)

 Dimension of reference space =      1225  (from      1225 walks)

 <<<Ionized spaces for Ref-CI:
      0:         1225 /   -1-0:         1960 /  0-1-0:         2891

 ***                    ***
 *** Reference space CI ***
 ***                    ***

 Converged after   39 iterations

 Reference wavefunctions:

 State #    1  Energy =     -55.866366018  S =  0.500

      Det      Coef    Occupancy (Ignoring core)
      ---      ----    --------- --------- -----
        1   -0.973844  11110001110000
       36    0.077556  11110001101000
      393   -0.055718  10110101010010
      717   -0.061305  11010011100001

 State #    2  Energy =     -55.730852251  S =  0.500

      Det      Coef    Occupancy (Ignoring core)
      ---      ----    --------- --------- -----
        1    0.081484  11110001110000
       36    0.978105  11110001101000
      463    0.056741  10110101001010

 State #    3  Energy =     -55.585634132  S =  0.500

      Det      Coef    Occupancy (Ignoring core)
      ---      ----    --------- --------- -----
       71   -0.977451  11110001011000
      248    0.050329  11011001001100
      822    0.062239  11010011001001

 Davidson method: CPU/Wall time =           0.50 /           0.49 sec.

 Oscillator strength (invalid if E(1)/=E(GS)):
 -----------------------------------------
   State                        f
 -----------------------------------------
     2     F(REF-CI)=        0.0019893200
     3     F(REF-CI)=        0.0033355140
 -----------------------------------------

 Dipole moment matrix elements, x, y, z, in A.U.

 Dimension of ionized spaces for PT:
 (N-2) space:         1715 /  (N-1) space:         2842 /  N space:         2891
 (N+1) space:         2842 /  (N+2) space:         1715

 <<<Ionized spaces for internal:
         0:         1225 /      -1-0:         1960 /     0-1-0:         2891
  -1-0-1-0:         2842 / 0-1-0-1-0:         3381

 Diagonal elements of averaged one-particle density matrix:
       2       3       4       5       6       7       8
  0.9933  0.9873  0.9853  0.9917  0.0127  0.0113  0.0183
  0.9885  0.6611  0.6571  0.6622  0.0100  0.0081  0.0129

 Orbital energies:
 -------- Doubly-occupied orbitals (highest several orbs.) -------
             1
 -1.598212D+01
 -------- Active orbitals ----------------------------------------
             2            3            4            5            6
 -1.505696D+00-9.800788D-01-8.338777D-01-7.327304D-01 3.313153D-01
             7            8
  4.009037D-01 1.733383D-01
 -------- External orbitals (lowest several orbs.) ---------------
             9           10           11           12           13
  1.462215D-01 2.034627D-01 2.301266D-01 5.338399D-01 6.005371D-01
            14           15           16           17           18
  6.737724D-01 7.947989D-01 9.958999D-01 1.045460D+00 1.214810D+00

 *** Quasi-degeneracy checking

 === Det (|Ci| > 1.0D-01 and dE < 5.0D-03)

 # of small denominators (single excitations)
 State       dEmin  dE < 5.0D-03  dE < 5.0D-04  dE < 5.0D-05  dE < 5.0D-06
 ----- ----------- ------------- ------------- ------------- -------------
     1    5.00D-03             0             0             0             0
     2    5.00D-03             0             0             0             0
     3    5.00D-03             0             0             0             0

 # of small denominators (double excitations)
 State       dEmin  dE < 5.0D-03  dE < 5.0D-04  dE < 5.0D-05  dE < 5.0D-06
 ----- ----------- ------------- ------------- ------------- -------------
     1    5.00D-03             0             0             0             0
     2    5.00D-03             0             0             0             0
     3    5.00D-03             0             0             0             0

 *** Zeroth-Order Setup (Granovsky's zeroth-order vectors)
 Zeroth-order effective Hamiltonian
  (= Sum_i e(i)*<I|a+(i)a(i)|J> ):
                   1            2            3
     1 -7.265736D+00
     2  1.422260D-02-7.185272D+00
     3  1.422660D-03 4.342397D-03-7.030385D+00

 Zeroth-order vectors:
 State #    1
       MC st            1           2           3
       Coeff    9.856D-01  -1.689D-01  -2.812D-03
 State #    2
       MC st            2           1           3
       Coeff   -9.852D-01  -1.688D-01   2.961D-02
 State #    3
       MC st            3           2           1
       Coeff    9.996D-01   2.871D-02   7.773D-03

 *** GMC-QDPT computation

 (Integral reading:  CPU/Wall time =           0.00 /           0.00 sec.)

 One-external:
   0 -ionized terms: CPU/Wall time =           0.03 /           0.03 sec.
 (-1)-ionized terms: CPU/Wall time =           0.09 /           0.08 sec.
 (+1)-ionized terms: CPU/Wall time =           0.02 /           0.03 sec.
 (+1)-ionized terms: CPU/Wall time =           0.01 /           0.01 sec.
 (+2)-ionized terms: CPU/Wall time =           0.00 /           0.00 sec.

 Internal:
 # of macro loops for internal contribution =         1 (input)
 Loop:    1
 Dimension of internal CISD space     =         0  (after screening)
 Space construction: CPU/Wall time =           0.02 /           0.01 sec.
 Internal terms:     CPU/Wall time =           0.00 /           0.00 sec.

 Two-external:
   0 -ionized terms: CPU/Wall time =           0.06 /           0.06 sec.
 (-1)-ionized terms: CPU/Wall time =           1.00 /           0.99 sec.
 (-2)-ionized terms: CPU/Wall time =           0.17 /           0.17 sec.

 Total time:         CPU/Wall time =           1.40 /           1.38 sec.

 ***                  ***
 *** GMC-QDPT Results ***
 ***                  ***

 Diagonal elements of effective Hamiltonian:
 Heff(  1) =   -55.96147648
 Heff(  2) =   -55.84207078
 Heff(  3) =   -55.69684684

 Off-diagonal elements of effective Hamiltonian:
                   1            2
     2  2.003807D-02
     3 -9.846169D-04 4.190670D-03

 ******** GMC-QDPT energies ********
 ----------------------------------------------------------------------------
   State                        1st order                           2nd order
 ----------------------------------------------------------------------------
     1     E(REF-CI)=      -55.8663660185   E(GMC-QDPT2)=      -55.9647595907
     2     E(REF-CI)=      -55.7308522514   E(GMC-QDPT2)=      -55.8389091276
     3     E(REF-CI)=      -55.5856341315   E(GMC-QDPT2)=      -55.6967253810
 ----------------------------------------------------------------------------

 Excitation energies (invalid if E(1)/=E(GS)):
 ----------------------------------------------------------------------------
   State                        1st order                           2nd order
 ----------------------------------------------------------------------------

     TZ Sorted GMC-PT ENERGIES:
         1      -55.9647595907
         2      -55.8389091276
         3      -55.6967253810
     2     E(REF-CI)=        3.6875193 eV   E(GMC-QDPT2)=        3.4245673 eV
     3     E(REF-CI)=        7.6391077 eV   E(GMC-QDPT2)=        7.2935861 eV
 ----------------------------------------------------------------------------

 Main characters of perturbed GMC-QDPT states:

 State #    1  Energy =     -55.964759591  S =  0.500

      Det      Coef    Occupancy (Ignoring core)
      ---      ----    --------- --------- -----
        1   -0.974429  11110001110000
       36    0.070206  11110001101000
      393   -0.055722  10110101010010
      717   -0.061157  11010011100001

 State #    2  Energy =     -55.838909128  S =  0.500

      Det      Coef    Occupancy (Ignoring core)
      ---      ----    --------- --------- -----
        1    0.074140  11110001110000
       36    0.978678  11110001101000
      463    0.056765  10110101001010

 State #    3  Energy =     -55.696725381  S =  0.500

      Det      Coef    Occupancy (Ignoring core)
      ---      ----    --------- --------- -----
       71   -0.977465  11110001011000
      248    0.050311  11011001001100
      822    0.062247  11010011001001

 <<<Max |V/de| = 2.591D-02  Thresh = 1.000D+00

 Oscillator strength (invalid if E(1)/=E(GS)):
 ----------------------------------------------------------------------------
   State                        1st order                           2nd order
 ----------------------------------------------------------------------------
     2     F(REF-CI)=        0.0019893200     F(GMC-PT2)=        0.0019230997
     3     F(REF-CI)=        0.0033355140     F(GMC-PT2)=        0.0032705579
 ----------------------------------------------------------------------------

 Dipole moment matrix elements, x, y, z, in A.U.
States    1    1       -0.0327852884        0.2922428710        0.6991009989
States    1    2        0.0043037427        0.0257514003        0.1491294423
States    1    3       -0.0932702205       -0.0813460911        0.0546489199
States    2    1        0.0043037427        0.0257514003        0.1491294423
States    2    2       -0.1840285216        0.2064968441        0.3095623176
States    2    3        0.2002537564        0.0404231428       -0.0020891253
States    3    1       -0.0932702205       -0.0813460911        0.0546489199
States    3    2        0.2002537564        0.0404231428       -0.0020891253
States    3    3        0.0298152918        0.5509641115        0.2759467407

 Oscillator strength (valid only when positive): 
 ----------------------------------------------------------------------------
  States                        1st order                           2nd order
 ----------------------------------------------------------------------------
  1  1     F(REF-CI)=        0.0000000000     F(GMC-PT2)=        0.0000000000
  1  2     F(REF-CI)=       -0.0019893200     F(GMC-PT2)=       -0.0019230997
  1  3     F(REF-CI)=       -0.0033355140     F(GMC-PT2)=       -0.0032705579
  2  1     F(REF-CI)=        0.0019893200     F(GMC-PT2)=        0.0019230997
  2  2     F(REF-CI)=        0.0000000000     F(GMC-PT2)=        0.0000000000
  2  3     F(REF-CI)=       -0.0040813149     F(GMC-PT2)=       -0.0039564961
  3  1     F(REF-CI)=        0.0033355140     F(GMC-PT2)=        0.0032705579
  3  2     F(REF-CI)=        0.0040813149     F(GMC-PT2)=        0.0039564961
  3  3     F(REF-CI)=        0.0000000000     F(GMC-PT2)=        0.0000000000
 CPU     0: STEP CPU TIME=     1.97 TOTAL CPU TIME=         14.0 (      0.2 MIN)
 TOTAL WALL CLOCK TIME=         14.0 SECONDS, CPU UTILIZATION IS    99.93%

     !!! DIABATIZATION FOR REF CI STATES !!!

 *******************************************************
          $DMO GROUP FOUND IN THE INPUT.
        DIABATIZATION OF ADIABATIC STATES BEGINS.
     PROGRAMMED BY TAO ZENG (CARLETON UNIVERSITY).
               Email: toby.zeng@carleton.ca
     See T. Zeng, J. Chem. Phys. 2017, 146, 144103
 *******************************************************

 *************************************************************************
     STEP 1: TRANSFORMATION OF ADIABATIC STATES TO THE DMO REPRESENTATION
         See Atchity and Ruedenberg, J. Chem. Phys. 1999, 111, 2910
 *************************************************************************

Read in Diabatic Molecualr Orbitals:

                      1          2          3          4          5

    1  N  1  S    0.008609   0.000000   0.000000  -0.013219   0.279491
    2  N  1  S    0.442914  -0.000000   0.000000  -0.184329   0.867803
    3  N  1  S    0.276913   0.000000  -0.000000  -0.288315   0.144236
    4  N  1  X   -0.000000   0.493155  -0.024636  -0.000000  -0.000000
    5  N  1  Y    0.000000   0.024636   0.493155  -0.000000   0.000000
    6  N  1  Z    0.090197   0.000000   0.000000   0.593421   0.705309
    7  N  1  X   -0.000000   0.210628  -0.010522   0.000000   0.000000
    8  N  1  Y    0.000000   0.010522   0.210628  -0.000000  -0.000000
    9  N  1  Z   -0.004381   0.000000   0.000000   0.381592  -0.106092
   10  N  1 XX   -0.000457   0.010719  -0.000535  -0.012387   0.006153
   11  N  1 YY   -0.000457  -0.010719   0.000535  -0.012387   0.006153
   12  N  1 ZZ    0.000914  -0.000000   0.000000   0.024773  -0.012306
   13  N  1 XY    0.000000  -0.000618  -0.012377  -0.000000   0.000000
   14  N  1 XZ   -0.000000   0.026529  -0.001325  -0.000000   0.000000
   15  N  1 YZ    0.000000   0.001325   0.026529  -0.000000   0.000000
   16  H  2  S    0.194462  -0.176074   0.343485   0.112865  -0.523343
   17  H  2  S    0.003574  -0.023812   0.046452   0.024014  -0.054445
   18  H  2  X    0.018760   0.009101   0.022834   0.009336  -0.039151
   19  H  2  Y   -0.032493   0.022287  -0.020044  -0.016171   0.067811
   20  H  2  Z   -0.009251   0.008464  -0.016511   0.018769  -0.010566
   21  H  3  S    0.194462  -0.209430  -0.324227   0.112865  -0.523343
   22  H  3  S    0.003574  -0.028322  -0.043847   0.024014  -0.054445
   23  H  3  X    0.018760   0.006781  -0.023627   0.009336  -0.039151
   24  H  3  Y    0.032493  -0.024174  -0.017723   0.016171  -0.067811
   25  H  3  Z   -0.009251   0.010067   0.015585   0.018769  -0.010566
   26  H  4  S    0.194462   0.385503  -0.019258   0.112865  -0.523343
   27  H  4  S    0.003574   0.052134  -0.002604   0.024014  -0.054445
   28  H  4  X   -0.037519  -0.032295   0.001613  -0.018672   0.078302
   29  H  4  Y    0.000000   0.001067   0.021353  -0.000000   0.000000
   30  H  4  Z   -0.009251  -0.018530   0.000926   0.018769  -0.010566

                      6          7

    1  N  1  S    0.000000  -0.000000
    2  N  1  S    0.000000  -0.000000
    3  N  1  S   -0.000000   0.000000
    4  N  1  X   -0.930415  -0.002083
    5  N  1  Y   -0.002083   0.930415
    6  N  1  Z   -0.000000   0.000000
    7  N  1  X   -0.046866  -0.000105
    8  N  1  Y   -0.000105   0.046866
    9  N  1  Z   -0.000000   0.000000
   10  N  1 XX    0.001538   0.000003
   11  N  1 YY   -0.001538  -0.000003
   12  N  1 ZZ   -0.000000   0.000000
   13  N  1 XY   -0.000004   0.001776
   14  N  1 XZ    0.039985   0.000090
   15  N  1 YZ    0.000090  -0.039985
   16  H  2  S   -0.362630  -0.631354
   17  H  2  S   -0.065964  -0.114846
   18  H  2  X    0.002763  -0.037520
   19  H  2  Y    0.037435   0.040736
   20  H  2  Z    0.001882   0.003276
   21  H  3  S   -0.365454   0.629724
   22  H  3  S   -0.066477   0.114549
   23  H  3  X    0.002595   0.037532
   24  H  3  Y   -0.037617   0.040567
   25  H  3  Z    0.001896  -0.003268
   26  H  4  S    0.728084   0.001630
   27  H  4  S    0.132441   0.000297
   28  H  4  X   -0.062317  -0.000140
   29  H  4  Y    0.000055  -0.024345
   30  H  4  Z   -0.003778  -0.000008

NUMBER OF SUB ACTIVE SPACES:   1
ROTATE ACTIVE MOS TO DMOS IN EACH SUB-SPACE

SPACE  1:

OVERLAP BETWEEN ORTHONORMAL AND PRE-ORTHONORMAL REF. DMOS

             1           2           3           4           5

    1    0.9813592  -0.0114122   0.0296492  -0.0062998   0.0032484
    2   -0.0114122   0.9786364   0.0633186  -0.0079755   0.0013340
    3    0.0296492   0.0633186   0.9635325   0.0394789  -0.0660698
    4   -0.0062998  -0.0079755   0.0394789   0.9959001  -0.0086684
    5    0.0032484   0.0013340  -0.0660698  -0.0086684   1.1015188
    6   -0.0012123  -0.0072507   0.0480557  -0.0024071  -0.0449975
    7    0.0017793  -0.0592704   0.0102746  -0.0434030  -0.0077312

             6           7

    1   -0.0012123   0.0017793
    2   -0.0072507  -0.0592704
    3    0.0480557   0.0102746
    4   -0.0024071  -0.0434030
    5   -0.0449975  -0.0077312
    6    1.0368287   0.0195417
    7    0.0195417   1.0526962
REFERENCE DMOS AFTER ORTHONORMALIZATION:

                      1          2          3          4          5

    1  N  1  S    0.007326  -0.001344   0.017311  -0.011638   0.255084
    2  N  1  S    0.446227  -0.000262   0.046090  -0.177293   0.789173
    3  N  1  S    0.279559  -0.000699   0.011931  -0.287587   0.128691
    4  N  1  X    0.005316   0.501146  -0.017227   0.004106  -0.037904
    5  N  1  Y   -0.016325   0.045712   0.503515   0.019006   0.034904
    6  N  1  Z    0.093250   0.006145   0.014663   0.602892   0.647012
    7  N  1  X    0.003196   0.217308  -0.023654   0.003143  -0.003329
    8  N  1  Y   -0.006841  -0.001159   0.220136  -0.006846   0.013037
    9  N  1  Z   -0.000969   0.005644  -0.022609   0.383954  -0.094641
   10  N  1 XX   -0.000420   0.010892  -0.000467  -0.012277   0.005523
   11  N  1 YY   -0.000766  -0.011300   0.002305  -0.012628   0.005574
   12  N  1 ZZ    0.001186   0.000408  -0.001838   0.024904  -0.011098
   13  N  1 XY    0.000400   0.000335  -0.013002   0.000596  -0.000742
   14  N  1 XZ    0.000524   0.027798  -0.005113   0.000578   0.001264
   15  N  1 YZ   -0.000844  -0.002854   0.028392  -0.002821   0.001397
   16  H  2  S    0.187236  -0.239395   0.356570   0.066816  -0.473130
   17  H  2  S    0.002093  -0.034546   0.050812   0.016449  -0.049693
   18  H  2  X    0.018796   0.006159   0.020395   0.006888  -0.034538
   19  H  2  Y   -0.032543   0.026125  -0.019082  -0.013115   0.062252
   20  H  2  Z   -0.008570   0.010263  -0.019235   0.019751  -0.010453
   21  H  3  S    0.208395  -0.152539  -0.361730   0.148699  -0.506936
   22  H  3  S    0.004932  -0.019327  -0.047182   0.030035  -0.053951
   23  H  3  X    0.020273   0.011454  -0.029402   0.012044  -0.036958
   24  H  3  Y    0.033736  -0.020623  -0.021690   0.018173  -0.064111
   25  H  3  Z   -0.009608   0.009279   0.014508   0.018124  -0.008539
   26  H  4  S    0.209812   0.412011  -0.124280   0.121228  -0.454383
   27  H  4  S    0.005270   0.055759  -0.017013   0.025266  -0.045131
   28  H  4  X   -0.039477  -0.035112   0.013669  -0.019417   0.069531
   29  H  4  Y   -0.000683  -0.001834   0.022739  -0.001936   0.001166
   30  H  4  Z   -0.009542  -0.019017   0.001310   0.018476  -0.009492

                      6          7

    1  N  1  S    0.010222   0.000947
    2  N  1  S    0.032284  -0.003332
    3  N  1  S    0.004906  -0.011632
    4  N  1  X   -0.895501   0.042911
    5  N  1  Y   -0.040136   0.883312
    6  N  1  Z    0.028403   0.029127
    7  N  1  X   -0.042969   0.013264
    8  N  1  Y   -0.010568   0.042327
    9  N  1  Z   -0.002426   0.015721
   10  N  1 XX    0.001789   0.000123
   11  N  1 YY   -0.001436  -0.001114
   12  N  1 ZZ   -0.000353   0.000991
   13  N  1 XY    0.000536   0.001841
   14  N  1 XZ    0.039034   0.001008
   15  N  1 YZ   -0.000470  -0.038518
   16  H  2  S   -0.376598  -0.610754
   17  H  2  S   -0.066260  -0.109998
   18  H  2  X    0.000971  -0.035513
   19  H  2  Y    0.039059   0.039600
   20  H  2  Z    0.002274   0.004588
   21  H  3  S   -0.369533   0.602059
   22  H  3  S   -0.066408   0.110254
   23  H  3  X    0.001701   0.036744
   24  H  3  Y   -0.038846   0.038530
   25  H  3  Z    0.000920  -0.002040
   26  H  4  S    0.691398   0.014431
   27  H  4  S    0.126985   0.001931
   28  H  4  X   -0.058030  -0.001389
   29  H  4  Y   -0.000526  -0.023512
   30  H  4  Z   -0.004212  -0.000305

 -------------------------------------------
       MAXIMIZING MORMO OVERLAP TERM        
 -------------------------------------------
   SWEEP    VALUE       PROGRESS
     0     4.23664
     1     6.86286     2.62621862
     2     6.96547     0.10261741
     3     6.96553     0.00005872
     4     6.96553     0.00000000
     5     6.96553    -0.00000000
     6     6.96553     0.00000000
 THE ROTATION IS DONE
FLIPPING SIGN FOR ORBITAL   7
ACTIVE ORBITALS AFTER MORMO:

                      1          2          3          4          5

    1  N  1  S    0.006097  -0.005650   0.025625  -0.012157   0.215871
    2  N  1  S    0.428312  -0.018519   0.059945  -0.187461   0.741201
    3  N  1  S    0.321433   0.033070  -0.047159  -0.275167   0.181520
    4  N  1  X   -0.004607   0.478173   0.004418  -0.008094  -0.028746
    5  N  1  Y   -0.004155   0.060758   0.476730   0.036866   0.012655
    6  N  1  Z    0.084003   0.000009   0.036791   0.601242   0.641676
    7  N  1  X    0.015347   0.236079  -0.070122   0.014318  -0.012689
    8  N  1  Y   -0.020659  -0.041757   0.241761  -0.050780   0.049524
    9  N  1  Z    0.020408   0.015540  -0.065782   0.384455  -0.085964
   10  N  1 XX    0.000072   0.007759  -0.008736  -0.008465  -0.005609
   11  N  1 YY   -0.000494  -0.007502   0.009036  -0.014354   0.004313
   12  N  1 ZZ    0.000422  -0.000258  -0.000301   0.022820   0.001296
   13  N  1 XY    0.005368   0.010713  -0.022654   0.002189  -0.044059
   14  N  1 XZ    0.001524   0.020961  -0.003778  -0.002827   0.011142
   15  N  1 YZ    0.001721  -0.002816   0.019289   0.000602  -0.041518
   16  H  2  S    0.186230  -0.204909   0.344775   0.087439  -0.492347
   17  H  2  S    0.000928  -0.071607   0.083090   0.018434  -0.062146
   18  H  2  X    0.011344   0.013738   0.013175   0.009052  -0.034977
   19  H  2  Y   -0.030556   0.020001  -0.015339  -0.017532   0.049807
   20  H  2  Z   -0.014202   0.011831  -0.026590   0.017479  -0.008059
   21  H  3  S    0.188417  -0.185914  -0.334942   0.123504  -0.489635
   22  H  3  S    0.003079  -0.010548  -0.057106   0.033852  -0.063561
   23  H  3  X    0.024962  -0.007493  -0.034859   0.010974  -0.042889
   24  H  3  Y    0.025011  -0.028043  -0.010163   0.009415  -0.043548
   25  H  3  Z   -0.003977   0.007687   0.007751   0.020794  -0.014414
   26  H  4  S    0.188845   0.379615  -0.052599   0.109317  -0.437847
   27  H  4  S    0.006209   0.088216  -0.045905   0.032804  -0.058889
   28  H  4  X   -0.029223  -0.031313  -0.007421  -0.013278   0.054088
   29  H  4  Y   -0.014143  -0.023344   0.018996  -0.006677   0.012458
   30  H  4  Z   -0.006050  -0.014520  -0.005746   0.018940  -0.019870

                      6          7

    1  N  1  S    0.013724  -0.044969
    2  N  1  S    0.023013  -0.105326
    3  N  1  S    0.014530   0.125855
    4  N  1  X   -0.900880   0.032560
    5  N  1  Y   -0.033993   0.868348
    6  N  1  Z    0.047671   0.064916
    7  N  1  X   -0.042521   0.036738
    8  N  1  Y   -0.028426   0.070276
    9  N  1  Z   -0.027497  -0.006922
   10  N  1 XX   -0.013120   0.045636
   11  N  1 YY    0.010609  -0.035932
   12  N  1 ZZ    0.002511  -0.009704
   13  N  1 XY    0.043448   0.020878
   14  N  1 XZ    0.042595  -0.020245
   15  N  1 YZ    0.013223  -0.034450
   16  H  2  S   -0.336328  -0.601006
   17  H  2  S   -0.110857  -0.147604
   18  H  2  X    0.025951  -0.040266
   19  H  2  Y    0.037052   0.020274
   20  H  2  Z    0.013561   0.008137
   21  H  3  S   -0.372758   0.573056
   22  H  3  S   -0.075074   0.122789
   23  H  3  X   -0.021078   0.041712
   24  H  3  Y   -0.037902   0.031045
   25  H  3  Z   -0.020644   0.004573
   26  H  4  S    0.656433  -0.033827
   27  H  4  S    0.176065   0.009857
   28  H  4  X   -0.053401   0.017555
   29  H  4  Y   -0.025733  -0.025718
   30  H  4  Z    0.004456  -0.021750

Actually Used Diabatic Molecualr Orbitals:

                      1          2          3          4          5

    1  N  1  S    0.006097  -0.005650   0.025625  -0.012157   0.215871
    2  N  1  S    0.428312  -0.018519   0.059945  -0.187461   0.741201
    3  N  1  S    0.321433   0.033070  -0.047159  -0.275167   0.181520
    4  N  1  X   -0.004607   0.478173   0.004418  -0.008094  -0.028746
    5  N  1  Y   -0.004155   0.060758   0.476730   0.036866   0.012655
    6  N  1  Z    0.084003   0.000009   0.036791   0.601242   0.641676
    7  N  1  X    0.015347   0.236079  -0.070122   0.014318  -0.012689
    8  N  1  Y   -0.020659  -0.041757   0.241761  -0.050780   0.049524
    9  N  1  Z    0.020408   0.015540  -0.065782   0.384455  -0.085964
   10  N  1 XX    0.000072   0.007759  -0.008736  -0.008465  -0.005609
   11  N  1 YY   -0.000494  -0.007502   0.009036  -0.014354   0.004313
   12  N  1 ZZ    0.000422  -0.000258  -0.000301   0.022820   0.001296
   13  N  1 XY    0.005368   0.010713  -0.022654   0.002189  -0.044059
   14  N  1 XZ    0.001524   0.020961  -0.003778  -0.002827   0.011142
[...]
      122    0.044591    0.044591  +2-200+
      463    0.043981   -0.043981  20+2020
      823    0.031574   -0.031574  20+2002
       88   -0.028208    0.028208  202200+
       16    0.027613   -0.027613  222000+
      107   -0.027604    0.027604  +22-+00
      108   -0.027101   -0.027101  +2-2+00
      472    0.026333    0.026333  2+020-+
      751    0.025640   -0.025640  2+20002
       38    0.023948   -0.023948  2202+00
       54   -0.023352    0.023352  -2+200+
      248    0.023111   -0.023111  2+02200
      320    0.023066    0.023066  0+22200
      143   -0.022659   -0.022659  220+200
      821    0.021719   -0.021719  2++-002
      841   -0.021239    0.021239  +2+200-
       51    0.021216   -0.021216  22+-00+
      471    0.020983    0.020983  2++-0-+
      752   -0.020922   -0.020922  2+-+002
      809    0.020020   -0.020020  20+2+0-
      285    0.020009   -0.020009  02+2200

 ---------------------------------------
    -DIABATIC STATES IN PROTOTYPES-     
 ---------------------------------------

     STATE:    1
 Group Ref#    Coefficients
     1    1    0.965464
     2    2   -0.004341
     3    3    0.002499

WEIGHT OF LISTED PROTOTYPES:   93.21%

     STATE:    2
 Group Ref#    Coefficients
     1    1   -0.004341
     2    2    0.961746
     3    3   -0.003602

WEIGHT OF LISTED PROTOTYPES:   92.50%

     STATE:    3
 Group Ref#    Coefficients
     1    1    0.002499
     2    2   -0.003602
     3    3    0.962315

WEIGHT OF LISTED PROTOTYPES:   92.61%

 --------------------------------------------------
 IN DIRECT MAX. DIABATIZATION FOR GMC-QDPT

 DIRECT MAXIMIZATION (DM) WITHOUT TRUNCATING ADIABATS
 EXPANSIONS INTO THE REFERENCE CONFIGURATION SPACE
 --------------------------------------------------

 -------------------------------------------
 - DM DIABT PT HAMILTONIAN MATRIX ELEMENTS -
 -------------------------------------------
                                            
 --- DIABATIC ENERGIES (DIAGONAL ELEMENT) ---       HARTREE            EV
 STATE #  1'S GMC-PT-LEVEL DIABATIC ENERGY=     -55.950039452       0.000000000
 STATE #  2'S GMC-PT-LEVEL DIABATIC ENERGY=     -55.774651304       4.772554594
 STATE #  3'S GMC-PT-LEVEL DIABATIC ENERGY=     -55.775703343       4.743927168

 --- DIABATIC COUPLINGS (OFF DIAGONAL ELEMENTS)---  HATREE            EV
 STATE #  1 &  2'S GMC-PT-LEVEL COUPLING  =       0.007157507       0.194765694
 STATE #  1 &  3'S GMC-PT-LEVEL COUPLING  =      -0.045096880      -1.227148608
 STATE #  2 &  3'S GMC-PT-LEVEL COUPLING  =       0.075533608       2.055374150

 ---------------------------------------
     - ROTATION TO DIABATIC STATES -    
 ---------------------------------------
 ROWS=ADIABATIC, COLUMNS=DIABATIC STATES

             1           2           3

    1    0.9467568  -0.1490315   0.2853789
    2    0.3030958   0.7114742  -0.6339853
    3    0.1085560  -0.6867271  -0.7187639

 ---------------------------------------
          - DIABATIC STATES -           
 ---------------------------------------

 State #    1  Energy =     -55.950039452

      Det      Coef        Coefp    Occupancy (Ignoring core)
      ---      ----        ----    --------- --------- -----
        1    0.945706   -0.945706  222+000
        3   -0.107852   -0.107852  22-++00
      141    0.104064    0.104064  22++-00
       17    0.079948    0.079948  22-+00+
       18   -0.077390    0.077390  2-2+00+
      736    0.075613   -0.075613  2+2+00-
       16   -0.075315    0.075315  222000+
      717   -0.073535   -0.073535  220+002
      393   -0.072703   -0.072703  202+020
        8   -0.069418    0.069418  2-2+0+0
        7    0.066533    0.066533  22-+0+0
      351   -0.061929   -0.061929  22++0-0
      701   -0.051482   -0.051482  22++00-
      386    0.039247   -0.039247  2+2+0-0
      402    0.037951   -0.037951  2+-+0-+
      708    0.037479   -0.037479  2-++0+-
      215   -0.036888   -0.036888  022+200
      218    0.034401   -0.034401  +-2+-+0
      390    0.034357   -0.034357  -+2++-0
      705   -0.032944   -0.032944  -2+++0-
      227   -0.032688   -0.032688  +2-+-0+
       76    0.030171    0.030171  2+2-0+0
      212    0.029696    0.029696  +220200
       51   -0.028466    0.028466  22+-00+
      179   -0.028389   -0.028389  202+200
      122    0.026574    0.026574  +2-200+
        5    0.025527    0.025527  -22++00
      113   -0.025078    0.025078  +-220+0
      773    0.025051   -0.025051  +2-++0-
     1051   -0.024108   -0.024108  2+++0--
      387   -0.023856    0.023856  2+20+-0
      702    0.023845    0.023845  22+0+0-
        2    0.023518   -0.023518  2220+00
      424   -0.023175   -0.023175  +-2++-0
      159    0.022899   -0.022899  -2++-0+
      184   -0.022749   -0.022749  -+2+-+0
       29   -0.021044   -0.021044  2--+0++
      738   -0.020247   -0.020247  2+-++0-

 State #    2  Energy =     -55.774651304

      Det      Coef        Coefp    Occupancy (Ignoring core)
      ---      ----        ----    --------- --------- -----
       71   -0.947762    0.947762  2+22000
      246    0.117821    0.117821  2++2-00
       73   -0.110406    0.110406  2+-2+00
      736    0.089237   -0.089237  2+2+00-
       86   -0.084402   -0.084402  2+2-00+
      822    0.075472   -0.075472  2+02002
       77    0.073266   -0.073266  2+-20+0
       88    0.068954   -0.068954  202200+
      456   -0.067949   -0.067949  2++20-0
       36    0.045711    0.045711  22+2000
      813    0.042877   -0.042877  20+20+-
      806   -0.042672   -0.042672  2++200-
       87    0.037418   -0.037418  2+-200+
      320    0.037314    0.037314  0+22200
      111    0.036617   -0.036617  +22-0+0
      810   -0.034663   -0.034663  -++2+0-
      323   -0.033609    0.033609  +022-+0
      332   -0.033322    0.033322  ++-2-0+
       99   -0.031976    0.031976  20-20++
      317    0.031082   -0.031082  ++2-200
       38   -0.031055    0.031055  2202+00
      180   -0.031010    0.031010  -+2+200
      177    0.030577   -0.030577  2+20200
      183   -0.027121    0.027121  202+-+0
      807   -0.026870    0.026870  2++-+0-
      192   -0.026559    0.026559  2+-+-0+
        6    0.026204   -0.026204  22200+0
       90    0.025674    0.025674  2+--+0+
      106   -0.025336   -0.025336  +222000
      878    0.024951    0.024951  ++-2+0-
      316    0.024776    0.024776  ++22-00
      122    0.024524    0.024524  +2-200+
      391    0.024438   -0.024438  2+20020
      264    0.024311   -0.024311  -++2-0+
      911    0.022942    0.022942  2+++-0-
       51    0.022427   -0.022427  22+-00+
      108   -0.021780   -0.021780  +2-2+00
      113    0.021765   -0.021765  +-220+0
      526   -0.021471   -0.021471  ++220-0
      263   -0.021303   -0.021303  20+2-0+
       72   -0.020357   -0.020357  2+2-+00

 State #    3  Energy =     -55.775703343

      Det      Coef        Coefp    Occupancy (Ignoring core)
      ---      ----        ----    --------- --------- -----
       36   -0.946455   -0.946455  22+2000
       38    0.112853   -0.112853  2202+00
       53    0.094391    0.094391  2-+200+
       51   -0.091517    0.091517  22+-00+
      806   -0.087474   -0.087474  2++200-
      701    0.087352    0.087352  22++00-
      463    0.073639   -0.073639  20+2020
      106    0.070914    0.070914  +222000
       42   -0.055860    0.055860  22020+0
       39   -0.048213   -0.048213  2-+2+00
       71   -0.045648    0.045648  2+22000
      472   -0.043511   -0.043511  2+020-+
       41   -0.041445    0.041445  22+-0+0
      285    0.036542   -0.036542  02+2200
      288   -0.036109   -0.036109  +-+2-+0
      123    0.035906   -0.035906  +-2200+
      460   -0.035884   -0.035884  -++2+-0
      297    0.034462   -0.034462  +202-0+
      456   -0.033994   -0.033994  2++20-0
       43    0.032412    0.032412  2-+20+0
       64    0.031802   -0.031802  2-020++
      145   -0.031709   -0.031709  -2++200
      282    0.031620    0.031620  +2+-200
      351    0.031282    0.031282  22++0-0
      121   -0.030628    0.030628  +22-00+
      142    0.030244    0.030244  22+0200
      249    0.030197   -0.030197  20+2200
      157    0.027384   -0.027384  220+-0+
       55   -0.027124   -0.027124  220-+0+
      457   -0.026565    0.026565  2++-+-0
       73    0.026034   -0.026034  2+-2+00
       52   -0.025882    0.025882  220200+
      112   -0.025815   -0.025815  +2-20+0
      148   -0.025558   -0.025558  2-++-+0
       16   -0.025020    0.025020  222000+
      494    0.023984   -0.023984  +-+2+-0
      109   -0.023087    0.023087  +-22+00
      254    0.023023   -0.023023  -++2-+0
      246    0.022179    0.022179  2++2-00
      876   -0.022119   -0.022119  ++2200-
      843   -0.021207   -0.021207  +202+0-
      859    0.020419   -0.020419  02+2002

 ---------------------------------------
      - DIABATIC STATES IN CMO -        
 ---------------------------------------

 State #    1  Energy =     -55.950039452

      Det      Coef        Coefp    Occupancy (Ignoring core)
      ---      ----        ----    --------- --------- -----
        1    0.900279   -0.900279  222+000
       36    0.361063    0.361063  22+2000
       71    0.110800   -0.110800  2+22000
      717   -0.063932   -0.063932  220+002
      393   -0.053316   -0.053316  202+020
      143   -0.042070   -0.042070  220+200
        8   -0.035907    0.035907  2-2+0+0
      716   -0.034726   -0.034726  22+0002
      753   -0.034714   -0.034714  202+002
      708   -0.031990    0.031990  2-++0+-
        3    0.031700    0.031700  22-++00
      106   -0.031433   -0.031433  +222000
      703    0.031377    0.031377  220++0-
       16    0.030574   -0.030574  222000+
      719    0.028419    0.028419  -2++002
      215   -0.028159   -0.028159  022+200
      704    0.025657   -0.025657  2-+++0-
      157   -0.024034    0.024034  220+-0+
      122   -0.023628   -0.023628  +2-200+
        4    0.022909   -0.022909  2-2++00
      463   -0.022743    0.022743  20+2020
      213    0.022618   -0.022618  +2-+200
      401    0.022404    0.022404  2+200-+
      787   -0.022069    0.022069  +2-+002
      402   -0.021543    0.021543  2+-+0-+
       76    0.021345    0.021345  2+2-0+0
      778   -0.020960   -0.020960  +-2+0+-
      741   -0.020870    0.020870  2+200+-
       37   -0.020644    0.020644  22+-+00
      145   -0.020620   -0.020620  -2++200
      404   -0.020562   -0.020562  -+2+0-+
      789   -0.020340   -0.020340  022+002
       52   -0.020296    0.020296  220200+

 State #    2  Energy =     -55.774651304

      Det      Coef        Coefp    Occupancy (Ignoring core)
      ---      ----        ----    --------- --------- -----
       36    0.698731    0.698731  22+2000
       71   -0.658324    0.658324  2+22000
        1   -0.199251    0.199251  222+000
      248    0.049406   -0.049406  2+02200
      123   -0.043460    0.043460  +-2200+
      262    0.040878    0.040878  2+02-0+
      822    0.035935   -0.035935  2+02002
      111    0.034198   -0.034198  +22-0+0
      463   -0.030906    0.030906  20+2020
      249   -0.030550    0.030550  20+2200
       18    0.029276   -0.029276  2-2+00+
      250   -0.027685   -0.027685  -++2200
       86   -0.027471   -0.027471  2+2-00+
      808   -0.025999    0.025999  2+02+0-
       53   -0.025147   -0.025147  2-+200+
      823   -0.024705    0.024705  20+2002
      751    0.023036   -0.023036  2+20002
       41   -0.022845    0.022845  22+-0+0
       89    0.022702    0.022702  -+2200+
      813   -0.021881    0.021881  20+20+-
      285   -0.021462    0.021462  02+2200
      253   -0.020885   -0.020885  20+2-+0
      876    0.020759    0.020759  ++2200-
      716   -0.020022   -0.020022  22+0002

 State #    3  Energy =     -55.775703343

      Det      Coef        Coefp    Occupancy (Ignoring core)
      ---      ----        ----    --------- --------- -----
       71   -0.714210    0.714210  2+22000
       36   -0.586941   -0.586941  22+2000
        1    0.323744   -0.323744  222+000
      822    0.050711   -0.050711  2+02002
      122    0.044591    0.044591  +2-200+
      463    0.043981   -0.043981  20+2020
      823    0.031574   -0.031574  20+2002
       88   -0.028208    0.028208  202200+
       16    0.027613   -0.027613  222000+
      107   -0.027604    0.027604  +22-+00
      108   -0.027101   -0.027101  +2-2+00
      472    0.026333    0.026333  2+020-+
      751    0.025640   -0.025640  2+20002
       38    0.023948   -0.023948  2202+00
       54   -0.023352    0.023352  -2+200+
      248    0.023112   -0.023112  2+02200
      320    0.023066    0.023066  0+22200
      143   -0.022659   -0.022659  220+200
      821    0.021719   -0.021719  2++-002
      841   -0.021239    0.021239  +2+200-
       51    0.021216   -0.021216  22+-00+
      471    0.020983    0.020983  2++-0-+
      752   -0.020922   -0.020922  2+-+002
      809    0.020020   -0.020020  20+2+0-
      285    0.020009   -0.020009  02+2200

 ---------------------------------------
    -DIABATIC STATES IN PROTOTYPES-     
 ---------------------------------------

     STATE:    1
 Group Ref#    Coefficients
     1    1    0.965464
     2    2   -0.004332
     3    3    0.002495

WEIGHT OF LISTED PROTOTYPES:   93.21%

     STATE:    2
 Group Ref#    Coefficients
     1    1   -0.004349
     2    2    0.961746
     3    3   -0.003603

WEIGHT OF LISTED PROTOTYPES:   92.50%

     STATE:    3
 Group Ref#    Coefficients
     1    1    0.002503
     2    2   -0.003601
     3    3    0.962315

WEIGHT OF LISTED PROTOTYPES:   92.61%

     DIRECT MAX. DIABATIZATION FINISHED    
 CPU     0: STEP CPU TIME=     0.25 TOTAL CPU TIME=         14.2 (      0.2 MIN)
 TOTAL WALL CLOCK TIME=         14.2 SECONDS, CPU UTILIZATION IS    99.93%

DIABATS FOR SPIN-ORBIT CALCULATION ARE READY

TRANSITION DIPOLES BETWEEN ADIABATS (in A.U.):

STATE PAIR      X         Y         Z
    1    1 -0.032785  0.292243  0.699101
    2    1  0.004304  0.025751  0.149129
    2    2 -0.184029  0.206497  0.309562
    3    1 -0.093270 -0.081346  0.054649
    3    2  0.200254  0.040423 -0.002089
    3    3  0.029815  0.550964  0.275947


TRANSITION DIPOLES BETWEEN DIABATS (in A.U.):

STATE PAIR      X         Y         Z
    1    1 -0.049466  0.288133  0.755012
    2    1  0.001360  0.027318  0.005122
    2    2 -0.295509  0.309239  0.283964
    3    1  0.025139  0.024307 -0.003641
    3    2  0.093468  0.178198  0.006512
    3    3  0.157976  0.452332  0.245634

TRANSITION DIPOLES BETWEEN DIRECT MAX. DIABATS (in A.U.):

STATE PAIR      X         Y         Z
    1    1 -0.049466  0.288133  0.755012
    2    1  0.001358  0.027317  0.005118
    2    2 -0.295509  0.309238  0.283964
    3    1  0.025139  0.024308 -0.003639
    3    2  0.093467  0.178198  0.006513
    3    3  0.157977  0.452333  0.245634
 No $TRANST Group Found.
 Quit without doing spin-orbit coupling
 ..... DONE WITH MP2 ENERGY .....
 CPU     0: STEP CPU TIME=     0.00 TOTAL CPU TIME=         14.2 (      0.2 MIN)
 TOTAL WALL CLOCK TIME=         14.2 SECONDS, CPU UTILIZATION IS    99.93%
            100000000  WORDS OF DYNAMIC MEMORY USED
 EXECUTION OF GAMESS TERMINATED NORMALLY Wed Nov 16 20:08:57 2022
 DDI: 715512 bytes (0.7 MB / 0 MWords) used by master data server.

 ----------------------------------------
 CPU timing information for all processes
 ========================================
 0: 13.855 + 0.360 = 14.215
 ----------------------------------------
Note: The following floating-point exceptions are signalling: IEEE_DENORMAL
 ddikick.x: exited gracefully.
unset echo
----- accounting info -----
Files used on the master node io002 were:
-rw-r--r-- 1 bsonghao nooijen   20738 Nov 16 20:08 /scratch/bsonghao/nh3_diabatization_2d_at_mode_7_8_dist0.6_-0.1.F05
-rw-r--r-- 1 bsonghao nooijen  363520 Nov 16 20:08 /scratch/bsonghao/nh3_diabatization_2d_at_mode_7_8_dist0.6_-0.1.F09
-rw-r--r-- 1 bsonghao nooijen 1995920 Nov 16 20:08 /scratch/bsonghao/nh3_diabatization_2d_at_mode_7_8_dist0.6_-0.1.F10
-rw-r--r-- 1 bsonghao nooijen  131264 Nov 16 20:08 /scratch/bsonghao/nh3_diabatization_2d_at_mode_7_8_dist0.6_-0.1.F13
-rw-r--r-- 1 bsonghao nooijen  180312 Nov 16 20:08 /scratch/bsonghao/nh3_diabatization_2d_at_mode_7_8_dist0.6_-0.1.F15
-rw-r--r-- 1 bsonghao nooijen       0 Nov 16 20:08 /scratch/bsonghao/nh3_diabatization_2d_at_mode_7_8_dist0.6_-0.1.F16
-rw-r--r-- 1 bsonghao nooijen    9808 Nov 16 20:08 /scratch/bsonghao/nh3_diabatization_2d_at_mode_7_8_dist0.6_-0.1.F70
-rw-r--r-- 1 bsonghao nooijen    9808 Nov 16 20:08 /scratch/bsonghao/nh3_diabatization_2d_at_mode_7_8_dist0.6_-0.1.F71
-rw-r--r-- 1 bsonghao nooijen   19608 Nov 16 20:08 /scratch/bsonghao/nh3_diabatization_2d_at_mode_7_8_dist0.6_-0.1.F72
-rw-r--r-- 1 bsonghao nooijen   19608 Nov 16 20:08 /scratch/bsonghao/nh3_diabatization_2d_at_mode_7_8_dist0.6_-0.1.F73
-rw-r--r-- 1 bsonghao nooijen 1920824 Nov 16 20:08 /scratch/bsonghao/nh3_diabatization_2d_at_mode_7_8_dist0.6_-0.1.F74
-rw-r--r-- 1 bsonghao nooijen       0 Nov 16 20:08 /scratch/bsonghao/nh3_diabatization_2d_at_mode_7_8_dist0.6_-0.1.F75
-rw-r--r-- 1 bsonghao nooijen   58848 Nov 16 20:08 /scratch/bsonghao/nh3_diabatization_2d_at_mode_7_8_dist0.6_-0.1.F76
-rw-r--r-- 1 bsonghao nooijen       0 Nov 16 20:08 /scratch/bsonghao/nh3_diabatization_2d_at_mode_7_8_dist0.6_-0.1.F77
-rw-r--r-- 1 bsonghao nooijen    1864 Nov 16 20:08 /scratch/bsonghao/nh3_diabatization_2d_at_mode_7_8_dist0.6_-0.1.F78
-rw-r--r-- 1 bsonghao nooijen   39208 Nov 16 20:08 /scratch/bsonghao/nh3_diabatization_2d_at_mode_7_8_dist0.6_-0.1.F79
-rw-r--r-- 1 bsonghao nooijen     104 Nov 16 20:08 /scratch/bsonghao/nh3_diabatization_2d_at_mode_7_8_dist0.6_-0.1.F80
-rw-r--r-- 1 bsonghao nooijen   13472 Nov 16 20:08 /scratch/bsonghao/nh3_diabatization_2d_at_mode_7_8_dist0.6_-0.1.F81
-rw-r--r-- 1 bsonghao nooijen      16 Nov 16 20:08 /scratch/bsonghao/nh3_diabatization_2d_at_mode_7_8_dist0.6_-0.1.F82
-rw-r--r-- 1 bsonghao nooijen   19216 Nov 16 20:08 /scratch/bsonghao/nh3_diabatization_2d_at_mode_7_8_dist0.6_-0.1.F83
-rw-r--r-- 1 bsonghao nooijen   29712 Nov 16 20:08 /scratch/bsonghao/nh3_diabatization_2d_at_mode_7_8_dist0.6_-0.1.F84
-rw-r--r-- 1 bsonghao nooijen  401576 Nov 16 20:08 /scratch/bsonghao/nh3_diabatization_2d_at_mode_7_8_dist0.6_-0.1.F85
-rw-r--r-- 1 bsonghao nooijen  903672 Nov 16 20:08 /scratch/bsonghao/nh3_diabatization_2d_at_mode_7_8_dist0.6_-0.1.F86
-rw-r--r-- 1 bsonghao nooijen     656 Nov 16 20:08 /scratch/bsonghao/nh3_diabatization_2d_at_mode_7_8_dist0.6_-0.1.F87
-rw-r--r-- 1 bsonghao nooijen   38256 Nov 16 20:08 /scratch/bsonghao/nh3_diabatization_2d_at_mode_7_8_dist0.6_-0.1.F88
-rw-r--r-- 1 bsonghao nooijen     240 Nov 16 20:08 /scratch/bsonghao/nh3_diabatization_2d_at_mode_7_8_dist0.6_-0.1.F89
-rw-r--r-- 1 bsonghao nooijen       0 Nov 16 20:08 /scratch/bsonghao/nh3_diabatization_2d_at_mode_7_8_dist0.6_-0.1.F90
-rw-r--r-- 1 bsonghao nooijen   13760 Nov 16 20:08 /scratch/bsonghao/nh3_diabatization_2d_at_mode_7_8_dist0.6_-0.1.F91
-rw-r--r-- 1 bsonghao nooijen   22776 Nov 16 20:08 /scratch/bsonghao/nh3_diabatization_2d_at_mode_7_8_dist0.6_-0.1.F92
-rw-r--r-- 1 bsonghao nooijen   23168 Nov 16 20:08 /scratch/bsonghao/nh3_diabatization_2d_at_mode_7_8_dist0.6_-0.1.F93
-rw-r--r-- 1 bsonghao nooijen   22776 Nov 16 20:08 /scratch/bsonghao/nh3_diabatization_2d_at_mode_7_8_dist0.6_-0.1.F94
-rw-r--r-- 1 bsonghao nooijen   13760 Nov 16 20:08 /scratch/bsonghao/nh3_diabatization_2d_at_mode_7_8_dist0.6_-0.1.F95
-rw-r--r-- 1 bsonghao nooijen   29440 Nov 16 20:08 /scratch/bsonghao/nh3_diabatization_2d_at_mode_7_8_dist0.6_-0.1.F96
-rw-r--r-- 1 bsonghao nooijen    1184 Nov 16 20:08 /scratch/bsonghao/nh3_diabatization_2d_at_mode_7_8_dist0.6_-0.1.F97
-rw-r--r-- 1 bsonghao nooijen    9808 Nov 16 20:08 /scratch/bsonghao/nh3_diabatization_2d_at_mode_7_8_dist0.6_-0.1.F98
-rw-r--r-- 1 bsonghao nooijen   30264 Nov 16 20:08 /scratch/bsonghao/nh3_diabatization_2d_at_mode_7_8_dist0.6_-0.1.F99
ls: No match.
ls: No match.
ls: No match.
Wed 16 Nov 2022 08:09:00 PM EST
0.282u 0.053s 0:17.59 1.8%	0+0k 48+224io 0pf+0w
