----- GAMESS execution script 'rungms' -----
This job is running on host io002
under operating system Linux at Wed 16 Nov 2022 07:34:58 PM EST
Available scratch disk space (Kbyte units) at beginning of the job is
Filesystem       1K-blocks       Used   Available Use% Mounted on
/dev/sdc1      15378471580 3278917120 11318349060  23% /scratch
GAMESS temporary binary files will be written to /scratch/bsonghao
GAMESS supplementary output files will be written to /home/bsonghao/.gamess_ascii_files/267638
Copying input file nh3_diabatization_2d_at_mode_7_8_dist0.2_-0.7.inp to your run's scratch directory...
cp nh3_diabatization_2d_at_mode_7_8_dist0.2_-0.7.inp /scratch/bsonghao/nh3_diabatization_2d_at_mode_7_8_dist0.2_-0.7.F05
unset echo
/home/bjb2chen/gamess/ddikick.x /home/bjb2chen/gamess/gamess.00.x nh3_diabatization_2d_at_mode_7_8_dist0.2_-0.7 -ddi 1 1 io002 -scr /scratch/bsonghao

 Distributed Data Interface kickoff program.
 Initiating 1 compute processes on 1 nodes to run the following command:
 /home/bjb2chen/gamess/gamess.00.x nh3_diabatization_2d_at_mode_7_8_dist0.2_-0.7 

          ******************************************************
          *         GAMESS VERSION = 02 AUG 2018 (R2)         *
          *             FROM IOWA STATE UNIVERSITY             *
          * M.W.SCHMIDT, K.K.BALDRIDGE, J.A.BOATZ, S.T.ELBERT, *
          *   M.S.GORDON, J.H.JENSEN, S.KOSEKI, N.MATSUNAGA,   *
          *          K.A.NGUYEN, S.J.SU, T.L.WINDUS,           *
          *       TOGETHER WITH M.DUPUIS, J.A.MONTGOMERY       *
          *         J.COMPUT.CHEM.  14, 1347-1363(1993)        *
          **************** 64 BIT LINUX VERSION ****************

  SINCE 1993, STUDENTS AND POSTDOCS WORKING AT IOWA STATE UNIVERSITY
  AND ALSO IN THEIR VARIOUS JOBS AFTER LEAVING ISU HAVE MADE IMPORTANT
  CONTRIBUTIONS TO THE CODE:
     IVANA ADAMOVIC, CHRISTINE AIKENS, YURI ALEXEEV, POOJA ARORA,
     ANDREY ASADCHEV, ROB BELL, PRADIPTA BANDYOPADHYAY, JONATHAN BENTZ,
     BRETT BODE, KURT BRORSEN, CALEB CARLIN, GALINA CHABAN, WEI CHEN,
     CHEOL HO CHOI, PAUL DAY, ALBERT DEFUSCO, NUWAN DESILVA, TIM DUDLEY,
     DMITRI FEDOROV, ALEX FINDLATER, GRAHAM FLETCHER, MARK FREITAG,
     KURT GLAESEMANN, ANASTASIA GUININA,
     DAN KEMP, GRANT MERRILL, NORIYUKI MINEZAWA, JONATHAN MULLIN,
     TAKESHI NAGATA, SEAN NEDD, HEATHER NETZLOFF, BOSILJKA NJEGIC, RYAN OLSON,
     MIKE PAK, BUU PHAM,
     SPENCER PRUITT, LUKE ROSKOP, JIM SHOEMAKER, LYUDMILA SLIPCHENKO,
     TONY SMITH, SAROM SOK LEANG, JIE SONG, TETSUYA TAKETSUGU, SIMON WEBB,
     PENG XU, SOOHAENG YOO, FEDERICO ZAHARIEV

  ADDITIONAL CODE HAS BEEN PROVIDED BY COLLABORATORS IN OTHER GROUPS:
     IOWA STATE UNIVERSITY:
          JOE IVANIC, AARON WEST, LAIMUTIS BYTAUTAS, KLAUS RUEDENBERG
     UNIVERSITY OF TOKYO: KIMIHIKO HIRAO, TAKAHITO NAKAJIMA,
          TAKAO TSUNEDA, MUNEAKI KAMIYA, SUSUMU YANAGISAWA,
          KIYOSHI YAGI, MAHITO CHIBA, SEIKEN TOKURA, NAOAKI KAWAKAMI
     UNIVERSITY OF AARHUS: FRANK JENSEN
     UNIVERSITY OF IOWA: VISVALDAS KAIRYS, HUI LI
     NATIONAL INST. OF STANDARDS AND TECHNOLOGY: WALT STEVENS, DAVID GARMER
     UNIVERSITY OF PISA: BENEDETTA MENNUCCI, JACOPO TOMASI
     UNIVERSITY OF MEMPHIS: HENRY KURTZ, PRAKASHAN KORAMBATH
     UNIVERSITY OF ALBERTA: TOBY ZENG, MARIUSZ KLOBUKOWSKI
     UNIVERSITY OF NEW ENGLAND: MARK SPACKMAN
     MIE UNIVERSITY: HIROAKI UMEDA
     NAT. INST. OF ADVANCED INDUSTRIAL SCIENCE AND TECHNOLOGY: KAZUO KITAURA
     MICHIGAN STATE UNIVERSITY:
          KAROL KOWALSKI, MARTA WLOCH, JEFFREY GOUR, JESSE LUTZ,
          WEI LI, JUN SHEN, J. EMILIANO DEUSTUA, PIOTR PIECUCH
     UNIVERSITY OF MINNESOTA:
          YINAN SHU
     UNIVERSITY OF SILESIA: MONIKA MUSIAL, STANISLAW KUCHARSKI
     FACULTES UNIVERSITAIRES NOTRE-DAME DE LA PAIX:
          OLIVIER QUINET, BENOIT CHAMPAGNE
     UNIVERSITY OF CALIFORNIA - SANTA BARBARA: BERNARD KIRTMAN
     INSTITUTE FOR MOLECULAR SCIENCE:
          KAZUYA ISHIMURA, MICHIO KATOUDA, AND SHIGERU NAGASE
     UNIVERSITY OF NOTRE DAME: ANNA POMOGAEVA, DAN CHIPMAN
     KYUSHU UNIVERSITY:
          HARUYUKI NAKANO,
          FENG LONG GU, JACEK KORCHOWIEC, MARCIN MAKOWSKI, AND YURIKO AOKI,
          HIROTOSHI MORI AND EISAKU MIYOSHI
     PENNSYLVANIA STATE UNIVERSITY:
          TZVETELIN IORDANOV, CHET SWALINA, JONATHAN SKONE,
          SHARON HAMMES-SCHIFFER
     WASEDA UNIVERSITY:
          MASATO KOBAYASHI, TOMOKO AKAMA, TSUGUKI TOUMA,
          TAKESHI YOSHIKAWA, YASUHIRO IKABATA, JUNJI SEINO,
          YUYA NAKAJIMA, HIROMI NAKAI
     NANJING UNIVERSITY: SHUHUA LI
     UNIVERSITY OF NEBRASKA:
          PEIFENG SU, DEJUN SI, NANDUN THELLAMUREGE, YALI WANG, HUI LI
     UNIVERSITY OF ZURICH: ROBERTO PEVERATI, KIM BALDRIDGE
     N. COPERNICUS UNIVERSITY AND JACKSON STATE UNIVERSITY:
          MARIA BARYSZ
     UNIVERSITY OF COPENHAGEN: Jimmy Kromann, CASPER STEINMANN
     TOKYO INSTITUTE OF TECHNOLOGY: HIROYA NAKATA
     NAGOYA UNIVERSITY: YOSHIO NISHIMOTO, STEPHAN IRLE
     MOSCOW STATE UNIVERSITY: VLADIMIR MIRONOV

 EXECUTION OF GAMESS BEGUN Wed Nov 16 19:34:58 2022

            ECHO OF THE FIRST FEW INPUT CARDS -
 INPUT CARD> $system kdiag=3 mwords=100 memddi=1000 parall=.t. $end                         
 INPUT CARD> $contrl runtyp=energy ispher=1 $end                                            
 INPUT CARD> $contrl icut=9 itol=20 inttyp=rysquad qmttol=1.0d-05 nosym=1 $end              
 INPUT CARD> $scf    npunch=2 conv=1.0d-06 dirscf=.t.      $end                             
 INPUT CARD> $contrl scftyp=mcscf  mult=2 maxit=200 icharg=1 mplevl=2 $end                  
 INPUT CARD> $guess  guess=moread norb=29 purify=.t. $end                                   
 INPUT CARD> $basis  gbasis=ccd $end                                                        
 INPUT CARD> $mcscf  cistep=gmcci fullnr=.t. finci=mos                                      
 INPUT CARD>         acurcy=1.d-6 maxit=100 $end                                            
 INPUT CARD> $trans  dirtrf=.t. $end                                                        
 INPUT CARD> $mrmp   mrpt=gmcpt rdvecs=.f. $end                                             
 INPUT CARD> $gmcpt  nmofzc=0 nmodoc=1 nmoact=7 nelact=7 stsym(1)=A                         
 INPUT CARD>         reftyp=ormas nspace=1 mstart(1)=2 mine(1)=7 maxe(1)=7                  
 INPUT CARD>         kstate(1)=1,1,1                                                        
 INPUT CARD>         wstate(1)=1,1,1                                                        
 INPUT CARD>         iwgt=0 thrwgt=-1.0 krot=.f. kszdoe=.f. knospn=.f.                      
 INPUT CARD>         thrde=-1.0 edshft=0.02 $end                                            
 INPUT CARD> $data                                                                          
 INPUT CARD> NH3+ 3 states calculation at NH3 structure.                                    
 INPUT CARD> c1                                                                             
 INPUT CARD>N 7.0 0.04360242600000001 -0.012457805999999998 -0.1693803062                   
 INPUT CARD>H 1.0 -0.7452943110000001 0.5520581028 0.3945707631                             
 INPUT CARD>H 1.0 -0.898144931 -0.5249041698 0.3031278271                                   
 INPUT CARD>H 1.0 1.037571834 0.14595147399999997 0.0716763051                              
 INPUT CARD>$end                                                                            
 INPUT CARD>--- OPTIMIZED RHF      MO-S --- GENERATED AT Mon Nov 14 16:47:08 2022           
 INPUT CARD>E=      -56.3825050291, E(NUC)=   11.8429239490                                 
 INPUT CARD> $VEC                                                                           
 INPUT CARD> 1  1-1.00134066E+00-2.25158504E-03 3.44925845E-03 0.00000000E+00 0.00000000E+00
 INPUT CARD> 1  2-2.13170927E-03 0.00000000E+00 0.00000000E+00 6.57129898E-04-6.87950443E-05
 INPUT CARD> 1  3-6.87950443E-05 1.37590089E-04 0.00000000E+00 0.00000000E+00 0.00000000E+00
 INPUT CARD> 1  4 3.25502815E-04-4.84772356E-04 3.62525460E-04-6.27912517E-04-3.45956485E-04
 INPUT CARD> 1  5 3.25502815E-04-4.84772356E-04 3.62525460E-04 6.27912517E-04-3.45956485E-04
 INPUT CARD> 1  6 3.25502815E-04-4.84772356E-04-7.25050921E-04 0.00000000E+00-3.45956485E-04
 INPUT CARD> 2  1 1.31286642E-02-4.05911371E-01-2.82090992E-01 0.00000000E+00 0.00000000E+00
 INPUT CARD> 2  2-7.71489043E-02 0.00000000E+00 0.00000000E+00 9.73717494E-03 6.62450916E-04
 INPUT CARD> 2  3 6.62450916E-04-1.32490183E-03 0.00000000E+00 0.00000000E+00 0.00000000E+00
 INPUT CARD> 2  4-1.96090317E-01-1.96656153E-02-1.74855877E-02 3.02859263E-02 8.68214399E-03
 INPUT CARD> 2  5-1.96090317E-01-1.96656153E-02-1.74855877E-02-3.02859263E-02 8.68214399E-03
 INPUT CARD> 2  6-1.96090317E-01-1.96656153E-02 3.49711754E-02 0.00000000E+00 8.68214399E-03
 INPUT CARD> 3  1 0.00000000E+00 0.00000000E+00 0.00000000E+00 4.48608762E-01 0.00000000E+00
 INPUT CARD> 3  2 0.00000000E+00 2.18692520E-01 0.00000000E+00 0.00000000E+00 1.30198027E-02
 INPUT CARD> 3  3-1.30198027E-02 0.00000000E+00 0.00000000E+00 2.71832968E-02 0.00000000E+00
 INPUT CARD> 3  4-1.85332726E-01-7.03958951E-02 8.47929477E-03 1.95242443E-02 8.32835058E-03
 INPUT CARD> 3  5-1.85332726E-01-7.03958951E-02 8.47929477E-03-1.95242443E-02 8.32835058E-03
 INPUT CARD> 3  6 3.70665453E-01 1.40791790E-01-2.53376884E-02 0.00000000E+00-1.66567012E-02
 INPUT CARD> 4  1 0.00000000E+00 0.00000000E+00 0.00000000E+00 0.00000000E+00 4.48608762E-01
 INPUT CARD> 4  2 0.00000000E+00 0.00000000E+00 2.18692520E-01 0.00000000E+00 0.00000000E+00
 INPUT CARD> 4  3 0.00000000E+00 0.00000000E+00-1.50339731E-02 0.00000000E+00 2.71832968E-02
 INPUT CARD> 4  4 3.21005698E-01 1.21929267E-01 1.95242443E-02-1.40653607E-02-1.44251263E-02
  100000000 WORDS OF MEMORY AVAILABLE

     BASIS OPTIONS
     -------------
     GBASIS=CCD          IGAUSS=       0      POLAR=NONE    
     NDFUNC=       0     NFFUNC=       0     DIFFSP=       F
     NPFUNC=       0      DIFFS=       F     BASNAM=        


     RUN TITLE
     ---------
  NH3+ 3 states calculation at NH3 structure.                                    

 THE POINT GROUP OF THE MOLECULE IS C1      
 THE ORDER OF THE PRINCIPAL AXIS IS     0

 ATOM      ATOMIC                      COORDINATES (BOHR)
           CHARGE         X                   Y                   Z
 N           7.0     0.0823966375       -0.0235418397       -0.3200823664
 H           1.0    -1.4084020280        1.0432385436        0.7456306250
 H           1.0    -1.6972478169       -0.9919250507        0.5728285325
 H           1.0     1.9607264588        0.2758082934        0.1354485765

          INTERNUCLEAR DISTANCES (ANGS.)
          ------------------------------

                1 N          2 H          3 H          4 H     

   1 N       0.0000000    1.1220860 *  1.1716456 *  1.0349768 *
   2 H       1.1220860 *  0.0000000    1.0915919 *  1.8568239 *
   3 H       1.1716456 *  1.0915919 *  0.0000000    2.0617023 *
   4 H       1.0349768 *  1.8568239 *  2.0617023 *  0.0000000  

  * ... LESS THAN  3.000


     ATOMIC BASIS SET
     ----------------
 THE CONTRACTED PRIMITIVE FUNCTIONS HAVE BEEN UNNORMALIZED
 THE CONTRACTED BASIS FUNCTIONS ARE NOW NORMALIZED TO UNITY

  SHELL TYPE  PRIMITIVE        EXPONENT          CONTRACTION COEFFICIENT(S)

 N         

      1   S       1          9046.0000000    0.000699617413
      1   S       2          1357.0000000    0.005386054630
      1   S       3           309.3000000    0.027391021189
      1   S       4            87.7300000    0.103150591982
      1   S       5            28.5600000    0.278570663317
      1   S       6            10.2100000    0.448294849454
      1   S       7             3.8380000    0.278085928395
      1   S       8             0.7466000    0.015431561233

      2   S       9          9046.0000000   -0.000304990096
      2   S      10          1357.0000000   -0.002408026379
      2   S      11           309.3000000   -0.011944448725
      2   S      12            87.7300000   -0.048925992909
      2   S      13            28.5600000   -0.134472724725
      2   S      14            10.2100000   -0.315112577700
      2   S      15             3.8380000   -0.242857832550
      2   S      16             0.7466000    1.094382206854

      3   S      17             0.2248000    1.000000000000

      4   P      18            13.5500000    0.058905676772
      4   P      19             2.9170000    0.320461106714
      4   P      20             0.7973000    0.753042061792

      5   P      21             0.2185000    1.000000000000

      6   D      22             0.8170000    1.000000000000

 H         

      7   S      23            13.0100000    0.033498726390
      7   S      24             1.9620000    0.234800801174
      7   S      25             0.4446000    0.813682957883

      8   S      26             0.1220000    1.000000000000

      9   P      27             0.7270000    1.000000000000

 H         

     10   S      28            13.0100000    0.033498726390
     10   S      29             1.9620000    0.234800801174
     10   S      30             0.4446000    0.813682957883

     11   S      31             0.1220000    1.000000000000

     12   P      32             0.7270000    1.000000000000

 H         

     13   S      33            13.0100000    0.033498726390
     13   S      34             1.9620000    0.234800801174
     13   S      35             0.4446000    0.813682957883

     14   S      36             0.1220000    1.000000000000

     15   P      37             0.7270000    1.000000000000

 TOTAL NUMBER OF BASIS SET SHELLS             =   15
 NUMBER OF CARTESIAN GAUSSIAN BASIS FUNCTIONS =   30
 NOTE: THIS RUN WILL RESTRICT THE MO VARIATION SPACE TO SPHERICAL HARMONICS.
 THE NUMBER OF ORBITALS KEPT IN THE VARIATIONAL SPACE WILL BE PRINTED LATER.
 NUMBER OF ELECTRONS                          =    9
 CHARGE OF MOLECULE                           =    1
 SPIN MULTIPLICITY                            =    2
 NUMBER OF OCCUPIED ORBITALS (ALPHA)          =    5
 NUMBER OF OCCUPIED ORBITALS (BETA )          =    4
 TOTAL NUMBER OF ATOMS                        =    4
 THE NUCLEAR REPULSION ENERGY IS       11.0682734253

     $CONTRL OPTIONS
     ---------------
 SCFTYP=MCSCF        RUNTYP=ENERGY       EXETYP=RUN     
 MPLEVL=       2     CITYP =NONE         CCTYP =NONE         VBTYP =NONE    
 DFTTYP=NONE         TDDFT =NONE    
 MULT  =       2     ICHARG=       1     NZVAR =       0     COORD =UNIQUE  
 PP    =NONE         RELWFN=NONE         LOCAL =NONE         NUMGRD=       F
 ISPHER=       1     NOSYM =       1     MAXIT =     200     UNITS =ANGS    
 PLTORB=       F     MOLPLT=       F     AIMPAC=       F     FRIEND=        
 NPRINT=       7     IREST =       0     GEOM  =INPUT   
 NORMF =       0     NORMP =       0     ITOL  =      20     ICUT  =       9
 INTTYP=RYSQUAD      GRDTYP=BEST         QMTTOL= 1.0E-05

     $SYSTEM OPTIONS
     ---------------
  REPLICATED MEMORY=   100000000 WORDS (ON EVERY NODE).
 DISTRIBUTED MEMDDI=        1000 MILLION WORDS IN AGGREGATE,
 MEMDDI DISTRIBUTED OVER   1 PROCESSORS IS  1000000000 WORDS/PROCESSOR.
 TOTAL MEMORY REQUESTED ON EACH PROCESSOR=  1100000000 WORDS.
 TIMLIM=      525600.00 MINUTES, OR     365.0 DAYS.
 PARALL= T  BALTYP=  DLB     KDIAG=    3  COREFL= F
 MXSEQ2=     300 MXSEQ3=     150  mem10=         0

          ----------------
          PROPERTIES INPUT
          ----------------

     MOMENTS            FIELD           POTENTIAL          DENSITY
 IEMOM =       1   IEFLD =       0   IEPOT =       0   IEDEN =       0
 WHERE =COMASS     WHERE =NUCLEI     WHERE =NUCLEI     WHERE =NUCLEI  
 OUTPUT=BOTH       OUTPUT=BOTH       OUTPUT=BOTH       OUTPUT=BOTH    
 IEMINT=       0   IEFINT=       0                     IEDINT=       0
                                                       MORB  =       0

     -------------------------------
     INTEGRAL TRANSFORMATION OPTIONS
     -------------------------------
     NWORD  =            0
     CUTOFF = 1.0E-09     MPTRAN =       0
     DIRTRF =       T     AOINTS =DUP     

          ----------------------
          MCSCF INPUT PARAMETERS
          ----------------------
 CONVERGER SELECTION: FOCAS = F  SOSCF = F  FULLNR = T  QUD = F  JACOBI = F
 SECULAR EQUATION METHOD CISTEP = GMCCI   
 --- GENERAL INPUT OPTIONS:
 MAXIT =     100  MICIT =       1  ACURCY= 1.000E-06
 DAMP  =   0.000  CANONC=       T  ENGTOL= 1.000E-10
 EKT   =       F  NPUNCH=       2  NWORD =         0
 REGENERATE CI AFTER CONVERGENCE = NONE    
 DIABATIZATION AFTER CONVERGENCE =        F
 --- INPUT FOR FULLNR CONVERGER:
 METHOD=DM2       FORS  =       F  DROPC =       T
 LINSER=       F  FCORE =       F  NORB  =      30

          ----------------------
          INTEGRAL INPUT OPTIONS
          ----------------------
 NOPK  =       1 NORDER=       0 SCHWRZ=       T

 ------------------------------------------
 MULTIREFERENCE PERTURBATION THEORY CONTROL
 ------------------------------------------
 MRPT=GMCPT    READ CONVERGED MCSCF VECTORS= F


     ------------------------------------------
     THE POINT GROUP IS C1 , NAXIS= 1, ORDER= 1
     ------------------------------------------

 -- VARIATIONAL SPACE WILL BE RESTRICTED TO PURE SPHERICAL HARMONICS ONLY --
 AFTER EXCLUDING CONTAMINANT COMBINATIONS FROM THE CARTESIAN GAUSSIAN BASIS
 SET, THE NUMBER OF SPHERICAL HARMONICS KEPT IN THE VARIATION SPACE IS   29

     DIMENSIONS OF THE SYMMETRY SUBSPACES ARE
 A   =   29

 ..... DONE SETTING UP THE RUN .....
 CPU     0: STEP CPU TIME=     0.03 TOTAL CPU TIME=          0.0 (      0.0 MIN)
 TOTAL WALL CLOCK TIME=          0.0 SECONDS, CPU UTILIZATION IS    75.00%

          ********************
          1 ELECTRON INTEGRALS
          ********************
 TIME TO DO   DIPOLE INTEGRALS=      0.01
 ...... END OF ONE-ELECTRON INTEGRALS ......
 CPU     0: STEP CPU TIME=     0.01 TOTAL CPU TIME=          0.0 (      0.0 MIN)
 TOTAL WALL CLOCK TIME=          0.0 SECONDS, CPU UTILIZATION IS   100.00%

          -------------
          GUESS OPTIONS
          -------------
          GUESS =MOREAD            NORB  =      29          NORDER=       0
          MIX   =       F          PRTMO =       F          PUNMO =       F
          TOLZ  = 1.0E-08          TOLE  = 1.0E-05
          SYMDEN=       F          PURIFY=       T

 INITIAL GUESS ORBITALS GENERATED BY MOREAD   ROUTINE.

 STATISTICS FOR GENERATION OF SYMMETRY ORBITAL -Q- MATRIX
 NUMBER OF CARTESIAN ATOMIC ORBITALS=         30
 NUMBER OF SPHERICAL CONTAMINANTS DROPPED=     1
 NUMBER OF LINEARLY DEPENDENT MOS DROPPED=     0
 TOTAL NUMBER OF MOS IN VARIATION SPACE=      29
 ORBITAL PURIFICATION WILL OCCUR

 SYMMETRIES FOR INITIAL GUESS ORBITALS FOLLOW.   BOTH SET(S).
     5 ORBITALS ARE OCCUPIED (    1 CORE ORBITALS).
     1=A        2=A        3=A        4=A        5=A        6=A        7=A   
     8=A        9=A       10=A       11=A       12=A       13=A       14=A   
    15=A       16=A       17=A       18=A       19=A       20=A       21=A   
    22=A       23=A       24=A       25=A       26=A       27=A       28=A   
    29=A   
 ...... END OF INITIAL ORBITAL SELECTION ......
 CPU     0: STEP CPU TIME=     0.01 TOTAL CPU TIME=          0.0 (      0.0 MIN)
 TOTAL WALL CLOCK TIME=          0.1 SECONDS, CPU UTILIZATION IS   100.00%

                    ----------------------
                    AO INTEGRAL TECHNOLOGY
                    ----------------------
     S,P,L SHELL ROTATED AXIS INTEGRALS, REPROGRAMMED BY
        KAZUYA ISHIMURA (IMS) AND JOSE SIERRA (SYNSTAR).
     S,P,D,L SHELL ROTATED AXIS INTEGRALS PROGRAMMED BY
        KAZUYA ISHIMURA (INSTITUTE FOR MOLECULAR SCIENCE).
     S,P,D,F,G SHELL TO TOTAL QUARTET ANGULAR MOMENTUM SUM 5,
        ERIC PROGRAM BY GRAHAM FLETCHER (ELORET AND NASA ADVANCED
        SUPERCOMPUTING DIVISION, AMES RESEARCH CENTER).
     S,P,D,F,G,L SHELL GENERAL RYS QUADRATURE PROGRAMMED BY
        MICHEL DUPUIS (PACIFIC NORTHWEST NATIONAL LABORATORY).

          --------------------
          2 ELECTRON INTEGRALS
          --------------------

 DIRECT SCF METHOD SKIPS INTEGRAL STORAGE ON DISK.
 DIRECT TRANSFORMATION SKIPS AO INTEGRAL STORAGE ON DISK.
  ...... END OF TWO-ELECTRON INTEGRALS .....
 STEP CPU TIME =     0.02 TOTAL CPU TIME =          0.1 (      0.0 MIN)
 TOTAL WALL CLOCK TIME=          0.1 SECONDS, CPU UTILIZATION IS   100.00%
 DDI: Creating Array [0] - 900 x 36 = 32400 words.
 DDI: Creating Array [1] - 21 x 288 = 6048 words.
 DDI: Creating Array [2] - 36 x 36 = 1296 words.
 DDI: Creating Array [3] - 465 x 36 = 16740 words.

          -----------------
          MCSCF CALCULATION
          -----------------

 ----- NUCLEAR ENERGY ----- =        11.0682734253

     -------------------------------------------------
     GMC-PT/GMC-QDPT or general MCSCF input parameters
     -------------------------------------------------
 # of frozen core orbs. =         0 ->         0
 # of doubly occ. orbs. =         1
 # of active      orbs. =         7
 # of virtual     orbs. =        21
 # of active electrons  =         7
 # of states in CI      =         3
 Highest state in CI    =         3
 kstate =  1 1 1
 avecoe =  0.333 0.333 0.333
 State symmetry           = A           
 Assigned symmetry number = 1

 <<<Act. MO sym.: 1111111

 <<<Division of 1-ext.:  0
 <<<Division of 2-ext.:  0

 *** Reference space

 Reference type: ORMAS (= Occupation restricted multiple active space)
 # of orbitals          =  7
 # of minimum electrons =  7
 # of maximum electrons =  7
 State symmetry    =    1 (input)
 2*Sz              =    1 (input)
 Spin multiplicity =    2 (input)
 Dimension of reference space =      1225  (from      3432 walks)

 Dimension of reference space =      1225  (from      1225 walks)

 <<<Ionized spaces for Ref-CI:
      0:         1225 /   -1-0:         1960 /  0-1-0:         2891

 EVALUATING EXCHANGE INTEGRALS FOR DIRECT INTEGRAL TRANSFORMATION
 SCHWARZ INEQUALITY OVERHEAD:       465 INTEGRALS, T=        0.00

     --------------------------------------------
     PARTIAL TWO ELECTRON INTEGRAL TRANSFORMATION
     --------------------------------------------

 NUMBER OF CORE MOLECULAR ORBITALS     =    1
 NUMBER OF OCCUPIED MOLECULAR ORBITALS =    8
 TOTAL NUMBER OF MOLECULAR ORBITALS    =   29
 TOTAL NUMBER OF ATOMIC ORBITALS       =   30
 THRESHOLD FOR KEEPING TRANSFORMED 2E- INTEGRALS = 1.000E-09

 -------------------------------     ------------------------------
 DISTRIBUTED DATA TRANSFORMATION     PROGRAM WRITTEN BY G. FLETCHER
 -------------------------------     ------------------------------

 THE DISTRIBUTED MEMORY REQUIRED FOR THIS STEP IS MEMDDI=         1 MWORDS
 CREATING DISTRIBUTED STORAGE FOR [VIR OCC|VIR OCC] INTEGRALS
 CREATING DISTRIBUTED STORAGE FOR [VIR OCC|OCC OCC] INTEGRALS
 CREATING DISTRIBUTED STORAGE FOR [OCC OCC|OCC OCC] INTEGRALS
 CREATING DISTRIBUTED STORAGE FOR [VIR VIR|OCC OCC] INTEGRALS
 FOR    1 PROCESSORS, THE REPLICATED MEMORY NEEDED IS       73700 WORDS.
 SCHWARZ INEQUALITY OVERHEAD:       465 INTEGRALS, T=        0.00

      DIRECT 4-INDEX TRANSFORMATION 
      SCHWARZ INEQUALITY TEST SKIPPED          0 INTEGRAL BLOCKS
 ----- FROZEN CORE ENERGY =       -47.6010421759
 ... END OF INTEGRAL TRANSFORMATION ...
 CPU     0: STEP CPU TIME=     0.22 TOTAL CPU TIME=          0.3 (      0.0 MIN)
 TOTAL WALL CLOCK TIME=          0.3 SECONDS, CPU UTILIZATION IS   100.00%

     --------------------------------     -----------------------------
     MCHF NEWTON-RAPHSON OPTIMIZATION     CODE WRITTEN BY MICHEL DUPUIS
     --------------------------------     -----------------------------
     PARALLEL VERSION WRITTEN BY G. FLETCHER (ELORET)
     NASA ADVANCED SUPERCOMPUTING DIVISION, AMES RESEARCH CENTER

 NUMBER OF INDEPENDENT ORBITAL ROTATION PARAMETERS =   175
 ..... DONE SOLVING NEWTON-RAPHSON EQUATIONS .....
 CPU     0: STEP CPU TIME=     0.88 TOTAL CPU TIME=          1.2 (      0.0 MIN)
 TOTAL WALL CLOCK TIME=          1.2 SECONDS, CPU UTILIZATION IS   100.00%
 ..... DONE WITH NTN-RPH ORBITAL ROTATIONS ..... 
 CPU     0: STEP CPU TIME=     0.00 TOTAL CPU TIME=          1.2 (      0.0 MIN)
 TOTAL WALL CLOCK TIME=          1.2 SECONDS, CPU UTILIZATION IS   100.00%
 MAXIMUM MEMORY USED BY NTN-RPH CODE WAS     57645 WORDS.

 ITER     TOTAL ENERGY      DEL(E)  LAGRANGIAN ASYMMETRY   SQCDF  MICIT   DAMP
   1      -55.577474042 -0.577474042  0.151667   10    4 1.003E-01  1   0.0000
   2      -55.637196371 -0.059722329  0.020231   12    5 4.583E-01  1   0.0000
   3      -55.673886535 -0.036690164  0.014092   11    6 2.418E-01  1   0.0186
   4      -55.690919805 -0.017033270  0.005133    9    7 5.409E-02  1   0.0062
   5      -55.693472289 -0.002552484  0.000821    9    7 1.745E-03  1   0.0000
   6      -55.693557175 -0.000084886  0.000365   22    5 1.628E-04  1   0.0000
   7      -55.693566865 -0.000009690  0.000176   22    5 3.219E-05  1   0.0000
   8      -55.693568886 -0.000002021  0.000091   22    5 7.808E-06  1   0.0000
   9      -55.693569386 -0.000000500  0.000049   22    5 2.185E-06  1   0.0000
  10      -55.693569525 -0.000000140  0.000027   22    5 6.844E-07  1   0.0000
  11      -55.693569568 -0.000000043  0.000015   22    5 2.326E-07  1   0.0000
  12      -55.693569583 -0.000000014  0.000009   22    5 8.330E-08  1   0.0000
  13      -55.693569588 -0.000000005  0.000005   22    5 3.103E-08  1   0.0000
  14      -55.693569590 -0.000000002  0.000003   22    5 1.181E-08  1   0.0000
  15      -55.693569590 -0.000000001  0.000002   12    7 4.552E-09  1   0.0000
  16      -55.693569591 -0.000000000  0.000001   12    7 1.758E-09  1   0.0000
  17      -55.693569591 -0.000000000  0.000001   12    7 6.694E-10  1   0.0000

          --------------------
          LAGRANGIAN CONVERGED
          --------------------

 FINAL MCSCF ENERGY IS      -55.6935695906 AFTER  17 ITERATIONS

 -MCCI- BASED ON OPTIMIZED ORBITALS
 ----------------------------------

 PLEASE NOTE: IF THE ACTIVE ORBITALS ARE CANONICALIZED BELOW,
 THE FOLLOWING CI EXPANSION COEFFICIENTS AND THE DENSITY DO NOT
 CORRESPOND TO THE PRINTED ORBITALS.  THE PRINTED EXPANSIONS MATCH
 THE ORBITALS USED DURING THE LAST ITERATION.  IF YOU WISH TO SEE
 CI EXPANSIONS BASED ON THE CANONICAL (OR NATURAL) ORBITALS, YOU
 MUST RUN A CI CALCULATION WITH THAT ORBITAL CHOICE READ IN $VEC.

 Averaged energy =     -55.693569591

 State #    1  Energy =     -55.826543752  S =  0.500

      Det      Coef    Occupancy (Ignoring core)
      ---      ----    --------- --------- -----
        1   -0.918951  11110001110000
        5    0.070620  01111001110000
        8    0.131494  10110101110000
       17   -0.137488  11010011110000
       36   -0.183057  11110001101000
       71   -0.127678  11110001011000
      211   -0.052846  11110000110100
      386   -0.108393  11110001010010
      701    0.097632  11110001100001
      717   -0.073638  11010011100001

 State #    2  Energy =     -55.740892878  S =  0.500

      Det      Coef    Occupancy (Ignoring core)
      ---      ----    --------- --------- -----
        1    0.182571  11110001110000
       36   -0.938678  11110001101000
       39   -0.053101  10111001101000
       40    0.072096  01111001101000
       43    0.105332  10110101101000
       52   -0.110483  11010011101000
      281   -0.053206  11110000101100
      456   -0.096576  11110001001010

 State #    3  Energy =     -55.513272141  S =  0.500

      Det      Coef    Occupancy (Ignoring core)
      ---      ----    --------- --------- -----
        1    0.121682  11110001110000
       71   -0.949607  11110001011000
       78    0.065698  10110101011000
       87   -0.081824  11010011011000
      122    0.055333  11010010111000
      316   -0.081144  11110000011100
      806   -0.101643  11110001001001
      822    0.082969  11010011001001

 DENSITY MATRIX OVER ACTIVE MO-S

             1           2           3           4           5

    1    1.9727237
    2   -0.0105681   1.6346124
    3    0.0125355   0.0013490   1.6200276
    4    0.0010909  -0.0002495   0.0032225   1.6509964
    5    0.1085897   0.0460894  -0.0382605  -0.0191560   0.0383351
    6    0.0096323  -0.1551433   0.0122257  -0.0400630  -0.0010011
    7    0.0079906  -0.0014627  -0.1607384   0.0299964   0.0066838

             6           7

    6    0.0354725
    7   -0.0030094   0.0478323

 FORMING THE "STANDARD FOCK OPERATOR" IN DIRECT AO INTEGRAL MODE...
 ONLY THE    1 CORE AND   21 VIRTUAL ORBITALS WILL BE CANONICALIZED

          ----------------------
          MCSCF NATURAL ORBITALS
          ----------------------

                      1          2          3          4          5
                  -15.9849     1.9794     1.6549     1.6485     1.6370
                     A          A          A          A          A   
    1  N  1  S    1.001088   0.008602  -0.008248   0.005070  -0.001639
    2  N  1  S   -0.001887   0.433560  -0.110229   0.162186  -0.025153
    3  N  1  S   -0.006265   0.334259  -0.197677   0.223885  -0.039938
    4  N  1  X    0.000211  -0.025875   0.323038   0.330766   0.000841
    5  N  1  Y    0.000100   0.021666  -0.015182  -0.013723   0.555902
    6  N  1  Z    0.001178   0.083394   0.484884  -0.319240  -0.020998
    7  N  1  X    0.000100  -0.007489   0.145250   0.085454  -0.007614
    8  N  1  Y   -0.000009   0.001416  -0.024449  -0.009893   0.327203
    9  N  1  Z   -0.000600   0.018243   0.333557  -0.191893  -0.027168
   10  N  1 XX    0.000494   0.004448  -0.006715   0.008634  -0.002967
   11  N  1 YY   -0.000273  -0.004017  -0.011726   0.005048   0.003957
   12  N  1 ZZ   -0.000222  -0.000430   0.018442  -0.013682  -0.000990
   13  N  1 XY    0.000071   0.001110   0.002716   0.004007  -0.011778
   14  N  1 XZ   -0.000033  -0.003244   0.011040   0.016633  -0.000059
   15  N  1 YZ    0.000059   0.000500   0.001351  -0.002548   0.024114
   16  H  2  S   -0.001559   0.199088  -0.014629  -0.284095   0.259340
   17  H  2  S    0.000274   0.007005   0.015220  -0.048605   0.111290
   18  H  2  X   -0.000610   0.025473   0.008212  -0.010005   0.023314
   19  H  2  Y    0.000505  -0.021291  -0.002136   0.029507  -0.000654
   20  H  2  Z    0.000473  -0.014360   0.023318   0.002243  -0.017423
   21  H  3  S   -0.001359   0.171338  -0.035887  -0.248703  -0.270883
   22  H  3  S    0.000291   0.000300   0.012753  -0.036323  -0.113099
   23  H  3  X   -0.000595   0.024900   0.000998  -0.016995  -0.029771
   24  H  3  Y   -0.000384   0.016062  -0.004203  -0.025750  -0.000465
   25  H  3  Z    0.000383  -0.008183   0.023798  -0.002634   0.010458
   26  H  4  S   -0.001958   0.169119   0.294009   0.239314   0.031919
   27  H  4  S    0.000689  -0.001681   0.045482   0.018875  -0.003400
   28  H  4  X    0.001045  -0.032847  -0.031278  -0.025969  -0.008673
   29  H  4  Y    0.000155  -0.003317  -0.007383  -0.006947   0.018855
   30  H  4  Z    0.000320  -0.002405   0.010394  -0.019878  -0.001617

                      6          7          8
                    0.0331     0.0285     0.0185
                     A          A          A   
    1  N  1  S   -0.115954  -0.095707   0.149362
    2  N  1  S   -0.420764  -0.372987   0.438427
    3  N  1  S   -0.105472  -0.203829  -0.034836
    4  N  1  X    0.126528   0.361297   0.838229
    5  N  1  Y    0.571149  -0.495757   0.186261
    6  N  1  Z   -0.348376  -0.478735   0.168794
    7  N  1  X    0.053932   0.101355   0.105305
    8  N  1  Y   -0.073557   0.028994   0.010712
    9  N  1  Z    0.026173  -0.001153  -0.088313
   10  N  1 XX    0.043189   0.022519  -0.014813
   11  N  1 YY   -0.040627  -0.024177  -0.007317
   12  N  1 ZZ   -0.002562   0.001658   0.022130
   13  N  1 XY    0.045879  -0.029667  -0.019051
   14  N  1 XZ   -0.023888  -0.035087  -0.034584
   15  N  1 YZ   -0.008048   0.016810  -0.017640
   16  H  2  S   -0.184618   0.799473   0.057248
   17  H  2  S   -0.146507   0.210811  -0.001429
   18  H  2  X   -0.024676   0.031995  -0.030395
   19  H  2  Y   -0.026233  -0.051371  -0.015830
   20  H  2  Z    0.026862  -0.002612   0.005619
   21  H  3  S    0.748083   0.029207   0.256562
   22  H  3  S    0.225414  -0.082848   0.083019
   23  H  3  X    0.060872  -0.016327   0.001619
   24  H  3  Y    0.029862   0.037791   0.022676
   25  H  3  Z    0.004864   0.028919   0.006757
   26  H  4  S    0.276389   0.132632  -0.837531
   27  H  4  S    0.032004  -0.007083  -0.152620
   28  H  4  X   -0.028185  -0.024892   0.082795
   29  H  4  Y   -0.012792   0.001628   0.011737
   30  H  4  Z   -0.001496   0.001489  -0.026315

          ------------------------
          MCSCF OPTIMIZED ORBITALS
          ------------------------

                      1          2          3          4          5
                  -15.9849     0.0000     0.0000     0.0000     0.0000
                     A          A          A          A          A   
    1  N  1  S    1.001088  -0.001241  -0.016284   0.004138  -0.010116
    2  N  1  S   -0.001887   0.399359   0.010546  -0.002311  -0.182018
    3  N  1  S   -0.006265   0.324609   0.061616  -0.043543  -0.283357
    4  N  1  X    0.000211  -0.003231   0.370065  -0.014971   0.049453
    5  N  1  Y    0.000100   0.009164   0.000588   0.476341  -0.008964
    6  N  1  Z    0.001178   0.050253  -0.002246   0.008411   0.588881
    7  N  1  X    0.000100   0.001808   0.141740  -0.013183   0.065292
    8  N  1  Y   -0.000009  -0.009399  -0.007262   0.333527  -0.026018
    9  N  1  Z   -0.000600   0.021795   0.042111  -0.017773   0.385339
   10  N  1 XX    0.000494   0.007346   0.004697  -0.006175  -0.010515
   11  N  1 YY   -0.000273  -0.006667  -0.001867   0.006083  -0.012007
   12  N  1 ZZ   -0.000222  -0.000680  -0.002830   0.000092   0.022521
   13  N  1 XY    0.000071   0.002437   0.006821  -0.017536   0.001657
   14  N  1 XZ   -0.000033  -0.004658   0.023309  -0.000641   0.000898
   15  N  1 YZ    0.000059   0.000355   0.001455   0.025672   0.001605
   16  H  2  S   -0.001559   0.208298  -0.244935   0.335856   0.119302
   17  H  2  S    0.000274   0.005551  -0.028410   0.137250   0.030355
   18  H  2  X   -0.000610   0.025277  -0.000432   0.028300   0.011240
   19  H  2  Y    0.000505  -0.023481   0.024920  -0.003092  -0.017134
   20  H  2  Z    0.000473  -0.012554   0.014419  -0.020459   0.018411
   21  H  3  S   -0.001359   0.200456  -0.257772  -0.316556   0.120767
   22  H  3  S    0.000291   0.007621  -0.032959  -0.134886   0.036852
   23  H  3  X   -0.000595   0.027050  -0.014745  -0.034210   0.012254
   24  H  3  Y   -0.000384   0.017833  -0.025943   0.000616   0.010107
   25  H  3  Z    0.000383  -0.006883   0.011397   0.011230   0.019724
   26  H  4  S   -0.001958   0.202376   0.444615   0.003760   0.113478
   27  H  4  S    0.000689   0.002088   0.056711  -0.007729   0.029381
   28  H  4  X    0.001045  -0.036528  -0.046874  -0.006657  -0.011194
   29  H  4  Y    0.000155  -0.004622  -0.010123   0.020283  -0.002940
   30  H  4  Z    0.000320  -0.002365  -0.007649  -0.000260   0.020388

                      6          7          8          9         10
                    0.0000     0.0000     0.0000     0.1136     0.1964
                     A          A          A          A          A   
    1  N  1  S    0.183647   0.104638  -0.004823  -0.090392   0.031094
    2  N  1  S    0.683477   0.274340  -0.017415  -0.126412   0.034158
    3  N  1  S    0.228877  -0.103805   0.043530   1.049873  -0.447796
    4  N  1  X   -0.102037   0.955735  -0.011547   0.036749   0.140687
    5  N  1  Y    0.021129   0.061571   0.827824  -0.016010   0.044050
    6  N  1  Z    0.609212   0.008463   0.053604  -0.117810   0.033014
    7  N  1  X   -0.074987   0.150087  -0.010261  -0.228192  -0.765613
    8  N  1  Y    0.021446   0.010352  -0.038734   0.046769  -0.115747
    9  N  1  Z   -0.041838  -0.069547  -0.001456   0.295250  -0.021772
   10  N  1 XX   -0.047341  -0.004373   0.015972   0.085835  -0.074362
   11  N  1 YY    0.041239  -0.017411  -0.015827  -0.049396   0.035625
   12  N  1 ZZ    0.006101   0.021785  -0.000144  -0.036439   0.038737
   13  N  1 XY   -0.013129  -0.023385   0.049289   0.005841  -0.026506
   14  N  1 XZ    0.031580  -0.042922  -0.001053  -0.058248  -0.089376
   15  N  1 YZ   -0.012119  -0.012341  -0.016897   0.015748  -0.010380
   16  H  2  S   -0.439148   0.259930  -0.611153   0.376747   0.173149
   17  H  2  S   -0.059552   0.049699  -0.233072  -0.895897  -0.596321
   18  H  2  X   -0.014415  -0.021108  -0.041191  -0.098722  -0.009232
   19  H  2  Y    0.049060  -0.030237   0.010491  -0.017380   0.004060
   20  H  2  Z   -0.014092   0.008374   0.020658   0.047092   0.051566
   21  H  3  S   -0.427717   0.282340   0.555069   0.414486   0.173931
   22  H  3  S   -0.062724   0.067730   0.222760  -0.879577  -0.606563
   23  H  3  X   -0.025736  -0.000411   0.053279  -0.073667  -0.025806
   24  H  3  Y   -0.040089   0.032694   0.001853   0.028156  -0.001044
   25  H  3  Z   -0.022506   0.017025  -0.012899   0.039552   0.064983
   26  H  4  S   -0.478775  -0.698582   0.000006   0.288209  -0.546722
   27  H  4  S   -0.055583  -0.139815   0.005029  -0.491203   1.943828
   28  H  4  X    0.055427   0.065292   0.006287   0.065809  -0.131371
   29  H  4  Y    0.009329   0.009708  -0.006940  -0.002884  -0.025088
   30  H  4  Z   -0.007817  -0.025034  -0.006391  -0.025987  -0.068834

                     11         12         13         14         15
                    0.2592     0.5261     0.5746     0.6559     0.8673
                     A          A          A          A          A   
    1  N  1  S    0.009813  -0.110398  -0.019914   0.028029  -0.589522
    2  N  1  S    0.023126  -0.135820   0.025425   0.021538  -1.319049
    3  N  1  S   -0.063296   0.859773   0.384106  -0.146471   2.270962
    4  N  1  X    0.028155  -0.216707   0.094557  -0.400382   0.117146
    5  N  1  Y    0.034419   0.296973  -0.607210  -0.205088   0.000118
    6  N  1  Z    0.008991  -0.639819  -0.298303   0.228128   0.287469
    7  N  1  X   -0.092004   0.572187  -0.380065   1.807907  -0.146362
    8  N  1  Y   -0.462553  -0.424934   1.313779   0.480033   0.023933
    9  N  1  Z   -0.053796   0.899274   0.602761  -0.557818  -0.125305
   10  N  1 XX    0.007776  -0.027969  -0.032721  -0.015500  -0.058683
   11  N  1 YY   -0.003033   0.004479   0.020993  -0.006259   0.060097
   12  N  1 ZZ   -0.004743   0.023490   0.011729   0.021759  -0.001414
   13  N  1 XY    0.087214   0.008232   0.030072   0.036034   0.042491
   14  N  1 XZ    0.005156  -0.006699  -0.003037  -0.068452   0.013767
   15  N  1 YZ   -0.056944  -0.001274  -0.004654  -0.021879   0.032530
   16  H  2  S   -0.624196  -0.071473  -0.574082   0.312322  -0.004963
   17  H  2  S    2.161934   0.236826  -0.920068   0.162533  -0.328597
   18  H  2  X    0.018922   0.083606  -0.078651   0.134959   0.085240
   19  H  2  Y   -0.101295   0.035503   0.066356  -0.161945   0.251205
   20  H  2  Z   -0.026166   0.083680   0.104708   0.075073   0.145123
   21  H  3  S    0.598069  -0.234935   0.109108   0.601998  -0.015759
   22  H  3  S   -2.088430  -0.257810   0.639031   0.500822  -0.375383
   23  H  3  X   -0.027106   0.036233   0.038808   0.226873   0.022022
   24  H  3  Y   -0.098470  -0.074731  -0.081919   0.089038  -0.286938
   25  H  3  Z    0.003666   0.127905   0.000711   0.106161   0.063240
   26  H  4  S    0.056955  -0.562091  -0.170302  -0.520941  -0.172196
   27  H  4  S   -0.083147  -0.372887   0.167990  -0.675830  -0.507546
   28  H  4  X   -0.019020   0.084192  -0.023798   0.171835   0.078798
   29  H  4  Y    0.036180   0.021829   0.091871   0.074764   0.106594
   30  H  4  Z    0.000255   0.032684   0.033023  -0.148372   0.154759

                     16         17         18         19         20
                    1.0560     1.1060     1.2229     1.3125     1.4552
                     A          A          A          A          A   
    1  N  1  S   -0.150843  -0.241010  -0.124091  -0.186827  -0.407844
    2  N  1  S   -0.299970  -0.501146  -0.257249  -0.398519  -0.873622
    3  N  1  S    0.632362   1.079009   0.532729   0.701012   1.308833
    4  N  1  X    0.075677  -0.106992  -0.208927   0.028841   0.140307
    5  N  1  Y    0.021036  -0.115654  -0.029108   0.096767   0.004704
    6  N  1  Z    0.067908   0.014021  -0.021438   0.002344  -0.087058
    7  N  1  X   -0.601718   0.555153   1.175715   0.071713  -0.486436
    8  N  1  Y   -0.018071   0.502881  -0.040319  -0.216142   0.224981
    9  N  1  Z   -0.201449   0.187023   0.070628   0.282195   0.682771
   10  N  1 XX   -0.039219   0.050222   0.010340  -0.005208   0.122520
   11  N  1 YY   -0.234702  -0.034992   0.029408   0.100716  -0.094815
   12  N  1 ZZ    0.273922  -0.015230  -0.039748  -0.095508  -0.027705
   13  N  1 XY    0.014468  -0.208415   0.080053   0.019663   0.013363
   14  N  1 XZ    0.044228   0.053294   0.040316  -0.023808  -0.021494
   15  N  1 YZ    0.006531  -0.216137   0.208326  -0.192473  -0.070859
   16  H  2  S   -0.333918  -0.263860   0.135786  -0.047949  -0.578401
   17  H  2  S   -0.078232  -0.153538   0.077412  -0.074631  -0.192610
   18  H  2  X   -0.060768  -0.209358  -0.082503  -0.615568   0.076289
   19  H  2  Y   -0.368536  -0.013757  -0.115177  -0.064827  -0.169620
   20  H  2  Z    0.423274  -0.398381  -0.061269  -0.397626   0.182385
   21  H  3  S   -0.413583   0.181047   0.253723  -0.362439  -0.528935
   22  H  3  S   -0.073032   0.066576   0.059914   0.027810   0.077630
   23  H  3  X   -0.048047  -0.188985  -0.465532   0.297499  -0.026668
   24  H  3  Y    0.301496   0.097643   0.251514   0.129970   0.249387
   25  H  3  Z    0.376586   0.154167  -0.541670   0.146853  -0.461833
   26  H  4  S    0.166649  -0.462092  -0.651272  -0.169788  -0.183054
   27  H  4  S    0.041336  -0.340770  -0.350261  -0.103012  -0.059662
   28  H  4  X   -0.063558   0.102632  -0.178953  -0.071764   0.078457
   29  H  4  Y    0.033870  -0.561323   0.277272   0.530676  -0.219782
   30  H  4  Z    0.275324   0.210477   0.347200  -0.118491  -0.694384

                     21         22         23         24         25
                    1.6026     1.7547     1.8808     1.9587     2.1351
                     A          A          A          A          A   
    1  N  1  S    0.115982   0.033698   0.106181   0.023845   0.030299
    2  N  1  S    0.230934   0.190408   0.229145   0.079216   0.066742
    3  N  1  S   -0.485054   1.004403   0.232007   0.327866   0.045545
    4  N  1  X   -0.141781  -0.309245   0.568430   0.069123   0.047208
    5  N  1  Y    0.155680   0.081343   0.092888  -0.008821   0.123828
    6  N  1  Z    0.021090   0.245587  -0.001957   0.033665   0.034160
    7  N  1  X    0.517280  -0.308755   0.206535   0.205226   0.013963
    8  N  1  Y    0.430194  -0.044043   0.054349  -0.129217  -0.023936
    9  N  1  Z   -0.248781   0.381090   0.019227   0.298967   0.059172
   10  N  1 XX    0.001003  -0.127681  -0.244830  -0.016347  -0.102568
   11  N  1 YY   -0.103719   0.171000   0.341198  -0.798501  -0.061053
   12  N  1 ZZ    0.102716  -0.043320  -0.096368   0.814848   0.163620
   13  N  1 XY    0.121025  -0.016115  -0.015666  -0.032786   0.435339
   14  N  1 XZ   -0.001201   0.156831  -0.152199  -0.148635  -0.005253
   15  N  1 YZ   -0.258054  -0.185226  -0.156475  -0.073348   0.163623
   16  H  2  S    0.378435  -0.158740  -0.057930   0.065520  -0.395928
   17  H  2  S   -0.341939  -0.329504   0.143063   0.114726  -0.376468
   18  H  2  X   -0.430259  -0.553105   0.089441  -0.106022   0.065696
   19  H  2  Y    0.083621   0.235139  -0.210383   0.122983   1.085037
   20  H  2  Z    0.429741   0.508787  -0.008790  -0.357403  -0.127880
   21  H  3  S    0.183872  -0.163573  -0.032668  -0.056629   0.381611
   22  H  3  S    0.465622  -0.347471   0.122471  -0.141337   0.356477
   23  H  3  X    0.498345  -0.728338   0.066349  -0.188976   0.091487
   24  H  3  Y   -0.126610  -0.115443   0.195887  -0.301274   1.055032
   25  H  3  Z   -0.511665   0.169568  -0.339136  -0.234292   0.190611
   26  H  4  S   -0.153982  -0.051596  -0.066002  -0.155201  -0.059876
   27  H  4  S    0.012957  -0.033311  -0.456342  -0.210215  -0.001562
   28  H  4  X   -0.155165   0.323614   0.966595   0.352480   0.151670
   29  H  4  Y   -0.384912   0.068811   0.086693   0.274483  -0.213597
   30  H  4  Z    0.320377  -0.410999   0.397134  -0.119277  -0.020738

                     26         27         28         29
                    2.1980     2.5908     2.6773     2.9456
                     A          A          A          A   
    1  N  1  S   -0.073552   0.114660  -0.103267  -0.040176
    2  N  1  S   -0.111293   0.221400  -0.072778   0.036261
    3  N  1  S    0.673039  -0.020393   1.692233   1.477294
    4  N  1  X    0.009274   0.415558  -0.101756   0.358577
    5  N  1  Y    0.016290   0.135634   0.202927  -0.109959
    6  N  1  Z    0.050196   0.022801   0.240647   0.143218
    7  N  1  X   -0.049814   1.245172  -0.586489   0.521066
    8  N  1  Y    0.519583   0.335510   0.381175  -0.168715
    9  N  1  Z    0.329804  -0.120146   0.445551   0.173423
   10  N  1 XX   -0.232119   0.379922   0.761786   1.122170
   11  N  1 YY    0.123222  -0.277905  -0.329323  -0.510343
   12  N  1 ZZ    0.108897  -0.102017  -0.432464  -0.611827
   13  N  1 XY    0.335750  -0.455692  -0.615089   0.941796
   14  N  1 XZ   -0.030131   1.059280  -0.777162   0.144864
   15  N  1 YZ    0.812964   0.323019   0.427609  -0.255400
   16  H  2  S   -0.194671   0.114028  -1.241919   0.429078
   17  H  2  S   -0.170139  -0.015242  -0.493371   0.123830
   18  H  2  X   -0.676608  -0.016839  -0.713355   0.261629
   19  H  2  Y   -0.386112   0.079708   0.669481  -0.299944
   20  H  2  Z   -0.152546   0.085309   0.640887  -0.177879
   21  H  3  S   -0.219754   0.833827  -0.194210  -0.744316
   22  H  3  S    0.024024   0.387272   0.021691  -0.210452
   23  H  3  X    0.147984   0.698115  -0.023909  -0.580243
   24  H  3  Y   -0.408352   0.294064   0.060870  -0.480020
   25  H  3  Z    0.051949  -0.216772   0.104589   0.424699
   26  H  4  S   -0.177203  -0.960951  -0.341623  -1.282767
   27  H  4  S   -0.107390  -0.413073  -0.056548  -0.372084
   28  H  4  X    0.292557   0.750222   0.288925   0.982855
   29  H  4  Y   -0.527593   0.306088   0.175857   0.022849
   30  H  4  Z   -0.174996  -0.063595   0.293584   0.389105
 .....DONE WITH MCSCF ITERATIONS.....
 CPU     0: STEP CPU TIME=    10.62 TOTAL CPU TIME=         11.8 (      0.2 MIN)
 TOTAL WALL CLOCK TIME=         11.8 SECONDS, CPU UTILIZATION IS    99.92%

     ----------------------------------------------------------------
     PROPERTY VALUES FOR THE MCSCF SELF-CONSISTENT FIELD WAVEFUNCTION
     ----------------------------------------------------------------

          -----------------
          ENERGY COMPONENTS
          -----------------

         WAVEFUNCTION NORMALIZATION =       1.0000000000

                ONE ELECTRON ENERGY =     -93.6410425012
                TWO ELECTRON ENERGY =      26.8791994853
           NUCLEAR REPULSION ENERGY =      11.0682734253
                                      ------------------
                       TOTAL ENERGY =     -55.6935695906

 ELECTRON-ELECTRON POTENTIAL ENERGY =      26.8791994853
  NUCLEUS-ELECTRON POTENTIAL ENERGY =    -149.3260700223
   NUCLEUS-NUCLEUS POTENTIAL ENERGY =      11.0682734253
                                      ------------------
             TOTAL POTENTIAL ENERGY =    -111.3785971117
               TOTAL KINETIC ENERGY =      55.6850275210
                 VIRIAL RATIO (V/T) =       2.0001533998

          ---------------------------------------
          MULLIKEN AND LOWDIN POPULATION ANALYSES
          ---------------------------------------

     ATOMIC MULLIKEN POPULATION IN EACH MOLECULAR ORBITAL

                      1          2          3          4          5

                  2.000000   1.979390   1.654886   1.648544   1.637044

    1             2.000634   1.363531   1.374306   0.970598   1.210541
    2            -0.000199   0.251423   0.010319   0.257621   0.187371
    3            -0.000131   0.188981   0.014158   0.208885   0.227529
    4            -0.000304   0.175454   0.256103   0.211439   0.011602

                      6          7          8

                  0.033132   0.028517   0.018487

    1             0.014852   0.014444   0.009777
    2             0.000577   0.013664   0.000075
    3             0.015677   0.000110   0.000705
    4             0.002026   0.000299   0.007930
 WARNING! MCSCF POPULATIONS SHOWN ABOVE ARE FOR THE NATURAL ORBITALS.
 IGNORE THE ABOVE DATA FOR MCSCF FUNCTIONS WHICH ARE NOT OF -FORS- TYPE.
 THE FOLLOWING POPULATIONS ARE CORRECT FOR ANY MCSCF WAVEFUNCTION.

               ----- POPULATIONS IN EACH AO -----
                             MULLIKEN      LOWDIN
              1  N  1  S      2.00226     1.90337
              2  N  1  S      0.81739     0.57951
              3  N  1  S      0.70737     0.41340
              4  N  1  X      0.61570     0.53302
              5  N  1  Y      0.76719     0.71192
              6  N  1  Z      0.84142     0.79299
              7  N  1  X      0.22374     0.36879
              8  N  1  Y      0.44776     0.49613
              9  N  1  Z      0.52088     0.55870
             10  N  1 XX      0.00041     0.19153
             11  N  1 YY      0.00174     0.14962
             12  N  1 ZZ      0.00305     0.14353
             13  N  1 XY      0.00586     0.00854
             14  N  1 XZ      0.00391     0.01322
             15  N  1 YZ      0.00000     0.00517
             16  H  2  S      0.60387     0.45681
             17  H  2  S      0.05990     0.15171
             18  H  2  X      0.01980     0.03504
             19  H  2  Y      0.02043     0.05340
             20  H  2  Z      0.01684     0.03534
             21  H  3  S      0.54421     0.41216
             22  H  3  S      0.05921     0.15263
             23  H  3  X      0.02341     0.03797
             24  H  3  Y      0.01653     0.04811
             25  H  3  Z      0.01256     0.02800
             26  H  4  S      0.58236     0.45291
             27  H  4  S      0.02609     0.14643
             28  H  4  X      0.03646     0.06459
             29  H  4  Y      0.00916     0.02539
             30  H  4  Z      0.01048     0.03007

          ----- MULLIKEN ATOMIC OVERLAP POPULATIONS -----
          (OFF-DIAGONAL ELEMENTS NEED TO BE MULTIPLIED BY 2)

             1           2           3           4

    1    6.1619087
    2    0.2504758   0.4817974
    3    0.2381234  -0.0069694   0.4300857
    4    0.3081743  -0.0044513  -0.0053250   0.3661525

          TOTAL MULLIKEN AND LOWDIN ATOMIC POPULATIONS
       ATOM         MULL.POP.    CHARGE          LOW.POP.     CHARGE
    1 N             6.958682    0.041318         6.869428    0.130572
    2 H             0.720853    0.279147         0.732307    0.267693
    3 H             0.655915    0.344085         0.678873    0.321127
    4 H             0.664550    0.335450         0.719392    0.280608

          MULLIKEN SPHERICAL HARMONIC POPULATIONS
       ATOM           S       P       D      F      G      H      I    TOTAL
    1 N             3.53    3.42    0.01   0.00   0.00   0.00   0.00    6.96
    2 H             0.66    0.06    0.00   0.00   0.00   0.00   0.00    0.72
    3 H             0.60    0.05    0.00   0.00   0.00   0.00   0.00    0.66
    4 H             0.61    0.06    0.00   0.00   0.00   0.00   0.00    0.66

          ---------------------
          ELECTROSTATIC MOMENTS
          ---------------------

 POINT   1           X           Y           Z (BOHR)    CHARGE
                -0.000004    0.000001   -0.177185        1.00 (A.U.)
         DX          DY          DZ         /D/  (DEBYE)
    -0.852293    0.245521    2.183317    2.356598
 ...... END OF PROPERTY EVALUATION ......
 CPU     0: STEP CPU TIME=     0.01 TOTAL CPU TIME=         11.8 (      0.2 MIN)
 TOTAL WALL CLOCK TIME=         11.8 SECONDS, CPU UTILIZATION IS   100.00%

     -------------------------------------------------
     GMC-PT/GMC-QDPT or general MCSCF input parameters
     -------------------------------------------------
 # of frozen core orbs. =         0 ->         0
 # of doubly occ. orbs. =         1
 # of active      orbs. =         7
 # of virtual     orbs. =        21
 # of active electrons  =         7
 # of states in CI      =         3
 Highest state in CI    =         3
 kstate =  1 1 1
 avecoe =  0.333 0.333 0.333
 State symmetry           = A           
 Assigned symmetry number = 1

 <<<Act. MO sym.: 1111111

 <<<Division of 1-ext.:  0
 <<<Division of 2-ext.:  0

     ------------------------
     Orbital canonicalization
     ------------------------

 MOs are canonicalized for core, virtual, and invariant-active orbital spaces.
 This is a part of the GMC-QDPT calculation.
 SCHWARZ INEQUALITY OVERHEAD:       465 INTEGRALS, T=        0.00
 DIRECT TRANSFORMATION SKIPS AO INTEGRAL STORAGE ON DISK.

 Averaged energy =     -55.693569591

 State #    1  Energy =     -55.826543752  S =  0.500
 State #    2  Energy =     -55.740892878  S =  0.500
 State #    3  Energy =     -55.513272141  S =  0.500

 Orbital energies for filled orbital space
  -15.984904
 Orbital energies for active orbital space
   -1.495442  -1.015115  -0.781623  -0.731202   0.137544
    0.410015   0.227362
 Orbital energies for external orbital space
    0.113617   0.196395   0.259198   0.526128   0.574636
    0.655907   0.867275   1.056048   1.105962   1.222854
    1.312524   1.455162   1.602643   1.754719   1.880778
    1.958682   2.135142   2.197969   2.590790   2.677339
    2.945613

 Zero values mean non-canonical orbitals.
 ... done with orbital canonicalization ...
 CPU     0: STEP CPU TIME=     0.56 TOTAL CPU TIME=         12.4 (      0.2 MIN)
 TOTAL WALL CLOCK TIME=         12.4 SECONDS, CPU UTILIZATION IS    99.92%

     --------------------------------------------
     PARTIAL TWO ELECTRON INTEGRAL TRANSFORMATION
     --------------------------------------------

 NUMBER OF CORE MOLECULAR ORBITALS     =    0
 NUMBER OF OCCUPIED MOLECULAR ORBITALS =    8
 TOTAL NUMBER OF MOLECULAR ORBITALS    =   29
 TOTAL NUMBER OF ATOMIC ORBITALS       =   30
 THRESHOLD FOR KEEPING TRANSFORMED 2E- INTEGRALS = 1.000E-09
 AO INTEGRALS WILL BE CALCULATED IN DIRECT MODE...
 DIRECT TRANSFORMATION SKIPS AO INTEGRAL STORAGE ON DISK.
 SCHWARZ INEQUALITY OVERHEAD:       465 INTEGRALS, T=        0.00

 PLAN A: REQUIREMENTS FOR FULLY IN-MEMORY TRANSFORMATION:
 # OF WORDS AVAILABLE =            100000000
 # OF WORDS NEEDED    =               221798

 PARALLEL ONLY WORKS WITH THE SEGMENTED ALGORITHM.
 ADJUSTING MEMORY TO USE SEGMENTED ALGORITHM.


 PLAN B: REQUIREMENTS FOR THE SEGMENTED TRANSFORMATION:
       MINIMUM=         124148 WORDS FOR 1 MOLECULAR ORBITAL PER PASS
       MAXIMUM=         221798 WORDS FOR ALL MOLECULAR ORBITALS IN 1 PASS
              (          13950 EXTRA WORDS INCLUDES 1 EXTRA ORBITAL/PASS)
 THIS RUN USES=         221798 WORDS,
 DISTRIBUTING   1 PASSES EACH CONTAINING     8 ORBITALS OVER   1 PROCESSORS.

 CHOOSING SEGMENTED PARTIAL TRANSFORMATION...
 DIRECT TRANSFORMATION SKIPS AO INTEGRAL STORAGE ON DISK.
 PASS #   1 TOOK        0.05 SECONDS.
 TOTAL NUMBER OF TRANSFORMED 2E- INTEGRALS KEPT =        29226
 ... END OF INTEGRAL TRANSFORMATION ...
 CPU     0: STEP CPU TIME=     0.05 TOTAL CPU TIME=         12.4 (      0.2 MIN)
 TOTAL WALL CLOCK TIME=         12.4 SECONDS, CPU UTILIZATION IS    99.92%

     --------     ------------------------------------------
     GMC-QDPT     Program written by H.Nakano (Kyushu Univ.)
     --------     ------------------------------------------

 *** Reference space

 Reference type: ORMAS (= Occupation restricted multiple active space)
 # of orbitals          =  7
 # of minimum electrons =  7
 # of maximum electrons =  7
 State symmetry    =    1 (input)
 2*Sz              =    1 (input)
 Spin multiplicity =    2 (input)
 Dimension of reference space =      1225  (from      3432 walks)

 Dimension of reference space =      1225  (from      1225 walks)

 <<<Ionized spaces for Ref-CI:
      0:         1225 /   -1-0:         1960 /  0-1-0:         2891

 ***                    ***
 *** Reference space CI ***
 ***                    ***

 Converged after   27 iterations

 Reference wavefunctions:

 State #    1  Energy =     -55.826543752  S =  0.500

      Det      Coef    Occupancy (Ignoring core)
      ---      ----    --------- --------- -----
        1   -0.967272  11110001110000
       36    0.124852  11110001101000
      393   -0.055153  10110101010010
      717   -0.079335  11010011100001

 State #    2  Energy =     -55.740892878  S =  0.500

      Det      Coef    Occupancy (Ignoring core)
      ---      ----    --------- --------- -----
        1   -0.128487  11110001110000
       36   -0.972735  11110001101000
      463   -0.055440  10110101001010

 State #    3  Energy =     -55.513272141  S =  0.500

      Det      Coef    Occupancy (Ignoring core)
      ---      ----    --------- --------- -----
       71   -0.972764  11110001011000
      122    0.051858  11010010111000
      822    0.081395  11010011001001

 Davidson method: CPU/Wall time =           0.40 /           0.41 sec.

 Oscillator strength (invalid if E(1)/=E(GS)):
 -----------------------------------------
   State                        f
 -----------------------------------------
     2     F(REF-CI)=        0.0007323420
     3     F(REF-CI)=        0.0056000495
 -----------------------------------------

 Dipole moment matrix elements, x, y, z, in A.U.

 Dimension of ionized spaces for PT:
 (N-2) space:         1715 /  (N-1) space:         2842 /  N space:         2891
 (N+1) space:         2842 /  (N+2) space:         1715

 <<<Ionized spaces for internal:
         0:         1225 /      -1-0:         1960 /     0-1-0:         2891
  -1-0-1-0:         2842 / 0-1-0-1-0:         3381

 Diagonal elements of averaged one-particle density matrix:
       2       3       4       5       6       7       8
  0.9925  0.9868  0.9835  0.9904  0.0189  0.0108  0.0171
  0.9868  0.6630  0.6553  0.6614  0.0137  0.0078  0.0121

 Orbital energies:
 -------- Doubly-occupied orbitals (highest several orbs.) -------
             1
 -1.598490D+01
 -------- Active orbitals ----------------------------------------
             2            3            4            5            6
 -1.495442D+00-1.015115D+00-7.816232D-01-7.312019D-01 1.375445D-01
             7            8
  4.100146D-01 2.273617D-01
 -------- External orbitals (lowest several orbs.) ---------------
             9           10           11           12           13
  1.136166D-01 1.963948D-01 2.591981D-01 5.261284D-01 5.746361D-01
            14           15           16           17           18
  6.559072D-01 8.672751D-01 1.056048D+00 1.105962D+00 1.222854D+00

 *** Quasi-degeneracy checking

 === Det (|Ci| > 1.0D-01 and dE < 5.0D-03)

 # of small denominators (single excitations)
 State       dEmin  dE < 5.0D-03  dE < 5.0D-04  dE < 5.0D-05  dE < 5.0D-06
 ----- ----------- ------------- ------------- ------------- -------------
     1    5.00D-03             0             0             0             0
     2    5.00D-03             0             0             0             0
     3    5.00D-03             0             0             0             0

 # of small denominators (double excitations)
 State       dEmin  dE < 5.0D-03  dE < 5.0D-04  dE < 5.0D-05  dE < 5.0D-06
 ----- ----------- ------------- ------------- ------------- -------------
     1    5.00D-03             0             0             0             0
     2    5.00D-03             0             0             0             0
     3    5.00D-03             0             0             0             0

 *** Zeroth-Order Setup (Granovsky's zeroth-order vectors)
 Zeroth-order effective Hamiltonian
  (= Sum_i e(i)*<I|a+(i)a(i)|J> ):
                   1            2            3
     1 -7.206618D+00
     2 -1.093516D-02-7.178844D+00
     3  3.842293D-04 3.773129D-03-6.927781D+00

 Zeroth-order vectors:
 State #    1
       MC st            1           2           3
       Coeff    9.447D-01   3.279D-01  -5.662D-03
 State #    2
       MC st            2           1           3
       Coeff   -9.446D-01   3.279D-01   1.390D-02
 State #    3
       MC st            3           2           1
       Coeff    9.999D-01   1.499D-02   7.898D-04

 *** GMC-QDPT computation

 (Integral reading:  CPU/Wall time =           0.00 /           0.00 sec.)

 One-external:
   0 -ionized terms: CPU/Wall time =           0.03 /           0.03 sec.
 (-1)-ionized terms: CPU/Wall time =           0.09 /           0.09 sec.
 (+1)-ionized terms: CPU/Wall time =           0.02 /           0.02 sec.
 (+1)-ionized terms: CPU/Wall time =           0.01 /           0.01 sec.
 (+2)-ionized terms: CPU/Wall time =           0.00 /           0.00 sec.

 Internal:
 # of macro loops for internal contribution =         1 (input)
 Loop:    1
 Dimension of internal CISD space     =         0  (after screening)
 Space construction: CPU/Wall time =           0.01 /           0.01 sec.
 Internal terms:     CPU/Wall time =           0.00 /           0.00 sec.

 Two-external:
   0 -ionized terms: CPU/Wall time =           0.07 /           0.07 sec.
 (-1)-ionized terms: CPU/Wall time =           1.00 /           1.00 sec.
 (-2)-ionized terms: CPU/Wall time =           0.17 /           0.17 sec.

 Total time:         CPU/Wall time =           1.40 /           1.40 sec.

 ***                  ***
 *** GMC-QDPT Results ***
 ***                  ***

 Diagonal elements of effective Hamiltonian:
 Heff(  1) =   -55.91780160
 Heff(  2) =   -55.85583127
 Heff(  3) =   -55.62489160

 Off-diagonal elements of effective Hamiltonian:
                   1            2
     2 -2.356843D-02
     3 -1.864242D-03 2.805817D-03

 ******** GMC-QDPT energies ********
 ----------------------------------------------------------------------------
   State                        1st order                           2nd order
 ----------------------------------------------------------------------------
     1     E(REF-CI)=      -55.8265437521   E(GMC-QDPT2)=      -55.9257490330
     2     E(REF-CI)=      -55.7408928784   E(GMC-QDPT2)=      -55.8479338355
     3     E(REF-CI)=      -55.5132721415   E(GMC-QDPT2)=      -55.6248416036
 ----------------------------------------------------------------------------

 Excitation energies (invalid if E(1)/=E(GS)):
 ----------------------------------------------------------------------------
   State                        1st order                           2nd order
 ----------------------------------------------------------------------------

     TZ Sorted GMC-PT ENERGIES:
         1      -55.9257490330
         2      -55.8479338355
         3      -55.6248416036
     2     E(REF-CI)=        2.3306802 eV   E(GMC-QDPT2)=        2.1174605 eV
     3     E(REF-CI)=        8.5245591 eV   E(GMC-QDPT2)=        8.1881124 eV
 ----------------------------------------------------------------------------

 Main characters of perturbed GMC-QDPT states:

 State #    1  Energy =     -55.925749033  S =  0.500

      Det      Coef    Occupancy (Ignoring core)
      ---      ----    --------- --------- -----
        1   -0.968386  11110001110000
       36    0.115979  11110001101000
      393   -0.055176  10110101010010
      717   -0.079440  11010011100001

 State #    2  Energy =     -55.847933835  S =  0.500

      Det      Coef    Occupancy (Ignoring core)
      ---      ----    --------- --------- -----
        1   -0.119652  11110001110000
       36   -0.973838  11110001101000
      463   -0.055499  10110101001010

 State #    3  Energy =     -55.624841604  S =  0.500

      Det      Coef    Occupancy (Ignoring core)
      ---      ----    --------- --------- -----
       71   -0.972750  11110001011000
      122    0.051895  11010010111000
      822    0.081378  11010011001001

 <<<Max |V/de| = 3.008D-02  Thresh = 1.000D+00

 Oscillator strength (invalid if E(1)/=E(GS)):
 ----------------------------------------------------------------------------
   State                        1st order                           2nd order
 ----------------------------------------------------------------------------
     2     F(REF-CI)=        0.0007323420     F(GMC-PT2)=        0.0007034719
     3     F(REF-CI)=        0.0056000495     F(GMC-PT2)=        0.0054549290
 ----------------------------------------------------------------------------

 Dipole moment matrix elements, x, y, z, in A.U.
States    1    1       -0.3585810203        0.0668123414        0.6920997442
States    1    2        0.0268125351       -0.0442147599       -0.1043387622
States    1    3       -0.1424460797       -0.0184919093       -0.0809911000
States    2    1        0.0268125351       -0.0442147599       -0.1043387622
States    2    2       -0.1942524794        0.1813059343        0.3002648058
States    2    3       -0.0160866582       -0.1011947709        0.0016887269
States    3    1       -0.1424460797       -0.0184919093       -0.0809911000
States    3    2       -0.0160866582       -0.1011947709        0.0016887269
States    3    3       -0.6401015900        0.0902890440        0.2427118727

 Oscillator strength (valid only when positive): 
 ----------------------------------------------------------------------------
  States                        1st order                           2nd order
 ----------------------------------------------------------------------------
  1  1     F(REF-CI)=        0.0000000000     F(GMC-PT2)=        0.0000000000
  1  2     F(REF-CI)=       -0.0007323420     F(GMC-PT2)=       -0.0007034719
  1  3     F(REF-CI)=       -0.0056000495     F(GMC-PT2)=       -0.0054549290
  2  1     F(REF-CI)=        0.0007323420     F(GMC-PT2)=        0.0007034719
  2  2     F(REF-CI)=        0.0000000000     F(GMC-PT2)=        0.0000000000
  2  3     F(REF-CI)=       -0.0016093667     F(GMC-PT2)=       -0.0015619452
  3  1     F(REF-CI)=        0.0056000495     F(GMC-PT2)=        0.0054549290
  3  2     F(REF-CI)=        0.0016093667     F(GMC-PT2)=        0.0015619452
  3  3     F(REF-CI)=        0.0000000000     F(GMC-PT2)=        0.0000000000
 CPU     0: STEP CPU TIME=     1.87 TOTAL CPU TIME=         14.3 (      0.2 MIN)
 TOTAL WALL CLOCK TIME=         14.3 SECONDS, CPU UTILIZATION IS    99.93%

     !!! DIABATIZATION FOR REF CI STATES !!!

 *******************************************************
          $DMO GROUP FOUND IN THE INPUT.
        DIABATIZATION OF ADIABATIC STATES BEGINS.
     PROGRAMMED BY TAO ZENG (CARLETON UNIVERSITY).
               Email: toby.zeng@carleton.ca
     See T. Zeng, J. Chem. Phys. 2017, 146, 144103
 *******************************************************

 *************************************************************************
     STEP 1: TRANSFORMATION OF ADIABATIC STATES TO THE DMO REPRESENTATION
         See Atchity and Ruedenberg, J. Chem. Phys. 1999, 111, 2910
 *************************************************************************

Read in Diabatic Molecualr Orbitals:

                      1          2          3          4          5

    1  N  1  S    0.008609   0.000000   0.000000  -0.013219   0.279491
    2  N  1  S    0.442914  -0.000000   0.000000  -0.184329   0.867803
    3  N  1  S    0.276913   0.000000  -0.000000  -0.288315   0.144236
    4  N  1  X   -0.000000   0.493155  -0.024636  -0.000000  -0.000000
    5  N  1  Y    0.000000   0.024636   0.493155  -0.000000   0.000000
    6  N  1  Z    0.090197   0.000000   0.000000   0.593421   0.705309
    7  N  1  X   -0.000000   0.210628  -0.010522   0.000000   0.000000
    8  N  1  Y    0.000000   0.010522   0.210628  -0.000000  -0.000000
    9  N  1  Z   -0.004381   0.000000   0.000000   0.381592  -0.106092
   10  N  1 XX   -0.000457   0.010719  -0.000535  -0.012387   0.006153
   11  N  1 YY   -0.000457  -0.010719   0.000535  -0.012387   0.006153
   12  N  1 ZZ    0.000914  -0.000000   0.000000   0.024773  -0.012306
   13  N  1 XY    0.000000  -0.000618  -0.012377  -0.000000   0.000000
   14  N  1 XZ   -0.000000   0.026529  -0.001325  -0.000000   0.000000
   15  N  1 YZ    0.000000   0.001325   0.026529  -0.000000   0.000000
   16  H  2  S    0.194462  -0.176074   0.343485   0.112865  -0.523343
   17  H  2  S    0.003574  -0.023812   0.046452   0.024014  -0.054445
   18  H  2  X    0.018760   0.009101   0.022834   0.009336  -0.039151
   19  H  2  Y   -0.032493   0.022287  -0.020044  -0.016171   0.067811
   20  H  2  Z   -0.009251   0.008464  -0.016511   0.018769  -0.010566
   21  H  3  S    0.194462  -0.209430  -0.324227   0.112865  -0.523343
   22  H  3  S    0.003574  -0.028322  -0.043847   0.024014  -0.054445
   23  H  3  X    0.018760   0.006781  -0.023627   0.009336  -0.039151
   24  H  3  Y    0.032493  -0.024174  -0.017723   0.016171  -0.067811
   25  H  3  Z   -0.009251   0.010067   0.015585   0.018769  -0.010566
   26  H  4  S    0.194462   0.385503  -0.019258   0.112865  -0.523343
   27  H  4  S    0.003574   0.052134  -0.002604   0.024014  -0.054445
   28  H  4  X   -0.037519  -0.032295   0.001613  -0.018672   0.078302
   29  H  4  Y    0.000000   0.001067   0.021353  -0.000000   0.000000
   30  H  4  Z   -0.009251  -0.018530   0.000926   0.018769  -0.010566

                      6          7

    1  N  1  S    0.000000  -0.000000
    2  N  1  S    0.000000  -0.000000
    3  N  1  S   -0.000000   0.000000
    4  N  1  X   -0.930415  -0.002083
    5  N  1  Y   -0.002083   0.930415
    6  N  1  Z   -0.000000   0.000000
    7  N  1  X   -0.046866  -0.000105
    8  N  1  Y   -0.000105   0.046866
    9  N  1  Z   -0.000000   0.000000
   10  N  1 XX    0.001538   0.000003
   11  N  1 YY   -0.001538  -0.000003
   12  N  1 ZZ   -0.000000   0.000000
   13  N  1 XY   -0.000004   0.001776
   14  N  1 XZ    0.039985   0.000090
   15  N  1 YZ    0.000090  -0.039985
   16  H  2  S   -0.362630  -0.631354
   17  H  2  S   -0.065964  -0.114846
   18  H  2  X    0.002763  -0.037520
   19  H  2  Y    0.037435   0.040736
   20  H  2  Z    0.001882   0.003276
   21  H  3  S   -0.365454   0.629724
   22  H  3  S   -0.066477   0.114549
   23  H  3  X    0.002595   0.037532
   24  H  3  Y   -0.037617   0.040567
   25  H  3  Z    0.001896  -0.003268
   26  H  4  S    0.728084   0.001630
   27  H  4  S    0.132441   0.000297
   28  H  4  X   -0.062317  -0.000140
   29  H  4  Y    0.000055  -0.024345
   30  H  4  Z   -0.003778  -0.000008

NUMBER OF SUB ACTIVE SPACES:   1
ROTATE ACTIVE MOS TO DMOS IN EACH SUB-SPACE

SPACE  1:

OVERLAP BETWEEN ORTHONORMAL AND PRE-ORTHONORMAL REF. DMOS

             1           2           3           4           5

    1    0.9774006  -0.0176039   0.0157311  -0.0082807  -0.0036546
    2   -0.0176039   1.0478350   0.0051446  -0.0381267   0.0810827
    3    0.0157311   0.0051446   0.8639406   0.0172047  -0.0204937
    4   -0.0082807  -0.0381267   0.0172047   0.9934721  -0.0098605
    5   -0.0036546   0.0810827  -0.0204937  -0.0098605   1.1546673
    6    0.0018607   0.0635077   0.0159489  -0.0591738   0.0735476
    7   -0.0012268   0.0019742   0.1018927  -0.0113069  -0.0291627

             6           7

    1    0.0018607  -0.0012268
    2    0.0635077   0.0019742
    3    0.0159489   0.1018927
    4   -0.0591738  -0.0113069
    5    0.0735476  -0.0291627
    6    1.0401113   0.0084386
    7    0.0084386   1.0525083
REFERENCE DMOS AFTER ORTHONORMALIZATION:

                      1          2          3          4          5

    1  N  1  S    0.009239  -0.018234   0.005566  -0.012541   0.244600
    2  N  1  S    0.453436  -0.054083   0.012572  -0.179978   0.759899
    3  N  1  S    0.281070  -0.014037   0.004102  -0.288712   0.126008
    4  N  1  X    0.011238   0.524283  -0.014184  -0.034641   0.022059
    5  N  1  Y   -0.006069   0.018429   0.472882   0.001168   0.029507
    6  N  1  Z    0.099352  -0.023819  -0.001673   0.603184   0.619080
    7  N  1  X    0.004018   0.205580  -0.012904   0.004690  -0.010997
    8  N  1  Y   -0.003714   0.008568   0.241587  -0.003899   0.004498
    9  N  1  Z   -0.001082   0.019513  -0.010744   0.385773  -0.091835
   10  N  1 XX   -0.000377   0.009439  -0.000320  -0.012064   0.004563
   11  N  1 YY   -0.000769  -0.011075   0.001146  -0.012977   0.006139
   12  N  1 ZZ    0.001146   0.001636  -0.000826   0.025041  -0.010702
   13  N  1 XY    0.000233  -0.000513  -0.014709   0.000286  -0.000160
   14  N  1 XZ    0.000404   0.023492  -0.002522   0.003142  -0.004058
   15  N  1 YZ   -0.000615   0.001170   0.035615  -0.001067  -0.000494
   16  H  2  S    0.188227  -0.111051   0.465855   0.072693  -0.432755
   17  H  2  S    0.002248  -0.015226   0.067211   0.017200  -0.043943
   18  H  2  X    0.018814   0.011705   0.029562   0.008977  -0.035369
   19  H  2  Y   -0.032463   0.014115  -0.026672  -0.012684   0.056177
   20  H  2  Z   -0.008842   0.009314  -0.020284   0.019684  -0.010114
   21  H  3  S    0.204512  -0.141017  -0.459332   0.102741  -0.414424
   22  H  3  S    0.004639  -0.019396  -0.064559   0.022002  -0.040104
   23  H  3  X    0.019906   0.009645  -0.033379   0.010908  -0.034387
   24  H  3  Y    0.033416  -0.015829  -0.026784   0.014508  -0.054909
   25  H  3  Z   -0.009452   0.010647   0.018077   0.018918  -0.009745
   26  H  4  S    0.204675   0.374481  -0.056008   0.168457  -0.524893
   27  H  4  S    0.004453   0.047710  -0.007685   0.033353  -0.058692
   28  H  4  X   -0.038898  -0.034198   0.006007  -0.023620   0.074143
   29  H  4  Y   -0.000470   0.000927   0.027780  -0.000760  -0.000217
   30  H  4  Z   -0.009650  -0.016529   0.000831   0.018023  -0.007788

                      6          7

    1  N  1  S   -0.017049   0.006285
    2  N  1  S   -0.061829   0.019030
    3  N  1  S   -0.025049   0.000547
    4  N  1  X   -0.929929   0.006118
    5  N  1  Y   -0.019197   0.839161
    6  N  1  Z   -0.008352   0.024023
    7  N  1  X   -0.056384   0.000966
    8  N  1  Y   -0.005034   0.021243
    9  N  1  Z    0.027397   0.002382
   10  N  1 XX   -0.000101   0.000014
   11  N  1 YY   -0.001991  -0.000048
   12  N  1 ZZ    0.002092   0.000034
   13  N  1 XY    0.000255   0.003109
   14  N  1 XZ    0.037513  -0.000094
   15  N  1 YZ   -0.000220  -0.041465
   16  H  2  S   -0.309308  -0.653258
   17  H  2  S   -0.058497  -0.116155
   18  H  2  X    0.004787  -0.039432
   19  H  2  Y    0.030558   0.042396
   20  H  2  Z    0.003362   0.004953
   21  H  3  S   -0.306078   0.635353
   22  H  3  S   -0.058591   0.114721
   23  H  3  X    0.005126   0.038019
   24  H  3  Y   -0.030466   0.040084
   25  H  3  Z    0.002719  -0.004974
   26  H  4  S    0.724430  -0.012035
   27  H  4  S    0.130589  -0.001373
   28  H  4  X   -0.064448   0.001622
   29  H  4  Y   -0.000248  -0.025834
   30  H  4  Z   -0.001042  -0.000083

 -------------------------------------------
       MAXIMIZING MORMO OVERLAP TERM        
 -------------------------------------------
   SWEEP    VALUE       PROGRESS
     0     5.80766
     1     6.93305     1.12539588
     2     6.94943     0.01638323
     3     6.94944     0.00000387
     4     6.94944     0.00000000
     5     6.94944     0.00000000
 THE ROTATION IS DONE
FLIPPING SIGN FOR ORBITAL   7
ACTIVE ORBITALS AFTER MORMO:

                      1          2          3          4          5

    1  N  1  S    0.007685  -0.021361   0.012119  -0.012118   0.191191
    2  N  1  S    0.430318  -0.041347   0.031673  -0.188515   0.689638
    3  N  1  S    0.331036  -0.001166  -0.034043  -0.274410   0.211624
    4  N  1  X    0.012606   0.515593  -0.013127  -0.039168   0.037159
    5  N  1  Y    0.002978   0.021811   0.414940   0.012810   0.022310
    6  N  1  Z    0.085675  -0.040542   0.010592   0.603631   0.590376
    7  N  1  X    0.004432   0.171920  -0.017758   0.046040  -0.045249
    8  N  1  Y   -0.013893   0.002660   0.336394  -0.019642   0.013913
    9  N  1  Z    0.025693   0.053470  -0.028571   0.385503  -0.051900
   10  N  1 XX    0.005202   0.008322  -0.008553  -0.011567  -0.046673
   11  N  1 YY   -0.005317  -0.009153   0.008240  -0.009503   0.038929
   12  N  1 ZZ    0.000115   0.000830   0.000313   0.021070   0.007744
   13  N  1 XY    0.001973   0.004072  -0.022129   0.003363  -0.014131
   14  N  1 XZ   -0.003234   0.013228  -0.001355   0.004212   0.029042
   15  N  1 YZ   -0.000665   0.001970   0.026189   0.002317  -0.013978
   16  H  2  S    0.183155  -0.138984   0.381597   0.087618  -0.454804
   17  H  2  S    0.001341  -0.007456   0.153699   0.023977  -0.062327
   18  H  2  X    0.024081  -0.000752   0.030631   0.011814  -0.018990
   19  H  2  Y   -0.021285   0.014082  -0.003928  -0.013826   0.049190
   20  H  2  Z   -0.012194   0.017292  -0.023171   0.016941  -0.010668
   21  H  3  S    0.185137  -0.174267  -0.353575   0.097787  -0.416204
   22  H  3  S    0.007369  -0.018996  -0.150809   0.032502  -0.053667
   23  H  3  X    0.026203  -0.012865  -0.038065   0.012007  -0.027101
   24  H  3  Y    0.015985  -0.016067   0.000923   0.007203  -0.039610
   25  H  3  Z   -0.007313   0.017648   0.010963   0.017381  -0.019697
   26  H  4  S    0.183294   0.389386  -0.036329   0.133305  -0.516939
   27  H  4  S   -0.000343   0.042523  -0.014588   0.036060  -0.064843
   28  H  4  X   -0.034270  -0.042737  -0.003126  -0.012320   0.059412
   29  H  4  Y   -0.004644  -0.008886   0.021477  -0.002689   0.008996
   30  H  4  Z   -0.002880  -0.009256  -0.000622   0.022131  -0.011429

                      6          7

    1  N  1  S   -0.087831  -0.002674
    2  N  1  S   -0.190501  -0.011224
    3  N  1  S    0.154772   0.040306
    4  N  1  X   -0.891221   0.015658
    5  N  1  Y   -0.022537   0.861838
    6  N  1  Z    0.006296   0.037625
    7  N  1  X   -0.136624  -0.007724
    8  N  1  Y   -0.001527  -0.013521
    9  N  1  Z    0.043086  -0.011909
   10  N  1 XX    0.001890   0.015965
   11  N  1 YY    0.020975  -0.016056
   12  N  1 ZZ   -0.022865   0.000091
   13  N  1 XY    0.023805   0.047155
   14  N  1 XZ    0.048476  -0.002919
   15  N  1 YZ    0.011158  -0.015269
   16  H  2  S   -0.351765  -0.572359
   17  H  2  S   -0.064781  -0.220453
   18  H  2  X    0.018021  -0.039658
   19  H  2  Y    0.039363   0.008925
   20  H  2  Z   -0.008407   0.019038
   21  H  3  S   -0.353921   0.542653
   22  H  3  S   -0.076089   0.214373
   23  H  3  X   -0.004126   0.050735
   24  H  3  Y   -0.040333   0.003310
   25  H  3  Z   -0.018510  -0.011721
   26  H  4  S    0.704825  -0.021451
   27  H  4  S    0.138853  -0.000315
   28  H  4  X   -0.065759   0.007709
   29  H  4  Y   -0.009862  -0.005109
   30  H  4  Z    0.020934  -0.007448

Actually Used Diabatic Molecualr Orbitals:

                      1          2          3          4          5

    1  N  1  S    0.007685  -0.021361   0.012119  -0.012118   0.191191
    2  N  1  S    0.430318  -0.041347   0.031673  -0.188515   0.689638
    3  N  1  S    0.331036  -0.001166  -0.034043  -0.274410   0.211624
    4  N  1  X    0.012606   0.515593  -0.013127  -0.039168   0.037159
    5  N  1  Y    0.002978   0.021811   0.414940   0.012810   0.022310
    6  N  1  Z    0.085675  -0.040542   0.010592   0.603631   0.590376
    7  N  1  X    0.004432   0.171920  -0.017758   0.046040  -0.045249
    8  N  1  Y   -0.013893   0.002660   0.336394  -0.019642   0.013913
    9  N  1  Z    0.025693   0.053470  -0.028571   0.385503  -0.051900
   10  N  1 XX    0.005202   0.008322  -0.008553  -0.011567  -0.046673
   11  N  1 YY   -0.005317  -0.009153   0.008240  -0.009503   0.038929
   12  N  1 ZZ    0.000115   0.000830   0.000313   0.021070   0.007744
   13  N  1 XY    0.001973   0.004072  -0.022129   0.003363  -0.014131
   14  N  1 XZ   -0.003234   0.013228  -0.001355   0.004212   0.029042
   15  N  1 YZ   -0.000665   0.001970   0.026189   0.002317  -0.013978
[...]

 --- DIABATIC COUPLINGS (OFF DIAGONAL ELEMENTS)---  HATREE            EV
 STATE #  1 &  2'S GMC-PT-LEVEL COUPLING  =       0.052522961       1.429222571
 STATE #  1 &  3'S GMC-PT-LEVEL COUPLING  =      -0.013613421      -0.370440041
 STATE #  2 &  3'S GMC-PT-LEVEL COUPLING  =       0.016880160       0.459332547

 ---------------------------------------
     - ROTATION TO DIABATIC STATES -    
 ---------------------------------------
 ROWS=ADIABATIC, COLUMNS=DIABATIC STATES

             1           2           3

    1    0.9586150  -0.1859144   0.2156227
    2   -0.2234836  -0.0221606   0.9744557
    3   -0.1763871  -0.9823160  -0.0627923

 ---------------------------------------
          - DIABATIC STATES -           
 ---------------------------------------

 State #    1  Energy =     -55.912500607

      Det      Coef        Coefp    Occupancy (Ignoring core)
      ---      ----        ----    --------- --------- -----
        1    0.919971   -0.919971  222+000
       17    0.193361    0.193361  22-+00+
      701   -0.160393   -0.160393  22++00-
        4    0.119976   -0.119976  2-2++00
      176   -0.115599    0.115599  2+2+-00
        6   -0.080476    0.080476  22200+0
      717   -0.058991   -0.058991  220+002
      393   -0.058987   -0.058987  202+020
      402    0.050545   -0.050545  2+-+0-+
        3   -0.047768   -0.047768  22-++00
      141    0.045916    0.045916  22++-00
      708    0.045132   -0.045132  2-++0+-
      192    0.044188   -0.044188  2+-+-0+
      704    0.042451   -0.042451  2-+++0-
      386   -0.042039    0.042039  2+2+0-0
      215   -0.039115   -0.039115  022+200
       23   -0.038436   -0.038436  2--++0+
      227   -0.035200   -0.035200  +2-+-0+
      390    0.034799   -0.034799  -+2++-0
      218    0.034146   -0.034146  +-2+-+0
      705   -0.034120   -0.034120  -2+++0-
      911   -0.033347   -0.033347  2+++-0-
       51   -0.032968    0.032968  22+-00+
      706    0.031826    0.031826  22+00+-
      212    0.031228    0.031228  +220200
      702    0.030097    0.030097  22+0+0-
     1051   -0.030091   -0.030091  2+++0--
      122    0.029474    0.029474  +2-200+
       16   -0.028452    0.028452  222000+
        7    0.027712    0.027712  22-+0+0
      143   -0.027433   -0.027433  220+200
      351   -0.026880   -0.026880  22++0-0
       29   -0.026763   -0.026763  2--+0++
       26   -0.026485   -0.026485  22-00++
      773    0.025759   -0.025759  +2-++0-
      424   -0.024995   -0.024995  +-2++-0
      159    0.024994   -0.024994  -2++-0+
       20   -0.023347   -0.023347  22-0+0+
      184   -0.023214   -0.023214  -+2+-+0
      387   -0.022493    0.022493  2+20+-0
      113   -0.022017    0.022017  +-220+0
       76    0.021987    0.021987  2+2-0+0
      179   -0.020957   -0.020957  202+200
        5    0.020586    0.020586  -22++00
      368   -0.020069   -0.020069  2-++0-+
        8    0.020051   -0.020051  2-2+0+0

 State #    2  Energy =     -55.635351781

      Det      Coef        Coefp    Occupancy (Ignoring core)
      ---      ----        ----    --------- --------- -----
       71   -0.923558    0.923558  2+22000
      806   -0.162198   -0.162198  2++200-
       87    0.147798   -0.147798  2+-200+
       74   -0.089476    0.089476  2022+00
      386    0.084275   -0.084275  2+2+0-0
       76   -0.082659   -0.082659  2+2-0+0
       78   -0.079489    0.079489  20220+0
      822    0.066339   -0.066339  2+02002
      813    0.055789   -0.055789  20+20+-
      106   -0.054070   -0.054070  +222000
      122    0.052841    0.052841  +2-200+
       73   -0.049108    0.049108  2+-2+00
       72   -0.046221   -0.046221  2+2-+00
       38   -0.045860    0.045860  2202+00
      246    0.045071    0.045071  2++2-00
       36    0.043031    0.043031  22+2000
      111    0.041446   -0.041446  +22-0+0
      320    0.040438    0.040438  0+22200
      807   -0.039586    0.039586  2++-+0-
      332   -0.039324    0.039324  ++-2-0+
       99   -0.039262    0.039262  20-20++
      810   -0.038386   -0.038386  -++2+0-
      317    0.036481   -0.036481  ++2-200
      809    0.036411   -0.036411  20+2+0-
      192   -0.036391    0.036391  2+-+-0+
      248    0.034882   -0.034882  2+02200
      180   -0.034378    0.034378  -+2+200
      177    0.033702   -0.033702  2+20200
       90    0.033352    0.033352  2+--+0+
      456   -0.033061   -0.033061  2++20-0
      811   -0.032851    0.032851  2++-0+-
       77    0.032530   -0.032530  2+-20+0
      736    0.032496   -0.032496  2+2+00-
      323   -0.031895    0.031895  +022-+0
       51    0.031125   -0.031125  22+-00+
      841   -0.030590    0.030590  +2+200-
      402   -0.030347    0.030347  2+-+0-+
       86   -0.029310   -0.029310  2+2-00+
      264    0.028225   -0.028225  -++2-0+
      316    0.026944    0.026944  ++22-00
        6    0.026788   -0.026788  22200+0
      109   -0.026755    0.026755  +-22+00
        4    0.026662   -0.026662  2-2++00
      911    0.026437    0.026437  2+++-0-
      878    0.026218    0.026218  ++-2+0-
       93   -0.025094    0.025094  20-2+0+
     1051    0.023305    0.023305  2+++0--
       17   -0.023221   -0.023221  22-+00+
       54   -0.022251    0.022251  -2+200+
      183   -0.021396    0.021396  202+-+0
        9   -0.021374   -0.021374  -22+0+0
      529    0.020348    0.020348  +022+-0
      421   -0.020072   -0.020072  +22+0-0
       96    0.020030    0.020030  2+--0++

 State #    3  Energy =     -55.850672084

      Det      Coef        Coefp    Occupancy (Ignoring core)
      ---      ----        ----    --------- --------- -----
       36   -0.921419   -0.921419  22+2000
       52   -0.156330    0.156330  220200+
       39   -0.151257   -0.151257  2-+2+00
      246    0.135926    0.135926  2++2-00
       41   -0.114519    0.114519  22+-0+0
      351    0.108045    0.108045  22++0-0
      456    0.059307    0.059307  2++20-0
      472   -0.055385   -0.055385  2+020-+
      463    0.055194   -0.055194  20+2020
       43   -0.054992   -0.054992  2-+20+0
       38    0.053907   -0.053907  2202+00
      262   -0.046477   -0.046477  2+02-0+
       71   -0.045724    0.045724  2+22000
       37   -0.043200    0.043200  22+-+00
       58    0.042795   -0.042795  2-02+0+
      157    0.040596   -0.040596  220+-0+
      367    0.040081   -0.040081  220+0-+
       64    0.039497   -0.039497  2-020++
      285    0.039043   -0.039043  02+2200
       55   -0.037389   -0.037389  220-+0+
      297    0.036351   -0.036351  +202-0+
      460   -0.034642   -0.034642  -++2+-0
      145   -0.034041   -0.034041  -2++200
      142    0.033829    0.033829  22+0200
       61   -0.033306   -0.033306  220-0++
      141    0.033230    0.033230  22++-00
      288   -0.033175   -0.033175  +-+2-+0
      282    0.032810    0.032810  +2+-200
       51   -0.032045    0.032045  22+-00+
      701    0.031091    0.031091  22++00-
      106    0.030826    0.030826  +222000
      121   -0.028177    0.028177  +22-00+
      123    0.028154   -0.028154  +-2200+
      843   -0.025176   -0.025176  +202+0-
      494    0.023870   -0.023870  +-+2+-0
       42   -0.023550    0.023550  22020+0
      716    0.023136    0.023136  22+0002
       40   -0.022238    0.022238  -2+2+00
      457   -0.022124    0.022124  2++-+-0
      254    0.022088   -0.022088  -++2-+0
      148   -0.021870   -0.021870  2-++-+0
      491    0.020621   -0.020621  +2+20-0
       46    0.020520   -0.020520  2-+-++0
      859    0.020150   -0.020150  02+2002

 ---------------------------------------
      - DIABATIC STATES IN CMO -        
 ---------------------------------------

 State #    1  Energy =     -55.912500607

      Det      Coef        Coefp    Occupancy (Ignoring core)
      ---      ----        ----    --------- --------- -----
        1    0.903442   -0.903442  222+000
       36    0.327454    0.327454  22+2000
       71   -0.163797    0.163797  2+22000
      717   -0.073887   -0.073887  220+002
      393   -0.054669   -0.054669  202+020
      143   -0.039089   -0.039089  220+200
      106   -0.038153   -0.038153  +222000
        8   -0.034314    0.034314  2-2+0+0
       17   -0.034051   -0.034051  22-+00+
      142   -0.033936   -0.033936  22+0200
        2    0.033325   -0.033325  2220+00
      215   -0.032476   -0.032476  022+200
      179   -0.031998   -0.031998  202+200
       51    0.028867   -0.028867  22+-00+
      212    0.028275    0.028275  +220200
      752   -0.027940   -0.027940  2+-+002
      145    0.027859    0.027859  -2++200
      122   -0.027439   -0.027439  +2-200+
      718    0.027311   -0.027311  2-++002
      157    0.026306   -0.026306  220+-0+
      708   -0.025274    0.025274  2-++0+-
      702   -0.024350   -0.024350  22+0+0-
       38   -0.023788    0.023788  2202+00
      390    0.023100   -0.023100  -+2++-0
      144   -0.022834    0.022834  2-++200
      753   -0.022764   -0.022764  202+002
      705    0.022461    0.022461  -2+++0-
      704   -0.022426    0.022426  2-+++0-
      402   -0.022416    0.022416  2+-+0-+
      719   -0.022328   -0.022328  -2++002
      218    0.021801   -0.021801  +-2+-+0
      227    0.021665    0.021665  +2-+-0+
      428    0.021196    0.021196  +-2+020
      463   -0.021123    0.021123  20+2020
       23    0.020631    0.020631  2--++0+
      394   -0.020441    0.020441  -+2+020
      787    0.020213   -0.020213  +2-+002
      789   -0.020028   -0.020028  022+002
       76    0.020017    0.020017  2+2-0+0
      911    0.020012    0.020012  2+++-0-

 State #    2  Energy =     -55.635351781

      Det      Coef        Coefp    Occupancy (Ignoring core)
      ---      ----        ----    --------- --------- -----
       71   -0.957570    0.957570  2+22000
        1   -0.172257    0.172257  222+000
      822    0.079735   -0.079735  2+02002
      122   -0.048397   -0.048397  +2-200+
      177    0.046764   -0.046764  2+20200
      109   -0.036154    0.036154  +-22+00
      248    0.036070   -0.036070  2+02200
      111    0.035758   -0.035758  +22-0+0
      320    0.035620    0.035620  0+22200
      107    0.035132   -0.035132  +22-+00
       37   -0.034241    0.034241  22+-+00
      180   -0.033198    0.033198  -+2+200
        3    0.033165    0.033165  22-++00
        4    0.032944   -0.032944  2-2++00
      823    0.030032   -0.030032  20+2002
      192    0.029660   -0.029660  2+-+-0+
      317    0.029447   -0.029447  ++2-200
       38   -0.028407    0.028407  2202+00
      807    0.027511   -0.027511  2++-+0-
       54    0.025970   -0.025970  -2+200+
      813   -0.025941    0.025941  20+20+-
       78   -0.025387    0.025387  20220+0
      911   -0.024647   -0.024647  2+++-0-
      810    0.024548    0.024548  -++2+0-
       52    0.023859   -0.023859  220200+
      179    0.023712    0.023712  202+200
      894    0.023503    0.023503  0+22002
      391    0.023490   -0.023490  2+20020
      332    0.023076   -0.023076  ++-2-0+
      841    0.022427   -0.022427  +2+200-
      178   -0.022395   -0.022395  2+-+200
      183   -0.022053    0.022053  202+-+0
      421   -0.021922   -0.021922  +22+0-0
       76    0.021882    0.021882  2+2-0+0
       90   -0.021860   -0.021860  2+--+0+
      824   -0.021693   -0.021693  -++2002
      809   -0.021394    0.021394  20+2+0-
       93    0.021332   -0.021332  20-2+0+
      892    0.021006    0.021006  ++-2002
      323   -0.020631    0.020631  +022-+0
        5   -0.020571   -0.020571  -22++00
       99    0.020568   -0.020568  20-20++

 State #    3  Energy =     -55.850672084

      Det      Coef        Coefp    Occupancy (Ignoring core)
      ---      ----        ----    --------- --------- -----
       36   -0.924439   -0.924439  22+2000
        1    0.326068   -0.326068  222+000
      463    0.051825   -0.051825  20+2020
       71   -0.051305    0.051305  2+22000
      249    0.039180   -0.039180  20+2200
      142    0.037687    0.037687  22+0200
      822    0.034417   -0.034417  2+02002
      285    0.031871   -0.031871  02+2200
      717   -0.028513   -0.028513  220+002
      282    0.028373    0.028373  +2+-200
      123   -0.028350    0.028350  +-2200+
       58   -0.028166    0.028166  2-02+0+
      823    0.027019   -0.027019  20+2002
      472    0.025999    0.025999  2+020-+
       55    0.025275    0.025275  220-+0+
      262    0.023751    0.023751  2+02-0+
      356    0.023316    0.023316  22+0020
      859    0.023299   -0.023299  02+2002
      457   -0.023168    0.023168  2++-+-0
      297   -0.022871    0.022871  +202-0+
      108    0.022587    0.022587  +2-2+00
      157   -0.022515    0.022515  220+-0+
      145   -0.021903   -0.021903  -2++200
       16    0.021439   -0.021439  222000+
      121    0.021371   -0.021371  +22-00+
      288   -0.021284   -0.021284  +-+2-+0
       64   -0.020967    0.020967  2-020++
      498   -0.020797    0.020797  +-+2020
      464    0.020433    0.020433  -++2020
      460   -0.020053   -0.020053  -++2+-0

 ---------------------------------------
    -DIABATIC STATES IN PROTOTYPES-     
 ---------------------------------------

     STATE:    1
 Group Ref#    Coefficients
     1    1    0.939917
     2    2    0.004144
     3    3    0.004274

WEIGHT OF LISTED PROTOTYPES:   88.35%

     STATE:    2
 Group Ref#    Coefficients
     1    1    0.004160
     2    2    0.936286
     3    3   -0.000794

WEIGHT OF LISTED PROTOTYPES:   87.66%

     STATE:    3
 Group Ref#    Coefficients
     1    1    0.004274
     2    2   -0.000791
     3    3    0.939992

WEIGHT OF LISTED PROTOTYPES:   88.36%

     DIRECT MAX. DIABATIZATION FINISHED    
 CPU     0: STEP CPU TIME=     0.26 TOTAL CPU TIME=         14.5 (      0.2 MIN)
 TOTAL WALL CLOCK TIME=         14.5 SECONDS, CPU UTILIZATION IS   100.00%

DIABATS FOR SPIN-ORBIT CALCULATION ARE READY

TRANSITION DIPOLES BETWEEN ADIABATS (in A.U.):

STATE PAIR      X         Y         Z
    1    1 -0.358581  0.066812  0.692100
    2    1  0.026813 -0.044215 -0.104339
    2    2 -0.194252  0.181306  0.300265
    3    1 -0.142446 -0.018492 -0.080991
    3    2 -0.016087 -0.101195  0.001689
    3    3 -0.640102  0.090289  0.242712


TRANSITION DIPOLES BETWEEN DIABATS (in A.U.):

STATE PAIR      X         Y         Z
    1    1 -0.323716  0.090481  0.730776
    2    1  0.078447 -0.002067 -0.007940
    2    2 -0.682662  0.077998  0.227905
    3    1  0.001381 -0.046055 -0.004394
    3    2  0.017987  0.107624  0.014739
    3    3 -0.186557  0.169928  0.276396

TRANSITION DIPOLES BETWEEN DIRECT MAX. DIABATS (in A.U.):

STATE PAIR      X         Y         Z
    1    1 -0.323717  0.090481  0.730776
    2    1  0.078450 -0.002067 -0.007936
    2    2 -0.682660  0.077998  0.227904
    3    1  0.001381 -0.046056 -0.004394
    3    2  0.017986  0.107623  0.014739
    3    3 -0.186557  0.169928  0.276396
 No $TRANST Group Found.
 Quit without doing spin-orbit coupling
 ..... DONE WITH MP2 ENERGY .....
 CPU     0: STEP CPU TIME=     0.00 TOTAL CPU TIME=         14.5 (      0.2 MIN)
 TOTAL WALL CLOCK TIME=         14.6 SECONDS, CPU UTILIZATION IS    99.93%
            100000000  WORDS OF DYNAMIC MEMORY USED
 EXECUTION OF GAMESS TERMINATED NORMALLY Wed Nov 16 19:35:12 2022
 DDI: 715512 bytes (0.7 MB / 0 MWords) used by master data server.

 ----------------------------------------
 CPU timing information for all processes
 ========================================
 0: 14.286 + 0.260 = 14.546
 ----------------------------------------
Note: The following floating-point exceptions are signalling: IEEE_DENORMAL
 ddikick.x: exited gracefully.
unset echo
----- accounting info -----
Files used on the master node io002 were:
-rw-r--r-- 1 bsonghao nooijen   20711 Nov 16 19:34 /scratch/bsonghao/nh3_diabatization_2d_at_mode_7_8_dist0.2_-0.7.F05
-rw-r--r-- 1 bsonghao nooijen  363520 Nov 16 19:35 /scratch/bsonghao/nh3_diabatization_2d_at_mode_7_8_dist0.2_-0.7.F09
-rw-r--r-- 1 bsonghao nooijen 1995920 Nov 16 19:35 /scratch/bsonghao/nh3_diabatization_2d_at_mode_7_8_dist0.2_-0.7.F10
-rw-r--r-- 1 bsonghao nooijen  131264 Nov 16 19:35 /scratch/bsonghao/nh3_diabatization_2d_at_mode_7_8_dist0.2_-0.7.F13
-rw-r--r-- 1 bsonghao nooijen  180312 Nov 16 19:35 /scratch/bsonghao/nh3_diabatization_2d_at_mode_7_8_dist0.2_-0.7.F15
-rw-r--r-- 1 bsonghao nooijen       0 Nov 16 19:34 /scratch/bsonghao/nh3_diabatization_2d_at_mode_7_8_dist0.2_-0.7.F16
-rw-r--r-- 1 bsonghao nooijen    9808 Nov 16 19:35 /scratch/bsonghao/nh3_diabatization_2d_at_mode_7_8_dist0.2_-0.7.F70
-rw-r--r-- 1 bsonghao nooijen    9808 Nov 16 19:35 /scratch/bsonghao/nh3_diabatization_2d_at_mode_7_8_dist0.2_-0.7.F71
-rw-r--r-- 1 bsonghao nooijen   19608 Nov 16 19:35 /scratch/bsonghao/nh3_diabatization_2d_at_mode_7_8_dist0.2_-0.7.F72
-rw-r--r-- 1 bsonghao nooijen   19608 Nov 16 19:35 /scratch/bsonghao/nh3_diabatization_2d_at_mode_7_8_dist0.2_-0.7.F73
-rw-r--r-- 1 bsonghao nooijen 1920824 Nov 16 19:35 /scratch/bsonghao/nh3_diabatization_2d_at_mode_7_8_dist0.2_-0.7.F74
-rw-r--r-- 1 bsonghao nooijen       0 Nov 16 19:34 /scratch/bsonghao/nh3_diabatization_2d_at_mode_7_8_dist0.2_-0.7.F75
-rw-r--r-- 1 bsonghao nooijen   58848 Nov 16 19:35 /scratch/bsonghao/nh3_diabatization_2d_at_mode_7_8_dist0.2_-0.7.F76
-rw-r--r-- 1 bsonghao nooijen       0 Nov 16 19:34 /scratch/bsonghao/nh3_diabatization_2d_at_mode_7_8_dist0.2_-0.7.F77
-rw-r--r-- 1 bsonghao nooijen    1864 Nov 16 19:35 /scratch/bsonghao/nh3_diabatization_2d_at_mode_7_8_dist0.2_-0.7.F78
-rw-r--r-- 1 bsonghao nooijen   39208 Nov 16 19:35 /scratch/bsonghao/nh3_diabatization_2d_at_mode_7_8_dist0.2_-0.7.F79
-rw-r--r-- 1 bsonghao nooijen     104 Nov 16 19:35 /scratch/bsonghao/nh3_diabatization_2d_at_mode_7_8_dist0.2_-0.7.F80
-rw-r--r-- 1 bsonghao nooijen   13472 Nov 16 19:35 /scratch/bsonghao/nh3_diabatization_2d_at_mode_7_8_dist0.2_-0.7.F81
-rw-r--r-- 1 bsonghao nooijen      16 Nov 16 19:35 /scratch/bsonghao/nh3_diabatization_2d_at_mode_7_8_dist0.2_-0.7.F82
-rw-r--r-- 1 bsonghao nooijen   19216 Nov 16 19:35 /scratch/bsonghao/nh3_diabatization_2d_at_mode_7_8_dist0.2_-0.7.F83
-rw-r--r-- 1 bsonghao nooijen   29712 Nov 16 19:35 /scratch/bsonghao/nh3_diabatization_2d_at_mode_7_8_dist0.2_-0.7.F84
-rw-r--r-- 1 bsonghao nooijen  401576 Nov 16 19:35 /scratch/bsonghao/nh3_diabatization_2d_at_mode_7_8_dist0.2_-0.7.F85
-rw-r--r-- 1 bsonghao nooijen  903672 Nov 16 19:35 /scratch/bsonghao/nh3_diabatization_2d_at_mode_7_8_dist0.2_-0.7.F86
-rw-r--r-- 1 bsonghao nooijen     656 Nov 16 19:35 /scratch/bsonghao/nh3_diabatization_2d_at_mode_7_8_dist0.2_-0.7.F87
-rw-r--r-- 1 bsonghao nooijen   38384 Nov 16 19:35 /scratch/bsonghao/nh3_diabatization_2d_at_mode_7_8_dist0.2_-0.7.F88
-rw-r--r-- 1 bsonghao nooijen     240 Nov 16 19:35 /scratch/bsonghao/nh3_diabatization_2d_at_mode_7_8_dist0.2_-0.7.F89
-rw-r--r-- 1 bsonghao nooijen       0 Nov 16 19:34 /scratch/bsonghao/nh3_diabatization_2d_at_mode_7_8_dist0.2_-0.7.F90
-rw-r--r-- 1 bsonghao nooijen   13760 Nov 16 19:35 /scratch/bsonghao/nh3_diabatization_2d_at_mode_7_8_dist0.2_-0.7.F91
-rw-r--r-- 1 bsonghao nooijen   22776 Nov 16 19:35 /scratch/bsonghao/nh3_diabatization_2d_at_mode_7_8_dist0.2_-0.7.F92
-rw-r--r-- 1 bsonghao nooijen   23168 Nov 16 19:35 /scratch/bsonghao/nh3_diabatization_2d_at_mode_7_8_dist0.2_-0.7.F93
-rw-r--r-- 1 bsonghao nooijen   22776 Nov 16 19:35 /scratch/bsonghao/nh3_diabatization_2d_at_mode_7_8_dist0.2_-0.7.F94
-rw-r--r-- 1 bsonghao nooijen   13760 Nov 16 19:35 /scratch/bsonghao/nh3_diabatization_2d_at_mode_7_8_dist0.2_-0.7.F95
-rw-r--r-- 1 bsonghao nooijen   29440 Nov 16 19:35 /scratch/bsonghao/nh3_diabatization_2d_at_mode_7_8_dist0.2_-0.7.F96
-rw-r--r-- 1 bsonghao nooijen    1184 Nov 16 19:35 /scratch/bsonghao/nh3_diabatization_2d_at_mode_7_8_dist0.2_-0.7.F97
-rw-r--r-- 1 bsonghao nooijen    9808 Nov 16 19:35 /scratch/bsonghao/nh3_diabatization_2d_at_mode_7_8_dist0.2_-0.7.F98
-rw-r--r-- 1 bsonghao nooijen   30264 Nov 16 19:35 /scratch/bsonghao/nh3_diabatization_2d_at_mode_7_8_dist0.2_-0.7.F99
ls: No match.
ls: No match.
ls: No match.
Wed 16 Nov 2022 07:35:15 PM EST
0.296u 0.034s 0:17.91 1.7%	0+0k 48+224io 0pf+0w
