----- GAMESS execution script 'rungms' -----
This job is running on host io002
under operating system Linux at Wed 16 Nov 2022 08:12:56 PM EST
Available scratch disk space (Kbyte units) at beginning of the job is
Filesystem       1K-blocks       Used   Available Use% Mounted on
/dev/sdc1      15378471580 3278917120 11318349060  23% /scratch
GAMESS temporary binary files will be written to /scratch/bsonghao
GAMESS supplementary output files will be written to /home/bsonghao/.gamess_ascii_files/267638
Copying input file nh3_diabatization_2d_at_mode_7_8_dist0.6_0.8.inp to your run's scratch directory...
cp nh3_diabatization_2d_at_mode_7_8_dist0.6_0.8.inp /scratch/bsonghao/nh3_diabatization_2d_at_mode_7_8_dist0.6_0.8.F05
unset echo
/home/bjb2chen/gamess/ddikick.x /home/bjb2chen/gamess/gamess.00.x nh3_diabatization_2d_at_mode_7_8_dist0.6_0.8 -ddi 1 1 io002 -scr /scratch/bsonghao

 Distributed Data Interface kickoff program.
 Initiating 1 compute processes on 1 nodes to run the following command:
 /home/bjb2chen/gamess/gamess.00.x nh3_diabatization_2d_at_mode_7_8_dist0.6_0.8 

          ******************************************************
          *         GAMESS VERSION = 02 AUG 2018 (R2)         *
          *             FROM IOWA STATE UNIVERSITY             *
          * M.W.SCHMIDT, K.K.BALDRIDGE, J.A.BOATZ, S.T.ELBERT, *
          *   M.S.GORDON, J.H.JENSEN, S.KOSEKI, N.MATSUNAGA,   *
          *          K.A.NGUYEN, S.J.SU, T.L.WINDUS,           *
          *       TOGETHER WITH M.DUPUIS, J.A.MONTGOMERY       *
          *         J.COMPUT.CHEM.  14, 1347-1363(1993)        *
          **************** 64 BIT LINUX VERSION ****************

  SINCE 1993, STUDENTS AND POSTDOCS WORKING AT IOWA STATE UNIVERSITY
  AND ALSO IN THEIR VARIOUS JOBS AFTER LEAVING ISU HAVE MADE IMPORTANT
  CONTRIBUTIONS TO THE CODE:
     IVANA ADAMOVIC, CHRISTINE AIKENS, YURI ALEXEEV, POOJA ARORA,
     ANDREY ASADCHEV, ROB BELL, PRADIPTA BANDYOPADHYAY, JONATHAN BENTZ,
     BRETT BODE, KURT BRORSEN, CALEB CARLIN, GALINA CHABAN, WEI CHEN,
     CHEOL HO CHOI, PAUL DAY, ALBERT DEFUSCO, NUWAN DESILVA, TIM DUDLEY,
     DMITRI FEDOROV, ALEX FINDLATER, GRAHAM FLETCHER, MARK FREITAG,
     KURT GLAESEMANN, ANASTASIA GUININA,
     DAN KEMP, GRANT MERRILL, NORIYUKI MINEZAWA, JONATHAN MULLIN,
     TAKESHI NAGATA, SEAN NEDD, HEATHER NETZLOFF, BOSILJKA NJEGIC, RYAN OLSON,
     MIKE PAK, BUU PHAM,
     SPENCER PRUITT, LUKE ROSKOP, JIM SHOEMAKER, LYUDMILA SLIPCHENKO,
     TONY SMITH, SAROM SOK LEANG, JIE SONG, TETSUYA TAKETSUGU, SIMON WEBB,
     PENG XU, SOOHAENG YOO, FEDERICO ZAHARIEV

  ADDITIONAL CODE HAS BEEN PROVIDED BY COLLABORATORS IN OTHER GROUPS:
     IOWA STATE UNIVERSITY:
          JOE IVANIC, AARON WEST, LAIMUTIS BYTAUTAS, KLAUS RUEDENBERG
     UNIVERSITY OF TOKYO: KIMIHIKO HIRAO, TAKAHITO NAKAJIMA,
          TAKAO TSUNEDA, MUNEAKI KAMIYA, SUSUMU YANAGISAWA,
          KIYOSHI YAGI, MAHITO CHIBA, SEIKEN TOKURA, NAOAKI KAWAKAMI
     UNIVERSITY OF AARHUS: FRANK JENSEN
     UNIVERSITY OF IOWA: VISVALDAS KAIRYS, HUI LI
     NATIONAL INST. OF STANDARDS AND TECHNOLOGY: WALT STEVENS, DAVID GARMER
     UNIVERSITY OF PISA: BENEDETTA MENNUCCI, JACOPO TOMASI
     UNIVERSITY OF MEMPHIS: HENRY KURTZ, PRAKASHAN KORAMBATH
     UNIVERSITY OF ALBERTA: TOBY ZENG, MARIUSZ KLOBUKOWSKI
     UNIVERSITY OF NEW ENGLAND: MARK SPACKMAN
     MIE UNIVERSITY: HIROAKI UMEDA
     NAT. INST. OF ADVANCED INDUSTRIAL SCIENCE AND TECHNOLOGY: KAZUO KITAURA
     MICHIGAN STATE UNIVERSITY:
          KAROL KOWALSKI, MARTA WLOCH, JEFFREY GOUR, JESSE LUTZ,
          WEI LI, JUN SHEN, J. EMILIANO DEUSTUA, PIOTR PIECUCH
     UNIVERSITY OF MINNESOTA:
          YINAN SHU
     UNIVERSITY OF SILESIA: MONIKA MUSIAL, STANISLAW KUCHARSKI
     FACULTES UNIVERSITAIRES NOTRE-DAME DE LA PAIX:
          OLIVIER QUINET, BENOIT CHAMPAGNE
     UNIVERSITY OF CALIFORNIA - SANTA BARBARA: BERNARD KIRTMAN
     INSTITUTE FOR MOLECULAR SCIENCE:
          KAZUYA ISHIMURA, MICHIO KATOUDA, AND SHIGERU NAGASE
     UNIVERSITY OF NOTRE DAME: ANNA POMOGAEVA, DAN CHIPMAN
     KYUSHU UNIVERSITY:
          HARUYUKI NAKANO,
          FENG LONG GU, JACEK KORCHOWIEC, MARCIN MAKOWSKI, AND YURIKO AOKI,
          HIROTOSHI MORI AND EISAKU MIYOSHI
     PENNSYLVANIA STATE UNIVERSITY:
          TZVETELIN IORDANOV, CHET SWALINA, JONATHAN SKONE,
          SHARON HAMMES-SCHIFFER
     WASEDA UNIVERSITY:
          MASATO KOBAYASHI, TOMOKO AKAMA, TSUGUKI TOUMA,
          TAKESHI YOSHIKAWA, YASUHIRO IKABATA, JUNJI SEINO,
          YUYA NAKAJIMA, HIROMI NAKAI
     NANJING UNIVERSITY: SHUHUA LI
     UNIVERSITY OF NEBRASKA:
          PEIFENG SU, DEJUN SI, NANDUN THELLAMUREGE, YALI WANG, HUI LI
     UNIVERSITY OF ZURICH: ROBERTO PEVERATI, KIM BALDRIDGE
     N. COPERNICUS UNIVERSITY AND JACKSON STATE UNIVERSITY:
          MARIA BARYSZ
     UNIVERSITY OF COPENHAGEN: Jimmy Kromann, CASPER STEINMANN
     TOKYO INSTITUTE OF TECHNOLOGY: HIROYA NAKATA
     NAGOYA UNIVERSITY: YOSHIO NISHIMOTO, STEPHAN IRLE
     MOSCOW STATE UNIVERSITY: VLADIMIR MIRONOV

 EXECUTION OF GAMESS BEGUN Wed Nov 16 20:12:56 2022

            ECHO OF THE FIRST FEW INPUT CARDS -
 INPUT CARD> $system kdiag=3 mwords=100 memddi=1000 parall=.t. $end                         
 INPUT CARD> $contrl runtyp=energy ispher=1 $end                                            
 INPUT CARD> $contrl icut=9 itol=20 inttyp=rysquad qmttol=1.0d-05 nosym=1 $end              
 INPUT CARD> $scf    npunch=2 conv=1.0d-06 dirscf=.t.      $end                             
 INPUT CARD> $contrl scftyp=mcscf  mult=2 maxit=200 icharg=1 mplevl=2 $end                  
 INPUT CARD> $guess  guess=moread norb=29 purify=.t. $end                                   
 INPUT CARD> $basis  gbasis=ccd $end                                                        
 INPUT CARD> $mcscf  cistep=gmcci fullnr=.t. finci=mos                                      
 INPUT CARD>         acurcy=1.d-6 maxit=100 $end                                            
 INPUT CARD> $trans  dirtrf=.t. $end                                                        
 INPUT CARD> $mrmp   mrpt=gmcpt rdvecs=.f. $end                                             
 INPUT CARD> $gmcpt  nmofzc=0 nmodoc=1 nmoact=7 nelact=7 stsym(1)=A                         
 INPUT CARD>         reftyp=ormas nspace=1 mstart(1)=2 mine(1)=7 maxe(1)=7                  
 INPUT CARD>         kstate(1)=1,1,1                                                        
 INPUT CARD>         wstate(1)=1,1,1                                                        
 INPUT CARD>         iwgt=0 thrwgt=-1.0 krot=.f. kszdoe=.f. knospn=.f.                      
 INPUT CARD>         thrde=-1.0 edshft=0.02 $end                                            
 INPUT CARD> $data                                                                          
 INPUT CARD> NH3+ 3 states calculation at NH3 structure.                                    
 INPUT CARD> c1                                                                             
 INPUT CARD>N 7.0 -0.049831344 -0.037373418000000005 -0.1693811162                          
 INPUT CARD>H 1.0 0.171255292 1.1524016238 0.2880371601                                     
 INPUT CARD>H 1.0 -0.28729662600000005 -1.0709397958 0.013708294099999963                   
 INPUT CARD>H 1.0 0.808461204 0.43785448000000005 0.46764184610000004                       
 INPUT CARD>$end                                                                            
 INPUT CARD>--- OPTIMIZED RHF      MO-S --- GENERATED AT Mon Nov 14 16:47:08 2022           
 INPUT CARD>E=      -56.3825050291, E(NUC)=   11.8429239490                                 
 INPUT CARD> $VEC                                                                           
 INPUT CARD> 1  1-1.00134066E+00-2.25158504E-03 3.44925845E-03 0.00000000E+00 0.00000000E+00
 INPUT CARD> 1  2-2.13170927E-03 0.00000000E+00 0.00000000E+00 6.57129898E-04-6.87950443E-05
 INPUT CARD> 1  3-6.87950443E-05 1.37590089E-04 0.00000000E+00 0.00000000E+00 0.00000000E+00
 INPUT CARD> 1  4 3.25502815E-04-4.84772356E-04 3.62525460E-04-6.27912517E-04-3.45956485E-04
 INPUT CARD> 1  5 3.25502815E-04-4.84772356E-04 3.62525460E-04 6.27912517E-04-3.45956485E-04
 INPUT CARD> 1  6 3.25502815E-04-4.84772356E-04-7.25050921E-04 0.00000000E+00-3.45956485E-04
 INPUT CARD> 2  1 1.31286642E-02-4.05911371E-01-2.82090992E-01 0.00000000E+00 0.00000000E+00
 INPUT CARD> 2  2-7.71489043E-02 0.00000000E+00 0.00000000E+00 9.73717494E-03 6.62450916E-04
 INPUT CARD> 2  3 6.62450916E-04-1.32490183E-03 0.00000000E+00 0.00000000E+00 0.00000000E+00
 INPUT CARD> 2  4-1.96090317E-01-1.96656153E-02-1.74855877E-02 3.02859263E-02 8.68214399E-03
 INPUT CARD> 2  5-1.96090317E-01-1.96656153E-02-1.74855877E-02-3.02859263E-02 8.68214399E-03
 INPUT CARD> 2  6-1.96090317E-01-1.96656153E-02 3.49711754E-02 0.00000000E+00 8.68214399E-03
 INPUT CARD> 3  1 0.00000000E+00 0.00000000E+00 0.00000000E+00 4.48608762E-01 0.00000000E+00
 INPUT CARD> 3  2 0.00000000E+00 2.18692520E-01 0.00000000E+00 0.00000000E+00 1.30198027E-02
 INPUT CARD> 3  3-1.30198027E-02 0.00000000E+00 0.00000000E+00 2.71832968E-02 0.00000000E+00
 INPUT CARD> 3  4-1.85332726E-01-7.03958951E-02 8.47929477E-03 1.95242443E-02 8.32835058E-03
 INPUT CARD> 3  5-1.85332726E-01-7.03958951E-02 8.47929477E-03-1.95242443E-02 8.32835058E-03
 INPUT CARD> 3  6 3.70665453E-01 1.40791790E-01-2.53376884E-02 0.00000000E+00-1.66567012E-02
 INPUT CARD> 4  1 0.00000000E+00 0.00000000E+00 0.00000000E+00 0.00000000E+00 4.48608762E-01
 INPUT CARD> 4  2 0.00000000E+00 0.00000000E+00 2.18692520E-01 0.00000000E+00 0.00000000E+00
 INPUT CARD> 4  3 0.00000000E+00 0.00000000E+00-1.50339731E-02 0.00000000E+00 2.71832968E-02
 INPUT CARD> 4  4 3.21005698E-01 1.21929267E-01 1.95242443E-02-1.40653607E-02-1.44251263E-02
  100000000 WORDS OF MEMORY AVAILABLE

     BASIS OPTIONS
     -------------
     GBASIS=CCD          IGAUSS=       0      POLAR=NONE    
     NDFUNC=       0     NFFUNC=       0     DIFFSP=       F
     NPFUNC=       0      DIFFS=       F     BASNAM=        


     RUN TITLE
     ---------
  NH3+ 3 states calculation at NH3 structure.                                    

 THE POINT GROUP OF THE MOLECULE IS C1      
 THE ORDER OF THE PRINCIPAL AXIS IS     0

 ATOM      ATOMIC                      COORDINATES (BOHR)
           CHARGE         X                   Y                   Z
 N           7.0    -0.0941675858       -0.0706255192       -0.3200838971
 H           1.0     0.3236255758        2.1777232968        0.5443113069
 H           1.0    -0.5429119003       -2.0237827634        0.0259049196
 H           1.0     1.5277701473        0.8274249897        0.8837149495

          INTERNUCLEAR DISTANCES (ANGS.)
          ------------------------------

                1 N          2 H          3 H          4 H     

   1 N       0.0000000    1.2937061 *  1.0761835 *  1.1697461 *
   2 H       1.2937061 *  0.0000000    2.2866511 *  0.9740980 *
   3 H       1.0761835 *  2.2866511 *  0.0000000    1.9191668 *
   4 H       1.1697461 *  0.9740980 *  1.9191668 *  0.0000000  

  * ... LESS THAN  3.000


     ATOMIC BASIS SET
     ----------------
 THE CONTRACTED PRIMITIVE FUNCTIONS HAVE BEEN UNNORMALIZED
 THE CONTRACTED BASIS FUNCTIONS ARE NOW NORMALIZED TO UNITY

  SHELL TYPE  PRIMITIVE        EXPONENT          CONTRACTION COEFFICIENT(S)

 N         

      1   S       1          9046.0000000    0.000699617413
      1   S       2          1357.0000000    0.005386054630
      1   S       3           309.3000000    0.027391021189
      1   S       4            87.7300000    0.103150591982
      1   S       5            28.5600000    0.278570663317
      1   S       6            10.2100000    0.448294849454
      1   S       7             3.8380000    0.278085928395
      1   S       8             0.7466000    0.015431561233

      2   S       9          9046.0000000   -0.000304990096
      2   S      10          1357.0000000   -0.002408026379
      2   S      11           309.3000000   -0.011944448725
      2   S      12            87.7300000   -0.048925992909
      2   S      13            28.5600000   -0.134472724725
      2   S      14            10.2100000   -0.315112577700
      2   S      15             3.8380000   -0.242857832550
      2   S      16             0.7466000    1.094382206854

      3   S      17             0.2248000    1.000000000000

      4   P      18            13.5500000    0.058905676772
      4   P      19             2.9170000    0.320461106714
      4   P      20             0.7973000    0.753042061792

      5   P      21             0.2185000    1.000000000000

      6   D      22             0.8170000    1.000000000000

 H         

      7   S      23            13.0100000    0.033498726390
      7   S      24             1.9620000    0.234800801174
      7   S      25             0.4446000    0.813682957883

      8   S      26             0.1220000    1.000000000000

      9   P      27             0.7270000    1.000000000000

 H         

     10   S      28            13.0100000    0.033498726390
     10   S      29             1.9620000    0.234800801174
     10   S      30             0.4446000    0.813682957883

     11   S      31             0.1220000    1.000000000000

     12   P      32             0.7270000    1.000000000000

 H         

     13   S      33            13.0100000    0.033498726390
     13   S      34             1.9620000    0.234800801174
     13   S      35             0.4446000    0.813682957883

     14   S      36             0.1220000    1.000000000000

     15   P      37             0.7270000    1.000000000000

 TOTAL NUMBER OF BASIS SET SHELLS             =   15
 NUMBER OF CARTESIAN GAUSSIAN BASIS FUNCTIONS =   30
 NOTE: THIS RUN WILL RESTRICT THE MO VARIATION SPACE TO SPHERICAL HARMONICS.
 THE NUMBER OF ORBITALS KEPT IN THE VARIATIONAL SPACE WILL BE PRINTED LATER.
 NUMBER OF ELECTRONS                          =    9
 CHARGE OF MOLECULE                           =    1
 SPIN MULTIPLICITY                            =    2
 NUMBER OF OCCUPIED ORBITALS (ALPHA)          =    5
 NUMBER OF OCCUPIED ORBITALS (BETA )          =    4
 TOTAL NUMBER OF ATOMS                        =    4
 THE NUCLEAR REPULSION ENERGY IS       10.5224008067

     $CONTRL OPTIONS
     ---------------
 SCFTYP=MCSCF        RUNTYP=ENERGY       EXETYP=RUN     
 MPLEVL=       2     CITYP =NONE         CCTYP =NONE         VBTYP =NONE    
 DFTTYP=NONE         TDDFT =NONE    
 MULT  =       2     ICHARG=       1     NZVAR =       0     COORD =UNIQUE  
 PP    =NONE         RELWFN=NONE         LOCAL =NONE         NUMGRD=       F
 ISPHER=       1     NOSYM =       1     MAXIT =     200     UNITS =ANGS    
 PLTORB=       F     MOLPLT=       F     AIMPAC=       F     FRIEND=        
 NPRINT=       7     IREST =       0     GEOM  =INPUT   
 NORMF =       0     NORMP =       0     ITOL  =      20     ICUT  =       9
 INTTYP=RYSQUAD      GRDTYP=BEST         QMTTOL= 1.0E-05

     $SYSTEM OPTIONS
     ---------------
  REPLICATED MEMORY=   100000000 WORDS (ON EVERY NODE).
 DISTRIBUTED MEMDDI=        1000 MILLION WORDS IN AGGREGATE,
 MEMDDI DISTRIBUTED OVER   1 PROCESSORS IS  1000000000 WORDS/PROCESSOR.
 TOTAL MEMORY REQUESTED ON EACH PROCESSOR=  1100000000 WORDS.
 TIMLIM=      525600.00 MINUTES, OR     365.0 DAYS.
 PARALL= T  BALTYP=  DLB     KDIAG=    3  COREFL= F
 MXSEQ2=     300 MXSEQ3=     150  mem10=         0

          ----------------
          PROPERTIES INPUT
          ----------------

     MOMENTS            FIELD           POTENTIAL          DENSITY
 IEMOM =       1   IEFLD =       0   IEPOT =       0   IEDEN =       0
 WHERE =COMASS     WHERE =NUCLEI     WHERE =NUCLEI     WHERE =NUCLEI  
 OUTPUT=BOTH       OUTPUT=BOTH       OUTPUT=BOTH       OUTPUT=BOTH    
 IEMINT=       0   IEFINT=       0                     IEDINT=       0
                                                       MORB  =       0

     -------------------------------
     INTEGRAL TRANSFORMATION OPTIONS
     -------------------------------
     NWORD  =            0
     CUTOFF = 1.0E-09     MPTRAN =       0
     DIRTRF =       T     AOINTS =DUP     

          ----------------------
          MCSCF INPUT PARAMETERS
          ----------------------
 CONVERGER SELECTION: FOCAS = F  SOSCF = F  FULLNR = T  QUD = F  JACOBI = F
 SECULAR EQUATION METHOD CISTEP = GMCCI   
 --- GENERAL INPUT OPTIONS:
 MAXIT =     100  MICIT =       1  ACURCY= 1.000E-06
 DAMP  =   0.000  CANONC=       T  ENGTOL= 1.000E-10
 EKT   =       F  NPUNCH=       2  NWORD =         0
 REGENERATE CI AFTER CONVERGENCE = NONE    
 DIABATIZATION AFTER CONVERGENCE =        F
 --- INPUT FOR FULLNR CONVERGER:
 METHOD=DM2       FORS  =       F  DROPC =       T
 LINSER=       F  FCORE =       F  NORB  =      30

          ----------------------
          INTEGRAL INPUT OPTIONS
          ----------------------
 NOPK  =       1 NORDER=       0 SCHWRZ=       T

 ------------------------------------------
 MULTIREFERENCE PERTURBATION THEORY CONTROL
 ------------------------------------------
 MRPT=GMCPT    READ CONVERGED MCSCF VECTORS= F


     ------------------------------------------
     THE POINT GROUP IS C1 , NAXIS= 1, ORDER= 1
     ------------------------------------------

 -- VARIATIONAL SPACE WILL BE RESTRICTED TO PURE SPHERICAL HARMONICS ONLY --
 AFTER EXCLUDING CONTAMINANT COMBINATIONS FROM THE CARTESIAN GAUSSIAN BASIS
 SET, THE NUMBER OF SPHERICAL HARMONICS KEPT IN THE VARIATION SPACE IS   29

     DIMENSIONS OF THE SYMMETRY SUBSPACES ARE
 A   =   29

 ..... DONE SETTING UP THE RUN .....
 CPU     0: STEP CPU TIME=     0.04 TOTAL CPU TIME=          0.0 (      0.0 MIN)
 TOTAL WALL CLOCK TIME=          0.0 SECONDS, CPU UTILIZATION IS   100.00%

          ********************
          1 ELECTRON INTEGRALS
          ********************
 TIME TO DO   DIPOLE INTEGRALS=      0.00
 ...... END OF ONE-ELECTRON INTEGRALS ......
 CPU     0: STEP CPU TIME=     0.00 TOTAL CPU TIME=          0.0 (      0.0 MIN)
 TOTAL WALL CLOCK TIME=          0.1 SECONDS, CPU UTILIZATION IS    80.00%

          -------------
          GUESS OPTIONS
          -------------
          GUESS =MOREAD            NORB  =      29          NORDER=       0
          MIX   =       F          PRTMO =       F          PUNMO =       F
          TOLZ  = 1.0E-08          TOLE  = 1.0E-05
          SYMDEN=       F          PURIFY=       T

 INITIAL GUESS ORBITALS GENERATED BY MOREAD   ROUTINE.

 STATISTICS FOR GENERATION OF SYMMETRY ORBITAL -Q- MATRIX
 NUMBER OF CARTESIAN ATOMIC ORBITALS=         30
 NUMBER OF SPHERICAL CONTAMINANTS DROPPED=     1
 NUMBER OF LINEARLY DEPENDENT MOS DROPPED=     0
 TOTAL NUMBER OF MOS IN VARIATION SPACE=      29
 ORBITAL PURIFICATION WILL OCCUR

 SYMMETRIES FOR INITIAL GUESS ORBITALS FOLLOW.   BOTH SET(S).
     5 ORBITALS ARE OCCUPIED (    1 CORE ORBITALS).
     1=A        2=A        3=A        4=A        5=A        6=A        7=A   
     8=A        9=A       10=A       11=A       12=A       13=A       14=A   
    15=A       16=A       17=A       18=A       19=A       20=A       21=A   
    22=A       23=A       24=A       25=A       26=A       27=A       28=A   
    29=A   
 ...... END OF INITIAL ORBITAL SELECTION ......
 CPU     0: STEP CPU TIME=     0.00 TOTAL CPU TIME=          0.0 (      0.0 MIN)
 TOTAL WALL CLOCK TIME=          0.1 SECONDS, CPU UTILIZATION IS    80.00%

                    ----------------------
                    AO INTEGRAL TECHNOLOGY
                    ----------------------
     S,P,L SHELL ROTATED AXIS INTEGRALS, REPROGRAMMED BY
        KAZUYA ISHIMURA (IMS) AND JOSE SIERRA (SYNSTAR).
     S,P,D,L SHELL ROTATED AXIS INTEGRALS PROGRAMMED BY
        KAZUYA ISHIMURA (INSTITUTE FOR MOLECULAR SCIENCE).
     S,P,D,F,G SHELL TO TOTAL QUARTET ANGULAR MOMENTUM SUM 5,
        ERIC PROGRAM BY GRAHAM FLETCHER (ELORET AND NASA ADVANCED
        SUPERCOMPUTING DIVISION, AMES RESEARCH CENTER).
     S,P,D,F,G,L SHELL GENERAL RYS QUADRATURE PROGRAMMED BY
        MICHEL DUPUIS (PACIFIC NORTHWEST NATIONAL LABORATORY).

          --------------------
          2 ELECTRON INTEGRALS
          --------------------

 DIRECT SCF METHOD SKIPS INTEGRAL STORAGE ON DISK.
 DIRECT TRANSFORMATION SKIPS AO INTEGRAL STORAGE ON DISK.
  ...... END OF TWO-ELECTRON INTEGRALS .....
 STEP CPU TIME =     0.02 TOTAL CPU TIME =          0.1 (      0.0 MIN)
 TOTAL WALL CLOCK TIME=          0.1 SECONDS, CPU UTILIZATION IS    85.71%
 DDI: Creating Array [0] - 900 x 36 = 32400 words.
 DDI: Creating Array [1] - 21 x 288 = 6048 words.
 DDI: Creating Array [2] - 36 x 36 = 1296 words.
 DDI: Creating Array [3] - 465 x 36 = 16740 words.

          -----------------
          MCSCF CALCULATION
          -----------------

 ----- NUCLEAR ENERGY ----- =        10.5224008067

     -------------------------------------------------
     GMC-PT/GMC-QDPT or general MCSCF input parameters
     -------------------------------------------------
 # of frozen core orbs. =         0 ->         0
 # of doubly occ. orbs. =         1
 # of active      orbs. =         7
 # of virtual     orbs. =        21
 # of active electrons  =         7
 # of states in CI      =         3
 Highest state in CI    =         3
 kstate =  1 1 1
 avecoe =  0.333 0.333 0.333
 State symmetry           = A           
 Assigned symmetry number = 1

 <<<Act. MO sym.: 1111111

 <<<Division of 1-ext.:  0
 <<<Division of 2-ext.:  0

 *** Reference space

 Reference type: ORMAS (= Occupation restricted multiple active space)
 # of orbitals          =  7
 # of minimum electrons =  7
 # of maximum electrons =  7
 State symmetry    =    1 (input)
 2*Sz              =    1 (input)
 Spin multiplicity =    2 (input)
 Dimension of reference space =      1225  (from      3432 walks)

 Dimension of reference space =      1225  (from      1225 walks)

 <<<Ionized spaces for Ref-CI:
      0:         1225 /   -1-0:         1960 /  0-1-0:         2891

 EVALUATING EXCHANGE INTEGRALS FOR DIRECT INTEGRAL TRANSFORMATION
 SCHWARZ INEQUALITY OVERHEAD:       465 INTEGRALS, T=        0.00

     --------------------------------------------
     PARTIAL TWO ELECTRON INTEGRAL TRANSFORMATION
     --------------------------------------------

 NUMBER OF CORE MOLECULAR ORBITALS     =    1
 NUMBER OF OCCUPIED MOLECULAR ORBITALS =    8
 TOTAL NUMBER OF MOLECULAR ORBITALS    =   29
 TOTAL NUMBER OF ATOMIC ORBITALS       =   30
 THRESHOLD FOR KEEPING TRANSFORMED 2E- INTEGRALS = 1.000E-09

 -------------------------------     ------------------------------
 DISTRIBUTED DATA TRANSFORMATION     PROGRAM WRITTEN BY G. FLETCHER
 -------------------------------     ------------------------------

 THE DISTRIBUTED MEMORY REQUIRED FOR THIS STEP IS MEMDDI=         1 MWORDS
 CREATING DISTRIBUTED STORAGE FOR [VIR OCC|VIR OCC] INTEGRALS
 CREATING DISTRIBUTED STORAGE FOR [VIR OCC|OCC OCC] INTEGRALS
 CREATING DISTRIBUTED STORAGE FOR [OCC OCC|OCC OCC] INTEGRALS
 CREATING DISTRIBUTED STORAGE FOR [VIR VIR|OCC OCC] INTEGRALS
 FOR    1 PROCESSORS, THE REPLICATED MEMORY NEEDED IS       73700 WORDS.
 SCHWARZ INEQUALITY OVERHEAD:       465 INTEGRALS, T=        0.00

      DIRECT 4-INDEX TRANSFORMATION 
      SCHWARZ INEQUALITY TEST SKIPPED          0 INTEGRAL BLOCKS
 ----- FROZEN CORE ENERGY =       -47.4381035091
 ... END OF INTEGRAL TRANSFORMATION ...
 CPU     0: STEP CPU TIME=     0.22 TOTAL CPU TIME=          0.3 (      0.0 MIN)
 TOTAL WALL CLOCK TIME=          0.3 SECONDS, CPU UTILIZATION IS    96.55%

     --------------------------------     -----------------------------
     MCHF NEWTON-RAPHSON OPTIMIZATION     CODE WRITTEN BY MICHEL DUPUIS
     --------------------------------     -----------------------------
     PARALLEL VERSION WRITTEN BY G. FLETCHER (ELORET)
     NASA ADVANCED SUPERCOMPUTING DIVISION, AMES RESEARCH CENTER

 NUMBER OF INDEPENDENT ORBITAL ROTATION PARAMETERS =   175
 ..... DONE SOLVING NEWTON-RAPHSON EQUATIONS .....
 CPU     0: STEP CPU TIME=     0.92 TOTAL CPU TIME=          1.2 (      0.0 MIN)
 TOTAL WALL CLOCK TIME=          1.2 SECONDS, CPU UTILIZATION IS    98.36%
 ..... DONE WITH NTN-RPH ORBITAL ROTATIONS ..... 
 CPU     0: STEP CPU TIME=     0.00 TOTAL CPU TIME=          1.2 (      0.0 MIN)
 TOTAL WALL CLOCK TIME=          1.2 SECONDS, CPU UTILIZATION IS    98.36%
 MAXIMUM MEMORY USED BY NTN-RPH CODE WAS     57645 WORDS.

 ITER     TOTAL ENERGY      DEL(E)  LAGRANGIAN ASYMMETRY   SQCDF  MICIT   DAMP
   1      -55.484017920 -0.484017920  0.143359    9    3 9.662E-02  1   0.0000
   2      -55.596564782 -0.112546862  0.054362   13    3 2.227E-01  1   0.0000
   3      -55.641702983 -0.045138201  0.018818   14    4 2.825E-01  1   0.0132
   4      -55.663667568 -0.021964585  0.007787   11    6 7.174E-02  1   0.0090
   5      -55.668039299 -0.004371731  0.001837   24    6 2.584E-03  1   0.0000
   6      -55.668214024 -0.000174726  0.000447   22    5 1.535E-04  1   0.0000
   7      -55.668227875 -0.000013850  0.000189   22    5 2.295E-05  1   0.0000
   8      -55.668230101 -0.000002226  0.000079   22    5 4.322E-06  1   0.0000
   9      -55.668230531 -0.000000431  0.000038   27    6 9.007E-07  1   0.0000
  10      -55.668230622 -0.000000091  0.000018   27    6 1.978E-07  1   0.0000
  11      -55.668230642 -0.000000020  0.000009   27    6 4.480E-08  1   0.0000
  12      -55.668230646 -0.000000005  0.000004   27    6 1.037E-08  1   0.0000
  13      -55.668230647 -0.000000001  0.000002   27    6 2.447E-09  1   0.0000
  14      -55.668230648 -0.000000000  0.000001   27    6 5.770E-10  1   0.0000
  15      -55.668230648 -0.000000000  0.000001   27    6 1.411E-10  1   0.0000

          --------------------
          LAGRANGIAN CONVERGED
          --------------------

 FINAL MCSCF ENERGY IS      -55.6682306477 AFTER  15 ITERATIONS

 -MCCI- BASED ON OPTIMIZED ORBITALS
 ----------------------------------

 PLEASE NOTE: IF THE ACTIVE ORBITALS ARE CANONICALIZED BELOW,
 THE FOLLOWING CI EXPANSION COEFFICIENTS AND THE DENSITY DO NOT
 CORRESPOND TO THE PRINTED ORBITALS.  THE PRINTED EXPANSIONS MATCH
 THE ORBITALS USED DURING THE LAST ITERATION.  IF YOU WISH TO SEE
 CI EXPANSIONS BASED ON THE CANONICAL (OR NATURAL) ORBITALS, YOU
 MUST RUN A CI CALCULATION WITH THAT ORBITAL CHOICE READ IN $VEC.

 Averaged energy =     -55.668230648

 State #    1  Energy =     -55.770661690  S =  0.500

      Det      Coef    Occupancy (Ignoring core)
      ---      ----    --------- --------- -----
        1   -0.814431  11110001110000
        4    0.072801  10111001110000
        5    0.067516  01111001110000
        8    0.153163  10110101110000
       17   -0.110019  11010011110000
       36    0.112073  11110001101000
       71    0.433941  11110001011000
       76    0.061643  11100101011000
       78   -0.081289  10110101011000
       87    0.051642  11010011011000
      176   -0.077531  11110001010100
      386   -0.091519  11110001010010
      393   -0.058827  10110101010010
      701    0.090535  11110001100001

 State #    2  Energy =     -55.696200977  S =  0.500

      Det      Coef    Occupancy (Ignoring core)
      ---      ----    --------- --------- -----
        1   -0.417117  11110001110000
        8    0.069762  10110101110000
       17   -0.058050  11010011110000
       36   -0.496066  11110001101000
       39    0.064734  10111001101000
       43    0.084104  10110101101000
       52   -0.058513  11010011101000
       71   -0.661782  11110001011000
       74    0.109231  10111001011000
       75    0.054610  01111001011000
       78    0.113745  10110101011000
       87   -0.082893  11010011011000
      246   -0.071293  11110001001100
      386   -0.114130  11110001010010
      456   -0.051398  11110001001010

 State #    3  Energy =     -55.537829276  S =  0.500

      Det      Coef    Occupancy (Ignoring core)
      ---      ----    --------- --------- -----
        2   -0.425645  11101001110000
        3    0.122132  11011001110000
        4    0.312308  10111001110000
        5    0.055716  01111001110000
       11    0.084590  10101101110000
       16    0.168332  11100011110000
       18   -0.113736  10110011110000
       20   -0.069250  11001011110000
       37    0.262397  11101001101000
       39   -0.102025  10111001101000
       46   -0.051257  10101101101000
       51   -0.137105  11100011101000
       72    0.489898  11101001011000
       74   -0.218997  10111001011000
       76    0.068469  11100101011000
       81   -0.098572  10101101011000
       86   -0.191329  11100011011000
       88    0.073191  10110011011000
       90    0.073441  11001011011000
      107    0.101064  11101000111000
      141    0.140266  11110001100100
      176    0.177590  11110001010100
      183   -0.050669  10110101010100
      246    0.059683  11110001001100
      386    0.055230  11110001010010
      387   -0.072786  11101001010010
      701   -0.088482  11110001100001
      702    0.087704  11101001100001
      704   -0.059252  10111001100001
      736   -0.077593  11110001010001
      807    0.092417  11101001001001

 DENSITY MATRIX OVER ACTIVE MO-S

             1           2           3           4           5

    1    1.9655710
    2    0.0560499   1.4793218
    3   -0.0304790   0.2474967   1.7859387
    4   -0.0301800   0.2719286  -0.0434269   1.2743568
    5    0.0999298  -0.0914304  -0.0446765  -0.0593842   0.3281289
    6    0.0068873  -0.2182726   0.0358355   0.0252462   0.0448467
    7   -0.0069176   0.0078262  -0.1970935   0.0383120  -0.1177186

             6           7

    6    0.0716792
    7   -0.0239125   0.0950035

 FORMING THE "STANDARD FOCK OPERATOR" IN DIRECT AO INTEGRAL MODE...
 ONLY THE    1 CORE AND   21 VIRTUAL ORBITALS WILL BE CANONICALIZED

          ----------------------
          MCSCF NATURAL ORBITALS
          ----------------------

                      1          2          3          4          5
                  -16.0215     1.9788     1.9595     1.5857     1.0629
                     A          A          A          A          A   
    1  N  1  S    1.000857   0.015028  -0.001193  -0.010510  -0.005180
    2  N  1  S   -0.003215   0.449495   0.014644  -0.176337  -0.082487
    3  N  1  S   -0.007357   0.366195  -0.025269  -0.244330  -0.140377
    4  N  1  X    0.001016   0.021119   0.189968   0.356156  -0.429516
    5  N  1  Y    0.001682  -0.109465   0.374861  -0.289082   0.040655
    6  N  1  Z    0.000656   0.056161   0.087376   0.346558   0.456780
    7  N  1  X   -0.000064   0.007796   0.068579   0.206027  -0.281834
    8  N  1  Y    0.000604  -0.037087   0.134974  -0.178104   0.025123
    9  N  1  Z   -0.000524   0.016663   0.028032   0.211244   0.310314
   10  N  1 XX   -0.000074  -0.003427   0.003797   0.005182  -0.015952
   11  N  1 YY    0.000269   0.006553  -0.006277  -0.009434   0.004712
   12  N  1 ZZ   -0.000195  -0.003125   0.002481   0.004251   0.011240
   13  N  1 XY    0.000240   0.002582   0.005596  -0.000271  -0.002353
   14  N  1 XZ    0.000224   0.001743   0.008309   0.017413  -0.008649
   15  N  1 YZ    0.000030  -0.001316   0.012932  -0.006191   0.008408
   16  H  2  S    0.000027   0.069886   0.280354  -0.079923   0.180267
   17  H  2  S    0.000316  -0.009061   0.046018  -0.069697   0.106159
   18  H  2  X    0.000058  -0.001438   0.004507   0.013539  -0.011504
   19  H  2  Y    0.000277  -0.013140  -0.033577   0.008466  -0.013549
   20  H  2  Z    0.000159  -0.003259  -0.007036   0.014556   0.011472
   21  H  3  S   -0.003133   0.241213  -0.263072   0.109092   0.093308
   22  H  3  S    0.000485   0.010880  -0.037096   0.015276   0.026714
   23  H  3  X   -0.000192   0.010959  -0.003355   0.015634  -0.011120
   24  H  3  Y   -0.000939   0.036737  -0.028388   0.008958   0.011337
   25  H  3  Z    0.000223  -0.004009   0.008011   0.009146   0.012610
   26  H  4  S   -0.000540   0.136939   0.299868   0.243967  -0.026846
   27  H  4  S    0.000484   0.004706   0.035477   0.110301  -0.031126
   28  H  4  X    0.000556  -0.023022  -0.029492  -0.015748  -0.011746
   29  H  4  Y    0.000255  -0.012600   0.003891  -0.017119   0.011853
   30  H  4  Z    0.000385  -0.014089  -0.019182  -0.005292   0.023762

                      6          7          8
                    0.3630     0.0279     0.0223
                     A          A          A   
    1  N  1  S   -0.032992   0.008024  -0.163553
    2  N  1  S   -0.286627  -0.005238  -0.497615
    3  N  1  S   -0.502875  -0.092469   0.025451
    4  N  1  X   -0.057499  -0.680696   0.054519
    5  N  1  Y   -0.284182  -0.059263   0.815880
    6  N  1  Z   -0.320114  -0.327812  -0.158191
    7  N  1  X   -0.043896   0.066643   0.053095
    8  N  1  Y   -0.171250  -0.114185   0.025707
    9  N  1  Z   -0.209659   0.045840   0.047184
   10  N  1 XX   -0.024763   0.026081   0.004640
   11  N  1 YY    0.040549  -0.052440  -0.021398
   12  N  1 ZZ   -0.015786   0.026359   0.016759
   13  N  1 XY    0.018399   0.018240   0.001367
   14  N  1 XZ    0.004572   0.027434   0.012608
   15  N  1 YZ    0.002229   0.005392  -0.001089
   16  H  2  S    0.551410  -0.313634  -0.245678
   17  H  2  S    0.471455  -0.299888  -0.114162
   18  H  2  X    0.024831   0.040600  -0.008220
   19  H  2  Y    0.010243   0.011855   0.003977
   20  H  2  Z    0.012194   0.027385  -0.008528
   21  H  3  S    0.257165  -0.179858   0.803228
   22  H  3  S    0.115912  -0.066706   0.140810
   23  H  3  X   -0.001141   0.010169   0.025451
   24  H  3  Y    0.002828  -0.009245   0.070202
   25  H  3  Z   -0.015833   0.008714   0.006372
   26  H  4  S    0.132511   0.775632   0.093679
   27  H  4  S    0.042729   0.292506   0.061796
   28  H  4  X    0.007255  -0.032479  -0.009659
   29  H  4  Y    0.055155  -0.024323  -0.036135
   30  H  4  Z    0.012785  -0.015183  -0.006864

          ------------------------
          MCSCF OPTIMIZED ORBITALS
          ------------------------

                      1          2          3          4          5
                  -16.0215     0.0000     0.0000     0.0000     0.0000
                     A          A          A          A          A   
    1  N  1  S    1.000857   0.009916   0.008514   0.012532  -0.014993
    2  N  1  S   -0.003215   0.415780  -0.021028   0.005291  -0.194798
    3  N  1  S   -0.007357   0.320143  -0.065038  -0.034234  -0.255010
    4  N  1  X    0.001016   0.015385   0.454811  -0.092503  -0.045989
    5  N  1  Y    0.001682   0.000936  -0.007022   0.394391  -0.044242
    6  N  1  Z    0.000656   0.062959  -0.019272   0.007913   0.601167
    7  N  1  X   -0.000064  -0.007811   0.328709  -0.129836  -0.083498
    8  N  1  Y    0.000604  -0.000879  -0.044728   0.210382  -0.052269
    9  N  1  Z   -0.000524   0.018719  -0.011917  -0.035748   0.378807
   10  N  1 XX   -0.000074  -0.005172   0.020444  -0.005939  -0.008814
   11  N  1 YY    0.000269   0.007798  -0.022737   0.007040  -0.002600
   12  N  1 ZZ   -0.000195  -0.002626   0.002293  -0.001100   0.011414
   13  N  1 XY    0.000240   0.004912   0.004911   0.002589  -0.002975
   14  N  1 XZ    0.000224   0.002651   0.022527  -0.007867   0.003682
   15  N  1 YZ    0.000030   0.002959  -0.000620   0.015291   0.004379
   16  H  2  S    0.000027   0.183546  -0.088590   0.353341   0.119736
   17  H  2  S    0.000316   0.041221  -0.160824   0.151244   0.042801
   18  H  2  X    0.000058  -0.000352   0.021078  -0.006964  -0.003394
   19  H  2  Y    0.000277  -0.021609  -0.004333  -0.031225  -0.010749
   20  H  2  Z    0.000159  -0.004312   0.001793  -0.010286   0.014567
   21  H  3  S   -0.003133   0.195268  -0.241910  -0.348628   0.107255
   22  H  3  S    0.000485   0.011529  -0.056045  -0.036297   0.026764
   23  H  3  X   -0.000192   0.008413   0.013263  -0.019016  -0.000046
   24  H  3  Y   -0.000939   0.029825  -0.024225  -0.038858   0.010224
   25  H  3  Z    0.000223  -0.002475   0.005376   0.003547   0.017058
   26  H  4  S   -0.000540   0.200226   0.412053   0.007419   0.119714
   27  H  4  S    0.000484   0.008669   0.137788  -0.063063   0.031619
   28  H  4  X    0.000556  -0.029022  -0.022395  -0.008310  -0.020663
   29  H  4  Y    0.000255  -0.006516  -0.021052   0.025102  -0.001716
   30  H  4  Z    0.000385  -0.015753  -0.029332  -0.001027   0.013162

                      6          7          8          9         10
                    0.0000     0.0000     0.0000     0.1521     0.2121
                     A          A          A          A          A   
    1  N  1  S    0.082786  -0.063716  -0.129619   0.053997   0.045794
    2  N  1  S    0.465016  -0.188425  -0.327000   0.095376   0.056747
    3  N  1  S    0.513269   0.042545   0.195044  -0.749034  -0.521292
    4  N  1  X    0.145502   0.747662  -0.139855   0.085726  -0.017241
    5  N  1  Y    0.009583   0.277194   0.867858   0.021763  -0.193872
    6  N  1  Z    0.399104   0.185919  -0.121856   0.096076   0.018299
    7  N  1  X   -0.012512   0.016699   0.058765  -0.273093   0.227812
    8  N  1  Y    0.178461   0.084015   0.084085   0.028633   0.780741
    9  N  1  Z    0.157199  -0.074339   0.121508  -0.173313   0.001319
   10  N  1 XX    0.014491  -0.021779   0.019505   0.018775   0.038691
   11  N  1 YY   -0.017391   0.043394  -0.047180  -0.054911  -0.076613
   12  N  1 ZZ    0.002900  -0.021615   0.027675   0.036136   0.037922
   13  N  1 XY   -0.021306  -0.014097  -0.000470  -0.068553  -0.016453
   14  N  1 XZ   -0.015766  -0.017548   0.015367  -0.048145   0.025920
   15  N  1 YZ   -0.002878  -0.006387   0.001424  -0.034871   0.062157
   16  H  2  S   -0.354768   0.239011  -0.470567  -0.496141   0.224723
   17  H  2  S   -0.325317   0.263637  -0.340525   0.203771  -0.523635
   18  H  2  X   -0.030328  -0.034602  -0.007003  -0.064660   0.029555
   19  H  2  Y   -0.013675  -0.007275  -0.000620  -0.002122   0.033174
   20  H  2  Z   -0.015163  -0.027650  -0.006385  -0.022547   0.050107
   21  H  3  S   -0.433919   0.432125   0.535672  -0.367582  -0.535170
   22  H  3  S   -0.135322   0.113535   0.060368   0.478999   1.905508
   23  H  3  X   -0.009743   0.001647   0.023366   0.035928   0.023415
   24  H  3  Y   -0.019968   0.029061   0.055244   0.056546   0.138787
   25  H  3  Z    0.009532  -0.008201   0.013908   0.030285  -0.048283
   26  H  4  S   -0.339688  -0.634496   0.233701  -0.518383   0.191411
   27  H  4  S   -0.131891  -0.229713   0.106863   1.359131  -0.615771
   28  H  4  X    0.003974   0.026743  -0.020391  -0.044031   0.009554
   29  H  4  Y   -0.033199   0.012819  -0.056229  -0.089516   0.018245
   30  H  4  Z   -0.005671   0.008074  -0.014834  -0.035401   0.036480

                     11         12         13         14         15
                    0.3140     0.5576     0.5900     0.7121     0.8765
                     A          A          A          A          A   
    1  N  1  S   -0.016838  -0.011457   0.034000  -0.008007  -0.631784
    2  N  1  S   -0.032441   0.063971   0.038811  -0.027382  -1.412424
    3  N  1  S    0.064014   0.367467  -0.339087  -0.105249   2.295948
    4  N  1  X    0.000339  -0.473029  -0.548261   0.183978  -0.028781
    5  N  1  Y    0.068731   0.089908  -0.026382  -0.472913  -0.235368
    6  N  1  Z   -0.041036  -0.469532   0.663607  -0.273275   0.121211
    7  N  1  X    0.260841   1.158709   0.810085   0.002384   0.166799
    8  N  1  Y   -0.394418   0.127771   0.423244   1.616402   0.353655
    9  N  1  Z    0.150357   0.894580  -0.672270   0.444558   0.007374
   10  N  1 XX    0.056313  -0.019790   0.022794   0.061841  -0.038432
   11  N  1 YY   -0.082728   0.004297  -0.003888  -0.006912  -0.011714
   12  N  1 ZZ    0.026416   0.015493  -0.018906  -0.054929   0.050146
   13  N  1 XY    0.013720  -0.044267   0.012357   0.062675  -0.101788
   14  N  1 XZ    0.043459  -0.016948  -0.007824  -0.006744   0.031149
   15  N  1 YZ   -0.013547  -0.007535  -0.034960  -0.121225  -0.017900
   16  H  2  S   -0.726125  -0.001954  -0.133157  -0.480667  -0.044251
   17  H  2  S    2.339643   0.411982   0.308309  -0.461164  -0.428143
   18  H  2  X    0.078830  -0.069787   0.065001   0.136387  -0.177800
   19  H  2  Y   -0.102912   0.088711   0.008182   0.163475   0.118776
   20  H  2  Z    0.033073   0.019543  -0.148908  -0.158486   0.134829
   21  H  3  S   -0.221671  -0.103183   0.333093   0.631937  -0.084889
   22  H  3  S    0.209119   0.278642   0.332275   0.444705  -0.452995
   23  H  3  X   -0.023179   0.091302   0.009126  -0.041973   0.137390
   24  H  3  Y   -0.012303  -0.000108   0.098080   0.150733  -0.115598
   25  H  3  Z    0.000788   0.056313   0.034701   0.153489   0.106805
   26  H  4  S    0.530800  -0.639498  -0.069966  -0.028042  -0.052541
   27  H  4  S   -2.172208  -0.782541  -0.325413   0.010640  -0.336472
   28  H  4  X    0.103150   0.081149   0.082583   0.235186   0.090219
   29  H  4  Y   -0.115835   0.067678   0.027621   0.035922  -0.101968
   30  H  4  Z    0.043134   0.106205  -0.083809  -0.109687   0.263667

                     16         17         18         19         20
                    1.0163     1.1461     1.2350     1.3067     1.4206
                     A          A          A          A          A   
    1  N  1  S   -0.322579  -0.028061   0.053359  -0.227653   0.247631
    2  N  1  S   -0.674857  -0.024809   0.129305  -0.481612   0.566882
    3  N  1  S    1.403466   0.222287  -0.105413   0.844053  -0.639533
    4  N  1  X   -0.002482   0.029697   0.127856   0.021891   0.040643
    5  N  1  Y    0.259081   0.027664   0.157223  -0.106727   0.076810
    6  N  1  Z   -0.040697   0.077936   0.031281  -0.008794   0.157252
    7  N  1  X   -0.122043   0.213165  -0.633874   0.132015  -0.184909
    8  N  1  Y   -1.208096   0.153990  -0.468527   0.282559   0.104922
    9  N  1  Z    0.284162  -0.265474  -0.099489   0.383222  -0.391440
   10  N  1 XX    0.162542  -0.147018  -0.051447   0.076003   0.232350
   11  N  1 YY   -0.076517  -0.125345   0.083127  -0.000480  -0.085048
   12  N  1 ZZ   -0.086025   0.272363  -0.031679  -0.075523  -0.147302
   13  N  1 XY    0.100126   0.144228  -0.171220  -0.007994  -0.160989
   14  N  1 XZ   -0.091735  -0.073427   0.188216  -0.293752   0.007813
   15  N  1 YZ   -0.048984  -0.116470  -0.124183   0.209975  -0.023043
   16  H  2  S    0.401396  -0.173671   0.123795  -0.504817   0.260923
   17  H  2  S    0.079061   0.004147   0.016411   0.102755  -0.230735
   18  H  2  X    0.212270   0.322220   0.340634   0.101905  -0.296951
   19  H  2  Y    0.208028   0.012953   0.065027  -0.308236   0.167919
   20  H  2  Z   -0.199171   0.333359  -0.278056   0.285590   0.685681
   21  H  3  S   -0.765113   0.078169  -0.256583  -0.034639   0.245051
   22  H  3  S   -0.543770   0.022135  -0.115642  -0.031449   0.068777
   23  H  3  X   -0.283357  -0.155844   0.747382   0.207436   0.111208
   24  H  3  Y   -0.009689   0.103759  -0.113105  -0.090365  -0.108117
   25  H  3  Z    0.214791   0.498051   0.229612  -0.273904   0.359788
   26  H  4  S   -0.121245  -0.192254   0.222641  -0.305117   0.284524
   27  H  4  S   -0.199764  -0.050344   0.102320  -0.173725   0.111682
   28  H  4  X    0.178799  -0.274613   0.023617   0.196829   0.341796
   29  H  4  Y    0.062742   0.268059   0.136979   0.561451  -0.025146
   30  H  4  Z   -0.400052   0.290060  -0.015504  -0.275536  -0.312285

                     21         22         23         24         25
                    1.5718     1.6368     1.8406     1.9175     2.1158
                     A          A          A          A          A   
    1  N  1  S   -0.057851   0.096440  -0.157576  -0.020758   0.063333
    2  N  1  S   -0.025689   0.283869  -0.356864  -0.036515   0.098191
    3  N  1  S    0.733570   0.179137  -0.049262  -0.040073  -0.565040
    4  N  1  X    0.004225   0.270627   0.079467   0.045296  -0.020774
    5  N  1  Y   -0.024806   0.304180   0.427563   0.150282   0.072602
    6  N  1  Z    0.105933   0.197987  -0.023354   0.005375  -0.024085
    7  N  1  X    0.188190   0.098301   0.234045  -0.161396  -0.326745
    8  N  1  Y    0.802695  -0.321772   0.408360   0.182833   0.114510
    9  N  1  Z    0.397723   0.024871   0.067187   0.169771  -0.307679
   10  N  1 XX    0.141939  -0.105596   0.145831  -0.624431   0.432586
   11  N  1 YY   -0.150311   0.075022   0.173641  -0.138224  -0.220633
   12  N  1 ZZ    0.008371   0.030575  -0.319472   0.762655  -0.211953
   13  N  1 XY   -0.038444  -0.098438   0.045684   0.387651   0.575169
   14  N  1 XZ   -0.029496  -0.305409   0.160879   0.027636  -0.570685
   15  N  1 YZ   -0.070788   0.049403  -0.320625  -0.030703   0.139263
   16  H  2  S   -0.167402   0.105416  -0.063574  -0.037439  -0.083681
   17  H  2  S   -0.527763   0.098108  -0.058558  -0.208638  -0.218239
   18  H  2  X    0.558650  -0.118828   0.109383  -0.188525  -0.284896
   19  H  2  Y    0.652131   0.159274   0.066052   0.294373   0.338012
   20  H  2  Z    0.228563  -0.253331   0.407055   0.143023  -0.145731
   21  H  3  S    0.262198  -0.188447   0.101827   0.055592   0.168978
   22  H  3  S   -0.005080   0.055144   0.470491   0.114380   0.087271
   23  H  3  X   -0.044940  -0.177500   0.138067   0.306026   0.642309
   24  H  3  Y   -0.384896   0.127745   0.921086   0.150794   0.089883
   25  H  3  Z   -0.594547  -0.041844  -0.377323  -0.287894   0.114677
   26  H  4  S   -0.357297   0.301770  -0.163311   0.136691   0.478154
   27  H  4  S    0.027629  -0.509736  -0.197832   0.052648   0.310782
   28  H  4  X   -0.021143   0.602958   0.041154   0.277380  -0.476242
   29  H  4  Y   -0.059554   0.354118  -0.030309   0.019767  -0.107866
   30  H  4  Z    0.190954   0.616753   0.114564  -0.429079   0.166082

                     26         27         28         29
                    2.3170     2.3912     2.6443     2.9762
                     A          A          A          A   
    1  N  1  S   -0.062045  -0.105994  -0.151337  -0.137659
    2  N  1  S   -0.070660  -0.224388  -0.181724  -0.160105
    3  N  1  S    0.748281  -0.122569   1.440907   1.529638
    4  N  1  X   -0.006484   0.019094   0.190003  -0.161464
    5  N  1  Y   -0.074276   0.258530   0.038380  -0.300869
    6  N  1  Z    0.068637  -0.067443   0.185983   0.067072
    7  N  1  X    0.265440   0.285646   0.606789  -0.197808
    8  N  1  Y   -0.499318   0.895333   0.526362  -0.498282
    9  N  1  Z    0.276636   0.067494   0.452933   0.147209
   10  N  1 XX    0.264937   0.011976   0.210787  -0.751544
   11  N  1 YY   -0.182291  -0.109998   0.026221   1.393589
   12  N  1 ZZ   -0.082646   0.098022  -0.237007  -0.642045
   13  N  1 XY    0.243308  -0.397477   0.750753   0.317738
   14  N  1 XZ    0.406099   0.235487   0.750168  -0.155159
   15  N  1 YZ   -0.526478   0.746010   0.637565  -0.026161
   16  H  2  S   -0.463097  -0.904810  -0.020863  -0.688192
   17  H  2  S    0.012925  -0.456091   0.010834  -0.156167
   18  H  2  X   -0.844001  -0.327419   0.324555  -0.066418
   19  H  2  Y    0.278992   0.980039  -0.059524   0.822422
   20  H  2  Z   -0.274694  -0.096825   0.187613   0.280831
   21  H  3  S   -0.412468   0.685146  -0.107776  -1.231529
   22  H  3  S   -0.265066   0.318429   0.037220  -0.381206
   23  H  3  X   -0.127982  -0.055841   0.081911  -0.288327
   24  H  3  Y   -0.423958   0.719786  -0.161628  -0.982908
   25  H  3  Z   -0.217723   0.114665   0.215970   0.296253
   26  H  4  S    0.206041   0.395577  -1.241634   0.476650
   27  H  4  S   -0.039738   0.214481  -0.529157   0.040017
   28  H  4  X   -0.282133  -0.538320   0.961661  -0.392428
   29  H  4  Y    1.109764   0.635538   0.134864   0.104751
   30  H  4  Z    0.084550  -0.171709   0.656172  -0.214148
 .....DONE WITH MCSCF ITERATIONS.....
 CPU     0: STEP CPU TIME=    10.07 TOTAL CPU TIME=         11.3 (      0.2 MIN)
 TOTAL WALL CLOCK TIME=         11.3 SECONDS, CPU UTILIZATION IS    99.82%

     ----------------------------------------------------------------
     PROPERTY VALUES FOR THE MCSCF SELF-CONSISTENT FIELD WAVEFUNCTION
     ----------------------------------------------------------------

          -----------------
          ENERGY COMPONENTS
          -----------------

         WAVEFUNCTION NORMALIZATION =       1.0000000000

                ONE ELECTRON ENERGY =     -92.4883612893
                TWO ELECTRON ENERGY =      26.2977298349
           NUCLEAR REPULSION ENERGY =      10.5224008067
                                      ------------------
                       TOTAL ENERGY =     -55.6682306477

 ELECTRON-ELECTRON POTENTIAL ENERGY =      26.2977298349
  NUCLEUS-ELECTRON POTENTIAL ENERGY =    -148.1311024418
   NUCLEUS-NUCLEUS POTENTIAL ENERGY =      10.5224008067
                                      ------------------
             TOTAL POTENTIAL ENERGY =    -111.3109718002
               TOTAL KINETIC ENERGY =      55.6427411524
                 VIRIAL RATIO (V/T) =       2.0004580920

          ---------------------------------------
          MULLIKEN AND LOWDIN POPULATION ANALYSES
          ---------------------------------------

     ATOMIC MULLIKEN POPULATION IN EACH MOLECULAR ORBITAL

                      1          2          3          4          5

                  2.000000   1.978759   1.959476   1.585657   1.062857

    1             2.000371   1.475280   0.885820   1.355672   0.964332
    2             0.000018   0.038681   0.397684   0.039615   0.069832
    3            -0.000337   0.327173   0.270080   0.034305   0.019794
    4            -0.000051   0.137624   0.405892   0.156066   0.008898

                      6          7          8

                  0.363038   0.027912   0.022301

    1             0.109719   0.011910   0.011480
    2             0.197003   0.002873   0.000993
    3             0.033751   0.000654   0.009566
    4             0.022565   0.012475   0.000262
 WARNING! MCSCF POPULATIONS SHOWN ABOVE ARE FOR THE NATURAL ORBITALS.
 IGNORE THE ABOVE DATA FOR MCSCF FUNCTIONS WHICH ARE NOT OF -FORS- TYPE.
 THE FOLLOWING POPULATIONS ARE CORRECT FOR ANY MCSCF WAVEFUNCTION.

               ----- POPULATIONS IN EACH AO -----
                             MULLIKEN      LOWDIN
              1  N  1  S      2.00195     1.90799
              2  N  1  S      0.85833     0.61868
              3  N  1  S      0.73365     0.43385
              4  N  1  X      0.69471     0.64364
              5  N  1  Y      0.74322     0.65241
              6  N  1  Z      0.66989     0.63092
              7  N  1  X      0.37928     0.43382
              8  N  1  Y      0.32742     0.45477
              9  N  1  Z      0.39106     0.42738
             10  N  1 XX      0.00084     0.16141
             11  N  1 YY      0.00563     0.19238
             12  N  1 ZZ      0.00156     0.15673
             13  N  1 XY      0.00372     0.00547
             14  N  1 XZ      0.00333     0.00727
             15  N  1 YZ      0.00000     0.00776
             16  H  2  S      0.55345     0.42212
             17  H  2  S      0.15110     0.20973
             18  H  2  X      0.00842     0.02944
             19  H  2  Y      0.02666     0.06234
             20  H  2  Z      0.00707     0.01803
             21  H  3  S      0.60134     0.47893
             22  H  3  S      0.04289     0.16952
             23  H  3  X      0.00849     0.02224
             24  H  3  Y      0.03548     0.06843
             25  H  3  Z      0.00679     0.01941
             26  H  4  S      0.61607     0.45972
             27  H  4  S      0.06703     0.17197
             28  H  4  X      0.02577     0.04667
             29  H  4  Y      0.01959     0.05726
             30  H  4  Z      0.01527     0.02971

          ----- MULLIKEN ATOMIC OVERLAP POPULATIONS -----
          (OFF-DIAGONAL ELEMENTS NEED TO BE MULTIPLIED BY 2)

             1           2           3           4

    1    6.3205168
    2    0.0082908   0.6412146
    3    0.2973814   0.0065964   0.3929555
    4    0.1883959   0.0905971  -0.0019476   0.4666850

          TOTAL MULLIKEN AND LOWDIN ATOMIC POPULATIONS
       ATOM         MULL.POP.    CHARGE          LOW.POP.     CHARGE
    1 N             6.814585    0.185415         6.734475    0.265525
    2 H             0.746699    0.253301         0.741663    0.258337
    3 H             0.694986    0.305014         0.758537    0.241463
    4 H             0.743730    0.256270         0.765324    0.234676

          MULLIKEN SPHERICAL HARMONIC POPULATIONS
       ATOM           S       P       D      F      G      H      I    TOTAL
    1 N             3.59    3.21    0.02   0.00   0.00   0.00   0.00    6.81
    2 H             0.70    0.04    0.00   0.00   0.00   0.00   0.00    0.75
    3 H             0.64    0.05    0.00   0.00   0.00   0.00   0.00    0.69
    4 H             0.68    0.06    0.00   0.00   0.00   0.00   0.00    0.74

          ---------------------
          ELECTROSTATIC MOMENTS
          ---------------------

 POINT   1           X           Y           Z (BOHR)    CHARGE
                 0.000005    0.000004   -0.177185        1.00 (A.U.)
         DX          DY          DZ         /D/  (DEBYE)
     1.020914    0.205395    1.627926    1.932510
 ...... END OF PROPERTY EVALUATION ......
 CPU     0: STEP CPU TIME=     0.01 TOTAL CPU TIME=         11.3 (      0.2 MIN)
 TOTAL WALL CLOCK TIME=         11.3 SECONDS, CPU UTILIZATION IS    99.91%

     -------------------------------------------------
     GMC-PT/GMC-QDPT or general MCSCF input parameters
     -------------------------------------------------
 # of frozen core orbs. =         0 ->         0
 # of doubly occ. orbs. =         1
 # of active      orbs. =         7
 # of virtual     orbs. =        21
 # of active electrons  =         7
 # of states in CI      =         3
 Highest state in CI    =         3
 kstate =  1 1 1
 avecoe =  0.333 0.333 0.333
 State symmetry           = A           
 Assigned symmetry number = 1

 <<<Act. MO sym.: 1111111

 <<<Division of 1-ext.:  0
 <<<Division of 2-ext.:  0

     ------------------------
     Orbital canonicalization
     ------------------------

 MOs are canonicalized for core, virtual, and invariant-active orbital spaces.
 This is a part of the GMC-QDPT calculation.
 SCHWARZ INEQUALITY OVERHEAD:       465 INTEGRALS, T=        0.00
 DIRECT TRANSFORMATION SKIPS AO INTEGRAL STORAGE ON DISK.

 Averaged energy =     -55.668230648

 State #    1  Energy =     -55.770661690  S =  0.500
 State #    2  Energy =     -55.696200977  S =  0.500
 State #    3  Energy =     -55.537829276  S =  0.500

 Orbital energies for filled orbital space
  -16.021504
 Orbital energies for active orbital space
   -1.479784  -0.764418  -1.076330  -0.584104  -0.232351
    0.197233   0.356472
 Orbital energies for external orbital space
    0.152116   0.212056   0.314040   0.557604   0.590023
    0.712114   0.876479   1.016269   1.146082   1.235028
    1.306710   1.420608   1.571843   1.636809   1.840648
    1.917454   2.115757   2.316964   2.391201   2.644295
    2.976214

 Zero values mean non-canonical orbitals.
 ... done with orbital canonicalization ...
 CPU     0: STEP CPU TIME=     0.57 TOTAL CPU TIME=         11.9 (      0.2 MIN)
 TOTAL WALL CLOCK TIME=         11.9 SECONDS, CPU UTILIZATION IS    99.83%

     --------------------------------------------
     PARTIAL TWO ELECTRON INTEGRAL TRANSFORMATION
     --------------------------------------------

 NUMBER OF CORE MOLECULAR ORBITALS     =    0
 NUMBER OF OCCUPIED MOLECULAR ORBITALS =    8
 TOTAL NUMBER OF MOLECULAR ORBITALS    =   29
 TOTAL NUMBER OF ATOMIC ORBITALS       =   30
 THRESHOLD FOR KEEPING TRANSFORMED 2E- INTEGRALS = 1.000E-09
 AO INTEGRALS WILL BE CALCULATED IN DIRECT MODE...
 DIRECT TRANSFORMATION SKIPS AO INTEGRAL STORAGE ON DISK.
 SCHWARZ INEQUALITY OVERHEAD:       465 INTEGRALS, T=        0.00

 PLAN A: REQUIREMENTS FOR FULLY IN-MEMORY TRANSFORMATION:
 # OF WORDS AVAILABLE =            100000000
 # OF WORDS NEEDED    =               221798

 PARALLEL ONLY WORKS WITH THE SEGMENTED ALGORITHM.
 ADJUSTING MEMORY TO USE SEGMENTED ALGORITHM.


 PLAN B: REQUIREMENTS FOR THE SEGMENTED TRANSFORMATION:
       MINIMUM=         124148 WORDS FOR 1 MOLECULAR ORBITAL PER PASS
       MAXIMUM=         221798 WORDS FOR ALL MOLECULAR ORBITALS IN 1 PASS
              (          13950 EXTRA WORDS INCLUDES 1 EXTRA ORBITAL/PASS)
 THIS RUN USES=         221798 WORDS,
 DISTRIBUTING   1 PASSES EACH CONTAINING     8 ORBITALS OVER   1 PROCESSORS.

 CHOOSING SEGMENTED PARTIAL TRANSFORMATION...
 DIRECT TRANSFORMATION SKIPS AO INTEGRAL STORAGE ON DISK.
 PASS #   1 TOOK        0.04 SECONDS.
 TOTAL NUMBER OF TRANSFORMED 2E- INTEGRALS KEPT =        29226
 ... END OF INTEGRAL TRANSFORMATION ...
 CPU     0: STEP CPU TIME=     0.04 TOTAL CPU TIME=         11.9 (      0.2 MIN)
 TOTAL WALL CLOCK TIME=         11.9 SECONDS, CPU UTILIZATION IS    99.83%

     --------     ------------------------------------------
     GMC-QDPT     Program written by H.Nakano (Kyushu Univ.)
     --------     ------------------------------------------

 *** Reference space

 Reference type: ORMAS (= Occupation restricted multiple active space)
 # of orbitals          =  7
 # of minimum electrons =  7
 # of maximum electrons =  7
 State symmetry    =    1 (input)
 2*Sz              =    1 (input)
 Spin multiplicity =    2 (input)
 Dimension of reference space =      1225  (from      3432 walks)

 Dimension of reference space =      1225  (from      1225 walks)

 <<<Ionized spaces for Ref-CI:
      0:         1225 /   -1-0:         1960 /  0-1-0:         2891

 ***                    ***
 *** Reference space CI ***
 ***                    ***

 Converged after   24 iterations

 Reference wavefunctions:

 State #    1  Energy =     -55.770661690  S =  0.500

      Det      Coef    Occupancy (Ignoring core)
      ---      ----    --------- --------- -----
        1   -0.954472  11110001110000
       71   -0.183009  11110001011000
      106   -0.050891  11110000111000
      143   -0.062239  11011001100100
      393   -0.072774  10110101010010

 State #    2  Energy =     -55.696200977  S =  0.500

      Det      Coef    Occupancy (Ignoring core)
      ---      ----    --------- --------- -----
        1    0.186525  11110001110000
       71   -0.955459  11110001011000
      177    0.067423  11101001010100
      248    0.063869  11011001001100

 State #    3  Energy =     -55.537829276  S =  0.500

      Det      Coef    Occupancy (Ignoring core)
      ---      ----    --------- --------- -----
        2   -0.885816  11101001110000
        4   -0.147496  10111001110000
       11    0.055451  10101101110000
       72    0.128722  11101001011000
       74    0.162672  10111001011000
      107    0.057936  11101000111000
      110    0.057892  01111000111000
      142   -0.079308  11101001100100
      176    0.276218  11110001010100
      211    0.056555  11110000110100
      396   -0.051613  10101101010010

 Davidson method: CPU/Wall time =           0.38 /           0.37 sec.

 Oscillator strength (invalid if E(1)/=E(GS)):
 -----------------------------------------
   State                        f
 -----------------------------------------
     2     F(REF-CI)=        0.0017624885
     3     F(REF-CI)=        0.0025267571
 -----------------------------------------

 Dipole moment matrix elements, x, y, z, in A.U.

 Dimension of ionized spaces for PT:
 (N-2) space:         1715 /  (N-1) space:         2842 /  N space:         2891
 (N+1) space:         2842 /  (N+2) space:         1715

 <<<Ionized spaces for internal:
         0:         1225 /      -1-0:         1960 /     0-1-0:         2891
  -1-0-1-0:         2842 / 0-1-0-1-0:         3381

 Diagonal elements of averaged one-particle density matrix:
       2       3       4       5       6       7       8
  0.9921  0.9695  0.9835  0.7111  0.3150  0.0169  0.0120
  0.9842  0.6170  0.9769  0.3516  0.0478  0.0116  0.0109

 Orbital energies:
 -------- Doubly-occupied orbitals (highest several orbs.) -------
             1
 -1.602150D+01
 -------- Active orbitals ----------------------------------------
             2            3            4            5            6
 -1.479784D+00-7.644181D-01-1.076330D+00-5.841035D-01-2.323508D-01
             7            8
  1.972332D-01 3.564717D-01
 -------- External orbitals (lowest several orbs.) ---------------
             9           10           11           12           13
  1.521157D-01 2.120561D-01 3.140396D-01 5.576036D-01 5.900232D-01
            14           15           16           17           18
  7.121139D-01 8.764795D-01 1.016269D+00 1.146082D+00 1.235028D+00

 *** Quasi-degeneracy checking

 === Det (|Ci| > 1.0D-01 and dE < 5.0D-03)

 # of small denominators (single excitations)
 State       dEmin  dE < 5.0D-03  dE < 5.0D-04  dE < 5.0D-05  dE < 5.0D-06
 ----- ----------- ------------- ------------- ------------- -------------
     1    5.00D-03             0             0             0             0
     2    5.00D-03             0             0             0             0
     3    5.00D-03             0             0             0             0

 # of small denominators (double excitations)
 State       dEmin  dE < 5.0D-03  dE < 5.0D-04  dE < 5.0D-05  dE < 5.0D-06
 ----- ----------- ------------- ------------- ------------- -------------
     1    5.00D-03             0             0             0             0
     2    5.00D-03             0             0             0             0
     3    5.00D-03             0             0             0             0

 *** Zeroth-Order Setup (Granovsky's zeroth-order vectors)
 Zeroth-order effective Hamiltonian
  (= Sum_i e(i)*<I|a+(i)a(i)|J> ):
                   1            2            3
     1 -7.114202D+00
     2  3.685035D-02-6.962354D+00
     3  2.384769D-02 2.718487D-03-6.739219D+00

 Zeroth-order vectors:
 State #    1
       MC st            1           2           3
       Coeff   -9.735D-01   2.209D-01   5.877D-02
 State #    2
       MC st            2           1           3
       Coeff   -9.750D-01  -2.191D-01   3.663D-02
 State #    3
       MC st            3           1           2
       Coeff    9.976D-01   6.540D-02   2.279D-02

 *** GMC-QDPT computation

 (Integral reading:  CPU/Wall time =           0.00 /           0.00 sec.)

 One-external:
   0 -ionized terms: CPU/Wall time =           0.03 /           0.03 sec.
 (-1)-ionized terms: CPU/Wall time =           0.09 /           0.09 sec.
 (+1)-ionized terms: CPU/Wall time =           0.02 /           0.02 sec.
 (+1)-ionized terms: CPU/Wall time =           0.01 /           0.00 sec.
 (+2)-ionized terms: CPU/Wall time =           0.00 /           0.01 sec.

 Internal:
 # of macro loops for internal contribution =         1 (input)
 Loop:    1
 Dimension of internal CISD space     =         0  (after screening)
 Space construction: CPU/Wall time =           0.02 /           0.01 sec.
 Internal terms:     CPU/Wall time =           0.00 /           0.00 sec.

 Two-external:
   0 -ionized terms: CPU/Wall time =           0.06 /           0.06 sec.
 (-1)-ionized terms: CPU/Wall time =           1.00 /           1.01 sec.
 (-2)-ionized terms: CPU/Wall time =           0.17 /           0.17 sec.

 Total time:         CPU/Wall time =           1.40 /           1.40 sec.

 ***                  ***
 *** GMC-QDPT Results ***
 ***                  ***

 Diagonal elements of effective Hamiltonian:
 Heff(  1) =   -55.87204094
 Heff(  2) =   -55.81643455
 Heff(  3) =   -55.64949774

 Off-diagonal elements of effective Hamiltonian:
                   1            2
     2 -1.162394D-02
     3  1.575271D-02 5.846754D-03

 ******** GMC-QDPT energies ********
 ----------------------------------------------------------------------------
   State                        1st order                           2nd order
 ----------------------------------------------------------------------------
     1     E(REF-CI)=      -55.7706616902   E(GMC-QDPT2)=      -55.8755916707
     2     E(REF-CI)=      -55.6962009766   E(GMC-QDPT2)=      -55.8141434806
     3     E(REF-CI)=      -55.5378292764   E(GMC-QDPT2)=      -55.6482380793
 ----------------------------------------------------------------------------

 Excitation energies (invalid if E(1)/=E(GS)):
 ----------------------------------------------------------------------------
   State                        1st order                           2nd order
 ----------------------------------------------------------------------------

     TZ Sorted GMC-PT ENERGIES:
         1      -55.8755916707
         2      -55.8141434806
         3      -55.6482380793
     2     E(REF-CI)=        2.0261803 eV   E(GMC-QDPT2)=        1.6720913 eV
     3     E(REF-CI)=        6.3356959 eV   E(GMC-QDPT2)=        6.1866095 eV
 ----------------------------------------------------------------------------

 Main characters of perturbed GMC-QDPT states:

 State #    1  Energy =     -55.875591671  S =  0.500

      Det      Coef    Occupancy (Ignoring core)
      ---      ----    --------- --------- -----
        1   -0.957561  11110001110000
       71   -0.163867  11110001011000
      143   -0.062677  11011001100100
      393   -0.072746  10110101010010

 State #    2  Energy =     -55.814143481  S =  0.500

      Det      Coef    Occupancy (Ignoring core)
      ---      ----    --------- --------- -----
        1    0.166944  11110001110000
       71   -0.958930  11110001011000
      177    0.067519  11101001010100
      248    0.064119  11011001001100

 State #    3  Energy =     -55.648238079  S =  0.500

      Det      Coef    Occupancy (Ignoring core)
      ---      ----    --------- --------- -----
        1    0.058673  11110001110000
        2   -0.885257  11101001110000
        4   -0.147559  10111001110000
       11    0.055615  10101101110000
       72    0.128595  11101001011000
       74    0.162904  10111001011000
      107    0.057546  11101000111000
      110    0.057893  01111000111000
      142   -0.079547  11101001100100
      176    0.276154  11110001010100
      211    0.056217  11110000110100
      396   -0.051547  10101101010010

 <<<Max |V/de| = 7.920D-02  Thresh = 1.000D+00

 Oscillator strength (invalid if E(1)/=E(GS)):
 ----------------------------------------------------------------------------
   State                        1st order                           2nd order
 ----------------------------------------------------------------------------
     2     F(REF-CI)=        0.0017624885     F(GMC-PT2)=        0.0015383516
     3     F(REF-CI)=        0.0025267571     F(GMC-PT2)=        0.0022456669
 ----------------------------------------------------------------------------

 Dipole moment matrix elements, x, y, z, in A.U.
States    1    1        0.3276977356        0.3400602184        0.5479446295
States    1    2       -0.0192743145        0.0487186732        0.1865674089
States    1    3       -0.0006116011       -0.0826753784       -0.0893338541
States    2    1       -0.0192743145        0.0487186732        0.1865674089
States    2    2        0.4970894320        0.1964497531        0.4087913001
States    2    3        0.0114033024        0.1057511074        0.0398666425
States    3    1       -0.0006116011       -0.0826753784       -0.0893338541
States    3    2        0.0114033024        0.1057511074        0.0398666425
States    3    3        0.4820446373        1.1037023934        0.9343120847

 Oscillator strength (valid only when positive): 
 ----------------------------------------------------------------------------
  States                        1st order                           2nd order
 ----------------------------------------------------------------------------
  1  1     F(REF-CI)=        0.0000000000     F(GMC-PT2)=        0.0000000000
  1  2     F(REF-CI)=       -0.0017624885     F(GMC-PT2)=       -0.0015383516
  1  3     F(REF-CI)=       -0.0025267571     F(GMC-PT2)=       -0.0022456669
  2  1     F(REF-CI)=        0.0017624885     F(GMC-PT2)=        0.0015383516
  2  2     F(REF-CI)=        0.0000000000     F(GMC-PT2)=        0.0000000000
  2  3     F(REF-CI)=       -0.0016662032     F(GMC-PT2)=       -0.0014270830
  3  1     F(REF-CI)=        0.0025267571     F(GMC-PT2)=        0.0022456669
  3  2     F(REF-CI)=        0.0016662032     F(GMC-PT2)=        0.0014270830
  3  3     F(REF-CI)=        0.0000000000     F(GMC-PT2)=        0.0000000000
 CPU     0: STEP CPU TIME=     1.86 TOTAL CPU TIME=         13.8 (      0.2 MIN)
 TOTAL WALL CLOCK TIME=         13.8 SECONDS, CPU UTILIZATION IS   100.00%

     !!! DIABATIZATION FOR REF CI STATES !!!

 *******************************************************
          $DMO GROUP FOUND IN THE INPUT.
        DIABATIZATION OF ADIABATIC STATES BEGINS.
     PROGRAMMED BY TAO ZENG (CARLETON UNIVERSITY).
               Email: toby.zeng@carleton.ca
     See T. Zeng, J. Chem. Phys. 2017, 146, 144103
 *******************************************************

 *************************************************************************
     STEP 1: TRANSFORMATION OF ADIABATIC STATES TO THE DMO REPRESENTATION
         See Atchity and Ruedenberg, J. Chem. Phys. 1999, 111, 2910
 *************************************************************************

Read in Diabatic Molecualr Orbitals:

                      1          2          3          4          5

    1  N  1  S    0.008609   0.000000   0.000000  -0.013219   0.279491
    2  N  1  S    0.442914  -0.000000   0.000000  -0.184329   0.867803
    3  N  1  S    0.276913   0.000000  -0.000000  -0.288315   0.144236
    4  N  1  X   -0.000000   0.493155  -0.024636  -0.000000  -0.000000
    5  N  1  Y    0.000000   0.024636   0.493155  -0.000000   0.000000
    6  N  1  Z    0.090197   0.000000   0.000000   0.593421   0.705309
    7  N  1  X   -0.000000   0.210628  -0.010522   0.000000   0.000000
    8  N  1  Y    0.000000   0.010522   0.210628  -0.000000  -0.000000
    9  N  1  Z   -0.004381   0.000000   0.000000   0.381592  -0.106092
   10  N  1 XX   -0.000457   0.010719  -0.000535  -0.012387   0.006153
   11  N  1 YY   -0.000457  -0.010719   0.000535  -0.012387   0.006153
   12  N  1 ZZ    0.000914  -0.000000   0.000000   0.024773  -0.012306
   13  N  1 XY    0.000000  -0.000618  -0.012377  -0.000000   0.000000
   14  N  1 XZ   -0.000000   0.026529  -0.001325  -0.000000   0.000000
   15  N  1 YZ    0.000000   0.001325   0.026529  -0.000000   0.000000
   16  H  2  S    0.194462  -0.176074   0.343485   0.112865  -0.523343
   17  H  2  S    0.003574  -0.023812   0.046452   0.024014  -0.054445
   18  H  2  X    0.018760   0.009101   0.022834   0.009336  -0.039151
   19  H  2  Y   -0.032493   0.022287  -0.020044  -0.016171   0.067811
   20  H  2  Z   -0.009251   0.008464  -0.016511   0.018769  -0.010566
   21  H  3  S    0.194462  -0.209430  -0.324227   0.112865  -0.523343
   22  H  3  S    0.003574  -0.028322  -0.043847   0.024014  -0.054445
   23  H  3  X    0.018760   0.006781  -0.023627   0.009336  -0.039151
   24  H  3  Y    0.032493  -0.024174  -0.017723   0.016171  -0.067811
   25  H  3  Z   -0.009251   0.010067   0.015585   0.018769  -0.010566
   26  H  4  S    0.194462   0.385503  -0.019258   0.112865  -0.523343
   27  H  4  S    0.003574   0.052134  -0.002604   0.024014  -0.054445
   28  H  4  X   -0.037519  -0.032295   0.001613  -0.018672   0.078302
   29  H  4  Y    0.000000   0.001067   0.021353  -0.000000   0.000000
   30  H  4  Z   -0.009251  -0.018530   0.000926   0.018769  -0.010566

                      6          7

    1  N  1  S    0.000000  -0.000000
    2  N  1  S    0.000000  -0.000000
    3  N  1  S   -0.000000   0.000000
    4  N  1  X   -0.930415  -0.002083
    5  N  1  Y   -0.002083   0.930415
    6  N  1  Z   -0.000000   0.000000
    7  N  1  X   -0.046866  -0.000105
    8  N  1  Y   -0.000105   0.046866
    9  N  1  Z   -0.000000   0.000000
   10  N  1 XX    0.001538   0.000003
   11  N  1 YY   -0.001538  -0.000003
   12  N  1 ZZ   -0.000000   0.000000
   13  N  1 XY   -0.000004   0.001776
   14  N  1 XZ    0.039985   0.000090
   15  N  1 YZ    0.000090  -0.039985
   16  H  2  S   -0.362630  -0.631354
   17  H  2  S   -0.065964  -0.114846
   18  H  2  X    0.002763  -0.037520
   19  H  2  Y    0.037435   0.040736
   20  H  2  Z    0.001882   0.003276
   21  H  3  S   -0.365454   0.629724
   22  H  3  S   -0.066477   0.114549
   23  H  3  X    0.002595   0.037532
   24  H  3  Y   -0.037617   0.040567
   25  H  3  Z    0.001896  -0.003268
   26  H  4  S    0.728084   0.001630
   27  H  4  S    0.132441   0.000297
   28  H  4  X   -0.062317  -0.000140
   29  H  4  Y    0.000055  -0.024345
   30  H  4  Z   -0.003778  -0.000008

NUMBER OF SUB ACTIVE SPACES:   1
ROTATE ACTIVE MOS TO DMOS IN EACH SUB-SPACE

SPACE  1:

OVERLAP BETWEEN ORTHONORMAL AND PRE-ORTHONORMAL REF. DMOS

             1           2           3           4           5

    1    0.9588068   0.0355596   0.0007538  -0.0147528  -0.0013443
    2    0.0355596   0.8599196   0.0946152   0.0493854  -0.0697375
    3    0.0007538   0.0946152   0.9922402   0.0234239  -0.0635507
    4   -0.0147528   0.0493854   0.0234239   0.9894205  -0.0170359
    5   -0.0013443  -0.0697375  -0.0635507  -0.0170359   1.2430752
    6    0.0066143  -0.0943580   0.1060929   0.0543002  -0.0007030
    7    0.0000303  -0.0615099  -0.0316391  -0.0541046   0.1138394

             6           7

    1    0.0066143   0.0000303
    2   -0.0943580  -0.0615099
    3    0.1060929  -0.0316391
    4    0.0543002  -0.0541046
    5   -0.0007030   0.1138394
    6    1.0817496  -0.0175478
    7   -0.0175478   1.0770789
REFERENCE DMOS AFTER ORTHONORMALIZATION:

                      1          2          3          4          5

    1  N  1  S    0.008520   0.015826   0.012591  -0.011696   0.228366
    2  N  1  S    0.458755   0.038555   0.042423  -0.174818   0.707880
    3  N  1  S    0.283979   0.012576   0.010672  -0.288124   0.115984
    4  N  1  X   -0.011927   0.483675   0.018362   0.021345   0.026873
    5  N  1  Y   -0.000582   0.024027   0.522909   0.036143  -0.052706
    6  N  1  Z    0.104542  -0.001091   0.025407   0.610963   0.579885
    7  N  1  X   -0.009230   0.249082  -0.031133  -0.010049   0.011195
    8  N  1  Y    0.000347  -0.010074   0.217480  -0.000716   0.006109
    9  N  1  Z    0.002504  -0.028705  -0.008789   0.388470  -0.084491
   10  N  1 XX   -0.001226   0.014261  -0.001618  -0.013331   0.005524
   11  N  1 YY   -0.000193  -0.012043   0.002424  -0.011879   0.004391
   12  N  1 ZZ    0.001419  -0.002218  -0.000806   0.025210  -0.009915
   13  N  1 XY   -0.000028   0.000855  -0.012704   0.000251  -0.000729
   14  N  1 XZ   -0.001704   0.036937  -0.009024  -0.003775   0.001373
   15  N  1 YZ    0.000122  -0.003931   0.026626  -0.002205   0.004516
   16  H  2  S    0.220723  -0.378838   0.383082   0.113455  -0.369961
   17  H  2  S    0.006499  -0.053577   0.053738   0.023519  -0.034198
   18  H  2  X    0.019519   0.002750   0.019848   0.006969  -0.027384
   19  H  2  Y   -0.035938   0.042376  -0.023887  -0.018004   0.052351
   20  H  2  Z   -0.009805   0.011311  -0.018973   0.018623  -0.009055
   21  H  3  S    0.217229  -0.265121  -0.282805   0.180683  -0.504426
   22  H  3  S    0.005927  -0.034784  -0.035331   0.035323  -0.057187
   23  H  3  X    0.019297   0.009926  -0.026698   0.011062  -0.035704
   24  H  3  Y    0.035724  -0.035365  -0.013610   0.022266  -0.060771
   25  H  3  Z   -0.009729   0.008982   0.013938   0.017883  -0.007006
   26  H  4  S    0.179231   0.509881  -0.171082   0.052727  -0.407440
   27  H  4  S    0.000237   0.074498  -0.026381   0.013876  -0.041710
   28  H  4  X   -0.037382  -0.039435   0.016016  -0.013933   0.062265
   29  H  4  Y    0.000085  -0.002709   0.021562  -0.001413   0.002995
   30  H  4  Z   -0.008410  -0.024161   0.002909   0.020227  -0.009498

                      6          7

    1  N  1  S    0.000449  -0.023443
    2  N  1  S    0.004333  -0.080094
    3  N  1  S    0.012438  -0.025506
    4  N  1  X   -0.820515   0.011091
    5  N  1  Y   -0.038566   0.887322
    6  N  1  Z   -0.034012  -0.030472
    7  N  1  X   -0.017794   0.011235
    8  N  1  Y   -0.021484   0.048293
    9  N  1  Z   -0.020787   0.026208
   10  N  1 XX    0.003498  -0.000426
   11  N  1 YY   -0.002137  -0.001715
   12  N  1 ZZ   -0.001360   0.002142
   13  N  1 XY    0.001327   0.001436
   14  N  1 XZ    0.041308   0.002266
   15  N  1 YZ   -0.003362  -0.037209
   16  H  2  S   -0.422188  -0.558638
   17  H  2  S   -0.073860  -0.104516
   18  H  2  X   -0.000140  -0.030853
   19  H  2  Y    0.042350   0.033792
   20  H  2  Z    0.003789   0.005085
   21  H  3  S   -0.333924   0.618155
   22  H  3  S   -0.061082   0.110151
   23  H  3  X    0.005820   0.039052
   24  H  3  Y   -0.037215   0.042179
   25  H  3  Z    0.000319  -0.000467
   26  H  4  S    0.731659   0.083234
   27  H  4  S    0.130971   0.010994
   28  H  4  X   -0.061815  -0.010198
   29  H  4  Y   -0.002594  -0.022554
   30  H  4  Z   -0.006846   0.000606

 -------------------------------------------
       MAXIMIZING MORMO OVERLAP TERM        
 -------------------------------------------
   SWEEP    VALUE       PROGRESS
     0     4.78284
     1     6.76979     1.98694940
     2     6.78824     0.01845024
     3     6.78824     0.00000168
     4     6.78824     0.00000000
     5     6.78824     0.00000000
 THE ROTATION IS DONE
FLIPPING SIGN FOR ORBITAL   7
ACTIVE ORBITALS AFTER MORMO:

                      1          2          3          4          5

    1  N  1  S    0.013154   0.009620   0.001958  -0.024041   0.098604
    2  N  1  S    0.429743   0.038723   0.000633  -0.220507   0.496486
    3  N  1  S    0.330749   0.040814   0.034022  -0.232484   0.479709
    4  N  1  X    0.001975   0.420858   0.051875   0.044443   0.081761
    5  N  1  Y   -0.009704   0.039442   0.486911   0.029971  -0.134114
    6  N  1  Z    0.089108  -0.026926   0.038801   0.618166   0.388840
    7  N  1  X   -0.022615   0.339027  -0.101864  -0.061594  -0.047405
    8  N  1  Y    0.003578  -0.029685   0.238543  -0.033999   0.154053
    9  N  1  Z    0.030823   0.002710  -0.039737   0.378917   0.139497
   10  N  1 XX   -0.005816   0.025468  -0.005362  -0.008081   0.011200
   11  N  1 YY    0.008435  -0.031103   0.008022  -0.002937  -0.011298
   12  N  1 ZZ   -0.002618   0.005635  -0.002660   0.011018   0.000098
   13  N  1 XY    0.004023   0.003215  -0.000989  -0.004740  -0.021057
   14  N  1 XZ    0.001285   0.023033  -0.009624   0.003445  -0.018783
   15  N  1 YZ    0.002928  -0.001586   0.013705   0.003841  -0.003744
   16  H  2  S    0.181346  -0.207974   0.315963   0.101037  -0.320435
   17  H  2  S    0.040619  -0.252489   0.130566   0.030524  -0.282402
   18  H  2  X   -0.002005   0.018939  -0.013802  -0.006750  -0.029191
   19  H  2  Y   -0.021935  -0.003725  -0.032827  -0.012039  -0.009720
   20  H  2  Z   -0.004397   0.000466  -0.016390   0.011170  -0.012489
   21  H  3  S    0.188200  -0.238136  -0.292319   0.136791  -0.473602
   22  H  3  S    0.009377  -0.070048  -0.029186   0.031630  -0.138056
   23  H  3  X    0.007424   0.015505  -0.016953   0.001323  -0.013187
   24  H  3  Y    0.029833  -0.019562  -0.033244   0.012506  -0.024031
   25  H  3  Z   -0.002167   0.006827   0.003564   0.017590   0.007008
   26  H  4  S    0.175031   0.420094  -0.083915   0.081434  -0.389152
   27  H  4  S   -0.000450   0.144469  -0.094617   0.018408  -0.144734
   28  H  4  X   -0.028248  -0.024171  -0.005625  -0.019801   0.009578
   29  H  4  Y   -0.006306  -0.032246   0.019198  -0.005230  -0.025086
   30  H  4  Z   -0.014379  -0.032583  -0.003258   0.011474  -0.000414

                      6          7

    1  N  1  S    0.031340  -0.129285
    2  N  1  S    0.087836  -0.284510
    3  N  1  S   -0.025825   0.281364
    4  N  1  X   -0.793102   0.001729
    5  N  1  Y   -0.020121   0.854187
    6  N  1  Z   -0.161318  -0.070552
    7  N  1  X   -0.046480   0.042428
    8  N  1  Y   -0.035876   0.104878
    9  N  1  Z    0.121680   0.099435
   10  N  1 XX    0.022369   0.014836
   11  N  1 YY   -0.049847  -0.036354
   12  N  1 ZZ    0.027478   0.021518
[...]
      106    0.059399    0.059399  +222000
      393   -0.059371   -0.059371  202+020
      177    0.057838   -0.057838  2+20200
      253   -0.055922   -0.055922  20+2-+0
       80   -0.054860   -0.054860  2+--++0
       99   -0.053464    0.053464  20-20++
      141    0.052200    0.052200  22++-00
      252   -0.051014   -0.051014  2+02-+0
       75   -0.050932   -0.050932  -+22+00
        5    0.049536    0.049536  -22++00
      813    0.045084   -0.045084  20+20+-
       73   -0.044229    0.044229  2+-2+00
       51   -0.043581    0.043581  22+-00+
      351    0.042330    0.042330  22++0-0
      737    0.041758   -0.041758  2+20+0-
      113    0.041615   -0.041615  +-220+0
       48    0.041455   -0.041455  2-02++0
      456   -0.040887   -0.040887  2++20-0
      822    0.040340   -0.040340  2+02002
       10    0.039215    0.039215  22-0++0
       13    0.038296    0.038296  2--+++0
      249    0.037831   -0.037831  20+2200
      810   -0.037544   -0.037544  -++2+0-
        3    0.036891    0.036891  22-++00
      463   -0.035714    0.035714  20+2020
      739    0.035550    0.035550  202++0-
      459   -0.034218    0.034218  20+2+-0
      186   -0.033123    0.033123  20202+0
      179    0.032619    0.032619  202+200
      248    0.031673   -0.031673  2+02200
      736    0.031345   -0.031345  2+2+00-
      323   -0.031127    0.031127  +022-+0
      396   -0.031118   -0.031118  2020+20
       11   -0.030518    0.030518  2-20++0
      123    0.030210   -0.030210  +-2200+
       17    0.030038    0.030038  22-+00+
      352   -0.029258   -0.029258  22+0+-0
      702   -0.028311   -0.028311  22+0+0-
       79   -0.027939   -0.027939  -+220+0
       89   -0.027932   -0.027932  -+2200+
      457    0.027641   -0.027641  2++-+-0
      263   -0.027413   -0.027413  20+2-0+
      332   -0.027381    0.027381  ++-2-0+
      180   -0.027219    0.027219  -+2+200
      251    0.027212    0.027212  2++--+0
       64   -0.026652    0.026652  2-020++
        7    0.026648    0.026648  22-+0+0
      387    0.026326   -0.026326  2+20+-0
      247   -0.025918    0.025918  2++-200
      529    0.025794    0.025794  +022+-0
      176   -0.025760    0.025760  2+2+-00
      354   -0.025710    0.025710  2-+++-0
       91   -0.024601   -0.024601  202-+0+
      316   -0.024529   -0.024529  ++22-00
      366    0.024181   -0.024181  22+00-+
      828   -0.023972   -0.023972  2002+02
       42    0.023342   -0.023342  22020+0
      751    0.022971   -0.022971  2+20002
      392   -0.022808   -0.022808  2+-+020
      401   -0.022772   -0.022772  2+200-+
      320    0.022490    0.022490  0+22200
      211    0.021571    0.021571  +22+-00
      878    0.021303    0.021303  ++-2+0-
      191   -0.021234   -0.021234  2+20-0+
      264    0.020931   -0.020931  -++2-0+
      121   -0.020872    0.020872  +22-00+
       19    0.020866    0.020866  -22+00+
      812    0.020857   -0.020857  2+020+-
       21   -0.020524    0.020524  2-20+0+
      111   -0.020230    0.020230  +22-0+0

 State #    3  Energy =     -55.719665516

      Det      Coef        Coefp    Occupancy (Ignoring core)
      ---      ----        ----    --------- --------- -----
       71    0.428376   -0.428376  2+22000
       72    0.390927    0.390927  2+2-+00
       36   -0.315789   -0.315789  22+2000
        4   -0.272689    0.272689  2-2++00
        2    0.252554   -0.252554  2220+00
       86    0.224100    0.224100  2+2-00+
        1    0.209218   -0.209218  222+000
       37   -0.178803    0.178803  22+-+00
       51   -0.147810    0.147810  22+-00+
      141    0.132588    0.132588  22++-00
       18   -0.130764    0.130764  2-2+00+
      176   -0.118238    0.118238  2+2+-00
       16    0.107060   -0.107060  222000+
      701    0.104581    0.104581  22++00-
       81   -0.101154   -0.101154  202-++0
      736   -0.093337    0.093337  2+2+00-
      107   -0.091055    0.091055  +22-+00
       80   -0.090927   -0.090927  2+--++0
       77   -0.088537    0.088537  2+-20+0
        8   -0.087103    0.087103  2-2+0+0
       74    0.083395   -0.083395  2022+00
        6    0.078392   -0.078392  22200+0
       78   -0.072537    0.072537  20220+0
       43    0.066709    0.066709  2-+20+0
      246   -0.064458   -0.064458  2++2-00
       42   -0.063450    0.063450  22020+0
      386    0.063387   -0.063387  2+2+0-0
       73    0.062560   -0.062560  2+-2+00
        5    0.058026    0.058026  -22++00
       96    0.056578    0.056578  2+--0++
      148   -0.055320   -0.055320  2-++-+0
       97    0.055085    0.055085  202-0++
        7    0.053877    0.053877  22-+0+0
      121   -0.053754    0.053754  +22-00+
       13    0.052027    0.052027  2--+++0
      389    0.052007    0.052007  202++-0
       46    0.051497   -0.051497  2-+-++0
       10    0.049181    0.049181  22-0++0
      183    0.049147   -0.049147  202+-+0
      111   -0.048718    0.048718  +22-0+0
      354   -0.048204    0.048204  2-+++-0
        3    0.046215    0.046215  22-++00
      351   -0.044262   -0.044262  22++0-0
      247   -0.043409    0.043409  2++-200
       17    0.043229    0.043229  22-+00+
       88    0.040017   -0.040017  202200+
      737    0.039969   -0.039969  2+20+0-
       62   -0.039824    0.039824  2-+-0++
       11   -0.039421    0.039421  2-20++0
      396   -0.038911   -0.038911  2020+20
      742   -0.038551   -0.038551  2+-+0+-
       45   -0.037256   -0.037256  220-++0
      147    0.036611   -0.036611  220+-+0
       19    0.036105    0.036105  -22+00+
      352   -0.035266   -0.035266  22+0+-0
      387    0.034231   -0.034231  2+20+-0
      708    0.033966   -0.033966  2-++0+-
      211    0.033030    0.033030  +22+-00
      822   -0.032788    0.032788  2+02002
       61    0.031153    0.031153  220-0++
      825   -0.031103   -0.031103  2+0-+02
        9    0.030902    0.030902  -22+0+0
      144    0.030873   -0.030873  2-++200
      182    0.030516   -0.030516  2+-+-+0
       90   -0.030174   -0.030174  2+--+0+
      743   -0.030076   -0.030076  202+0+-
      109    0.029055   -0.029055  +-22+00
      707   -0.028747   -0.028747  220+0+-
       21   -0.028419    0.028419  2-20+0+
      282    0.027970    0.027970  +2+-200
      368    0.027830    0.027830  2-++0-+
      186   -0.027489    0.027489  20202+0
      457    0.027224   -0.027224  2++-+-0
      317   -0.026893    0.026893  ++2-200
      316   -0.026671   -0.026671  ++22-00
      813   -0.026617    0.026617  20+20+-
      471   -0.026557   -0.026557  2++-0-+
      702   -0.026515   -0.026515  22+0+0-
      358   -0.025617    0.025617  2-++020
      403   -0.025009    0.025009  202+0-+
      157    0.024814   -0.024814  220+-0+
      320   -0.024747   -0.024747  0+22200
      807    0.024673   -0.024673  2++-+0-
      145   -0.023943   -0.023943  -2++200
       76    0.023716    0.023716  2+2-0+0
      463    0.023237   -0.023237  20+2020
      142    0.022931    0.022931  22+0200
      717   -0.022886   -0.022886  220+002
      252    0.022417    0.022417  2+02-+0
       29   -0.021972   -0.021972  2--+0++
      456    0.021828    0.021828  2++20-0
       20    0.021545    0.021545  22-0+0+
      459   -0.021250    0.021250  20+2+-0
       55   -0.021025   -0.021025  220-+0+
      473    0.020671    0.020671  20+20-+
      723    0.020439   -0.020439  2-0++02

 ---------------------------------------
      - DIABATIC STATES IN CMO -        
 ---------------------------------------

 State #    1  Energy =     -55.837255168

      Det      Coef        Coefp    Occupancy (Ignoring core)
      ---      ----        ----    --------- --------- -----
        1    0.739462   -0.739462  222+000
       71    0.561117   -0.561117  2+22000
        2   -0.279897    0.279897  2220+00
      106   -0.070542   -0.070542  +222000
      393   -0.061169   -0.061169  202+020
      176    0.054014   -0.054014  2+2+-00
       74    0.047431   -0.047431  2022+00
      142    0.045474    0.045474  22+0200
       72   -0.040690   -0.040690  2+2-+00
      143   -0.039789   -0.039789  220+200
      248   -0.038089    0.038089  2+02200
      717   -0.037949   -0.037949  220+002
      177   -0.034292    0.034292  2+20200
       11    0.031727   -0.031727  2-20++0
      215   -0.030576   -0.030576  022+200
      392    0.030156    0.030156  2+-+020
      387   -0.030139    0.030139  2+20+-0
      212    0.030065    0.030065  +220200
        6    0.028665   -0.028665  22200+0
      822   -0.027933    0.027933  2+02002
      388   -0.026958   -0.026958  2+-++-0
      358   -0.026267    0.026267  2-++020
      561    0.026264    0.026264  2+++--0
      357   -0.025397   -0.025397  220+020
      179   -0.025269   -0.025269  202+200
      110    0.025088   -0.025088  0222+00
      702   -0.024453   -0.024453  22+0+0-
      246   -0.023292   -0.023292  2++2-00
      156    0.023187   -0.023187  22+0-0+
      316    0.022785    0.022785  ++22-00
      148   -0.021254   -0.021254  2-++-+0
       75   -0.021163   -0.021163  -+22+00

 State #    2  Energy =     -55.781052547

      Det      Coef        Coefp    Occupancy (Ignoring core)
      ---      ----        ----    --------- --------- -----
        1    0.603307   -0.603307  222+000
        2    0.539501   -0.539501  2220+00
       71   -0.493493    0.493493  2+22000
      176   -0.159547    0.159547  2+2+-00
       72    0.081563    0.081563  2+2-+00
        4    0.077985   -0.077985  2-2++00
       74   -0.075679    0.075679  2022+00
      107   -0.059211    0.059211  +22-+00
      211    0.054628    0.054628  +22+-00
      143   -0.053347   -0.053347  220+200
      141    0.048008    0.048008  22++-00
       73   -0.042978    0.042978  2+-2+00
      393   -0.039465   -0.039465  202+020
       36   -0.039427   -0.039427  22+2000
      248    0.039211   -0.039211  2+02200
      386   -0.037448    0.037448  2+2+0-0
      246    0.035383    0.035383  2++2-00
        3   -0.034448   -0.034448  22-++00
      396   -0.033665   -0.033665  2020+20
      110   -0.032860    0.032860  0222+00
      142   -0.028850   -0.028850  22+0200
      720   -0.028847   -0.028847  2200+02
      701   -0.027718   -0.027718  22++00-
      717   -0.027665   -0.027665  220+002
       51    0.027383   -0.027383  22+-00+
      316   -0.025918   -0.025918  ++22-00
        8    0.025494   -0.025494  2-2+0+0
       13    0.025272    0.025272  2--+++0
      822    0.024763   -0.024763  2+02002
       75    0.022356    0.022356  -+22+00
       38   -0.021828    0.021828  2202+00
      705    0.021580    0.021580  -2+++0-
      148   -0.021557   -0.021557  2-++-+0
      388   -0.021315   -0.021315  2+-++-0
      358   -0.020921    0.020921  2-++020
       83    0.020903   -0.020903  20-2++0
      145   -0.020415   -0.020415  -2++200
       11   -0.020398    0.020398  2-20++0
      740   -0.020216    0.020216  -+2++0-
      253   -0.020208   -0.020208  20+2-+0

 State #    3  Energy =     -55.719665516

      Det      Coef        Coefp    Occupancy (Ignoring core)
      ---      ----        ----    --------- --------- -----
        2    0.645796   -0.645796  2220+00
       71    0.622913   -0.622913  2+22000
      176   -0.222923    0.222923  2+2+-00
        1   -0.193528    0.193528  222+000
       74   -0.138204    0.138204  2022+00
        4    0.131499   -0.131499  2-2++00
       72    0.091424    0.091424  2+2-+00
      177   -0.074792    0.074792  2+20200
      142   -0.063476   -0.063476  22+0200
       11   -0.044240    0.044240  2-20++0
      178   -0.043603   -0.043603  2+-+200
        6   -0.042906    0.042906  22200+0
      110   -0.040982    0.040982  0222+00
      109   -0.039256    0.039256  +-22+00
      211    0.038214    0.038214  +22+-00
      396   -0.037647   -0.037647  2020+20
      720   -0.036250   -0.036250  2200+02
      248   -0.035455    0.035455  2+02200
      107   -0.033025    0.033025  +22-+00
      183    0.032552   -0.032552  202+-+0
      822   -0.031666    0.031666  2+02002
       37   -0.030709    0.030709  22+-+00
      180    0.028505   -0.028505  -+2+200
      702    0.028367    0.028367  22+0+0-
      387    0.027506   -0.027506  2+20+-0
      247    0.027471   -0.027471  2++-200
      317   -0.027036    0.027036  ++2-200
      156   -0.025901    0.025901  22+0-0+
      192   -0.025346    0.025346  2+-+-0+
       75    0.024875    0.024875  -+22+00
       81   -0.024658   -0.024658  202-++0
      361   -0.023967    0.023967  2-+0+20
      738    0.023130    0.023130  2+-++0-
      360   -0.023127   -0.023127  2200+20
      463    0.022500   -0.022500  20+2020
      246   -0.022458   -0.022458  2++2-00
      462   -0.022359    0.022359  2+02020
      112   -0.022041   -0.022041  +2-20+0
      320   -0.021143   -0.021143  0+22200
      261    0.020985    0.020985  2++--0+
      386   -0.020960    0.020960  2+2+0-0
      141    0.020435    0.020435  22++-00
      751   -0.020434    0.020434  2+20002
       38   -0.020064    0.020064  2202+00

 ---------------------------------------
    -DIABATIC STATES IN PROTOTYPES-     
 ---------------------------------------

     STATE:    1
 Group Ref#    Coefficients
     1    1    0.790807
     2    2    0.126300
     3    3    0.108634

WEIGHT OF LISTED PROTOTYPES:   65.31%

     STATE:    2
 Group Ref#    Coefficients
     1    1    0.134947
     2    2    0.626853
     3    3   -0.227049

WEIGHT OF LISTED PROTOTYPES:   46.27%

     STATE:    3
 Group Ref#    Coefficients
     1    1    0.229096
     2    2   -0.448141
     3    3    0.305220

WEIGHT OF LISTED PROTOTYPES:   34.65%

     DIRECT MAX. DIABATIZATION FINISHED    
 CPU     0: STEP CPU TIME=     0.25 TOTAL CPU TIME=         14.0 (      0.2 MIN)
 TOTAL WALL CLOCK TIME=         14.0 SECONDS, CPU UTILIZATION IS   100.00%

DIABATS FOR SPIN-ORBIT CALCULATION ARE READY

TRANSITION DIPOLES BETWEEN ADIABATS (in A.U.):

STATE PAIR      X         Y         Z
    1    1  0.327698  0.340060  0.547945
    2    1 -0.019274  0.048719  0.186567
    2    2  0.497089  0.196450  0.408791
    3    1 -0.000612 -0.082675 -0.089334
    3    2  0.011403  0.105751  0.039867
    3    3  0.482045  1.103702  0.934312


TRANSITION DIPOLES BETWEEN DIABATS (in A.U.):

STATE PAIR      X         Y         Z
    1    1  0.360910  0.386375  0.712081
    2    1 -0.066869  0.001937 -0.040902
    2    2  0.452363  0.225757  0.305694
    3    1  0.002944 -0.188786 -0.096440
    3    2 -0.014238  0.205777  0.148301
    3    3  0.493559  1.028080  0.873272

TRANSITION DIPOLES BETWEEN DIRECT MAX. DIABATS (in A.U.):

STATE PAIR      X         Y         Z
    1    1  0.361655  0.450165  0.740700
    2    1 -0.065418 -0.093428 -0.090473
    2    2  0.444600  0.369064  0.406877
    3    1  0.000527 -0.252865 -0.094418
    3    2 -0.011278  0.357048  0.252895
    3    3  0.500576  0.820983  0.743471
 No $TRANST Group Found.
 Quit without doing spin-orbit coupling
 ..... DONE WITH MP2 ENERGY .....
 CPU     0: STEP CPU TIME=     0.00 TOTAL CPU TIME=         14.0 (      0.2 MIN)
 TOTAL WALL CLOCK TIME=         14.0 SECONDS, CPU UTILIZATION IS    99.93%
            100000000  WORDS OF DYNAMIC MEMORY USED
 EXECUTION OF GAMESS TERMINATED NORMALLY Wed Nov 16 20:13:10 2022
 DDI: 715512 bytes (0.7 MB / 0 MWords) used by master data server.

 ----------------------------------------
 CPU timing information for all processes
 ========================================
 0: 13.694 + 0.312 = 14.06
 ----------------------------------------
Note: The following floating-point exceptions are signalling: IEEE_DENORMAL
 ddikick.x: exited gracefully.
unset echo
----- accounting info -----
Files used on the master node io002 were:
-rw-r--r-- 1 bsonghao nooijen   20719 Nov 16 20:12 /scratch/bsonghao/nh3_diabatization_2d_at_mode_7_8_dist0.6_0.8.F05
-rw-r--r-- 1 bsonghao nooijen  363520 Nov 16 20:13 /scratch/bsonghao/nh3_diabatization_2d_at_mode_7_8_dist0.6_0.8.F09
-rw-r--r-- 1 bsonghao nooijen 1995920 Nov 16 20:13 /scratch/bsonghao/nh3_diabatization_2d_at_mode_7_8_dist0.6_0.8.F10
-rw-r--r-- 1 bsonghao nooijen  131264 Nov 16 20:13 /scratch/bsonghao/nh3_diabatization_2d_at_mode_7_8_dist0.6_0.8.F13
-rw-r--r-- 1 bsonghao nooijen  180312 Nov 16 20:13 /scratch/bsonghao/nh3_diabatization_2d_at_mode_7_8_dist0.6_0.8.F15
-rw-r--r-- 1 bsonghao nooijen       0 Nov 16 20:12 /scratch/bsonghao/nh3_diabatization_2d_at_mode_7_8_dist0.6_0.8.F16
-rw-r--r-- 1 bsonghao nooijen    9808 Nov 16 20:13 /scratch/bsonghao/nh3_diabatization_2d_at_mode_7_8_dist0.6_0.8.F70
-rw-r--r-- 1 bsonghao nooijen    9808 Nov 16 20:13 /scratch/bsonghao/nh3_diabatization_2d_at_mode_7_8_dist0.6_0.8.F71
-rw-r--r-- 1 bsonghao nooijen   19608 Nov 16 20:13 /scratch/bsonghao/nh3_diabatization_2d_at_mode_7_8_dist0.6_0.8.F72
-rw-r--r-- 1 bsonghao nooijen   19608 Nov 16 20:13 /scratch/bsonghao/nh3_diabatization_2d_at_mode_7_8_dist0.6_0.8.F73
-rw-r--r-- 1 bsonghao nooijen 1920824 Nov 16 20:13 /scratch/bsonghao/nh3_diabatization_2d_at_mode_7_8_dist0.6_0.8.F74
-rw-r--r-- 1 bsonghao nooijen       0 Nov 16 20:12 /scratch/bsonghao/nh3_diabatization_2d_at_mode_7_8_dist0.6_0.8.F75
-rw-r--r-- 1 bsonghao nooijen   58848 Nov 16 20:13 /scratch/bsonghao/nh3_diabatization_2d_at_mode_7_8_dist0.6_0.8.F76
-rw-r--r-- 1 bsonghao nooijen       0 Nov 16 20:12 /scratch/bsonghao/nh3_diabatization_2d_at_mode_7_8_dist0.6_0.8.F77
-rw-r--r-- 1 bsonghao nooijen    1864 Nov 16 20:13 /scratch/bsonghao/nh3_diabatization_2d_at_mode_7_8_dist0.6_0.8.F78
-rw-r--r-- 1 bsonghao nooijen   39208 Nov 16 20:13 /scratch/bsonghao/nh3_diabatization_2d_at_mode_7_8_dist0.6_0.8.F79
-rw-r--r-- 1 bsonghao nooijen     104 Nov 16 20:13 /scratch/bsonghao/nh3_diabatization_2d_at_mode_7_8_dist0.6_0.8.F80
-rw-r--r-- 1 bsonghao nooijen   13472 Nov 16 20:13 /scratch/bsonghao/nh3_diabatization_2d_at_mode_7_8_dist0.6_0.8.F81
-rw-r--r-- 1 bsonghao nooijen      16 Nov 16 20:13 /scratch/bsonghao/nh3_diabatization_2d_at_mode_7_8_dist0.6_0.8.F82
-rw-r--r-- 1 bsonghao nooijen   19216 Nov 16 20:13 /scratch/bsonghao/nh3_diabatization_2d_at_mode_7_8_dist0.6_0.8.F83
-rw-r--r-- 1 bsonghao nooijen   29712 Nov 16 20:13 /scratch/bsonghao/nh3_diabatization_2d_at_mode_7_8_dist0.6_0.8.F84
-rw-r--r-- 1 bsonghao nooijen  401576 Nov 16 20:13 /scratch/bsonghao/nh3_diabatization_2d_at_mode_7_8_dist0.6_0.8.F85
-rw-r--r-- 1 bsonghao nooijen  903672 Nov 16 20:13 /scratch/bsonghao/nh3_diabatization_2d_at_mode_7_8_dist0.6_0.8.F86
-rw-r--r-- 1 bsonghao nooijen     656 Nov 16 20:13 /scratch/bsonghao/nh3_diabatization_2d_at_mode_7_8_dist0.6_0.8.F87
-rw-r--r-- 1 bsonghao nooijen   49968 Nov 16 20:13 /scratch/bsonghao/nh3_diabatization_2d_at_mode_7_8_dist0.6_0.8.F88
-rw-r--r-- 1 bsonghao nooijen     240 Nov 16 20:13 /scratch/bsonghao/nh3_diabatization_2d_at_mode_7_8_dist0.6_0.8.F89
-rw-r--r-- 1 bsonghao nooijen       0 Nov 16 20:12 /scratch/bsonghao/nh3_diabatization_2d_at_mode_7_8_dist0.6_0.8.F90
-rw-r--r-- 1 bsonghao nooijen   13760 Nov 16 20:13 /scratch/bsonghao/nh3_diabatization_2d_at_mode_7_8_dist0.6_0.8.F91
-rw-r--r-- 1 bsonghao nooijen   22776 Nov 16 20:13 /scratch/bsonghao/nh3_diabatization_2d_at_mode_7_8_dist0.6_0.8.F92
-rw-r--r-- 1 bsonghao nooijen   23168 Nov 16 20:13 /scratch/bsonghao/nh3_diabatization_2d_at_mode_7_8_dist0.6_0.8.F93
-rw-r--r-- 1 bsonghao nooijen   22776 Nov 16 20:13 /scratch/bsonghao/nh3_diabatization_2d_at_mode_7_8_dist0.6_0.8.F94
-rw-r--r-- 1 bsonghao nooijen   13760 Nov 16 20:13 /scratch/bsonghao/nh3_diabatization_2d_at_mode_7_8_dist0.6_0.8.F95
-rw-r--r-- 1 bsonghao nooijen   29440 Nov 16 20:13 /scratch/bsonghao/nh3_diabatization_2d_at_mode_7_8_dist0.6_0.8.F96
-rw-r--r-- 1 bsonghao nooijen    1184 Nov 16 20:13 /scratch/bsonghao/nh3_diabatization_2d_at_mode_7_8_dist0.6_0.8.F97
-rw-r--r-- 1 bsonghao nooijen    9808 Nov 16 20:13 /scratch/bsonghao/nh3_diabatization_2d_at_mode_7_8_dist0.6_0.8.F98
-rw-r--r-- 1 bsonghao nooijen   30264 Nov 16 20:13 /scratch/bsonghao/nh3_diabatization_2d_at_mode_7_8_dist0.6_0.8.F99
ls: No match.
ls: No match.
ls: No match.
Wed 16 Nov 2022 08:13:13 PM EST
0.292u 0.037s 0:17.37 1.8%	0+0k 48+224io 0pf+0w
