----- GAMESS execution script 'rungms' -----
This job is running on host io002
under operating system Linux at Wed 16 Nov 2022 06:27:24 PM EST
Available scratch disk space (Kbyte units) at beginning of the job is
Filesystem       1K-blocks       Used   Available Use% Mounted on
/dev/sdc1      15378471580 3278917120 11318349060  23% /scratch
GAMESS temporary binary files will be written to /scratch/bsonghao
GAMESS supplementary output files will be written to /home/bsonghao/.gamess_ascii_files/267638
Copying input file nh3_diabatization_2d_at_mode_7_8_dist-0.7_-0.3.inp to your run's scratch directory...
cp nh3_diabatization_2d_at_mode_7_8_dist-0.7_-0.3.inp /scratch/bsonghao/nh3_diabatization_2d_at_mode_7_8_dist-0.7_-0.3.F05
unset echo
/home/bjb2chen/gamess/ddikick.x /home/bjb2chen/gamess/gamess.00.x nh3_diabatization_2d_at_mode_7_8_dist-0.7_-0.3 -ddi 1 1 io002 -scr /scratch/bsonghao

 Distributed Data Interface kickoff program.
 Initiating 1 compute processes on 1 nodes to run the following command:
 /home/bjb2chen/gamess/gamess.00.x nh3_diabatization_2d_at_mode_7_8_dist-0.7_-0.3 

          ******************************************************
          *         GAMESS VERSION = 02 AUG 2018 (R2)         *
          *             FROM IOWA STATE UNIVERSITY             *
          * M.W.SCHMIDT, K.K.BALDRIDGE, J.A.BOATZ, S.T.ELBERT, *
          *   M.S.GORDON, J.H.JENSEN, S.KOSEKI, N.MATSUNAGA,   *
          *          K.A.NGUYEN, S.J.SU, T.L.WINDUS,           *
          *       TOGETHER WITH M.DUPUIS, J.A.MONTGOMERY       *
          *         J.COMPUT.CHEM.  14, 1347-1363(1993)        *
          **************** 64 BIT LINUX VERSION ****************

  SINCE 1993, STUDENTS AND POSTDOCS WORKING AT IOWA STATE UNIVERSITY
  AND ALSO IN THEIR VARIOUS JOBS AFTER LEAVING ISU HAVE MADE IMPORTANT
  CONTRIBUTIONS TO THE CODE:
     IVANA ADAMOVIC, CHRISTINE AIKENS, YURI ALEXEEV, POOJA ARORA,
     ANDREY ASADCHEV, ROB BELL, PRADIPTA BANDYOPADHYAY, JONATHAN BENTZ,
     BRETT BODE, KURT BRORSEN, CALEB CARLIN, GALINA CHABAN, WEI CHEN,
     CHEOL HO CHOI, PAUL DAY, ALBERT DEFUSCO, NUWAN DESILVA, TIM DUDLEY,
     DMITRI FEDOROV, ALEX FINDLATER, GRAHAM FLETCHER, MARK FREITAG,
     KURT GLAESEMANN, ANASTASIA GUININA,
     DAN KEMP, GRANT MERRILL, NORIYUKI MINEZAWA, JONATHAN MULLIN,
     TAKESHI NAGATA, SEAN NEDD, HEATHER NETZLOFF, BOSILJKA NJEGIC, RYAN OLSON,
     MIKE PAK, BUU PHAM,
     SPENCER PRUITT, LUKE ROSKOP, JIM SHOEMAKER, LYUDMILA SLIPCHENKO,
     TONY SMITH, SAROM SOK LEANG, JIE SONG, TETSUYA TAKETSUGU, SIMON WEBB,
     PENG XU, SOOHAENG YOO, FEDERICO ZAHARIEV

  ADDITIONAL CODE HAS BEEN PROVIDED BY COLLABORATORS IN OTHER GROUPS:
     IOWA STATE UNIVERSITY:
          JOE IVANIC, AARON WEST, LAIMUTIS BYTAUTAS, KLAUS RUEDENBERG
     UNIVERSITY OF TOKYO: KIMIHIKO HIRAO, TAKAHITO NAKAJIMA,
          TAKAO TSUNEDA, MUNEAKI KAMIYA, SUSUMU YANAGISAWA,
          KIYOSHI YAGI, MAHITO CHIBA, SEIKEN TOKURA, NAOAKI KAWAKAMI
     UNIVERSITY OF AARHUS: FRANK JENSEN
     UNIVERSITY OF IOWA: VISVALDAS KAIRYS, HUI LI
     NATIONAL INST. OF STANDARDS AND TECHNOLOGY: WALT STEVENS, DAVID GARMER
     UNIVERSITY OF PISA: BENEDETTA MENNUCCI, JACOPO TOMASI
     UNIVERSITY OF MEMPHIS: HENRY KURTZ, PRAKASHAN KORAMBATH
     UNIVERSITY OF ALBERTA: TOBY ZENG, MARIUSZ KLOBUKOWSKI
     UNIVERSITY OF NEW ENGLAND: MARK SPACKMAN
     MIE UNIVERSITY: HIROAKI UMEDA
     NAT. INST. OF ADVANCED INDUSTRIAL SCIENCE AND TECHNOLOGY: KAZUO KITAURA
     MICHIGAN STATE UNIVERSITY:
          KAROL KOWALSKI, MARTA WLOCH, JEFFREY GOUR, JESSE LUTZ,
          WEI LI, JUN SHEN, J. EMILIANO DEUSTUA, PIOTR PIECUCH
     UNIVERSITY OF MINNESOTA:
          YINAN SHU
     UNIVERSITY OF SILESIA: MONIKA MUSIAL, STANISLAW KUCHARSKI
     FACULTES UNIVERSITAIRES NOTRE-DAME DE LA PAIX:
          OLIVIER QUINET, BENOIT CHAMPAGNE
     UNIVERSITY OF CALIFORNIA - SANTA BARBARA: BERNARD KIRTMAN
     INSTITUTE FOR MOLECULAR SCIENCE:
          KAZUYA ISHIMURA, MICHIO KATOUDA, AND SHIGERU NAGASE
     UNIVERSITY OF NOTRE DAME: ANNA POMOGAEVA, DAN CHIPMAN
     KYUSHU UNIVERSITY:
          HARUYUKI NAKANO,
          FENG LONG GU, JACEK KORCHOWIEC, MARCIN MAKOWSKI, AND YURIKO AOKI,
          HIROTOSHI MORI AND EISAKU MIYOSHI
     PENNSYLVANIA STATE UNIVERSITY:
          TZVETELIN IORDANOV, CHET SWALINA, JONATHAN SKONE,
          SHARON HAMMES-SCHIFFER
     WASEDA UNIVERSITY:
          MASATO KOBAYASHI, TOMOKO AKAMA, TSUGUKI TOUMA,
          TAKESHI YOSHIKAWA, YASUHIRO IKABATA, JUNJI SEINO,
          YUYA NAKAJIMA, HIROMI NAKAI
     NANJING UNIVERSITY: SHUHUA LI
     UNIVERSITY OF NEBRASKA:
          PEIFENG SU, DEJUN SI, NANDUN THELLAMUREGE, YALI WANG, HUI LI
     UNIVERSITY OF ZURICH: ROBERTO PEVERATI, KIM BALDRIDGE
     N. COPERNICUS UNIVERSITY AND JACKSON STATE UNIVERSITY:
          MARIA BARYSZ
     UNIVERSITY OF COPENHAGEN: Jimmy Kromann, CASPER STEINMANN
     TOKYO INSTITUTE OF TECHNOLOGY: HIROYA NAKATA
     NAGOYA UNIVERSITY: YOSHIO NISHIMOTO, STEPHAN IRLE
     MOSCOW STATE UNIVERSITY: VLADIMIR MIRONOV

 EXECUTION OF GAMESS BEGUN Wed Nov 16 18:27:24 2022

            ECHO OF THE FIRST FEW INPUT CARDS -
 INPUT CARD> $system kdiag=3 mwords=100 memddi=1000 parall=.t. $end                         
 INPUT CARD> $contrl runtyp=energy ispher=1 $end                                            
 INPUT CARD> $contrl icut=9 itol=20 inttyp=rysquad qmttol=1.0d-05 nosym=1 $end              
 INPUT CARD> $scf    npunch=2 conv=1.0d-06 dirscf=.t.      $end                             
 INPUT CARD> $contrl scftyp=mcscf  mult=2 maxit=200 icharg=1 mplevl=2 $end                  
 INPUT CARD> $guess  guess=moread norb=29 purify=.t. $end                                   
 INPUT CARD> $basis  gbasis=ccd $end                                                        
 INPUT CARD> $mcscf  cistep=gmcci fullnr=.t. finci=mos                                      
 INPUT CARD>         acurcy=1.d-6 maxit=100 $end                                            
 INPUT CARD> $trans  dirtrf=.t. $end                                                        
 INPUT CARD> $mrmp   mrpt=gmcpt rdvecs=.f. $end                                             
 INPUT CARD> $gmcpt  nmofzc=0 nmodoc=1 nmoact=7 nelact=7 stsym(1)=A                         
 INPUT CARD>         reftyp=ormas nspace=1 mstart(1)=2 mine(1)=7 maxe(1)=7                  
 INPUT CARD>         kstate(1)=1,1,1                                                        
 INPUT CARD>         wstate(1)=1,1,1                                                        
 INPUT CARD>         iwgt=0 thrwgt=-1.0 krot=.f. kszdoe=.f. knospn=.f.                      
 INPUT CARD>         thrde=-1.0 edshft=0.02 $end                                            
 INPUT CARD> $data                                                                          
 INPUT CARD> NH3+ 3 states calculation at NH3 structure.                                    
 INPUT CARD> c1                                                                             
 INPUT CARD>N 7.0 0.018686754000000003 0.043602321000000006 -0.1693805222                   
 INPUT CARD>H 1.0 -0.8855551640000001 0.6438123028 0.1360303731                             
 INPUT CARD>H 1.0 -0.350577939 -0.7388510958000001 0.45608070410000007                      
 INPUT CARD>H 1.0 0.976475666 -0.5108302140000001 0.1772671261                              
 INPUT CARD>$end                                                                            
 INPUT CARD>--- OPTIMIZED RHF      MO-S --- GENERATED AT Mon Nov 14 16:47:08 2022           
 INPUT CARD>E=      -56.3825050291, E(NUC)=   11.8429239490                                 
 INPUT CARD> $VEC                                                                           
 INPUT CARD> 1  1-1.00134066E+00-2.25158504E-03 3.44925845E-03 0.00000000E+00 0.00000000E+00
 INPUT CARD> 1  2-2.13170927E-03 0.00000000E+00 0.00000000E+00 6.57129898E-04-6.87950443E-05
 INPUT CARD> 1  3-6.87950443E-05 1.37590089E-04 0.00000000E+00 0.00000000E+00 0.00000000E+00
 INPUT CARD> 1  4 3.25502815E-04-4.84772356E-04 3.62525460E-04-6.27912517E-04-3.45956485E-04
 INPUT CARD> 1  5 3.25502815E-04-4.84772356E-04 3.62525460E-04 6.27912517E-04-3.45956485E-04
 INPUT CARD> 1  6 3.25502815E-04-4.84772356E-04-7.25050921E-04 0.00000000E+00-3.45956485E-04
 INPUT CARD> 2  1 1.31286642E-02-4.05911371E-01-2.82090992E-01 0.00000000E+00 0.00000000E+00
 INPUT CARD> 2  2-7.71489043E-02 0.00000000E+00 0.00000000E+00 9.73717494E-03 6.62450916E-04
 INPUT CARD> 2  3 6.62450916E-04-1.32490183E-03 0.00000000E+00 0.00000000E+00 0.00000000E+00
 INPUT CARD> 2  4-1.96090317E-01-1.96656153E-02-1.74855877E-02 3.02859263E-02 8.68214399E-03
 INPUT CARD> 2  5-1.96090317E-01-1.96656153E-02-1.74855877E-02-3.02859263E-02 8.68214399E-03
 INPUT CARD> 2  6-1.96090317E-01-1.96656153E-02 3.49711754E-02 0.00000000E+00 8.68214399E-03
 INPUT CARD> 3  1 0.00000000E+00 0.00000000E+00 0.00000000E+00 4.48608762E-01 0.00000000E+00
 INPUT CARD> 3  2 0.00000000E+00 2.18692520E-01 0.00000000E+00 0.00000000E+00 1.30198027E-02
 INPUT CARD> 3  3-1.30198027E-02 0.00000000E+00 0.00000000E+00 2.71832968E-02 0.00000000E+00
 INPUT CARD> 3  4-1.85332726E-01-7.03958951E-02 8.47929477E-03 1.95242443E-02 8.32835058E-03
 INPUT CARD> 3  5-1.85332726E-01-7.03958951E-02 8.47929477E-03-1.95242443E-02 8.32835058E-03
 INPUT CARD> 3  6 3.70665453E-01 1.40791790E-01-2.53376884E-02 0.00000000E+00-1.66567012E-02
 INPUT CARD> 4  1 0.00000000E+00 0.00000000E+00 0.00000000E+00 0.00000000E+00 4.48608762E-01
 INPUT CARD> 4  2 0.00000000E+00 0.00000000E+00 2.18692520E-01 0.00000000E+00 0.00000000E+00
 INPUT CARD> 4  3 0.00000000E+00 0.00000000E+00-1.50339731E-02 0.00000000E+00 2.71832968E-02
 INPUT CARD> 4  4 3.21005698E-01 1.21929267E-01 1.95242443E-02-1.40653607E-02-1.44251263E-02
  100000000 WORDS OF MEMORY AVAILABLE

     BASIS OPTIONS
     -------------
     GBASIS=CCD          IGAUSS=       0      POLAR=NONE    
     NDFUNC=       0     NFFUNC=       0     DIFFSP=       F
     NPFUNC=       0      DIFFS=       F     BASNAM=        


     RUN TITLE
     ---------
  NH3+ 3 states calculation at NH3 structure.                                    

 THE POINT GROUP OF THE MOLECULE IS C1      
 THE ORDER OF THE PRINCIPAL AXIS IS     0

 ATOM      ATOMIC                      COORDINATES (BOHR)
           CHARGE         X                   Y                   Z
 N           7.0     0.0353128447        0.0823964391       -0.3200827746
 H           1.0    -1.6734566070        1.2166288398        0.2570601312
 H           1.0    -0.6624962421       -1.3962261168        0.8618675590
 H           1.0     1.8452714424       -0.9653291307        0.3349862950

          INTERNUCLEAR DISTANCES (ANGS.)
          ------------------------------

                1 N          2 H          3 H          4 H     

   1 N       0.0000000    1.1274668 *  1.0676102 *  1.1597067 *
   2 H       1.1274668 *  0.0000000    1.5167040 *  2.1913600 *
   3 H       1.0676102 *  1.5167040 *  0.0000000    1.3750643 *
   4 H       1.1597067 *  2.1913600 *  1.3750643 *  0.0000000  

  * ... LESS THAN  3.000


     ATOMIC BASIS SET
     ----------------
 THE CONTRACTED PRIMITIVE FUNCTIONS HAVE BEEN UNNORMALIZED
 THE CONTRACTED BASIS FUNCTIONS ARE NOW NORMALIZED TO UNITY

  SHELL TYPE  PRIMITIVE        EXPONENT          CONTRACTION COEFFICIENT(S)

 N         

      1   S       1          9046.0000000    0.000699617413
      1   S       2          1357.0000000    0.005386054630
      1   S       3           309.3000000    0.027391021189
      1   S       4            87.7300000    0.103150591982
      1   S       5            28.5600000    0.278570663317
      1   S       6            10.2100000    0.448294849454
      1   S       7             3.8380000    0.278085928395
      1   S       8             0.7466000    0.015431561233

      2   S       9          9046.0000000   -0.000304990096
      2   S      10          1357.0000000   -0.002408026379
      2   S      11           309.3000000   -0.011944448725
      2   S      12            87.7300000   -0.048925992909
      2   S      13            28.5600000   -0.134472724725
      2   S      14            10.2100000   -0.315112577700
      2   S      15             3.8380000   -0.242857832550
      2   S      16             0.7466000    1.094382206854

      3   S      17             0.2248000    1.000000000000

      4   P      18            13.5500000    0.058905676772
      4   P      19             2.9170000    0.320461106714
      4   P      20             0.7973000    0.753042061792

      5   P      21             0.2185000    1.000000000000

      6   D      22             0.8170000    1.000000000000

 H         

      7   S      23            13.0100000    0.033498726390
      7   S      24             1.9620000    0.234800801174
      7   S      25             0.4446000    0.813682957883

      8   S      26             0.1220000    1.000000000000

      9   P      27             0.7270000    1.000000000000

 H         

     10   S      28            13.0100000    0.033498726390
     10   S      29             1.9620000    0.234800801174
     10   S      30             0.4446000    0.813682957883

     11   S      31             0.1220000    1.000000000000

     12   P      32             0.7270000    1.000000000000

 H         

     13   S      33            13.0100000    0.033498726390
     13   S      34             1.9620000    0.234800801174
     13   S      35             0.4446000    0.813682957883

     14   S      36             0.1220000    1.000000000000

     15   P      37             0.7270000    1.000000000000

 TOTAL NUMBER OF BASIS SET SHELLS             =   15
 NUMBER OF CARTESIAN GAUSSIAN BASIS FUNCTIONS =   30
 NOTE: THIS RUN WILL RESTRICT THE MO VARIATION SPACE TO SPHERICAL HARMONICS.
 THE NUMBER OF ORBITALS KEPT IN THE VARIATIONAL SPACE WILL BE PRINTED LATER.
 NUMBER OF ELECTRONS                          =    9
 CHARGE OF MOLECULE                           =    1
 SPIN MULTIPLICITY                            =    2
 NUMBER OF OCCUPIED ORBITALS (ALPHA)          =    5
 NUMBER OF OCCUPIED ORBITALS (BETA )          =    4
 TOTAL NUMBER OF ATOMS                        =    4
 THE NUCLEAR REPULSION ENERGY IS       10.9244509098

     $CONTRL OPTIONS
     ---------------
 SCFTYP=MCSCF        RUNTYP=ENERGY       EXETYP=RUN     
 MPLEVL=       2     CITYP =NONE         CCTYP =NONE         VBTYP =NONE    
 DFTTYP=NONE         TDDFT =NONE    
 MULT  =       2     ICHARG=       1     NZVAR =       0     COORD =UNIQUE  
 PP    =NONE         RELWFN=NONE         LOCAL =NONE         NUMGRD=       F
 ISPHER=       1     NOSYM =       1     MAXIT =     200     UNITS =ANGS    
 PLTORB=       F     MOLPLT=       F     AIMPAC=       F     FRIEND=        
 NPRINT=       7     IREST =       0     GEOM  =INPUT   
 NORMF =       0     NORMP =       0     ITOL  =      20     ICUT  =       9
 INTTYP=RYSQUAD      GRDTYP=BEST         QMTTOL= 1.0E-05

     $SYSTEM OPTIONS
     ---------------
  REPLICATED MEMORY=   100000000 WORDS (ON EVERY NODE).
 DISTRIBUTED MEMDDI=        1000 MILLION WORDS IN AGGREGATE,
 MEMDDI DISTRIBUTED OVER   1 PROCESSORS IS  1000000000 WORDS/PROCESSOR.
 TOTAL MEMORY REQUESTED ON EACH PROCESSOR=  1100000000 WORDS.
 TIMLIM=      525600.00 MINUTES, OR     365.0 DAYS.
 PARALL= T  BALTYP=  DLB     KDIAG=    3  COREFL= F
 MXSEQ2=     300 MXSEQ3=     150  mem10=         0

          ----------------
          PROPERTIES INPUT
          ----------------

     MOMENTS            FIELD           POTENTIAL          DENSITY
 IEMOM =       1   IEFLD =       0   IEPOT =       0   IEDEN =       0
 WHERE =COMASS     WHERE =NUCLEI     WHERE =NUCLEI     WHERE =NUCLEI  
 OUTPUT=BOTH       OUTPUT=BOTH       OUTPUT=BOTH       OUTPUT=BOTH    
 IEMINT=       0   IEFINT=       0                     IEDINT=       0
                                                       MORB  =       0

     -------------------------------
     INTEGRAL TRANSFORMATION OPTIONS
     -------------------------------
     NWORD  =            0
     CUTOFF = 1.0E-09     MPTRAN =       0
     DIRTRF =       T     AOINTS =DUP     

          ----------------------
          MCSCF INPUT PARAMETERS
          ----------------------
 CONVERGER SELECTION: FOCAS = F  SOSCF = F  FULLNR = T  QUD = F  JACOBI = F
 SECULAR EQUATION METHOD CISTEP = GMCCI   
 --- GENERAL INPUT OPTIONS:
 MAXIT =     100  MICIT =       1  ACURCY= 1.000E-06
 DAMP  =   0.000  CANONC=       T  ENGTOL= 1.000E-10
 EKT   =       F  NPUNCH=       2  NWORD =         0
 REGENERATE CI AFTER CONVERGENCE = NONE    
 DIABATIZATION AFTER CONVERGENCE =        F
 --- INPUT FOR FULLNR CONVERGER:
 METHOD=DM2       FORS  =       F  DROPC =       T
 LINSER=       F  FCORE =       F  NORB  =      30

          ----------------------
          INTEGRAL INPUT OPTIONS
          ----------------------
 NOPK  =       1 NORDER=       0 SCHWRZ=       T

 ------------------------------------------
 MULTIREFERENCE PERTURBATION THEORY CONTROL
 ------------------------------------------
 MRPT=GMCPT    READ CONVERGED MCSCF VECTORS= F


     ------------------------------------------
     THE POINT GROUP IS C1 , NAXIS= 1, ORDER= 1
     ------------------------------------------

 -- VARIATIONAL SPACE WILL BE RESTRICTED TO PURE SPHERICAL HARMONICS ONLY --
 AFTER EXCLUDING CONTAMINANT COMBINATIONS FROM THE CARTESIAN GAUSSIAN BASIS
 SET, THE NUMBER OF SPHERICAL HARMONICS KEPT IN THE VARIATION SPACE IS   29

     DIMENSIONS OF THE SYMMETRY SUBSPACES ARE
 A   =   29

 ..... DONE SETTING UP THE RUN .....
 CPU     0: STEP CPU TIME=     0.04 TOTAL CPU TIME=          0.0 (      0.0 MIN)
 TOTAL WALL CLOCK TIME=          0.0 SECONDS, CPU UTILIZATION IS   100.00%

          ********************
          1 ELECTRON INTEGRALS
          ********************
 TIME TO DO   DIPOLE INTEGRALS=      0.00
 ...... END OF ONE-ELECTRON INTEGRALS ......
 CPU     0: STEP CPU TIME=     0.00 TOTAL CPU TIME=          0.0 (      0.0 MIN)
 TOTAL WALL CLOCK TIME=          0.1 SECONDS, CPU UTILIZATION IS    80.00%

          -------------
          GUESS OPTIONS
          -------------
          GUESS =MOREAD            NORB  =      29          NORDER=       0
          MIX   =       F          PRTMO =       F          PUNMO =       F
          TOLZ  = 1.0E-08          TOLE  = 1.0E-05
          SYMDEN=       F          PURIFY=       T

 INITIAL GUESS ORBITALS GENERATED BY MOREAD   ROUTINE.

 STATISTICS FOR GENERATION OF SYMMETRY ORBITAL -Q- MATRIX
 NUMBER OF CARTESIAN ATOMIC ORBITALS=         30
 NUMBER OF SPHERICAL CONTAMINANTS DROPPED=     1
 NUMBER OF LINEARLY DEPENDENT MOS DROPPED=     0
 TOTAL NUMBER OF MOS IN VARIATION SPACE=      29
 ORBITAL PURIFICATION WILL OCCUR

 SYMMETRIES FOR INITIAL GUESS ORBITALS FOLLOW.   BOTH SET(S).
     5 ORBITALS ARE OCCUPIED (    1 CORE ORBITALS).
     1=A        2=A        3=A        4=A        5=A        6=A        7=A   
     8=A        9=A       10=A       11=A       12=A       13=A       14=A   
    15=A       16=A       17=A       18=A       19=A       20=A       21=A   
    22=A       23=A       24=A       25=A       26=A       27=A       28=A   
    29=A   
 ...... END OF INITIAL ORBITAL SELECTION ......
 CPU     0: STEP CPU TIME=     0.00 TOTAL CPU TIME=          0.0 (      0.0 MIN)
 TOTAL WALL CLOCK TIME=          0.1 SECONDS, CPU UTILIZATION IS    80.00%

                    ----------------------
                    AO INTEGRAL TECHNOLOGY
                    ----------------------
     S,P,L SHELL ROTATED AXIS INTEGRALS, REPROGRAMMED BY
        KAZUYA ISHIMURA (IMS) AND JOSE SIERRA (SYNSTAR).
     S,P,D,L SHELL ROTATED AXIS INTEGRALS PROGRAMMED BY
        KAZUYA ISHIMURA (INSTITUTE FOR MOLECULAR SCIENCE).
     S,P,D,F,G SHELL TO TOTAL QUARTET ANGULAR MOMENTUM SUM 5,
        ERIC PROGRAM BY GRAHAM FLETCHER (ELORET AND NASA ADVANCED
        SUPERCOMPUTING DIVISION, AMES RESEARCH CENTER).
     S,P,D,F,G,L SHELL GENERAL RYS QUADRATURE PROGRAMMED BY
        MICHEL DUPUIS (PACIFIC NORTHWEST NATIONAL LABORATORY).

          --------------------
          2 ELECTRON INTEGRALS
          --------------------

 DIRECT SCF METHOD SKIPS INTEGRAL STORAGE ON DISK.
 DIRECT TRANSFORMATION SKIPS AO INTEGRAL STORAGE ON DISK.
  ...... END OF TWO-ELECTRON INTEGRALS .....
 STEP CPU TIME =     0.02 TOTAL CPU TIME =          0.1 (      0.0 MIN)
 TOTAL WALL CLOCK TIME=          0.1 SECONDS, CPU UTILIZATION IS    75.00%
 DDI: Creating Array [0] - 900 x 36 = 32400 words.
 DDI: Creating Array [1] - 21 x 288 = 6048 words.
 DDI: Creating Array [2] - 36 x 36 = 1296 words.
 DDI: Creating Array [3] - 465 x 36 = 16740 words.

          -----------------
          MCSCF CALCULATION
          -----------------

 ----- NUCLEAR ENERGY ----- =        10.9244509098

     -------------------------------------------------
     GMC-PT/GMC-QDPT or general MCSCF input parameters
     -------------------------------------------------
 # of frozen core orbs. =         0 ->         0
 # of doubly occ. orbs. =         1
 # of active      orbs. =         7
 # of virtual     orbs. =        21
 # of active electrons  =         7
 # of states in CI      =         3
 Highest state in CI    =         3
 kstate =  1 1 1
 avecoe =  0.333 0.333 0.333
 State symmetry           = A           
 Assigned symmetry number = 1

 <<<Act. MO sym.: 1111111

 <<<Division of 1-ext.:  0
 <<<Division of 2-ext.:  0

 *** Reference space

 Reference type: ORMAS (= Occupation restricted multiple active space)
 # of orbitals          =  7
 # of minimum electrons =  7
 # of maximum electrons =  7
 State symmetry    =    1 (input)
 2*Sz              =    1 (input)
 Spin multiplicity =    2 (input)
 Dimension of reference space =      1225  (from      3432 walks)

 Dimension of reference space =      1225  (from      1225 walks)

 <<<Ionized spaces for Ref-CI:
      0:         1225 /   -1-0:         1960 /  0-1-0:         2891

 EVALUATING EXCHANGE INTEGRALS FOR DIRECT INTEGRAL TRANSFORMATION
 SCHWARZ INEQUALITY OVERHEAD:       465 INTEGRALS, T=        0.00

     --------------------------------------------
     PARTIAL TWO ELECTRON INTEGRAL TRANSFORMATION
     --------------------------------------------

 NUMBER OF CORE MOLECULAR ORBITALS     =    1
 NUMBER OF OCCUPIED MOLECULAR ORBITALS =    8
 TOTAL NUMBER OF MOLECULAR ORBITALS    =   29
 TOTAL NUMBER OF ATOMIC ORBITALS       =   30
 THRESHOLD FOR KEEPING TRANSFORMED 2E- INTEGRALS = 1.000E-09

 -------------------------------     ------------------------------
 DISTRIBUTED DATA TRANSFORMATION     PROGRAM WRITTEN BY G. FLETCHER
 -------------------------------     ------------------------------

 THE DISTRIBUTED MEMORY REQUIRED FOR THIS STEP IS MEMDDI=         1 MWORDS
 CREATING DISTRIBUTED STORAGE FOR [VIR OCC|VIR OCC] INTEGRALS
 CREATING DISTRIBUTED STORAGE FOR [VIR OCC|OCC OCC] INTEGRALS
 CREATING DISTRIBUTED STORAGE FOR [OCC OCC|OCC OCC] INTEGRALS
 CREATING DISTRIBUTED STORAGE FOR [VIR VIR|OCC OCC] INTEGRALS
 FOR    1 PROCESSORS, THE REPLICATED MEMORY NEEDED IS       73700 WORDS.
 SCHWARZ INEQUALITY OVERHEAD:       465 INTEGRALS, T=        0.00

      DIRECT 4-INDEX TRANSFORMATION 
      SCHWARZ INEQUALITY TEST SKIPPED          0 INTEGRAL BLOCKS
 ----- FROZEN CORE ENERGY =       -47.5745803666
 ... END OF INTEGRAL TRANSFORMATION ...
 CPU     0: STEP CPU TIME=     0.23 TOTAL CPU TIME=          0.3 (      0.0 MIN)
 TOTAL WALL CLOCK TIME=          0.3 SECONDS, CPU UTILIZATION IS    96.67%

     --------------------------------     -----------------------------
     MCHF NEWTON-RAPHSON OPTIMIZATION     CODE WRITTEN BY MICHEL DUPUIS
     --------------------------------     -----------------------------
     PARALLEL VERSION WRITTEN BY G. FLETCHER (ELORET)
     NASA ADVANCED SUPERCOMPUTING DIVISION, AMES RESEARCH CENTER

 NUMBER OF INDEPENDENT ORBITAL ROTATION PARAMETERS =   175
 ..... DONE SOLVING NEWTON-RAPHSON EQUATIONS .....
 CPU     0: STEP CPU TIME=     0.93 TOTAL CPU TIME=          1.2 (      0.0 MIN)
 TOTAL WALL CLOCK TIME=          1.2 SECONDS, CPU UTILIZATION IS    99.19%
 ..... DONE WITH NTN-RPH ORBITAL ROTATIONS ..... 
 CPU     0: STEP CPU TIME=     0.00 TOTAL CPU TIME=          1.2 (      0.0 MIN)
 TOTAL WALL CLOCK TIME=          1.2 SECONDS, CPU UTILIZATION IS    99.19%
 MAXIMUM MEMORY USED BY NTN-RPH CODE WAS     57645 WORDS.

 ITER     TOTAL ENERGY      DEL(E)  LAGRANGIAN ASYMMETRY   SQCDF  MICIT   DAMP
   1      -55.594628501 -0.594628501  0.106291   12    5 9.791E-02  1   0.0000
   2      -55.656815753 -0.062187252  0.019731   12    5 4.620E-01  1   0.0000
   3      -55.693553333 -0.036737579  0.014277   11    6 2.226E-01  1   0.0177
   4      -55.710219938 -0.016666606  0.004964   11    6 4.135E-02  1   0.0059
   5      -55.712394807 -0.002174869  0.001157   14    5 1.039E-03  1   0.0000
   6      -55.712466586 -0.000071779  0.000481   14    5 8.463E-05  1   0.0000
   7      -55.712474906 -0.000008319  0.000210   14    5 1.728E-05  1   0.0000
   8      -55.712476598 -0.000001693  0.000097   14    5 4.129E-06  1   0.0000
   9      -55.712476987 -0.000000389  0.000047   14    5 1.060E-06  1   0.0000
  10      -55.712477083 -0.000000095  0.000023   23    5 2.863E-07  1   0.0000
  11      -55.712477107 -0.000000025  0.000012   23    5 8.052E-08  1   0.0000
  12      -55.712477114 -0.000000007  0.000006   23    5 2.340E-08  1   0.0000
  13      -55.712477116 -0.000000002  0.000003   23    5 6.984E-09  1   0.0000
  14      -55.712477117 -0.000000001  0.000002   23    5 2.056E-09  1   0.0000
  15      -55.712477117 -0.000000000  0.000001   23    5 6.735E-10  1   0.0000

          --------------------
          LAGRANGIAN CONVERGED
          --------------------

 FINAL MCSCF ENERGY IS      -55.7124771168 AFTER  15 ITERATIONS

 -MCCI- BASED ON OPTIMIZED ORBITALS
 ----------------------------------

 PLEASE NOTE: IF THE ACTIVE ORBITALS ARE CANONICALIZED BELOW,
 THE FOLLOWING CI EXPANSION COEFFICIENTS AND THE DENSITY DO NOT
 CORRESPOND TO THE PRINTED ORBITALS.  THE PRINTED EXPANSIONS MATCH
 THE ORBITALS USED DURING THE LAST ITERATION.  IF YOU WISH TO SEE
 CI EXPANSIONS BASED ON THE CANONICAL (OR NATURAL) ORBITALS, YOU
 MUST RUN A CI CALCULATION WITH THAT ORBITAL CHOICE READ IN $VEC.

 Averaged energy =     -55.712477117

 State #    1  Energy =     -55.851715706  S =  0.500

      Det      Coef    Occupancy (Ignoring core)
      ---      ----    --------- --------- -----
        1    0.866978  11110001110000
        2    0.061929  11101001110000
        5   -0.074769  01111001110000
        8   -0.127479  10110101110000
       16    0.053852  11100011110000
       17   -0.149281  11010011110000
       36   -0.317712  11110001101000
       51   -0.053685  11100011101000
       71    0.161236  11110001011000
      211    0.053434  11110000110100
      386    0.098969  11110001010010
      393    0.051930  10110101010010
      701    0.095596  11110001100001
      717    0.067674  11010011100001

 State #    2  Energy =     -55.707042343  S =  0.500

      Det      Coef    Occupancy (Ignoring core)
      ---      ----    --------- --------- -----
        1   -0.344249  11110001110000
        8    0.056566  10110101110000
       36   -0.724423  11110001101000
       38    0.070424  11011001101000
       40    0.058096  01111001101000
       43    0.084515  10110101101000
       52    0.093409  11010011101000
       71    0.492940  11110001011000
       73   -0.051787  11011001011000
       78   -0.051885  10110101011000
       87   -0.066849  11010011011000
      106   -0.057376  11110000111000
      122    0.051719  11010010111000
      456   -0.065199  11110001001010
      701   -0.096160  11110001100001

 State #    3  Energy =     -55.578673301  S =  0.500

      Det      Coef    Occupancy (Ignoring core)
      ---      ----    --------- --------- -----
       36    0.517618  11110001101000
       71    0.796733  11110001011000
       78   -0.052393  10110101011000
       87   -0.084669  11010011011000
      246   -0.067433  11110001001100
      316    0.071294  11110000011100
      456    0.064414  11110001001010
      806   -0.117659  11110001001001
      822   -0.063045  11010011001001

 DENSITY MATRIX OVER ACTIVE MO-S

             1           2           3           4           5

    1    1.9717892
    2   -0.0156392   1.6274228
    3   -0.0321197  -0.0100048   1.6167581
    4   -0.0051624  -0.0075450  -0.0137514   1.6450153
    5    0.1150365   0.0418754   0.0867396   0.0487954   0.0411759
    6   -0.0110437  -0.1488948  -0.0176918  -0.0445990  -0.0104605
    7    0.0146367   0.0307106   0.1851772   0.0975924   0.0200021

             6           7

    6    0.0393328
    7   -0.0129025   0.0585058

 FORMING THE "STANDARD FOCK OPERATOR" IN DIRECT AO INTEGRAL MODE...
 ONLY THE    1 CORE AND   21 VIRTUAL ORBITALS WILL BE CANONICALIZED

          ----------------------
          MCSCF NATURAL ORBITALS
          ----------------------

                      1          2          3          4          5
                  -15.9754     1.9811     1.6539     1.6453     1.6393
                     A          A          A          A          A   
    1  N  1  S    1.001042   0.009836  -0.008109   0.001277   0.004091
    2  N  1  S   -0.002048   0.434076  -0.162264   0.046097   0.104793
    3  N  1  S   -0.006423   0.332077  -0.260664   0.064191   0.159179
    4  N  1  X   -0.000102  -0.030328   0.025269  -0.329644   0.366008
    5  N  1  Y   -0.000091  -0.056315   0.120935   0.329252   0.380479
    6  N  1  Z    0.001033   0.085688   0.584854  -0.041406  -0.017578
    7  N  1  X    0.000008  -0.001733   0.036907  -0.132871   0.197843
    8  N  1  Y    0.000032  -0.006792   0.104451   0.141712   0.213991
    9  N  1  Z   -0.000521   0.014023   0.391710  -0.013939   0.033089
   10  N  1 XX    0.000077   0.000745  -0.010697   0.004860   0.008900
   11  N  1 YY    0.000013  -0.000450  -0.012151  -0.002830  -0.007618
   12  N  1 ZZ   -0.000090  -0.000295   0.022848  -0.002030  -0.001282
   13  N  1 XY   -0.000159  -0.002824  -0.001355  -0.003422  -0.017254
   14  N  1 XZ   -0.000094  -0.000952  -0.002800  -0.012159   0.015631
   15  N  1 YZ   -0.000162  -0.003284  -0.002234   0.014207   0.017248
   16  H  2  S   -0.001468   0.156829   0.114986   0.342215   0.030742
   17  H  2  S    0.000515   0.000120   0.034788   0.057716   0.029777
   18  H  2  X   -0.000634   0.023136   0.012780   0.033267   0.010376
   19  H  2  Y    0.000471  -0.019701  -0.006206  -0.021389   0.019211
   20  H  2  Z    0.000266  -0.003358   0.020351  -0.010849  -0.002034
   21  H  3  S   -0.001825   0.221165   0.127128  -0.116538  -0.348817
   22  H  3  S    0.000287   0.009611   0.029751  -0.022857  -0.104636
   23  H  3  X   -0.000370   0.014177   0.010612  -0.025063  -0.002175
   24  H  3  Y   -0.000775   0.029374   0.020889   0.004632  -0.020065
   25  H  3  Z    0.000583  -0.019681   0.017371   0.006092   0.024058
   26  H  4  S   -0.001361   0.155172   0.074220  -0.291462   0.194325
   27  H  4  S    0.000430  -0.000517   0.029124  -0.045181   0.069945
   28  H  4  X    0.000639  -0.026241  -0.007531   0.035960  -0.005675
   29  H  4  Y   -0.000328   0.011813   0.006285  -0.009505   0.025579
   30  H  4  Z    0.000282  -0.004349   0.021800   0.006631  -0.006140

                      6          7          8
                    0.0361     0.0233     0.0211
                     A          A          A   
    1  N  1  S   -0.133058  -0.141543  -0.055466
    2  N  1  S   -0.449533  -0.508398  -0.180156
    3  N  1  S    0.025161  -0.205420  -0.029137
    4  N  1  X   -0.353559   0.069015   0.800597
    5  N  1  Y   -0.473093   0.512130  -0.408900
    6  N  1  Z   -0.166418  -0.620250  -0.149834
    7  N  1  X    0.040994   0.015211   0.069560
    8  N  1  Y    0.053800   0.094074  -0.025142
    9  N  1  Z    0.076502   0.065189   0.036866
   10  N  1 XX    0.034382  -0.009513   0.046558
   11  N  1 YY   -0.028249   0.010429  -0.042718
   12  N  1 ZZ   -0.006134  -0.000917  -0.003840
   13  N  1 XY   -0.073749  -0.015726   0.020978
   14  N  1 XZ    0.001273  -0.013060  -0.052212
   15  N  1 YZ   -0.006773  -0.054001   0.014278
   16  H  2  S    0.467914   0.119444   0.632846
   17  H  2  S    0.107634  -0.009595   0.148751
   18  H  2  X    0.049228   0.013989   0.046618
   19  H  2  Y   -0.009514  -0.018355  -0.047163
   20  H  2  Z   -0.001021   0.014957   0.028713
   21  H  3  S   -0.382602   0.732040   0.122808
   22  H  3  S   -0.156070   0.149694   0.031762
   23  H  3  X    0.004208   0.042655  -0.039273
   24  H  3  Y   -0.005207   0.043843   0.036759
   25  H  3  Z    0.024196  -0.001257  -0.000672
   26  H  4  S    0.553689   0.315408  -0.442828
   27  H  4  S    0.146984   0.038343  -0.130349
   28  H  4  X   -0.038011  -0.043916   0.041192
   29  H  4  Y    0.045585   0.002277  -0.009388
   30  H  4  Z    0.001059   0.029465  -0.015669

          ------------------------
          MCSCF OPTIMIZED ORBITALS
          ------------------------

                      1          2          3          4          5
                  -15.9754     0.0000     0.0000     0.0000     0.0000
                     A          A          A          A          A   
    1  N  1  S    1.001042  -0.002218  -0.004598  -0.013254  -0.016944
    2  N  1  S   -0.002048   0.396925   0.002232   0.010715  -0.199832
    3  N  1  S   -0.006423   0.333657   0.054938   0.120474  -0.268988
    4  N  1  X   -0.000102  -0.013661   0.405842   0.055157   0.010952
    5  N  1  Y   -0.000091  -0.021583  -0.003312   0.424545   0.033881
    6  N  1  Z    0.001033   0.050736  -0.007904  -0.014652   0.577892
    7  N  1  X    0.000008   0.013247   0.225356   0.071716   0.040809
    8  N  1  Y    0.000032   0.018585   0.035225   0.263054   0.084828
    9  N  1  Z   -0.000521   0.024731   0.021472   0.055169   0.393477
   10  N  1 XX    0.000077   0.002895   0.001507   0.015276  -0.008629
   11  N  1 YY    0.000013  -0.002264  -0.001284  -0.013949  -0.013825
   12  N  1 ZZ   -0.000090  -0.000630  -0.000223  -0.001326   0.022455
   13  N  1 XY   -0.000159  -0.007677  -0.015161  -0.022524  -0.005350
   14  N  1 XZ   -0.000094  -0.001120   0.023091   0.001615  -0.002583
   15  N  1 YZ   -0.000162  -0.004243  -0.001119   0.022953  -0.004081
   16  H  2  S   -0.001468   0.197014  -0.257974   0.324710   0.120639
   17  H  2  S    0.000515   0.009202  -0.028306   0.082103   0.037097
   18  H  2  X   -0.000634   0.027665  -0.019284   0.036329   0.013115
   19  H  2  Y    0.000471  -0.020356   0.031983  -0.001564  -0.006053
   20  H  2  Z    0.000266  -0.002695   0.004286  -0.005787   0.021093
   21  H  3  S   -0.001825   0.210651  -0.181014  -0.395094   0.117280
   22  H  3  S    0.000287   0.002095  -0.064134  -0.111027   0.023718
   23  H  3  X   -0.000370   0.015152   0.019924  -0.020147   0.012310
   24  H  3  Y   -0.000775   0.030070  -0.020876  -0.012198   0.020611
   25  H  3  Z    0.000583  -0.016664   0.012847   0.027532   0.017422
   26  H  4  S   -0.001361   0.195306   0.409065  -0.009717   0.122319
   27  H  4  S    0.000430   0.010276   0.098012   0.036007   0.038872
   28  H  4  X    0.000639  -0.028916  -0.035390   0.018561  -0.012149
   29  H  4  Y   -0.000328   0.015351   0.026974   0.017472   0.008978
   30  H  4  Z    0.000282  -0.003326  -0.008195   0.000632   0.021139

                      6          7          8          9         10
                    0.0000     0.0000     0.0000     0.1605     0.2111
                     A          A          A          A          A   
    1  N  1  S    0.197432   0.000049   0.039088  -0.136425   0.007826
    2  N  1  S    0.714214   0.006258   0.114544  -0.210076   0.006227
    3  N  1  S    0.183269  -0.046353  -0.120037   1.315441  -0.111516
    4  N  1  X   -0.020993   0.919974   0.007524   0.021617  -0.161889
    5  N  1  Y   -0.068165  -0.130248   0.848992   0.049898   0.093576
    6  N  1  Z    0.653192  -0.077678  -0.129507  -0.215971   0.013874
    7  N  1  X   -0.036149   0.068756  -0.033292  -0.078666   0.724246
    8  N  1  Y   -0.081662  -0.032440   0.059214  -0.212396  -0.493606
    9  N  1  Z   -0.084501   0.017032  -0.003522   0.458930  -0.007525
   10  N  1 XX   -0.018954   0.026593  -0.047678   0.033411  -0.022094
   11  N  1 YY    0.013592  -0.026362   0.040905   0.007124   0.011809
   12  N  1 ZZ    0.005362  -0.000230   0.006773  -0.040534   0.010284
   13  N  1 XY    0.045316   0.048575   0.034753  -0.056385   0.016832
   14  N  1 XZ    0.021435  -0.046258   0.012494  -0.028896   0.072895
   15  N  1 YZ    0.046346   0.013187  -0.028221  -0.070266  -0.054381
   16  H  2  S   -0.448453   0.357021  -0.485436   0.343589  -0.505219
   17  H  2  S   -0.073662   0.086139  -0.131846  -0.760344   1.724378
   18  H  2  X   -0.043503   0.020430  -0.042029  -0.057132   0.088335
   19  H  2  Y    0.029278  -0.036678   0.015037   0.049017  -0.043355
   20  H  2  Z   -0.017468   0.028026  -0.001338   0.003597  -0.066827
   21  H  3  S   -0.441880   0.298249   0.605371   0.234687   0.091987
   22  H  3  S   -0.055626   0.097911   0.174744  -0.786207  -0.288638
   23  H  3  X   -0.028868  -0.033101   0.034827  -0.008654   0.010491
   24  H  3  Y   -0.039970   0.036359   0.013804  -0.088551  -0.012812
   25  H  3  Z   -0.010128  -0.009352  -0.014078   0.078381   0.013197
   26  H  4  S   -0.436682  -0.583821  -0.048754   0.401356   0.367360
   27  H  4  S   -0.076058  -0.169418  -0.029000  -0.895529  -1.239200
   28  H  4  X    0.046002   0.048035  -0.011686   0.046325   0.052912
   29  H  4  Y   -0.021063  -0.025248  -0.025782  -0.049047  -0.047395
   30  H  4  Z   -0.021533  -0.013311   0.022897   0.027859   0.065106

                     11         12         13         14         15
                    0.2391     0.5340     0.6312     0.7080     0.7769
                     A          A          A          A          A   
    1  N  1  S    0.031534  -0.086273   0.073660  -0.090590   0.111424
    2  N  1  S    0.072525  -0.142015   0.296231  -0.232061   0.266137
    3  N  1  S   -0.159881   0.351265   0.251554   0.214515  -0.369696
    4  N  1  X   -0.025033  -0.346531   0.065291  -0.372857  -0.245975
    5  N  1  Y    0.016128  -0.572885   0.200065   0.172801   0.127668
    6  N  1  Z    0.041129  -0.409746  -0.573378   0.143009  -0.123364
    7  N  1  X    0.319740   0.555901  -0.241465   1.461481   0.834947
    8  N  1  Y    0.240733   1.003914  -0.924049  -0.689538  -0.573590
    9  N  1  Z   -0.182307   0.394409   1.107389  -0.199112   0.188167
   10  N  1 XX    0.053085  -0.000848   0.004210   0.049398  -0.158351
   11  N  1 YY   -0.034213  -0.018677  -0.041357  -0.029381   0.156217
   12  N  1 ZZ   -0.018872   0.019525   0.037147  -0.020017   0.002134
   13  N  1 XY   -0.075673  -0.005406   0.049470   0.024714  -0.086655
   14  N  1 XZ    0.047546   0.008954   0.005219  -0.117381  -0.025152
   15  N  1 YZ    0.062046   0.016031   0.045997   0.036953   0.046812
   16  H  2  S    0.274352  -0.284383  -0.287633   0.563563   0.457696
   17  H  2  S   -0.792550  -0.356144   0.457741   0.340702   0.383005
   18  H  2  X   -0.003839  -0.006682   0.001746   0.115121   0.238438
   19  H  2  Y   -0.009414   0.019614  -0.099236  -0.214387   0.257832
   20  H  2  Z   -0.005676   0.051063   0.088985   0.195279   0.006732
   21  H  3  S   -0.643536   0.140536  -0.775026   0.164318  -0.123680
   22  H  3  S    2.203500   0.648394  -0.540880   0.044707   0.021049
   23  H  3  X    0.042903   0.018291  -0.157837  -0.310670   0.314389
   24  H  3  Y    0.076044   0.085788  -0.010015   0.114295  -0.189396
   25  H  3  Z   -0.064692  -0.042769   0.066022  -0.004865  -0.051939
   26  H  4  S    0.449407  -0.244735  -0.336062  -0.411507  -0.530254
   27  H  4  S   -1.435181  -0.383909   0.304201  -0.601724  -0.127067
   28  H  4  X    0.033802   0.027469   0.113341   0.289257  -0.170943
   29  H  4  Y   -0.006080   0.026674   0.059475  -0.006390  -0.329046
   30  H  4  Z   -0.001401   0.060037  -0.004127  -0.216143  -0.018782

                     16         17         18         19         20
                    1.0065     1.0432     1.1387     1.3333     1.3642
                     A          A          A          A          A   
    1  N  1  S   -0.616939  -0.293585  -0.029762   0.128828  -0.334837
    2  N  1  S   -1.310249  -0.620479  -0.064063   0.280559  -0.714485
    3  N  1  S    2.518301   1.327228   0.139262  -0.364301   1.238064
    4  N  1  X    0.022051   0.074399  -0.295479  -0.016479  -0.018669
    5  N  1  Y    0.098136  -0.030248   0.163527  -0.068427  -0.044073
    6  N  1  Z    0.146456   0.044613   0.015227   0.044428  -0.055526
    7  N  1  X   -0.232312  -0.411456   0.962983  -0.207605  -0.159857
    8  N  1  Y   -0.556290  -0.058966  -0.676797  -0.437493  -0.156277
    9  N  1  Z    0.131995   0.523776   0.107785  -0.111674   0.676273
   10  N  1 XX   -0.123009   0.004250   0.119986  -0.078885   0.047936
   11  N  1 YY   -0.073660   0.185564  -0.084528  -0.080272   0.017735
   12  N  1 ZZ    0.196669  -0.189813  -0.035458   0.159157  -0.065671
   13  N  1 XY   -0.014099   0.100691   0.090921  -0.101017  -0.063420
   14  N  1 XZ    0.047527   0.093700   0.135292   0.038975   0.035726
   15  N  1 YZ    0.081395   0.139210  -0.028782   0.046813   0.038672
   16  H  2  S   -0.281061  -0.318911   0.538767   0.061814  -0.378929
   17  H  2  S   -0.291130  -0.244049   0.227410   0.123709  -0.019043
   18  H  2  X   -0.020676   0.073424  -0.291193   0.439578  -0.066879
   19  H  2  Y    0.088202   0.334461  -0.094675   0.551903  -0.138309
   20  H  2  Z    0.270050  -0.031494  -0.437765  -0.134350  -0.602058
   21  H  3  S   -0.564165  -0.280342  -0.063320   0.075824  -0.372569
   22  H  3  S   -0.405708  -0.219661  -0.041711  -0.115177  -0.292077
   23  H  3  X    0.113802  -0.250288   0.107217  -0.072954   0.009240
   24  H  3  Y    0.018449  -0.461422  -0.190855   0.029000  -0.060512
   25  H  3  Z    0.279458  -0.461941  -0.042359   0.470772   0.299021
   26  H  4  S   -0.368573  -0.017387  -0.606852   0.022675  -0.342563
   27  H  4  S   -0.262442  -0.083596  -0.210393   0.110449   0.056178
   28  H  4  X    0.009979   0.206106   0.003344   0.237398  -0.136155
   29  H  4  Y   -0.060273   0.077102   0.426130   0.530337  -0.169607
   30  H  4  Z    0.312023  -0.097636   0.372562  -0.100884  -0.646054

                     21         22         23         24         25
                    1.6464     1.7210     1.8663     1.9384     2.1232
                     A          A          A          A          A   
    1  N  1  S    0.008079  -0.080823  -0.164116  -0.156573  -0.042635
    2  N  1  S    0.107777  -0.229623  -0.383940  -0.350157  -0.079280
    3  N  1  S    0.733572  -0.337410   0.041851   0.104194   0.174622
    4  N  1  X    0.023697   0.192627  -0.160633   0.391080   0.014074
    5  N  1  Y   -0.038317  -0.003172   0.458440   0.030718   0.039046
    6  N  1  Z    0.076327  -0.095753  -0.203401  -0.151018  -0.018125
    7  N  1  X    0.494093   0.672784  -0.223611  -0.041375   0.105449
    8  N  1  Y   -0.258664  -0.482856  -0.068393  -0.184832   0.097301
    9  N  1  Z    0.273438  -0.090068   0.064843   0.091117   0.336959
   10  N  1 XX   -0.107952   0.031975   0.022222  -0.093509  -0.491948
   11  N  1 YY    0.047486   0.066511   0.074862   0.168056  -0.343192
   12  N  1 ZZ    0.060466  -0.098486  -0.097084  -0.074546   0.835140
   13  N  1 XY    0.094402  -0.082572   0.051094   0.004707  -0.538149
   14  N  1 XZ   -0.014743  -0.164799   0.036537  -0.215564  -0.100318
   15  N  1 YZ    0.072195  -0.019255  -0.260864  -0.075247  -0.243845
   16  H  2  S    0.169935   0.265785  -0.058465  -0.004950  -0.065678
   17  H  2  S   -0.223032   0.455648  -0.351427   0.131478  -0.051069
   18  H  2  X   -0.458104   0.648172  -0.219982   0.347216  -0.187828
   19  H  2  Y    0.423527  -0.137711   0.532216  -0.296207  -0.071832
   20  H  2  Z   -0.418040  -0.470337   0.127106  -0.251378  -0.197459
   21  H  3  S   -0.191233  -0.023580  -0.154952  -0.087725  -0.056846
   22  H  3  S    0.231360  -0.067338   0.362396   0.311846   0.050013
   23  H  3  X   -0.220729  -0.512179   0.058729   0.768371  -0.273420
   24  H  3  Y    0.280188   0.369121   0.756921   0.264107  -0.241692
   25  H  3  Z    0.122944  -0.162888  -0.382784  -0.279840  -0.595803
   26  H  4  S   -0.176520  -0.231289  -0.013660  -0.099638  -0.097037
   27  H  4  S   -0.553151  -0.049412   0.157504  -0.350730  -0.028186
   28  H  4  X    0.583319  -0.313557  -0.341483   0.745627   0.090167
   29  H  4  Y   -0.575664  -0.122646   0.309421   0.202044   0.052146
   30  H  4  Z    0.202971   0.556819  -0.330674   0.001746  -0.147990

                     26         27         28         29
                    2.2023     2.4959     2.6239     3.1097
                     A          A          A          A   
    1  N  1  S    0.050924   0.013963  -0.211252   0.126268
    2  N  1  S    0.101445   0.009164  -0.253694   0.161917
    3  N  1  S   -0.156755  -0.319454   2.452670  -0.969694
    4  N  1  X   -0.067898   0.292107  -0.126097  -0.082599
    5  N  1  Y   -0.004452  -0.144364  -0.286858  -0.277016
    6  N  1  Z    0.026396  -0.036992   0.314342   0.015140
    7  N  1  X    0.061236   1.172689  -0.297762  -0.085570
    8  N  1  Y    0.031379  -0.581163  -0.878576  -0.388195
    9  N  1  Z   -0.168316  -0.112136   0.804908  -0.005458
   10  N  1 XX   -0.713257  -0.030064   0.169930  -0.905802
   11  N  1 YY    0.967295  -0.000380   0.244582   0.316149
   12  N  1 ZZ   -0.254038   0.030444  -0.414512   0.589653
   13  N  1 XY   -0.375225  -0.002725  -0.178934   1.261975
   14  N  1 XZ    0.124119   1.102165  -0.398463  -0.199744
   15  N  1 YZ    0.144844  -0.480446  -1.060180  -0.415030
   16  H  2  S    0.043484   0.862011  -0.505650   0.880202
   17  H  2  S   -0.038738   0.393266  -0.045033   0.261772
   18  H  2  X   -0.356402   0.620525  -0.178931   0.688701
   19  H  2  Y   -0.329120  -0.409096   0.285860  -0.449176
   20  H  2  Z    0.092536   0.065126   0.163919  -0.371519
   21  H  3  S    0.063099   0.147359  -1.450935  -0.716214
   22  H  3  S   -0.022061   0.078770  -0.576757  -0.181840
   23  H  3  X   -0.294281  -0.196524  -0.367650  -0.278990
   24  H  3  Y    0.209947   0.229421  -0.794495  -0.526595
   25  H  3  Z    0.245686  -0.049724   0.626570   0.442405
   26  H  4  S    0.061815  -0.680614  -0.653238   0.736146
   27  H  4  S    0.089888  -0.364818  -0.095566   0.215085
   28  H  4  X   -0.022057   0.508654   0.396108  -0.673711
   29  H  4  Y    0.356863  -0.398986  -0.119350   0.373512
   30  H  4  Z    0.073455  -0.008647   0.180858  -0.355561
 .....DONE WITH MCSCF ITERATIONS.....
 CPU     0: STEP CPU TIME=    10.74 TOTAL CPU TIME=         12.0 (      0.2 MIN)
 TOTAL WALL CLOCK TIME=         12.0 SECONDS, CPU UTILIZATION IS    99.92%

     ----------------------------------------------------------------
     PROPERTY VALUES FOR THE MCSCF SELF-CONSISTENT FIELD WAVEFUNCTION
     ----------------------------------------------------------------

          -----------------
          ENERGY COMPONENTS
          -----------------

         WAVEFUNCTION NORMALIZATION =       1.0000000000

                ONE ELECTRON ENERGY =     -93.5061340657
                TWO ELECTRON ENERGY =      26.8692060391
           NUCLEAR REPULSION ENERGY =      10.9244509098
                                      ------------------
                       TOTAL ENERGY =     -55.7124771168

 ELECTRON-ELECTRON POTENTIAL ENERGY =      26.8692060391
  NUCLEUS-ELECTRON POTENTIAL ENERGY =    -149.1364815558
   NUCLEUS-NUCLEUS POTENTIAL ENERGY =      10.9244509098
                                      ------------------
             TOTAL POTENTIAL ENERGY =    -111.3428246069
               TOTAL KINETIC ENERGY =      55.6303474901
                 VIRIAL RATIO (V/T) =       2.0014763457

          ---------------------------------------
          MULLIKEN AND LOWDIN POPULATION ANALYSES
          ---------------------------------------

     ATOMIC MULLIKEN POPULATION IN EACH MOLECULAR ORBITAL

                      1          2          3          4          5

                  2.000000   1.981093   1.653905   1.645261   1.639319

    1             2.000556   1.369104   1.533701   0.901428   1.157288
    2            -0.000145   0.156892   0.041584   0.400798   0.011946
    3            -0.000293   0.300293   0.058325   0.051595   0.336304
    4            -0.000118   0.154805   0.020295   0.291440   0.133781

                      6          7          8

                  0.036114   0.023250   0.021057

    1             0.014667   0.012531   0.011702
    2             0.007348   0.000201   0.006121
    3             0.003653   0.008593   0.000323
    4             0.010446   0.001926   0.002910
 WARNING! MCSCF POPULATIONS SHOWN ABOVE ARE FOR THE NATURAL ORBITALS.
 IGNORE THE ABOVE DATA FOR MCSCF FUNCTIONS WHICH ARE NOT OF -FORS- TYPE.
 THE FOLLOWING POPULATIONS ARE CORRECT FOR ANY MCSCF WAVEFUNCTION.

               ----- POPULATIONS IN EACH AO -----
                             MULLIKEN      LOWDIN
              1  N  1  S      2.00220     1.90537
              2  N  1  S      0.81887     0.57940
              3  N  1  S      0.71820     0.42333
              4  N  1  X      0.65971     0.58750
              5  N  1  Y      0.70613     0.64380
              6  N  1  Z      0.85935     0.80947
              7  N  1  X      0.32940     0.42744
              8  N  1  Y      0.35996     0.44644
              9  N  1  Z      0.52980     0.57073
             10  N  1 XX      0.00075     0.17838
             11  N  1 YY      0.00176     0.16108
             12  N  1 ZZ      0.00488     0.14579
             13  N  1 XY      0.00426     0.01071
             14  N  1 XZ      0.00572     0.00760
             15  N  1 YZ      0.00000     0.01195
             16  H  2  S      0.52730     0.41462
             17  H  2  S      0.04433     0.15340
             18  H  2  X      0.02549     0.04436
             19  H  2  Y      0.01742     0.03070
             20  H  2  Z      0.01020     0.02538
             21  H  3  S      0.63841     0.49438
             22  H  3  S      0.05879     0.15122
             23  H  3  X      0.01596     0.03256
             24  H  3  Y      0.02459     0.04477
             25  H  3  Z      0.02104     0.04514
             26  H  4  S      0.51279     0.40184
             27  H  4  S      0.05123     0.15450
             28  H  4  X      0.02727     0.04549
             29  H  4  Y      0.01386     0.02793
             30  H  4  Z      0.01034     0.02472

          ----- MULLIKEN ATOMIC OVERLAP POPULATIONS -----
          (OFF-DIAGONAL ELEMENTS NEED TO BE MULTIPLIED BY 2)

             1           2           3           4

    1    6.1883392
    2    0.2778380   0.3588121
    3    0.2725246  -0.0064937   0.5014348
    4    0.2622751  -0.0054128  -0.0086731   0.3672977

          TOTAL MULLIKEN AND LOWDIN ATOMIC POPULATIONS
       ATOM         MULL.POP.    CHARGE          LOW.POP.     CHARGE
    1 N             7.000977   -0.000977         6.908993    0.091007
    2 H             0.624744    0.375256         0.668453    0.331547
    3 H             0.758793    0.241207         0.768072    0.231928
    4 H             0.615487    0.384513         0.654482    0.345518

          MULLIKEN SPHERICAL HARMONIC POPULATIONS
       ATOM           S       P       D      F      G      H      I    TOTAL
    1 N             3.54    3.44    0.02   0.00   0.00   0.00   0.00    7.00
    2 H             0.57    0.05    0.00   0.00   0.00   0.00   0.00    0.62
    3 H             0.70    0.06    0.00   0.00   0.00   0.00   0.00    0.76
    4 H             0.56    0.05    0.00   0.00   0.00   0.00   0.00    0.62

          ---------------------
          ELECTROSTATIC MOMENTS
          ---------------------

 POINT   1           X           Y           Z (BOHR)    CHARGE
                -0.000002   -0.000005   -0.177185        1.00 (A.U.)
         DX          DY          DZ         /D/  (DEBYE)
    -0.371539   -0.884722    2.106827    2.315058
 ...... END OF PROPERTY EVALUATION ......
 CPU     0: STEP CPU TIME=     0.01 TOTAL CPU TIME=         12.0 (      0.2 MIN)
 TOTAL WALL CLOCK TIME=         12.0 SECONDS, CPU UTILIZATION IS   100.00%

     -------------------------------------------------
     GMC-PT/GMC-QDPT or general MCSCF input parameters
     -------------------------------------------------
 # of frozen core orbs. =         0 ->         0
 # of doubly occ. orbs. =         1
 # of active      orbs. =         7
 # of virtual     orbs. =        21
 # of active electrons  =         7
 # of states in CI      =         3
 Highest state in CI    =         3
 kstate =  1 1 1
 avecoe =  0.333 0.333 0.333
 State symmetry           = A           
 Assigned symmetry number = 1

 <<<Act. MO sym.: 1111111

 <<<Division of 1-ext.:  0
 <<<Division of 2-ext.:  0

     ------------------------
     Orbital canonicalization
     ------------------------

 MOs are canonicalized for core, virtual, and invariant-active orbital spaces.
 This is a part of the GMC-QDPT calculation.
 SCHWARZ INEQUALITY OVERHEAD:       465 INTEGRALS, T=        0.00
 DIRECT TRANSFORMATION SKIPS AO INTEGRAL STORAGE ON DISK.

 Averaged energy =     -55.712477117

 State #    1  Energy =     -55.851715706  S =  0.500
 State #    2  Energy =     -55.707042343  S =  0.500
 State #    3  Energy =     -55.578673301  S =  0.500

 Orbital energies for filled orbital space
  -15.975413
 Orbital energies for active orbital space
   -1.485114  -0.945684  -0.827268  -0.711958   0.324595
    0.355713   0.107558
 Orbital energies for external orbital space
    0.160453   0.211144   0.239129   0.534046   0.631222
    0.708012   0.776881   1.006516   1.043198   1.138718
    1.333292   1.364191   1.646364   1.720980   1.866273
    1.938427   2.123151   2.202295   2.495943   2.623914
    3.109679

 Zero values mean non-canonical orbitals.
 ... done with orbital canonicalization ...
 CPU     0: STEP CPU TIME=     0.65 TOTAL CPU TIME=         12.6 (      0.2 MIN)
 TOTAL WALL CLOCK TIME=         12.6 SECONDS, CPU UTILIZATION IS    99.84%

     --------------------------------------------
     PARTIAL TWO ELECTRON INTEGRAL TRANSFORMATION
     --------------------------------------------

 NUMBER OF CORE MOLECULAR ORBITALS     =    0
 NUMBER OF OCCUPIED MOLECULAR ORBITALS =    8
 TOTAL NUMBER OF MOLECULAR ORBITALS    =   29
 TOTAL NUMBER OF ATOMIC ORBITALS       =   30
 THRESHOLD FOR KEEPING TRANSFORMED 2E- INTEGRALS = 1.000E-09
 AO INTEGRALS WILL BE CALCULATED IN DIRECT MODE...
 DIRECT TRANSFORMATION SKIPS AO INTEGRAL STORAGE ON DISK.
 SCHWARZ INEQUALITY OVERHEAD:       465 INTEGRALS, T=        0.00

 PLAN A: REQUIREMENTS FOR FULLY IN-MEMORY TRANSFORMATION:
 # OF WORDS AVAILABLE =            100000000
 # OF WORDS NEEDED    =               221798

 PARALLEL ONLY WORKS WITH THE SEGMENTED ALGORITHM.
 ADJUSTING MEMORY TO USE SEGMENTED ALGORITHM.


 PLAN B: REQUIREMENTS FOR THE SEGMENTED TRANSFORMATION:
       MINIMUM=         124148 WORDS FOR 1 MOLECULAR ORBITAL PER PASS
       MAXIMUM=         221798 WORDS FOR ALL MOLECULAR ORBITALS IN 1 PASS
              (          13950 EXTRA WORDS INCLUDES 1 EXTRA ORBITAL/PASS)
 THIS RUN USES=         221798 WORDS,
 DISTRIBUTING   1 PASSES EACH CONTAINING     8 ORBITALS OVER   1 PROCESSORS.

 CHOOSING SEGMENTED PARTIAL TRANSFORMATION...
 DIRECT TRANSFORMATION SKIPS AO INTEGRAL STORAGE ON DISK.
 PASS #   1 TOOK        0.05 SECONDS.
 TOTAL NUMBER OF TRANSFORMED 2E- INTEGRALS KEPT =        29226
 ... END OF INTEGRAL TRANSFORMATION ...
 CPU     0: STEP CPU TIME=     0.05 TOTAL CPU TIME=         12.7 (      0.2 MIN)
 TOTAL WALL CLOCK TIME=         12.7 SECONDS, CPU UTILIZATION IS    99.92%

     --------     ------------------------------------------
     GMC-QDPT     Program written by H.Nakano (Kyushu Univ.)
     --------     ------------------------------------------

 *** Reference space

 Reference type: ORMAS (= Occupation restricted multiple active space)
 # of orbitals          =  7
 # of minimum electrons =  7
 # of maximum electrons =  7
 State symmetry    =    1 (input)
 2*Sz              =    1 (input)
 Spin multiplicity =    2 (input)
 Dimension of reference space =      1225  (from      3432 walks)

 Dimension of reference space =      1225  (from      1225 walks)

 <<<Ionized spaces for Ref-CI:
      0:         1225 /   -1-0:         1960 /  0-1-0:         2891

 ***                    ***
 *** Reference space CI ***
 ***                    ***

 Converged after   34 iterations

 Reference wavefunctions:

 State #    1  Energy =     -55.851715706  S =  0.500

      Det      Coef    Occupancy (Ignoring core)
      ---      ----    --------- --------- -----
        1    0.971786  11110001110000
       36    0.081039  11110001101000
      143    0.053146  11011001100100
      393    0.052740  10110101010010
      717    0.052350  11010011100001
      753    0.052133  10110011010001

 State #    2  Energy =     -55.707042343  S =  0.500

      Det      Coef    Occupancy (Ignoring core)
      ---      ----    --------- --------- -----
        1   -0.085552  11110001110000
       36    0.974704  11110001101000
      122   -0.050662  11010010111000
      463    0.054794  10110101001010
      823    0.055799  10110011001001

 State #    3  Energy =     -55.578673301  S =  0.500

      Det      Coef    Occupancy (Ignoring core)
      ---      ----    --------- --------- -----
       71    0.975695  11110001011000
      123    0.050118  10110010111000
      248   -0.054801  11011001001100
      822   -0.054541  11010011001001

 Davidson method: CPU/Wall time =           0.45 /           0.45 sec.

 Oscillator strength (invalid if E(1)/=E(GS)):
 -----------------------------------------
   State                        f
 -----------------------------------------
     2     F(REF-CI)=        0.0036964909
     3     F(REF-CI)=        0.0040685376
 -----------------------------------------

 Dipole moment matrix elements, x, y, z, in A.U.

 Dimension of ionized spaces for PT:
 (N-2) space:         1715 /  (N-1) space:         2842 /  N space:         2891
 (N+1) space:         2842 /  (N+2) space:         1715

 <<<Ionized spaces for internal:
         0:         1225 /      -1-0:         1960 /     0-1-0:         2891
  -1-0-1-0:         2842 / 0-1-0-1-0:         3381

 Diagonal elements of averaged one-particle density matrix:
       2       3       4       5       6       7       8
  0.9929  0.9853  0.9844  0.9904  0.0132  0.0125  0.0212
  0.9880  0.6597  0.6573  0.6611  0.0103  0.0089  0.0148

 Orbital energies:
 -------- Doubly-occupied orbitals (highest several orbs.) -------
             1
 -1.597541D+01
 -------- Active orbitals ----------------------------------------
             2            3            4            5            6
 -1.485114D+00-9.456840D-01-8.272677D-01-7.119581D-01 3.245949D-01
             7            8
  3.557132D-01 1.075577D-01
 -------- External orbitals (lowest several orbs.) ---------------
             9           10           11           12           13
  1.604525D-01 2.111443D-01 2.391292D-01 5.340457D-01 6.312222D-01
            14           15           16           17           18
  7.080121D-01 7.768815D-01 1.006516D+00 1.043198D+00 1.138718D+00

 *** Quasi-degeneracy checking

 === Det (|Ci| > 1.0D-01 and dE < 5.0D-03)

 # of small denominators (single excitations)
 State       dEmin  dE < 5.0D-03  dE < 5.0D-04  dE < 5.0D-05  dE < 5.0D-06
 ----- ----------- ------------- ------------- ------------- -------------
     1    5.00D-03             0             0             0             0
     2    5.00D-03             0             0             0             0
     3    5.00D-03             0             0             0             0

 # of small denominators (double excitations)
 State       dEmin  dE < 5.0D-03  dE < 5.0D-04  dE < 5.0D-05  dE < 5.0D-06
 ----- ----------- ------------- ------------- ------------- -------------
     1    5.00D-03             0             0             0             0
     2    5.00D-03             0             0             0             0
     3    5.00D-03             0             0             0             0

 *** Zeroth-Order Setup (Granovsky's zeroth-order vectors)
 Zeroth-order effective Hamiltonian
  (= Sum_i e(i)*<I|a+(i)a(i)|J> ):
                   1            2            3
     1 -7.118650D+00
     2  1.726516D-02-7.020549D+00
     3  5.049050D-04 3.560952D-03-6.897984D+00

 Zeroth-order vectors:
 State #    1
       MC st            1           2           3
       Coeff    9.857D-01  -1.684D-01   4.565D-04
 State #    2
       MC st            2           1           3
       Coeff   -9.853D-01  -1.684D-01   3.002D-02
 State #    3
       MC st            3           2           1
       Coeff    9.995D-01   2.966D-02   4.606D-03

 *** GMC-QDPT computation

 (Integral reading:  CPU/Wall time =           0.00 /           0.00 sec.)

 One-external:
   0 -ionized terms: CPU/Wall time =           0.03 /           0.03 sec.
 (-1)-ionized terms: CPU/Wall time =           0.08 /           0.09 sec.
 (+1)-ionized terms: CPU/Wall time =           0.03 /           0.02 sec.
 (+1)-ionized terms: CPU/Wall time =           0.00 /           0.01 sec.
 (+2)-ionized terms: CPU/Wall time =           0.01 /           0.00 sec.

 Internal:
 # of macro loops for internal contribution =         1 (input)
 Loop:    1
 Dimension of internal CISD space     =         0  (after screening)
 Space construction: CPU/Wall time =           0.01 /           0.02 sec.
 Internal terms:     CPU/Wall time =           0.00 /           0.00 sec.

 Two-external:
   0 -ionized terms: CPU/Wall time =           0.06 /           0.06 sec.
 (-1)-ionized terms: CPU/Wall time =           1.00 /           1.00 sec.
 (-2)-ionized terms: CPU/Wall time =           0.16 /           0.17 sec.

 Total time:         CPU/Wall time =           1.38 /           1.40 sec.

 ***                  ***
 *** GMC-QDPT Results ***
 ***                  ***

 Diagonal elements of effective Hamiltonian:
 Heff(  1) =   -55.94704596
 Heff(  2) =   -55.81842655
 Heff(  3) =   -55.68955229

 Off-diagonal elements of effective Hamiltonian:
                   1            2
     2  2.130051D-02
     3 -2.999544D-04 3.769389D-03

 ******** GMC-QDPT energies ********
 ----------------------------------------------------------------------------
   State                        1st order                           2nd order
 ----------------------------------------------------------------------------
     1     E(REF-CI)=      -55.8517157064   E(GMC-QDPT2)=      -55.9504848117
     2     E(REF-CI)=      -55.7070423428   E(GMC-QDPT2)=      -55.8150982608
     3     E(REF-CI)=      -55.5786733012   E(GMC-QDPT2)=      -55.6894417267
 ----------------------------------------------------------------------------

 Excitation energies (invalid if E(1)/=E(GS)):
 ----------------------------------------------------------------------------
   State                        1st order                           2nd order
 ----------------------------------------------------------------------------

     TZ Sorted GMC-PT ENERGIES:
         1      -55.9504848117
         2      -55.8150982608
         3      -55.6894417267
     2     E(REF-CI)=        3.9367648 eV   E(GMC-QDPT2)=        3.6840576 eV
     3     E(REF-CI)=        7.4298661 eV   E(GMC-QDPT2)=        7.1033478 eV
 ----------------------------------------------------------------------------

 Main characters of perturbed GMC-QDPT states:

 State #    1  Energy =     -55.950484812  S =  0.500

      Det      Coef    Occupancy (Ignoring core)
      ---      ----    --------- --------- -----
        1    0.972530  11110001110000
       36    0.072096  11110001101000
      143    0.053257  11011001100100
      393    0.052755  10110101010010
      717    0.052140  11010011100001
      753    0.052201  10110011010001

 State #    2  Energy =     -55.815098261  S =  0.500

      Det      Coef    Occupancy (Ignoring core)
      ---      ----    --------- --------- -----
        1   -0.076619  11110001110000
       36    0.975417  11110001101000
      122   -0.050664  11010010111000
      463    0.054828  10110101001010
      823    0.055821  10110011001001

 State #    3  Energy =     -55.689441727  S =  0.500

      Det      Coef    Occupancy (Ignoring core)
      ---      ----    --------- --------- -----
       71    0.975703  11110001011000
      123    0.050115  10110010111000
      248   -0.054791  11011001001100
      822   -0.054544  11010011001001

 <<<Max |V/de| = 2.472D-02  Thresh = 1.000D+00

 Oscillator strength (invalid if E(1)/=E(GS)):
 ----------------------------------------------------------------------------
   State                        1st order                           2nd order
 ----------------------------------------------------------------------------
     2     F(REF-CI)=        0.0036964909     F(GMC-PT2)=        0.0035574551
     3     F(REF-CI)=        0.0040685376     F(GMC-PT2)=        0.0040104787
 ----------------------------------------------------------------------------

 Dipole moment matrix elements, x, y, z, in A.U.
States    1    1       -0.1341291428       -0.3237573418        0.6510858260
States    1    2        0.0248346094        0.0114525794        0.1966379998
States    1    3       -0.1216659777        0.0863006638        0.0281870402
States    2    1        0.0248346094        0.0114525794        0.1966379998
States    2    2       -0.2246574216       -0.3101208200        0.3592054271
States    2    3        0.2193281178       -0.0992111004       -0.0014349013
States    3    1       -0.1216659777        0.0863006638        0.0281870402
States    3    2        0.2193281178       -0.0992111004       -0.0014349013
States    3    3       -0.1450139213       -0.5207045131        0.3152417504

 Oscillator strength (valid only when positive): 
 ----------------------------------------------------------------------------
  States                        1st order                           2nd order
 ----------------------------------------------------------------------------
  1  1     F(REF-CI)=        0.0000000000     F(GMC-PT2)=        0.0000000000
  1  2     F(REF-CI)=       -0.0036964909     F(GMC-PT2)=       -0.0035574551
  1  3     F(REF-CI)=       -0.0040685376     F(GMC-PT2)=       -0.0040104787
  2  1     F(REF-CI)=        0.0036964909     F(GMC-PT2)=        0.0035574551
  2  2     F(REF-CI)=        0.0000000000     F(GMC-PT2)=        0.0000000000
  2  3     F(REF-CI)=       -0.0050169479     F(GMC-PT2)=       -0.0048545077
  3  1     F(REF-CI)=        0.0040685376     F(GMC-PT2)=        0.0040104787
  3  2     F(REF-CI)=        0.0050169479     F(GMC-PT2)=        0.0048545077
  3  3     F(REF-CI)=        0.0000000000     F(GMC-PT2)=        0.0000000000
 CPU     0: STEP CPU TIME=     1.91 TOTAL CPU TIME=         14.6 (      0.2 MIN)
 TOTAL WALL CLOCK TIME=         14.6 SECONDS, CPU UTILIZATION IS    99.86%

     !!! DIABATIZATION FOR REF CI STATES !!!

 *******************************************************
          $DMO GROUP FOUND IN THE INPUT.
        DIABATIZATION OF ADIABATIC STATES BEGINS.
     PROGRAMMED BY TAO ZENG (CARLETON UNIVERSITY).
               Email: toby.zeng@carleton.ca
     See T. Zeng, J. Chem. Phys. 2017, 146, 144103
 *******************************************************

 *************************************************************************
     STEP 1: TRANSFORMATION OF ADIABATIC STATES TO THE DMO REPRESENTATION
         See Atchity and Ruedenberg, J. Chem. Phys. 1999, 111, 2910
 *************************************************************************

Read in Diabatic Molecualr Orbitals:

                      1          2          3          4          5

    1  N  1  S    0.008609   0.000000   0.000000  -0.013219   0.279491
    2  N  1  S    0.442914  -0.000000   0.000000  -0.184329   0.867803
    3  N  1  S    0.276913   0.000000  -0.000000  -0.288315   0.144236
    4  N  1  X   -0.000000   0.493155  -0.024636  -0.000000  -0.000000
    5  N  1  Y    0.000000   0.024636   0.493155  -0.000000   0.000000
    6  N  1  Z    0.090197   0.000000   0.000000   0.593421   0.705309
    7  N  1  X   -0.000000   0.210628  -0.010522   0.000000   0.000000
    8  N  1  Y    0.000000   0.010522   0.210628  -0.000000  -0.000000
    9  N  1  Z   -0.004381   0.000000   0.000000   0.381592  -0.106092
   10  N  1 XX   -0.000457   0.010719  -0.000535  -0.012387   0.006153
   11  N  1 YY   -0.000457  -0.010719   0.000535  -0.012387   0.006153
   12  N  1 ZZ    0.000914  -0.000000   0.000000   0.024773  -0.012306
   13  N  1 XY    0.000000  -0.000618  -0.012377  -0.000000   0.000000
   14  N  1 XZ   -0.000000   0.026529  -0.001325  -0.000000   0.000000
   15  N  1 YZ    0.000000   0.001325   0.026529  -0.000000   0.000000
   16  H  2  S    0.194462  -0.176074   0.343485   0.112865  -0.523343
   17  H  2  S    0.003574  -0.023812   0.046452   0.024014  -0.054445
   18  H  2  X    0.018760   0.009101   0.022834   0.009336  -0.039151
   19  H  2  Y   -0.032493   0.022287  -0.020044  -0.016171   0.067811
   20  H  2  Z   -0.009251   0.008464  -0.016511   0.018769  -0.010566
   21  H  3  S    0.194462  -0.209430  -0.324227   0.112865  -0.523343
   22  H  3  S    0.003574  -0.028322  -0.043847   0.024014  -0.054445
   23  H  3  X    0.018760   0.006781  -0.023627   0.009336  -0.039151
   24  H  3  Y    0.032493  -0.024174  -0.017723   0.016171  -0.067811
   25  H  3  Z   -0.009251   0.010067   0.015585   0.018769  -0.010566
   26  H  4  S    0.194462   0.385503  -0.019258   0.112865  -0.523343
   27  H  4  S    0.003574   0.052134  -0.002604   0.024014  -0.054445
   28  H  4  X   -0.037519  -0.032295   0.001613  -0.018672   0.078302
   29  H  4  Y    0.000000   0.001067   0.021353  -0.000000   0.000000
   30  H  4  Z   -0.009251  -0.018530   0.000926   0.018769  -0.010566

                      6          7

    1  N  1  S    0.000000  -0.000000
    2  N  1  S    0.000000  -0.000000
    3  N  1  S   -0.000000   0.000000
    4  N  1  X   -0.930415  -0.002083
    5  N  1  Y   -0.002083   0.930415
    6  N  1  Z   -0.000000   0.000000
    7  N  1  X   -0.046866  -0.000105
    8  N  1  Y   -0.000105   0.046866
    9  N  1  Z   -0.000000   0.000000
   10  N  1 XX    0.001538   0.000003
   11  N  1 YY   -0.001538  -0.000003
   12  N  1 ZZ   -0.000000   0.000000
   13  N  1 XY   -0.000004   0.001776
   14  N  1 XZ    0.039985   0.000090
   15  N  1 YZ    0.000090  -0.039985
   16  H  2  S   -0.362630  -0.631354
   17  H  2  S   -0.065964  -0.114846
   18  H  2  X    0.002763  -0.037520
   19  H  2  Y    0.037435   0.040736
   20  H  2  Z    0.001882   0.003276
   21  H  3  S   -0.365454   0.629724
   22  H  3  S   -0.066477   0.114549
   23  H  3  X    0.002595   0.037532
   24  H  3  Y   -0.037617   0.040567
   25  H  3  Z    0.001896  -0.003268
   26  H  4  S    0.728084   0.001630
   27  H  4  S    0.132441   0.000297
   28  H  4  X   -0.062317  -0.000140
   29  H  4  Y    0.000055  -0.024345
   30  H  4  Z   -0.003778  -0.000008

NUMBER OF SUB ACTIVE SPACES:   1
ROTATE ACTIVE MOS TO DMOS IN EACH SUB-SPACE

SPACE  1:

OVERLAP BETWEEN ORTHONORMAL AND PRE-ORTHONORMAL REF. DMOS

             1           2           3           4           5

    1    0.9697531  -0.0235457  -0.0377088  -0.0096993   0.0098685
    2   -0.0235457   0.9739246  -0.0642961  -0.0238997   0.0264550
    3   -0.0377088  -0.0642961   0.9449975  -0.0445351   0.0628936
    4   -0.0096993  -0.0238997  -0.0445351   0.9945461  -0.0139950
    5    0.0098685   0.0264550   0.0628936  -0.0139950   1.1370925
    6   -0.0017285   0.0039419  -0.0470119  -0.0168435  -0.0425415
    7    0.0015663   0.0561876   0.0218924   0.0454456   0.0390441

             6           7

    1   -0.0017285   0.0015663
    2    0.0039419   0.0561876
    3   -0.0470119   0.0218924
    4   -0.0168435   0.0454456
    5   -0.0425415   0.0390441
    6    1.0625975  -0.0177932
    7   -0.0177932   1.0832689
REFERENCE DMOS AFTER ORTHONORMALIZATION:

                      1          2          3          4          5

    1  N  1  S    0.005458  -0.007529  -0.016614  -0.010184   0.247311
    2  N  1  S    0.445395  -0.015795  -0.040292  -0.171157   0.761438
    3  N  1  S    0.280903  -0.004695  -0.010840  -0.286392   0.121345
    4  N  1  X    0.010105   0.511537  -0.031099  -0.002656  -0.041874
    5  N  1  Y    0.019138   0.011224   0.508296  -0.015933  -0.056761
    6  N  1  Z    0.092624   0.002251  -0.006598   0.608965   0.630189
    7  N  1  X    0.005444   0.217756   0.002604   0.005103  -0.006467
    8  N  1  Y    0.009565   0.024333   0.225905   0.009044  -0.013952
    9  N  1  Z    0.001618   0.014408   0.025637   0.384634  -0.089724
   10  N  1 XX   -0.000414   0.010517  -0.000707  -0.012134   0.005118
   11  N  1 YY   -0.000993  -0.011630  -0.001328  -0.012793   0.005521
   12  N  1 ZZ    0.001407   0.001113   0.002034   0.024926  -0.010639
   13  N  1 XY   -0.000580  -0.001682  -0.013389  -0.000736   0.000687
   14  N  1 XZ    0.000833   0.027332   0.002408   0.001459   0.000680
   15  N  1 YZ    0.001387   0.005623   0.029607   0.003214  -0.000410
   16  H  2  S    0.220296  -0.097704   0.400049   0.145169  -0.473344
   17  H  2  S    0.006281  -0.012354   0.052548   0.029396  -0.048876
   18  H  2  X    0.021418   0.015124   0.029896   0.012451  -0.035179
   19  H  2  Y   -0.034893   0.016025  -0.025407  -0.017540   0.060878
   20  H  2  Z   -0.009703   0.007925  -0.015922   0.018040  -0.008338
   21  H  3  S    0.184383  -0.253424  -0.351524   0.052756  -0.470498
   22  H  3  S    0.001191  -0.036693  -0.050571   0.014238  -0.050219
   23  H  3  X    0.018969   0.004997  -0.022081   0.006595  -0.034608
   24  H  3  Y    0.032823  -0.025389  -0.017353   0.011862  -0.061010
   25  H  3  Z   -0.008191   0.012396   0.018845   0.020037  -0.010062
   26  H  4  S    0.221216   0.419749   0.086744   0.134695  -0.449907
   27  H  4  S    0.006453   0.055879   0.011748   0.027556  -0.044910
   28  H  4  X   -0.041006  -0.036965  -0.010765  -0.020522   0.068317
   29  H  4  Y    0.001085   0.004089   0.023633   0.002233  -0.000560
   30  H  4  Z   -0.009704  -0.018552   0.000581   0.018154  -0.008733

                      6          7

    1  N  1  S    0.008914  -0.007622
    2  N  1  S    0.026456  -0.018840
    3  N  1  S    0.000442   0.007705
    4  N  1  X   -0.881262  -0.040697
    5  N  1  Y    0.032246   0.851257
    6  N  1  Z    0.033932  -0.047821
    7  N  1  X   -0.045171  -0.012175
    8  N  1  Y    0.010037   0.037710
    9  N  1  Z    0.003352  -0.014115
   10  N  1 XX    0.001386  -0.000180
   11  N  1 YY   -0.001430   0.000943
   12  N  1 ZZ    0.000045  -0.000762
   13  N  1 XY   -0.000542   0.001995
   14  N  1 XZ    0.037673  -0.000852
   15  N  1 YZ    0.000775  -0.037911
   16  H  2  S   -0.349225  -0.580925
   17  H  2  S   -0.062979  -0.106954
   18  H  2  X    0.002100  -0.035275
   19  H  2  Y    0.036759   0.036482
   20  H  2  Z    0.001015   0.002510
   21  H  3  S   -0.366023   0.610033
   22  H  3  S   -0.064623   0.108819
   23  H  3  X    0.000796   0.035790
   24  H  3  Y   -0.037603   0.040153
   25  H  3  Z    0.002399  -0.004467
   26  H  4  S    0.671944  -0.000737
   27  H  4  S    0.123594  -0.000379
   28  H  4  X   -0.056650  -0.000467
   29  H  4  Y    0.000708  -0.023226
   30  H  4  Z   -0.003531   0.000452

 -------------------------------------------
       MAXIMIZING MORMO OVERLAP TERM        
 -------------------------------------------
   SWEEP    VALUE       PROGRESS
     0     4.26483
     1     6.84931     2.58448612
     2     6.94476     0.09544427
     3     6.94482     0.00006467
     4     6.94482     0.00000000
     5     6.94482    -0.00000000
     6     6.94482     0.00000000
 THE ROTATION IS DONE
ACTIVE ORBITALS AFTER MORMO:

                      1          2          3          4          5

    1  N  1  S    0.003312  -0.015889  -0.028324  -0.012811   0.195980
    2  N  1  S    0.416638  -0.042410  -0.070590  -0.191920   0.703267
    3  N  1  S    0.339907   0.051863   0.069516  -0.265952   0.188826
    4  N  1  X   -0.004032   0.481601  -0.055323  -0.020947  -0.023459
    5  N  1  Y   -0.001616  -0.013649   0.463210  -0.044913  -0.022773
    6  N  1  Z    0.079316  -0.014877  -0.036990   0.604811   0.632991
    7  N  1  X    0.019769   0.240720   0.042391   0.031080  -0.027106
    8  N  1  Y    0.029121   0.065207   0.269471   0.063361  -0.059644
    9  N  1  Z    0.031083   0.042713   0.077588   0.385187  -0.089704
   10  N  1 XX    0.002579   0.008972   0.012442  -0.007410  -0.018307
   11  N  1 YY   -0.002459  -0.008576  -0.012186  -0.014736   0.013561
   12  N  1 ZZ   -0.000120  -0.000396  -0.000256   0.022146   0.004746
   13  N  1 XY   -0.007349  -0.017610  -0.026341  -0.005602   0.042499
   14  N  1 XZ    0.000069   0.017644   0.000586  -0.002449   0.023171
   15  N  1 YZ   -0.002049   0.003024   0.017004  -0.002247   0.047798
   16  H  2  S    0.190697  -0.139700   0.346025   0.117594  -0.445984
   17  H  2  S    0.009682   0.001081   0.081630   0.037872  -0.071006
   18  H  2  X    0.027389  -0.008928   0.038548   0.012245  -0.042721
   19  H  2  Y   -0.018894   0.026693  -0.004319  -0.005797   0.031526
   20  H  2  Z   -0.003058   0.007095  -0.005533   0.020259  -0.018741
   21  H  3  S    0.181606  -0.229102  -0.333235   0.080099  -0.489260
   22  H  3  S   -0.004178  -0.077938  -0.096933   0.015850  -0.067642
   23  H  3  X    0.014122   0.013206  -0.016295   0.010169  -0.029826
   24  H  3  Y    0.028273  -0.018805  -0.008290   0.018409  -0.043511
   25  H  3  Z   -0.015370   0.017417   0.028132   0.016610  -0.007175
   26  H  4  S    0.190069   0.372224   0.015850   0.112195  -0.423448
   27  H  4  S    0.011629   0.092764   0.042520   0.037422  -0.068286
   28  H  4  X   -0.027557  -0.029236   0.015403  -0.010708   0.046704
   29  H  4  Y    0.015899   0.029018   0.016535   0.008751  -0.019238
   30  H  4  Z   -0.003675  -0.009180   0.006308   0.019352  -0.021544

                      6          7

    1  N  1  S   -0.005893   0.036378
    2  N  1  S   -0.022188   0.092645
    3  N  1  S    0.058755  -0.135875
    4  N  1  X   -0.881801  -0.036444
    5  N  1  Y    0.031672   0.840220
    6  N  1  Z    0.062194  -0.089737
    7  N  1  X   -0.051232  -0.021276
    8  N  1  Y    0.014098   0.061002
    9  N  1  Z   -0.026894   0.020831
   10  N  1 XX   -0.022439  -0.050225
   11  N  1 YY    0.023422   0.042045
   12  N  1 ZZ   -0.000983   0.008181
   13  N  1 XY   -0.051713   0.029593
   14  N  1 XZ    0.046271   0.017423
   15  N  1 YZ   -0.012715  -0.030448
   16  H  2  S   -0.346941  -0.529967
   17  H  2  S   -0.080740  -0.139567
   18  H  2  X   -0.019839  -0.044954
   19  H  2  Y    0.037390   0.019780
   20  H  2  Z   -0.027241  -0.001538
   21  H  3  S   -0.335158   0.585699
   22  H  3  S   -0.110681   0.166310
   23  H  3  X    0.032781   0.040237
   24  H  3  Y   -0.038039   0.011090
   25  H  3  Z    0.009632  -0.011888
   26  H  4  S    0.621384   0.038831
   27  H  4  S    0.176629  -0.006179
   28  H  4  X   -0.051075  -0.019617
   29  H  4  Y    0.028609  -0.021485
   30  H  4  Z    0.010299   0.024664

Actually Used Diabatic Molecualr Orbitals:

                      1          2          3          4          5

    1  N  1  S    0.003312  -0.015889  -0.028324  -0.012811   0.195980
    2  N  1  S    0.416638  -0.042410  -0.070590  -0.191920   0.703267
    3  N  1  S    0.339907   0.051863   0.069516  -0.265952   0.188826
    4  N  1  X   -0.004032   0.481601  -0.055323  -0.020947  -0.023459
    5  N  1  Y   -0.001616  -0.013649   0.463210  -0.044913  -0.022773
[...]
     1    1    0.946547
     2    2   -0.005609
     3    3   -0.006161

WEIGHT OF LISTED PROTOTYPES:   89.60%

     STATE:    2
 Group Ref#    Coefficients
     1    1   -0.005609
     2    2    0.935984
     3    3    0.004866

WEIGHT OF LISTED PROTOTYPES:   87.61%

     STATE:    3
 Group Ref#    Coefficients
     1    1   -0.006161
     2    2    0.004866
     3    3    0.939709

WEIGHT OF LISTED PROTOTYPES:   88.31%

 --------------------------------------------------
 IN DIRECT MAX. DIABATIZATION FOR GMC-QDPT

 DIRECT MAXIMIZATION (DM) WITHOUT TRUNCATING ADIABATS
 EXPANSIONS INTO THE REFERENCE CONFIGURATION SPACE
 --------------------------------------------------

 -------------------------------------------
 - DM DIABT PT HAMILTONIAN MATRIX ELEMENTS -
 -------------------------------------------
                                            
 --- DIABATIC ENERGIES (DIAGONAL ELEMENT) ---       HARTREE            EV
 STATE #  1'S GMC-PT-LEVEL DIABATIC ENERGY=     -55.923841649       0.000000000
 STATE #  2'S GMC-PT-LEVEL DIABATIC ENERGY=     -55.742214167       4.942335527
 STATE #  3'S GMC-PT-LEVEL DIABATIC ENERGY=     -55.788968984       3.670072151

 --- DIABATIC COUPLINGS (OFF DIAGONAL ELEMENTS)---  HATREE            EV
 STATE #  1 &  2'S GMC-PT-LEVEL COUPLING  =       0.021155540       0.575671556
 STATE #  1 &  3'S GMC-PT-LEVEL COUPLING  =       0.050610433       1.377180032
 STATE #  2 &  3'S GMC-PT-LEVEL COUPLING  =      -0.071697916      -1.950999673

 ---------------------------------------
     - ROTATION TO DIABATIC STATES -    
 ---------------------------------------
 ROWS=ADIABATIC, COLUMNS=DIABATIC STATES

             1           2           3

    1   -0.8979796   0.2220061   0.3799288
    2   -0.4361503  -0.5635458  -0.7015618
    3   -0.0583563   0.7956943  -0.6028807

 ---------------------------------------
          - DIABATIC STATES -           
 ---------------------------------------

 State #    1  Energy =     -55.923841649

      Det      Coef        Coefp    Occupancy (Ignoring core)
      ---      ----        ----    --------- --------- -----
        1    0.925522   -0.925522  222+000
        3    0.122236    0.122236  22-++00
      141   -0.117384   -0.117384  22++-00
       17    0.109600    0.109600  22-+00+
       16    0.096646   -0.096646  222000+
       18    0.091125   -0.091125  2-2+00+
      736   -0.087476    0.087476  2+2+00-
      701   -0.079205   -0.079205  22++00-
      717   -0.074308   -0.074308  220+002
      393   -0.072472   -0.072472  202+020
        7   -0.070480   -0.070480  22-+0+0
      351    0.069792    0.069792  22++0-0
        8   -0.063495    0.063495  2-2+0+0
        4    0.062714   -0.062714  2-2++00
      176   -0.059682    0.059682  2+2+-00
        6   -0.046364    0.046364  22200+0
        5    0.042204    0.042204  -22++00
      402    0.038202   -0.038202  2+-+0-+
      215   -0.037052   -0.037052  022+200
      708    0.036741   -0.036741  2-++0+-
      390    0.034710   -0.034710  -+2++-0
      218    0.034074   -0.034074  +-2+-+0
      386    0.032486   -0.032486  2+2+0-0
      705   -0.031923   -0.031923  -2+++0-
      227   -0.031250   -0.031250  +2-+-0+
       76    0.031008    0.031008  2+2-0+0
       51   -0.030395    0.030395  22+-00+
      212    0.030149    0.030149  +220200
        2    0.028084   -0.028084  2220+00
      179   -0.027326   -0.027326  202+200
      122    0.027017    0.027017  +2-200+
     1051   -0.026700   -0.026700  2+++0--
      211   -0.025865   -0.025865  +22+-00
      773    0.024965   -0.024965  +2-++0-
      702    0.024491    0.024491  22+0+0-
       20   -0.024294   -0.024294  22-0+0+
      387   -0.024266    0.024266  2+20+-0
      113   -0.024192    0.024192  +-220+0
      738   -0.023599   -0.023599  2+-++0-
      424   -0.023374   -0.023374  +-2++-0
      158   -0.023226   -0.023226  2-++-0+
       29   -0.022753   -0.022753  2--+0++
      184   -0.022405   -0.022405  -+2+-+0
      159    0.021880   -0.021880  -2++-0+
      751   -0.021102    0.021102  2+20002

 State #    2  Energy =     -55.742214167

      Det      Coef        Coefp    Occupancy (Ignoring core)
      ---      ----        ----    --------- --------- -----
       71   -0.923763    0.923763  2+22000
      246   -0.135662   -0.135662  2++2-00
       73    0.132355   -0.132355  2+-2+00
      736   -0.113621    0.113621  2+2+00-
       86    0.109415    0.109415  2+2-00+
       77   -0.089278    0.089278  2+-20+0
      456    0.080333    0.080333  2++20-0
      806   -0.079585   -0.079585  2++200-
      822    0.078135   -0.078135  2+02002
       88   -0.075179    0.075179  202200+
       87    0.066506   -0.066506  2+-200+
      106   -0.046207   -0.046207  +222000
      813    0.045020   -0.045020  20+20+-
       36    0.044276    0.044276  22+2000
      386    0.043934   -0.043934  2+2+0-0
      316    0.039640    0.039640  ++22-00
      320    0.037773    0.037773  0+22200
       99   -0.035419    0.035419  20-20++
       74   -0.035075    0.035075  2022+00
       76   -0.034981   -0.034981  2+2-0+0
      810   -0.034631   -0.034631  -++2+0-
      332   -0.034331    0.034331  ++-2-0+
      323   -0.033156    0.033156  +022-+0
      122    0.033119    0.033119  +2-200+
      111    0.032952   -0.032952  +22-0+0
       90    0.032568    0.032568  2+--+0+
      317    0.032461   -0.032461  ++2-200
      177    0.032412   -0.032412  2+20200
      180   -0.032198    0.032198  -+2+200
      911    0.029590    0.029590  2+++-0-
      807   -0.029274    0.029274  2++-+0-
      108    0.029170    0.029170  +2-2+00
        6    0.029059   -0.029059  22200+0
      192   -0.028115    0.028115  2+-+-0+
      183   -0.026924    0.026924  202+-+0
       75   -0.026899   -0.026899  -+22+00
      878    0.025497    0.025497  ++-2+0-
      264    0.024994   -0.024994  -++2-0+
      263   -0.023830   -0.023830  20+2-0+
      391    0.022647   -0.022647  2+20020
      821    0.022405   -0.022405  2++-002
       38   -0.022402    0.022402  2202+00
      753    0.021997    0.021997  202+002
      752   -0.021795   -0.021795  2+-+002
      526   -0.021017   -0.021017  ++220-0
      112   -0.020716   -0.020716  +2-20+0

 State #    3  Energy =     -55.788968984

      Det      Coef        Coefp    Occupancy (Ignoring core)
      ---      ----        ----    --------- --------- -----
       36   -0.921536   -0.921536  22+2000
       38   -0.123204    0.123204  2202+00
       51    0.115069   -0.115069  22+-00+
       53   -0.111320   -0.111320  2-+200+
      701   -0.110272   -0.110272  22++00-
       39   -0.098503   -0.098503  2-+2+00
      806    0.093566    0.093566  2++200-
      106   -0.088986   -0.088986  +222000
      463    0.072799   -0.072799  20+2020
       41   -0.071153    0.071153  22+-0+0
      351    0.062574    0.062574  22++0-0
       42    0.062098   -0.062098  22020+0
      246    0.060169    0.060169  2++2-00
       52   -0.059238    0.059238  220200+
       71   -0.044252    0.044252  2+22000
      472   -0.043854   -0.043854  2+020-+
      123    0.043024   -0.043024  +-2200+
       73    0.038334   -0.038334  2+-2+00
      288   -0.037085   -0.037085  +-+2-+0
      285    0.036698   -0.036698  02+2200
      460   -0.036596   -0.036596  -++2+-0
       40   -0.036390    0.036390  -2+2+00
       64    0.035037   -0.035037  2-020++
      297    0.033841   -0.033841  +202-0+
       55   -0.033457   -0.033457  220-+0+
      145   -0.032917   -0.032917  -2++200
      282    0.032527    0.032527  +2+-200
      142    0.032109    0.032109  22+0200
      109    0.030059   -0.030059  +-22+00
      157    0.029168   -0.029168  220+-0+
      249    0.029114   -0.029114  20+2200
       86    0.028848    0.028848  2+2-00+
      457   -0.026544    0.026544  2++-+-0
      718    0.025750   -0.025750  2-++002
       43    0.025541    0.025541  2-+20+0
      148   -0.025512   -0.025512  2-++-+0
      876   -0.025455   -0.025455  ++2200-
       16   -0.024948    0.024948  222000+
      494    0.024797   -0.024797  +-+2+-0
      281    0.023118   -0.023118  +2+2-00
      254    0.022762   -0.022762  -++2-+0
      121   -0.021899    0.021899  +22-00+
      821   -0.021651    0.021651  2++-002
      808    0.021591   -0.021591  2+02+0-
      112   -0.021159   -0.021159  +2-20+0
      859    0.020723   -0.020723  02+2002
      717    0.020378    0.020378  220+002
      843   -0.020323   -0.020323  +202+0-
       46    0.020106   -0.020106  2-+-++0

 ---------------------------------------
      - DIABATIC STATES IN CMO -        
 ---------------------------------------

 State #    1  Energy =     -55.923841649

      Det      Coef        Coefp    Occupancy (Ignoring core)
      ---      ----        ----    --------- --------- -----
        1    0.840016   -0.840016  222+000
       36   -0.489042   -0.489042  22+2000
       71    0.064525   -0.064525  2+22000
      717   -0.056900   -0.056900  220+002
      393   -0.046879   -0.046879  202+020
      716    0.044024    0.044024  22+0002
      753   -0.043735   -0.043735  202+002
      143   -0.042659   -0.042659  220+200
      708    0.036291   -0.036291  2-++0+-
      703    0.035632    0.035632  220++0-
        8   -0.035407    0.035407  2-2+0+0
        3   -0.033188   -0.033188  22-++00
      106   -0.032907   -0.032907  +222000
       16    0.030508   -0.030508  222000+
      719   -0.029651   -0.029651  -2++002
      463    0.028419   -0.028419  20+2020
      823    0.026691   -0.026691  20+2002
      157   -0.025643    0.025643  220+-0+
      215   -0.025407   -0.025407  022+200
      704   -0.024961    0.024961  2-+++0-
      401    0.024342    0.024342  2+200-+
      786    0.023730    0.023730  +220002
      122    0.023513    0.023513  +2-200+
      778   -0.023396   -0.023396  +-2+0+-
      108   -0.023326   -0.023326  +2-2+00
        4    0.022493   -0.022493  2-2++00
      404   -0.021788   -0.021788  -+2+0-+
       43    0.021736    0.021736  2-+20+0
       76    0.021681    0.021681  2+2-0+0
      741   -0.021454    0.021454  2+200+-
      707    0.021392    0.021392  220+0+-
      368   -0.021326   -0.021326  2-++0-+
       37    0.020077   -0.020077  22+-+00

 State #    2  Energy =     -55.742214167

      Det      Coef        Coefp    Occupancy (Ignoring core)
      ---      ----        ----    --------- --------- -----
       71   -0.765752    0.765752  2+22000
       36   -0.549052   -0.549052  22+2000
        1   -0.260735    0.260735  222+000
      248    0.053440   -0.053440  2+02200
      123   -0.046924    0.046924  +-2200+
      262    0.040958    0.040958  2+02-0+
       18    0.040052   -0.040052  2-2+00+
      822    0.040025   -0.040025  2+02002
       86   -0.037805   -0.037805  2+2-00+
      751    0.035763   -0.035763  2+20002
      111    0.032322   -0.032322  +22-0+0
      808   -0.029738    0.029738  2+02+0-
      823    0.027810   -0.027810  20+2002
      249    0.026784   -0.026784  20+2200
       89    0.026507    0.026507  -+2200+
      253    0.026022    0.026022  20+2-+0
      250    0.025892    0.025892  -++2200
      743    0.024357    0.024357  202+0+-
       53    0.023670    0.023670  2-+200+
      320    0.022397    0.022397  0+22200
      754   -0.022004    0.022004  -+2+002
      891    0.021796   -0.021796  ++2-002
      813    0.021043   -0.021043  20+20+-
      752    0.020876    0.020876  2+-+002
      876    0.020417    0.020417  ++2200-
      821   -0.020417    0.020417  2++-002
       78   -0.020204    0.020204  20220+0
      894    0.020178    0.020178  0+22002

 State #    3  Energy =     -55.788968984

      Det      Coef        Coefp    Occupancy (Ignoring core)
      ---      ----        ----    --------- --------- -----
       36   -0.645282   -0.645282  22+2000
       71    0.601501   -0.601501  2+22000
        1   -0.421995    0.421995  222+000
      463    0.045083   -0.045083  20+2020
      122    0.043906    0.043906  +2-200+
      823    0.040635   -0.040635  20+2002
       16   -0.038016    0.038016  222000+
      822   -0.037057    0.037057  2+02002
       88    0.029816   -0.029816  202200+
      108   -0.029676   -0.029676  +2-2+00
      143    0.028347    0.028347  220+200
      751   -0.027947    0.027947  2+20002
      472   -0.027831   -0.027831  2+020-+
      753    0.025941    0.025941  202+002
      107    0.025754   -0.025754  +22-+00
      471    0.025356    0.025356  2++-0-+
      458   -0.024261    0.024261  2+02+-0
      462   -0.023712    0.023712  2+02020
       18   -0.023222    0.023222  2-2+00+
       54   -0.023072    0.023072  -2+200+
       51    0.022047   -0.022047  22+-00+
      157    0.021721   -0.021721  220+-0+
      285    0.021289   -0.021289  02+2200
      123    0.021184   -0.021184  +-2200+
      248   -0.020902    0.020902  2+02200
      841   -0.020834    0.020834  +2+200-
      459   -0.020236    0.020236  20+2+-0

 ---------------------------------------
    -DIABATIC STATES IN PROTOTYPES-     
 ---------------------------------------

     STATE:    1
 Group Ref#    Coefficients
     1    1    0.946547
     2    2   -0.005577
     3    3   -0.006138

WEIGHT OF LISTED PROTOTYPES:   89.60%

     STATE:    2
 Group Ref#    Coefficients
     1    1   -0.005640
     2    2    0.935985
     3    3    0.004875

WEIGHT OF LISTED PROTOTYPES:   87.61%

     STATE:    3
 Group Ref#    Coefficients
     1    1   -0.006183
     2    2    0.004856
     3    3    0.939709

WEIGHT OF LISTED PROTOTYPES:   88.31%

     DIRECT MAX. DIABATIZATION FINISHED    
 CPU     0: STEP CPU TIME=     0.25 TOTAL CPU TIME=         14.8 (      0.2 MIN)
 TOTAL WALL CLOCK TIME=         14.8 SECONDS, CPU UTILIZATION IS    99.93%

DIABATS FOR SPIN-ORBIT CALCULATION ARE READY

TRANSITION DIPOLES BETWEEN ADIABATS (in A.U.):

STATE PAIR      X         Y         Z
    1    1 -0.134129 -0.323757  0.651086
    2    1  0.024835  0.011453  0.196638
    2    2 -0.224657 -0.310121  0.359205
    3    1 -0.121666  0.086301  0.028187
    3    2  0.219328 -0.099211 -0.001435
    3    3 -0.145014 -0.520705  0.315242


TRANSITION DIPOLES BETWEEN DIABATS (in A.U.):

STATE PAIR      X         Y         Z
    1    1 -0.133520 -0.308868  0.751327
    2    1  0.008035 -0.014433  0.004283
    2    2 -0.415665 -0.327525  0.307800
    3    1 -0.013072  0.017220  0.004379
    3    2 -0.108175  0.131849 -0.021957
    3    3  0.045385 -0.518190  0.266406

TRANSITION DIPOLES BETWEEN DIRECT MAX. DIABATS (in A.U.):

STATE PAIR      X         Y         Z
    1    1 -0.133521 -0.308869  0.751328
    2    1  0.008023 -0.014430  0.004268
    2    2 -0.415667 -0.327521  0.307799
    3    1 -0.013071  0.017219  0.004367
    3    2 -0.108170  0.131847 -0.021957
    3    3  0.045387 -0.518193  0.266406
 No $TRANST Group Found.
 Quit without doing spin-orbit coupling
 ..... DONE WITH MP2 ENERGY .....
 CPU     0: STEP CPU TIME=     0.00 TOTAL CPU TIME=         14.8 (      0.2 MIN)
 TOTAL WALL CLOCK TIME=         14.9 SECONDS, CPU UTILIZATION IS    99.87%
            100000000  WORDS OF DYNAMIC MEMORY USED
 EXECUTION OF GAMESS TERMINATED NORMALLY Wed Nov 16 18:27:39 2022
 DDI: 715512 bytes (0.7 MB / 0 MWords) used by master data server.

 ----------------------------------------
 CPU timing information for all processes
 ========================================
 0: 14.448 + 0.396 = 14.844
 ----------------------------------------
Note: The following floating-point exceptions are signalling: IEEE_DENORMAL
 ddikick.x: exited gracefully.
unset echo
----- accounting info -----
Files used on the master node io002 were:
-rw-r--r-- 1 bsonghao nooijen   20724 Nov 16 18:27 /scratch/bsonghao/nh3_diabatization_2d_at_mode_7_8_dist-0.7_-0.3.F05
-rw-r--r-- 1 bsonghao nooijen  363520 Nov 16 18:27 /scratch/bsonghao/nh3_diabatization_2d_at_mode_7_8_dist-0.7_-0.3.F09
-rw-r--r-- 1 bsonghao nooijen 1995920 Nov 16 18:27 /scratch/bsonghao/nh3_diabatization_2d_at_mode_7_8_dist-0.7_-0.3.F10
-rw-r--r-- 1 bsonghao nooijen  131264 Nov 16 18:27 /scratch/bsonghao/nh3_diabatization_2d_at_mode_7_8_dist-0.7_-0.3.F13
-rw-r--r-- 1 bsonghao nooijen  180312 Nov 16 18:27 /scratch/bsonghao/nh3_diabatization_2d_at_mode_7_8_dist-0.7_-0.3.F15
-rw-r--r-- 1 bsonghao nooijen       0 Nov 16 18:27 /scratch/bsonghao/nh3_diabatization_2d_at_mode_7_8_dist-0.7_-0.3.F16
-rw-r--r-- 1 bsonghao nooijen    9808 Nov 16 18:27 /scratch/bsonghao/nh3_diabatization_2d_at_mode_7_8_dist-0.7_-0.3.F70
-rw-r--r-- 1 bsonghao nooijen    9808 Nov 16 18:27 /scratch/bsonghao/nh3_diabatization_2d_at_mode_7_8_dist-0.7_-0.3.F71
-rw-r--r-- 1 bsonghao nooijen   19608 Nov 16 18:27 /scratch/bsonghao/nh3_diabatization_2d_at_mode_7_8_dist-0.7_-0.3.F72
-rw-r--r-- 1 bsonghao nooijen   19608 Nov 16 18:27 /scratch/bsonghao/nh3_diabatization_2d_at_mode_7_8_dist-0.7_-0.3.F73
-rw-r--r-- 1 bsonghao nooijen 1920824 Nov 16 18:27 /scratch/bsonghao/nh3_diabatization_2d_at_mode_7_8_dist-0.7_-0.3.F74
-rw-r--r-- 1 bsonghao nooijen       0 Nov 16 18:27 /scratch/bsonghao/nh3_diabatization_2d_at_mode_7_8_dist-0.7_-0.3.F75
-rw-r--r-- 1 bsonghao nooijen   58848 Nov 16 18:27 /scratch/bsonghao/nh3_diabatization_2d_at_mode_7_8_dist-0.7_-0.3.F76
-rw-r--r-- 1 bsonghao nooijen       0 Nov 16 18:27 /scratch/bsonghao/nh3_diabatization_2d_at_mode_7_8_dist-0.7_-0.3.F77
-rw-r--r-- 1 bsonghao nooijen    1864 Nov 16 18:27 /scratch/bsonghao/nh3_diabatization_2d_at_mode_7_8_dist-0.7_-0.3.F78
-rw-r--r-- 1 bsonghao nooijen   39208 Nov 16 18:27 /scratch/bsonghao/nh3_diabatization_2d_at_mode_7_8_dist-0.7_-0.3.F79
-rw-r--r-- 1 bsonghao nooijen     104 Nov 16 18:27 /scratch/bsonghao/nh3_diabatization_2d_at_mode_7_8_dist-0.7_-0.3.F80
-rw-r--r-- 1 bsonghao nooijen   13472 Nov 16 18:27 /scratch/bsonghao/nh3_diabatization_2d_at_mode_7_8_dist-0.7_-0.3.F81
-rw-r--r-- 1 bsonghao nooijen      16 Nov 16 18:27 /scratch/bsonghao/nh3_diabatization_2d_at_mode_7_8_dist-0.7_-0.3.F82
-rw-r--r-- 1 bsonghao nooijen   19216 Nov 16 18:27 /scratch/bsonghao/nh3_diabatization_2d_at_mode_7_8_dist-0.7_-0.3.F83
-rw-r--r-- 1 bsonghao nooijen   29712 Nov 16 18:27 /scratch/bsonghao/nh3_diabatization_2d_at_mode_7_8_dist-0.7_-0.3.F84
-rw-r--r-- 1 bsonghao nooijen  401576 Nov 16 18:27 /scratch/bsonghao/nh3_diabatization_2d_at_mode_7_8_dist-0.7_-0.3.F85
-rw-r--r-- 1 bsonghao nooijen  903672 Nov 16 18:27 /scratch/bsonghao/nh3_diabatization_2d_at_mode_7_8_dist-0.7_-0.3.F86
-rw-r--r-- 1 bsonghao nooijen     656 Nov 16 18:27 /scratch/bsonghao/nh3_diabatization_2d_at_mode_7_8_dist-0.7_-0.3.F87
-rw-r--r-- 1 bsonghao nooijen   40944 Nov 16 18:27 /scratch/bsonghao/nh3_diabatization_2d_at_mode_7_8_dist-0.7_-0.3.F88
-rw-r--r-- 1 bsonghao nooijen     240 Nov 16 18:27 /scratch/bsonghao/nh3_diabatization_2d_at_mode_7_8_dist-0.7_-0.3.F89
-rw-r--r-- 1 bsonghao nooijen       0 Nov 16 18:27 /scratch/bsonghao/nh3_diabatization_2d_at_mode_7_8_dist-0.7_-0.3.F90
-rw-r--r-- 1 bsonghao nooijen   13760 Nov 16 18:27 /scratch/bsonghao/nh3_diabatization_2d_at_mode_7_8_dist-0.7_-0.3.F91
-rw-r--r-- 1 bsonghao nooijen   22776 Nov 16 18:27 /scratch/bsonghao/nh3_diabatization_2d_at_mode_7_8_dist-0.7_-0.3.F92
-rw-r--r-- 1 bsonghao nooijen   23168 Nov 16 18:27 /scratch/bsonghao/nh3_diabatization_2d_at_mode_7_8_dist-0.7_-0.3.F93
-rw-r--r-- 1 bsonghao nooijen   22776 Nov 16 18:27 /scratch/bsonghao/nh3_diabatization_2d_at_mode_7_8_dist-0.7_-0.3.F94
-rw-r--r-- 1 bsonghao nooijen   13760 Nov 16 18:27 /scratch/bsonghao/nh3_diabatization_2d_at_mode_7_8_dist-0.7_-0.3.F95
-rw-r--r-- 1 bsonghao nooijen   29440 Nov 16 18:27 /scratch/bsonghao/nh3_diabatization_2d_at_mode_7_8_dist-0.7_-0.3.F96
-rw-r--r-- 1 bsonghao nooijen    1184 Nov 16 18:27 /scratch/bsonghao/nh3_diabatization_2d_at_mode_7_8_dist-0.7_-0.3.F97
-rw-r--r-- 1 bsonghao nooijen    9808 Nov 16 18:27 /scratch/bsonghao/nh3_diabatization_2d_at_mode_7_8_dist-0.7_-0.3.F98
-rw-r--r-- 1 bsonghao nooijen   30264 Nov 16 18:27 /scratch/bsonghao/nh3_diabatization_2d_at_mode_7_8_dist-0.7_-0.3.F99
ls: No match.
ls: No match.
ls: No match.
Wed 16 Nov 2022 06:27:42 PM EST
0.309u 0.037s 0:18.22 1.8%	0+0k 48+232io 0pf+0w
