----- GAMESS execution script 'rungms' -----
This job is running on host io002
under operating system Linux at Wed 16 Nov 2022 07:27:51 PM EST
Available scratch disk space (Kbyte units) at beginning of the job is
Filesystem       1K-blocks       Used   Available Use% Mounted on
/dev/sdc1      15378471580 3278917120 11318349060  23% /scratch
GAMESS temporary binary files will be written to /scratch/bsonghao
GAMESS supplementary output files will be written to /home/bsonghao/.gamess_ascii_files/267638
Copying input file nh3_diabatization_2d_at_mode_7_8_dist0.1_-0.6.inp to your run's scratch directory...
cp nh3_diabatization_2d_at_mode_7_8_dist0.1_-0.6.inp /scratch/bsonghao/nh3_diabatization_2d_at_mode_7_8_dist0.1_-0.6.F05
unset echo
/home/bjb2chen/gamess/ddikick.x /home/bjb2chen/gamess/gamess.00.x nh3_diabatization_2d_at_mode_7_8_dist0.1_-0.6 -ddi 1 1 io002 -scr /scratch/bsonghao

 Distributed Data Interface kickoff program.
 Initiating 1 compute processes on 1 nodes to run the following command:
 /home/bjb2chen/gamess/gamess.00.x nh3_diabatization_2d_at_mode_7_8_dist0.1_-0.6 

          ******************************************************
          *         GAMESS VERSION = 02 AUG 2018 (R2)         *
          *             FROM IOWA STATE UNIVERSITY             *
          * M.W.SCHMIDT, K.K.BALDRIDGE, J.A.BOATZ, S.T.ELBERT, *
          *   M.S.GORDON, J.H.JENSEN, S.KOSEKI, N.MATSUNAGA,   *
          *          K.A.NGUYEN, S.J.SU, T.L.WINDUS,           *
          *       TOGETHER WITH M.DUPUIS, J.A.MONTGOMERY       *
          *         J.COMPUT.CHEM.  14, 1347-1363(1993)        *
          **************** 64 BIT LINUX VERSION ****************

  SINCE 1993, STUDENTS AND POSTDOCS WORKING AT IOWA STATE UNIVERSITY
  AND ALSO IN THEIR VARIOUS JOBS AFTER LEAVING ISU HAVE MADE IMPORTANT
  CONTRIBUTIONS TO THE CODE:
     IVANA ADAMOVIC, CHRISTINE AIKENS, YURI ALEXEEV, POOJA ARORA,
     ANDREY ASADCHEV, ROB BELL, PRADIPTA BANDYOPADHYAY, JONATHAN BENTZ,
     BRETT BODE, KURT BRORSEN, CALEB CARLIN, GALINA CHABAN, WEI CHEN,
     CHEOL HO CHOI, PAUL DAY, ALBERT DEFUSCO, NUWAN DESILVA, TIM DUDLEY,
     DMITRI FEDOROV, ALEX FINDLATER, GRAHAM FLETCHER, MARK FREITAG,
     KURT GLAESEMANN, ANASTASIA GUININA,
     DAN KEMP, GRANT MERRILL, NORIYUKI MINEZAWA, JONATHAN MULLIN,
     TAKESHI NAGATA, SEAN NEDD, HEATHER NETZLOFF, BOSILJKA NJEGIC, RYAN OLSON,
     MIKE PAK, BUU PHAM,
     SPENCER PRUITT, LUKE ROSKOP, JIM SHOEMAKER, LYUDMILA SLIPCHENKO,
     TONY SMITH, SAROM SOK LEANG, JIE SONG, TETSUYA TAKETSUGU, SIMON WEBB,
     PENG XU, SOOHAENG YOO, FEDERICO ZAHARIEV

  ADDITIONAL CODE HAS BEEN PROVIDED BY COLLABORATORS IN OTHER GROUPS:
     IOWA STATE UNIVERSITY:
          JOE IVANIC, AARON WEST, LAIMUTIS BYTAUTAS, KLAUS RUEDENBERG
     UNIVERSITY OF TOKYO: KIMIHIKO HIRAO, TAKAHITO NAKAJIMA,
          TAKAO TSUNEDA, MUNEAKI KAMIYA, SUSUMU YANAGISAWA,
          KIYOSHI YAGI, MAHITO CHIBA, SEIKEN TOKURA, NAOAKI KAWAKAMI
     UNIVERSITY OF AARHUS: FRANK JENSEN
     UNIVERSITY OF IOWA: VISVALDAS KAIRYS, HUI LI
     NATIONAL INST. OF STANDARDS AND TECHNOLOGY: WALT STEVENS, DAVID GARMER
     UNIVERSITY OF PISA: BENEDETTA MENNUCCI, JACOPO TOMASI
     UNIVERSITY OF MEMPHIS: HENRY KURTZ, PRAKASHAN KORAMBATH
     UNIVERSITY OF ALBERTA: TOBY ZENG, MARIUSZ KLOBUKOWSKI
     UNIVERSITY OF NEW ENGLAND: MARK SPACKMAN
     MIE UNIVERSITY: HIROAKI UMEDA
     NAT. INST. OF ADVANCED INDUSTRIAL SCIENCE AND TECHNOLOGY: KAZUO KITAURA
     MICHIGAN STATE UNIVERSITY:
          KAROL KOWALSKI, MARTA WLOCH, JEFFREY GOUR, JESSE LUTZ,
          WEI LI, JUN SHEN, J. EMILIANO DEUSTUA, PIOTR PIECUCH
     UNIVERSITY OF MINNESOTA:
          YINAN SHU
     UNIVERSITY OF SILESIA: MONIKA MUSIAL, STANISLAW KUCHARSKI
     FACULTES UNIVERSITAIRES NOTRE-DAME DE LA PAIX:
          OLIVIER QUINET, BENOIT CHAMPAGNE
     UNIVERSITY OF CALIFORNIA - SANTA BARBARA: BERNARD KIRTMAN
     INSTITUTE FOR MOLECULAR SCIENCE:
          KAZUYA ISHIMURA, MICHIO KATOUDA, AND SHIGERU NAGASE
     UNIVERSITY OF NOTRE DAME: ANNA POMOGAEVA, DAN CHIPMAN
     KYUSHU UNIVERSITY:
          HARUYUKI NAKANO,
          FENG LONG GU, JACEK KORCHOWIEC, MARCIN MAKOWSKI, AND YURIKO AOKI,
          HIROTOSHI MORI AND EISAKU MIYOSHI
     PENNSYLVANIA STATE UNIVERSITY:
          TZVETELIN IORDANOV, CHET SWALINA, JONATHAN SKONE,
          SHARON HAMMES-SCHIFFER
     WASEDA UNIVERSITY:
          MASATO KOBAYASHI, TOMOKO AKAMA, TSUGUKI TOUMA,
          TAKESHI YOSHIKAWA, YASUHIRO IKABATA, JUNJI SEINO,
          YUYA NAKAJIMA, HIROMI NAKAI
     NANJING UNIVERSITY: SHUHUA LI
     UNIVERSITY OF NEBRASKA:
          PEIFENG SU, DEJUN SI, NANDUN THELLAMUREGE, YALI WANG, HUI LI
     UNIVERSITY OF ZURICH: ROBERTO PEVERATI, KIM BALDRIDGE
     N. COPERNICUS UNIVERSITY AND JACKSON STATE UNIVERSITY:
          MARIA BARYSZ
     UNIVERSITY OF COPENHAGEN: Jimmy Kromann, CASPER STEINMANN
     TOKYO INSTITUTE OF TECHNOLOGY: HIROYA NAKATA
     NAGOYA UNIVERSITY: YOSHIO NISHIMOTO, STEPHAN IRLE
     MOSCOW STATE UNIVERSITY: VLADIMIR MIRONOV

 EXECUTION OF GAMESS BEGUN Wed Nov 16 19:27:51 2022

            ECHO OF THE FIRST FEW INPUT CARDS -
 INPUT CARD> $system kdiag=3 mwords=100 memddi=1000 parall=.t. $end                         
 INPUT CARD> $contrl runtyp=energy ispher=1 $end                                            
 INPUT CARD> $contrl icut=9 itol=20 inttyp=rysquad qmttol=1.0d-05 nosym=1 $end              
 INPUT CARD> $scf    npunch=2 conv=1.0d-06 dirscf=.t.      $end                             
 INPUT CARD> $contrl scftyp=mcscf  mult=2 maxit=200 icharg=1 mplevl=2 $end                  
 INPUT CARD> $guess  guess=moread norb=29 purify=.t. $end                                   
 INPUT CARD> $basis  gbasis=ccd $end                                                        
 INPUT CARD> $mcscf  cistep=gmcci fullnr=.t. finci=mos                                      
 INPUT CARD>         acurcy=1.d-6 maxit=100 $end                                            
 INPUT CARD> $trans  dirtrf=.t. $end                                                        
 INPUT CARD> $mrmp   mrpt=gmcpt rdvecs=.f. $end                                             
 INPUT CARD> $gmcpt  nmofzc=0 nmodoc=1 nmoact=7 nelact=7 stsym(1)=A                         
 INPUT CARD>         reftyp=ormas nspace=1 mstart(1)=2 mine(1)=7 maxe(1)=7                  
 INPUT CARD>         kstate(1)=1,1,1                                                        
 INPUT CARD>         wstate(1)=1,1,1                                                        
 INPUT CARD>         iwgt=0 thrwgt=-1.0 krot=.f. kszdoe=.f. knospn=.f.                      
 INPUT CARD>         thrde=-1.0 edshft=0.02 $end                                            
 INPUT CARD> $data                                                                          
 INPUT CARD> NH3+ 3 states calculation at NH3 structure.                                    
 INPUT CARD> c1                                                                             
 INPUT CARD>N 7.0 0.03737350800000001 -0.006228902999999999 -0.1693803602                   
 INPUT CARD>H 1.0 -0.732593703 0.5834822578000001 0.3585115881                              
 INPUT CARD>H 1.0 -0.809019008 -0.5699052938 0.31279012510000004                            
 INPUT CARD>H 1.0 1.022297792 0.07297573199999999 0.0980740091                              
 INPUT CARD>$end                                                                            
 INPUT CARD>--- OPTIMIZED RHF      MO-S --- GENERATED AT Mon Nov 14 16:47:08 2022           
 INPUT CARD>E=      -56.3825050291, E(NUC)=   11.8429239490                                 
 INPUT CARD> $VEC                                                                           
 INPUT CARD> 1  1-1.00134066E+00-2.25158504E-03 3.44925845E-03 0.00000000E+00 0.00000000E+00
 INPUT CARD> 1  2-2.13170927E-03 0.00000000E+00 0.00000000E+00 6.57129898E-04-6.87950443E-05
 INPUT CARD> 1  3-6.87950443E-05 1.37590089E-04 0.00000000E+00 0.00000000E+00 0.00000000E+00
 INPUT CARD> 1  4 3.25502815E-04-4.84772356E-04 3.62525460E-04-6.27912517E-04-3.45956485E-04
 INPUT CARD> 1  5 3.25502815E-04-4.84772356E-04 3.62525460E-04 6.27912517E-04-3.45956485E-04
 INPUT CARD> 1  6 3.25502815E-04-4.84772356E-04-7.25050921E-04 0.00000000E+00-3.45956485E-04
 INPUT CARD> 2  1 1.31286642E-02-4.05911371E-01-2.82090992E-01 0.00000000E+00 0.00000000E+00
 INPUT CARD> 2  2-7.71489043E-02 0.00000000E+00 0.00000000E+00 9.73717494E-03 6.62450916E-04
 INPUT CARD> 2  3 6.62450916E-04-1.32490183E-03 0.00000000E+00 0.00000000E+00 0.00000000E+00
 INPUT CARD> 2  4-1.96090317E-01-1.96656153E-02-1.74855877E-02 3.02859263E-02 8.68214399E-03
 INPUT CARD> 2  5-1.96090317E-01-1.96656153E-02-1.74855877E-02-3.02859263E-02 8.68214399E-03
 INPUT CARD> 2  6-1.96090317E-01-1.96656153E-02 3.49711754E-02 0.00000000E+00 8.68214399E-03
 INPUT CARD> 3  1 0.00000000E+00 0.00000000E+00 0.00000000E+00 4.48608762E-01 0.00000000E+00
 INPUT CARD> 3  2 0.00000000E+00 2.18692520E-01 0.00000000E+00 0.00000000E+00 1.30198027E-02
 INPUT CARD> 3  3-1.30198027E-02 0.00000000E+00 0.00000000E+00 2.71832968E-02 0.00000000E+00
 INPUT CARD> 3  4-1.85332726E-01-7.03958951E-02 8.47929477E-03 1.95242443E-02 8.32835058E-03
 INPUT CARD> 3  5-1.85332726E-01-7.03958951E-02 8.47929477E-03-1.95242443E-02 8.32835058E-03
 INPUT CARD> 3  6 3.70665453E-01 1.40791790E-01-2.53376884E-02 0.00000000E+00-1.66567012E-02
 INPUT CARD> 4  1 0.00000000E+00 0.00000000E+00 0.00000000E+00 0.00000000E+00 4.48608762E-01
 INPUT CARD> 4  2 0.00000000E+00 0.00000000E+00 2.18692520E-01 0.00000000E+00 0.00000000E+00
 INPUT CARD> 4  3 0.00000000E+00 0.00000000E+00-1.50339731E-02 0.00000000E+00 2.71832968E-02
 INPUT CARD> 4  4 3.21005698E-01 1.21929267E-01 1.95242443E-02-1.40653607E-02-1.44251263E-02
  100000000 WORDS OF MEMORY AVAILABLE

     BASIS OPTIONS
     -------------
     GBASIS=CCD          IGAUSS=       0      POLAR=NONE    
     NDFUNC=       0     NFFUNC=       0     DIFFSP=       F
     NPFUNC=       0      DIFFS=       F     BASNAM=        


     RUN TITLE
     ---------
  NH3+ 3 states calculation at NH3 structure.                                    

 THE POINT GROUP OF THE MOLECULE IS C1      
 THE ORDER OF THE PRINCIPAL AXIS IS     0

 ATOM      ATOMIC                      COORDINATES (BOHR)
           CHARGE         X                   Y                   Z
 N           7.0     0.0706256893       -0.0117709199       -0.3200824685
 H           1.0    -1.3844013590        1.1026215859        0.6774886649
 H           1.0    -1.5288242440       -1.0769648442        0.5910876281
 H           1.0     1.9318627047        0.1379041372        0.1853330037

          INTERNUCLEAR DISTANCES (ANGS.)
          ------------------------------

                1 N          2 H          3 H          4 H     

   1 N       0.0000000    1.1042095 *  1.1254331 *  1.0236606 *
   2 H       1.1042095 *  0.0000000    1.1568207 *  1.8461010 *
   3 H       1.1254331 *  1.1568207 *  0.0000000    1.9527212 *
   4 H       1.0236606 *  1.8461010 *  1.9527212 *  0.0000000  

  * ... LESS THAN  3.000


     ATOMIC BASIS SET
     ----------------
 THE CONTRACTED PRIMITIVE FUNCTIONS HAVE BEEN UNNORMALIZED
 THE CONTRACTED BASIS FUNCTIONS ARE NOW NORMALIZED TO UNITY

  SHELL TYPE  PRIMITIVE        EXPONENT          CONTRACTION COEFFICIENT(S)

 N         

      1   S       1          9046.0000000    0.000699617413
      1   S       2          1357.0000000    0.005386054630
      1   S       3           309.3000000    0.027391021189
      1   S       4            87.7300000    0.103150591982
      1   S       5            28.5600000    0.278570663317
      1   S       6            10.2100000    0.448294849454
      1   S       7             3.8380000    0.278085928395
      1   S       8             0.7466000    0.015431561233

      2   S       9          9046.0000000   -0.000304990096
      2   S      10          1357.0000000   -0.002408026379
      2   S      11           309.3000000   -0.011944448725
      2   S      12            87.7300000   -0.048925992909
      2   S      13            28.5600000   -0.134472724725
      2   S      14            10.2100000   -0.315112577700
      2   S      15             3.8380000   -0.242857832550
      2   S      16             0.7466000    1.094382206854

      3   S      17             0.2248000    1.000000000000

      4   P      18            13.5500000    0.058905676772
      4   P      19             2.9170000    0.320461106714
      4   P      20             0.7973000    0.753042061792

      5   P      21             0.2185000    1.000000000000

      6   D      22             0.8170000    1.000000000000

 H         

      7   S      23            13.0100000    0.033498726390
      7   S      24             1.9620000    0.234800801174
      7   S      25             0.4446000    0.813682957883

      8   S      26             0.1220000    1.000000000000

      9   P      27             0.7270000    1.000000000000

 H         

     10   S      28            13.0100000    0.033498726390
     10   S      29             1.9620000    0.234800801174
     10   S      30             0.4446000    0.813682957883

     11   S      31             0.1220000    1.000000000000

     12   P      32             0.7270000    1.000000000000

 H         

     13   S      33            13.0100000    0.033498726390
     13   S      34             1.9620000    0.234800801174
     13   S      35             0.4446000    0.813682957883

     14   S      36             0.1220000    1.000000000000

     15   P      37             0.7270000    1.000000000000

 TOTAL NUMBER OF BASIS SET SHELLS             =   15
 NUMBER OF CARTESIAN GAUSSIAN BASIS FUNCTIONS =   30
 NOTE: THIS RUN WILL RESTRICT THE MO VARIATION SPACE TO SPHERICAL HARMONICS.
 THE NUMBER OF ORBITALS KEPT IN THE VARIATIONAL SPACE WILL BE PRINTED LATER.
 NUMBER OF ELECTRONS                          =    9
 CHARGE OF MOLECULE                           =    1
 SPIN MULTIPLICITY                            =    2
 NUMBER OF OCCUPIED ORBITALS (ALPHA)          =    5
 NUMBER OF OCCUPIED ORBITALS (BETA )          =    4
 TOTAL NUMBER OF ATOMS                        =    4
 THE NUCLEAR REPULSION ENERGY IS       11.2797486978

     $CONTRL OPTIONS
     ---------------
 SCFTYP=MCSCF        RUNTYP=ENERGY       EXETYP=RUN     
 MPLEVL=       2     CITYP =NONE         CCTYP =NONE         VBTYP =NONE    
 DFTTYP=NONE         TDDFT =NONE    
 MULT  =       2     ICHARG=       1     NZVAR =       0     COORD =UNIQUE  
 PP    =NONE         RELWFN=NONE         LOCAL =NONE         NUMGRD=       F
 ISPHER=       1     NOSYM =       1     MAXIT =     200     UNITS =ANGS    
 PLTORB=       F     MOLPLT=       F     AIMPAC=       F     FRIEND=        
 NPRINT=       7     IREST =       0     GEOM  =INPUT   
 NORMF =       0     NORMP =       0     ITOL  =      20     ICUT  =       9
 INTTYP=RYSQUAD      GRDTYP=BEST         QMTTOL= 1.0E-05

     $SYSTEM OPTIONS
     ---------------
  REPLICATED MEMORY=   100000000 WORDS (ON EVERY NODE).
 DISTRIBUTED MEMDDI=        1000 MILLION WORDS IN AGGREGATE,
 MEMDDI DISTRIBUTED OVER   1 PROCESSORS IS  1000000000 WORDS/PROCESSOR.
 TOTAL MEMORY REQUESTED ON EACH PROCESSOR=  1100000000 WORDS.
 TIMLIM=      525600.00 MINUTES, OR     365.0 DAYS.
 PARALL= T  BALTYP=  DLB     KDIAG=    3  COREFL= F
 MXSEQ2=     300 MXSEQ3=     150  mem10=         0

          ----------------
          PROPERTIES INPUT
          ----------------

     MOMENTS            FIELD           POTENTIAL          DENSITY
 IEMOM =       1   IEFLD =       0   IEPOT =       0   IEDEN =       0
 WHERE =COMASS     WHERE =NUCLEI     WHERE =NUCLEI     WHERE =NUCLEI  
 OUTPUT=BOTH       OUTPUT=BOTH       OUTPUT=BOTH       OUTPUT=BOTH    
 IEMINT=       0   IEFINT=       0                     IEDINT=       0
                                                       MORB  =       0

     -------------------------------
     INTEGRAL TRANSFORMATION OPTIONS
     -------------------------------
     NWORD  =            0
     CUTOFF = 1.0E-09     MPTRAN =       0
     DIRTRF =       T     AOINTS =DUP     

          ----------------------
          MCSCF INPUT PARAMETERS
          ----------------------
 CONVERGER SELECTION: FOCAS = F  SOSCF = F  FULLNR = T  QUD = F  JACOBI = F
 SECULAR EQUATION METHOD CISTEP = GMCCI   
 --- GENERAL INPUT OPTIONS:
 MAXIT =     100  MICIT =       1  ACURCY= 1.000E-06
 DAMP  =   0.000  CANONC=       T  ENGTOL= 1.000E-10
 EKT   =       F  NPUNCH=       2  NWORD =         0
 REGENERATE CI AFTER CONVERGENCE = NONE    
 DIABATIZATION AFTER CONVERGENCE =        F
 --- INPUT FOR FULLNR CONVERGER:
 METHOD=DM2       FORS  =       F  DROPC =       T
 LINSER=       F  FCORE =       F  NORB  =      30

          ----------------------
          INTEGRAL INPUT OPTIONS
          ----------------------
 NOPK  =       1 NORDER=       0 SCHWRZ=       T

 ------------------------------------------
 MULTIREFERENCE PERTURBATION THEORY CONTROL
 ------------------------------------------
 MRPT=GMCPT    READ CONVERGED MCSCF VECTORS= F


     ------------------------------------------
     THE POINT GROUP IS C1 , NAXIS= 1, ORDER= 1
     ------------------------------------------

 -- VARIATIONAL SPACE WILL BE RESTRICTED TO PURE SPHERICAL HARMONICS ONLY --
 AFTER EXCLUDING CONTAMINANT COMBINATIONS FROM THE CARTESIAN GAUSSIAN BASIS
 SET, THE NUMBER OF SPHERICAL HARMONICS KEPT IN THE VARIATION SPACE IS   29

     DIMENSIONS OF THE SYMMETRY SUBSPACES ARE
 A   =   29

 ..... DONE SETTING UP THE RUN .....
 CPU     0: STEP CPU TIME=     0.03 TOTAL CPU TIME=          0.0 (      0.0 MIN)
 TOTAL WALL CLOCK TIME=          0.1 SECONDS, CPU UTILIZATION IS    60.00%

          ********************
          1 ELECTRON INTEGRALS
          ********************
 TIME TO DO   DIPOLE INTEGRALS=      0.00
 ...... END OF ONE-ELECTRON INTEGRALS ......
 CPU     0: STEP CPU TIME=     0.00 TOTAL CPU TIME=          0.0 (      0.0 MIN)
 TOTAL WALL CLOCK TIME=          0.1 SECONDS, CPU UTILIZATION IS    60.00%

          -------------
          GUESS OPTIONS
          -------------
          GUESS =MOREAD            NORB  =      29          NORDER=       0
          MIX   =       F          PRTMO =       F          PUNMO =       F
          TOLZ  = 1.0E-08          TOLE  = 1.0E-05
          SYMDEN=       F          PURIFY=       T

 INITIAL GUESS ORBITALS GENERATED BY MOREAD   ROUTINE.

 STATISTICS FOR GENERATION OF SYMMETRY ORBITAL -Q- MATRIX
 NUMBER OF CARTESIAN ATOMIC ORBITALS=         30
 NUMBER OF SPHERICAL CONTAMINANTS DROPPED=     1
 NUMBER OF LINEARLY DEPENDENT MOS DROPPED=     0
 TOTAL NUMBER OF MOS IN VARIATION SPACE=      29
 ORBITAL PURIFICATION WILL OCCUR

 SYMMETRIES FOR INITIAL GUESS ORBITALS FOLLOW.   BOTH SET(S).
     5 ORBITALS ARE OCCUPIED (    1 CORE ORBITALS).
     1=A        2=A        3=A        4=A        5=A        6=A        7=A   
     8=A        9=A       10=A       11=A       12=A       13=A       14=A   
    15=A       16=A       17=A       18=A       19=A       20=A       21=A   
    22=A       23=A       24=A       25=A       26=A       27=A       28=A   
    29=A   
 ...... END OF INITIAL ORBITAL SELECTION ......
 CPU     0: STEP CPU TIME=     0.01 TOTAL CPU TIME=          0.0 (      0.0 MIN)
 TOTAL WALL CLOCK TIME=          0.1 SECONDS, CPU UTILIZATION IS    80.00%

                    ----------------------
                    AO INTEGRAL TECHNOLOGY
                    ----------------------
     S,P,L SHELL ROTATED AXIS INTEGRALS, REPROGRAMMED BY
        KAZUYA ISHIMURA (IMS) AND JOSE SIERRA (SYNSTAR).
     S,P,D,L SHELL ROTATED AXIS INTEGRALS PROGRAMMED BY
        KAZUYA ISHIMURA (INSTITUTE FOR MOLECULAR SCIENCE).
     S,P,D,F,G SHELL TO TOTAL QUARTET ANGULAR MOMENTUM SUM 5,
        ERIC PROGRAM BY GRAHAM FLETCHER (ELORET AND NASA ADVANCED
        SUPERCOMPUTING DIVISION, AMES RESEARCH CENTER).
     S,P,D,F,G,L SHELL GENERAL RYS QUADRATURE PROGRAMMED BY
        MICHEL DUPUIS (PACIFIC NORTHWEST NATIONAL LABORATORY).

          --------------------
          2 ELECTRON INTEGRALS
          --------------------

 DIRECT SCF METHOD SKIPS INTEGRAL STORAGE ON DISK.
 DIRECT TRANSFORMATION SKIPS AO INTEGRAL STORAGE ON DISK.
  ...... END OF TWO-ELECTRON INTEGRALS .....
 STEP CPU TIME =     0.02 TOTAL CPU TIME =          0.1 (      0.0 MIN)
 TOTAL WALL CLOCK TIME=          0.1 SECONDS, CPU UTILIZATION IS    75.00%
 DDI: Creating Array [0] - 900 x 36 = 32400 words.
 DDI: Creating Array [1] - 21 x 288 = 6048 words.
 DDI: Creating Array [2] - 36 x 36 = 1296 words.
 DDI: Creating Array [3] - 465 x 36 = 16740 words.

          -----------------
          MCSCF CALCULATION
          -----------------

 ----- NUCLEAR ENERGY ----- =        11.2797486978

     -------------------------------------------------
     GMC-PT/GMC-QDPT or general MCSCF input parameters
     -------------------------------------------------
 # of frozen core orbs. =         0 ->         0
 # of doubly occ. orbs. =         1
 # of active      orbs. =         7
 # of virtual     orbs. =        21
 # of active electrons  =         7
 # of states in CI      =         3
 Highest state in CI    =         3
 kstate =  1 1 1
 avecoe =  0.333 0.333 0.333
 State symmetry           = A           
 Assigned symmetry number = 1

 <<<Act. MO sym.: 1111111

 <<<Division of 1-ext.:  0
 <<<Division of 2-ext.:  0

 *** Reference space

 Reference type: ORMAS (= Occupation restricted multiple active space)
 # of orbitals          =  7
 # of minimum electrons =  7
 # of maximum electrons =  7
 State symmetry    =    1 (input)
 2*Sz              =    1 (input)
 Spin multiplicity =    2 (input)
 Dimension of reference space =      1225  (from      3432 walks)

 Dimension of reference space =      1225  (from      1225 walks)

 <<<Ionized spaces for Ref-CI:
      0:         1225 /   -1-0:         1960 /  0-1-0:         2891

 EVALUATING EXCHANGE INTEGRALS FOR DIRECT INTEGRAL TRANSFORMATION
 SCHWARZ INEQUALITY OVERHEAD:       465 INTEGRALS, T=        0.01

     --------------------------------------------
     PARTIAL TWO ELECTRON INTEGRAL TRANSFORMATION
     --------------------------------------------

 NUMBER OF CORE MOLECULAR ORBITALS     =    1
 NUMBER OF OCCUPIED MOLECULAR ORBITALS =    8
 TOTAL NUMBER OF MOLECULAR ORBITALS    =   29
 TOTAL NUMBER OF ATOMIC ORBITALS       =   30
 THRESHOLD FOR KEEPING TRANSFORMED 2E- INTEGRALS = 1.000E-09

 -------------------------------     ------------------------------
 DISTRIBUTED DATA TRANSFORMATION     PROGRAM WRITTEN BY G. FLETCHER
 -------------------------------     ------------------------------

 THE DISTRIBUTED MEMORY REQUIRED FOR THIS STEP IS MEMDDI=         1 MWORDS
 CREATING DISTRIBUTED STORAGE FOR [VIR OCC|VIR OCC] INTEGRALS
 CREATING DISTRIBUTED STORAGE FOR [VIR OCC|OCC OCC] INTEGRALS
 CREATING DISTRIBUTED STORAGE FOR [OCC OCC|OCC OCC] INTEGRALS
 CREATING DISTRIBUTED STORAGE FOR [VIR VIR|OCC OCC] INTEGRALS
 FOR    1 PROCESSORS, THE REPLICATED MEMORY NEEDED IS       73700 WORDS.
 SCHWARZ INEQUALITY OVERHEAD:       465 INTEGRALS, T=        0.00

      DIRECT 4-INDEX TRANSFORMATION 
      SCHWARZ INEQUALITY TEST SKIPPED          0 INTEGRAL BLOCKS
 ----- FROZEN CORE ENERGY =       -47.6647628601
 ... END OF INTEGRAL TRANSFORMATION ...
 CPU     0: STEP CPU TIME=     0.23 TOTAL CPU TIME=          0.3 (      0.0 MIN)
 TOTAL WALL CLOCK TIME=          0.3 SECONDS, CPU UTILIZATION IS    96.67%

     --------------------------------     -----------------------------
     MCHF NEWTON-RAPHSON OPTIMIZATION     CODE WRITTEN BY MICHEL DUPUIS
     --------------------------------     -----------------------------
     PARALLEL VERSION WRITTEN BY G. FLETCHER (ELORET)
     NASA ADVANCED SUPERCOMPUTING DIVISION, AMES RESEARCH CENTER

 NUMBER OF INDEPENDENT ORBITAL ROTATION PARAMETERS =   175
 ..... DONE SOLVING NEWTON-RAPHSON EQUATIONS .....
 CPU     0: STEP CPU TIME=     0.90 TOTAL CPU TIME=          1.2 (      0.0 MIN)
 TOTAL WALL CLOCK TIME=          1.2 SECONDS, CPU UTILIZATION IS    99.17%
 ..... DONE WITH NTN-RPH ORBITAL ROTATIONS ..... 
 CPU     0: STEP CPU TIME=     0.00 TOTAL CPU TIME=          1.2 (      0.0 MIN)
 TOTAL WALL CLOCK TIME=          1.2 SECONDS, CPU UTILIZATION IS    99.17%
 MAXIMUM MEMORY USED BY NTN-RPH CODE WAS     57645 WORDS.

 ITER     TOTAL ENERGY      DEL(E)  LAGRANGIAN ASYMMETRY   SQCDF  MICIT   DAMP
   1      -55.611602328 -0.611602328  0.130806   13    3 1.203E-01  1   0.0000
   2      -55.661630190 -0.050027862  0.020949   12    5 4.540E-01  1   0.0000
   3      -55.696863896 -0.035233706  0.013292   11    6 2.336E-01  1   0.0215
   4      -55.712533631 -0.015669735  0.004663    9    7 4.820E-02  1   0.0054
   5      -55.714705855 -0.002172225  0.000814   12    5 1.521E-03  1   0.0000
   6      -55.714773915 -0.000068059  0.000277   24    5 1.435E-04  1   0.0000
   7      -55.714781486 -0.000007572  0.000128   22    5 2.556E-05  1   0.0000
   8      -55.714782909 -0.000001423  0.000065   22    5 5.408E-06  1   0.0000
   9      -55.714783220 -0.000000311  0.000034   22    5 1.322E-06  1   0.0000
  10      -55.714783298 -0.000000078  0.000019   22    5 3.727E-07  1   0.0000
  11      -55.714783320 -0.000000022  0.000011   22    5 1.186E-07  1   0.0000
  12      -55.714783327 -0.000000007  0.000006   22    5 4.115E-08  1   0.0000
  13      -55.714783330 -0.000000002  0.000004   22    5 1.508E-08  1   0.0000
  14      -55.714783330 -0.000000001  0.000002   22    5 5.713E-09  1   0.0000
  15      -55.714783331 -0.000000000  0.000001   22    5 2.201E-09  1   0.0000
  16      -55.714783331 -0.000000000  0.000001   12    7 8.411E-10  1   0.0000

          --------------------
          LAGRANGIAN CONVERGED
          --------------------

 FINAL MCSCF ENERGY IS      -55.7147833309 AFTER  16 ITERATIONS

 -MCCI- BASED ON OPTIMIZED ORBITALS
 ----------------------------------

 PLEASE NOTE: IF THE ACTIVE ORBITALS ARE CANONICALIZED BELOW,
 THE FOLLOWING CI EXPANSION COEFFICIENTS AND THE DENSITY DO NOT
 CORRESPOND TO THE PRINTED ORBITALS.  THE PRINTED EXPANSIONS MATCH
 THE ORBITALS USED DURING THE LAST ITERATION.  IF YOU WISH TO SEE
 CI EXPANSIONS BASED ON THE CANONICAL (OR NATURAL) ORBITALS, YOU
 MUST RUN A CI CALCULATION WITH THAT ORBITAL CHOICE READ IN $VEC.

 Averaged energy =     -55.714783331

 State #    1  Energy =     -55.849470529  S =  0.500

      Det      Coef    Occupancy (Ignoring core)
      ---      ----    --------- --------- -----
        1    0.939548  11110001110000
        5   -0.067912  01111001110000
        8   -0.135896  10110101110000
       17    0.127572  11010011110000
       36    0.080067  11110001101000
       71    0.111302  11110001011000
      211    0.051641  11110000110100
      386    0.113183  11110001010010
      701   -0.091097  11110001100001
      717    0.076229  11010011100001

 State #    2  Energy =     -55.748773793  S =  0.500

      Det      Coef    Occupancy (Ignoring core)
      ---      ----    --------- --------- -----
        1    0.080724  11110001110000
       36   -0.959785  11110001101000
       40    0.068014  01111001101000
       43    0.107596  10110101101000
       52   -0.088346  11010011101000
      281   -0.053736  11110000101100
      456   -0.101713  11110001001010
      463   -0.050054  10110101001010

 State #    3  Energy =     -55.546105671  S =  0.500

      Det      Coef    Occupancy (Ignoring core)
      ---      ----    --------- --------- -----
        1    0.107953  11110001110000
       71   -0.957932  11110001011000
       78    0.069040  10110101011000
       87   -0.072961  11010011011000
      122    0.052373  11010010111000
      316   -0.077131  11110000011100
      806   -0.092195  11110001001001
      822    0.083569  11010011001001

 DENSITY MATRIX OVER ACTIVE MO-S

             1           2           3           4           5

    1    1.9750720
    2   -0.0089617   1.6350646
    3    0.0056158   0.0003532   1.6279519
    4    0.0019990  -0.0003979   0.0012518   1.6538822
    5    0.1043839   0.0289218  -0.0145853   0.0010354   0.0317262
    6    0.0105029  -0.1590863   0.0039621  -0.0281636  -0.0003469
    7    0.0029534  -0.0011546  -0.1384248   0.0129372   0.0026238

             6           7

    6    0.0349505
    7   -0.0010905   0.0413525

 FORMING THE "STANDARD FOCK OPERATOR" IN DIRECT AO INTEGRAL MODE...
 ONLY THE    1 CORE AND   21 VIRTUAL ORBITALS WILL BE CANONICALIZED

          ----------------------
          MCSCF NATURAL ORBITALS
          ----------------------

                      1          2          3          4          5
                  -15.9863     1.9810     1.6557     1.6498     1.6400
                     A          A          A          A          A   
    1  N  1  S    1.001161   0.008267  -0.009356   0.004057  -0.000916
    2  N  1  S   -0.001822   0.434849  -0.135706   0.136838  -0.015352
    3  N  1  S   -0.006242   0.322223  -0.229409   0.185740  -0.023653
    4  N  1  X    0.000197  -0.024889   0.267680   0.385847  -0.005382
    5  N  1  Y    0.000042   0.010481  -0.008994   0.002600   0.545916
    6  N  1  Z    0.001183   0.088179   0.526603  -0.257204  -0.003463
    7  N  1  X    0.000052  -0.004198   0.123562   0.110349  -0.005918
    8  N  1  Y    0.000006  -0.000171  -0.013243  -0.000914   0.308338
    9  N  1  Z   -0.000554   0.016050   0.354875  -0.149764  -0.009521
   10  N  1 XX    0.000525   0.003703  -0.007960   0.008605  -0.001679
   11  N  1 YY   -0.000291  -0.003753  -0.012656   0.002718   0.001834
   12  N  1 ZZ   -0.000234   0.000050   0.020617  -0.011322  -0.000155
   13  N  1 XY    0.000051   0.000456   0.001123   0.002121  -0.012321
   14  N  1 XZ   -0.000059  -0.002947   0.009356   0.019260  -0.000430
   15  N  1 YZ    0.000035   0.000204   0.000636  -0.000799   0.024612
   16  H  2  S   -0.001642   0.194469   0.012904  -0.260153   0.285061
   17  H  2  S    0.000291   0.005033   0.017292  -0.037534   0.097960
   18  H  2  X   -0.000628   0.025605   0.009107  -0.007610   0.025454
   19  H  2  Y    0.000541  -0.021287  -0.004418   0.028467  -0.004904
   20  H  2  Z    0.000474  -0.012764   0.023036   0.003229  -0.016449
   21  H  3  S   -0.001560   0.181036   0.002270  -0.256043  -0.280466
   22  H  3  S    0.000318   0.001595   0.017038  -0.036199  -0.096870
   23  H  3  X   -0.000638   0.025547   0.006282  -0.012744  -0.028302
   24  H  3  Y   -0.000493   0.018864   0.001094  -0.027566  -0.003641
   25  H  3  Z    0.000439  -0.009776   0.023562   0.001786   0.013232
   26  H  4  S   -0.002063   0.172839   0.261042   0.282876   0.010499
   27  H  4  S    0.000682  -0.001634   0.040704   0.024578  -0.002160
   28  H  4  X    0.001101  -0.034365  -0.028455  -0.029185  -0.003853
   29  H  4  Y    0.000076  -0.001676  -0.003198  -0.003571   0.019273
   30  H  4  Z    0.000363  -0.002957   0.011906  -0.020177  -0.000390

                      6          7          8
                    0.0296     0.0258     0.0181
                     A          A          A   
    1  N  1  S   -0.059061  -0.160904   0.149871
    2  N  1  S   -0.203435  -0.576220   0.437689
    3  N  1  S   -0.032342  -0.208686  -0.037529
    4  N  1  X    0.019353   0.367353   0.860410
    5  N  1  Y    0.763570  -0.214128   0.104215
    6  N  1  Z   -0.140458  -0.590684   0.165406
    7  N  1  X    0.015787   0.098453   0.100916
    8  N  1  Y   -0.047560  -0.000436   0.007528
    9  N  1  Z    0.017325   0.032381  -0.072882
   10  N  1 XX    0.020618   0.041583  -0.008855
   11  N  1 YY   -0.019563  -0.043262  -0.007419
   12  N  1 ZZ   -0.001054   0.001678   0.016274
   13  N  1 XY    0.045958  -0.008764  -0.009601
   14  N  1 XZ   -0.009212  -0.044270  -0.039507
   15  N  1 YZ   -0.018139   0.009381  -0.009261
   16  H  2  S   -0.484920   0.670568   0.106238
   17  H  2  S   -0.183105   0.122598   0.022228
   18  H  2  X   -0.037393   0.030251  -0.024976
   19  H  2  Y    0.002177  -0.062448  -0.017123
   20  H  2  Z    0.022856   0.010429   0.005669
   21  H  3  S    0.706243   0.351163   0.223946
   22  H  3  S    0.209806   0.022218   0.064408
   23  H  3  X    0.058445   0.013065  -0.007496
   24  H  3  Y    0.025053   0.050785   0.022058
   25  H  3  Z   -0.009992   0.024550   0.006120
   26  H  4  S    0.144527   0.249479  -0.859783
   27  H  4  S    0.017630   0.007673  -0.148433
   28  H  4  X   -0.014419  -0.037957   0.086715
   29  H  4  Y   -0.010075  -0.000732   0.006022
   30  H  4  Z   -0.001113   0.001592  -0.021033

          ------------------------
          MCSCF OPTIMIZED ORBITALS
          ------------------------

                      1          2          3          4          5
                  -15.9863     0.0000     0.0000     0.0000     0.0000
                     A          A          A          A          A   
    1  N  1  S    1.001161  -0.002247  -0.014112   0.001523  -0.011919
    2  N  1  S   -0.001822   0.400069   0.010571  -0.002793  -0.185658
    3  N  1  S   -0.006242   0.314383   0.057221  -0.021205  -0.285439
    4  N  1  X    0.000197  -0.003440   0.374602  -0.008455   0.044080
    5  N  1  Y    0.000042   0.004190  -0.000304   0.475210  -0.005265
    6  N  1  Z    0.001183   0.051373   0.000578   0.003135   0.586418
    7  N  1  X    0.000052   0.003555   0.142920  -0.007408   0.056802
    8  N  1  Y    0.000006  -0.005037  -0.004526   0.311191  -0.012941
    9  N  1  Z   -0.000554   0.017317   0.035957  -0.008778   0.385122
   10  N  1 XX    0.000525   0.006395   0.004355  -0.002848  -0.010965
   11  N  1 YY   -0.000291  -0.006203  -0.002120   0.002820  -0.012267
   12  N  1 ZZ   -0.000234  -0.000192  -0.002234   0.000027   0.023232
   13  N  1 XY    0.000051   0.001072   0.003519  -0.016326   0.000644
   14  N  1 XZ   -0.000059  -0.004393   0.025731  -0.000445   0.000276
   15  N  1 YZ    0.000035   0.000147   0.000558   0.026236   0.000786
   16  H  2  S   -0.001642   0.209048  -0.246488   0.340346   0.121267
   17  H  2  S    0.000291   0.005949  -0.028880   0.115429   0.029677
   18  H  2  X   -0.000628   0.026270  -0.001003   0.029473   0.011542
   19  H  2  Y    0.000541  -0.023455   0.026047  -0.006529  -0.016421
   20  H  2  Z    0.000474  -0.011471   0.012936  -0.018428   0.018973
   21  H  3  S   -0.001560   0.204944  -0.255488  -0.330005   0.121590
   22  H  3  S    0.000318   0.005928  -0.030884  -0.113871   0.032632
   23  H  3  X   -0.000638   0.027268  -0.008459  -0.032506   0.012185
   24  H  3  Y   -0.000493   0.020954  -0.027017  -0.004533   0.013287
   25  H  3  Z    0.000439  -0.008723   0.011775   0.014206   0.019653
   26  H  4  S   -0.002063   0.204375   0.447637   0.002814   0.115756
   27  H  4  S    0.000682   0.001398   0.054964  -0.003518   0.027277
   28  H  4  X    0.001101  -0.038150  -0.046157  -0.003486  -0.013264
   29  H  4  Y    0.000076  -0.002284  -0.005003   0.020053  -0.001446
   30  H  4  Z    0.000363  -0.003095  -0.010279  -0.000052   0.020149

                      6          7          8          9         10
                    0.0000     0.0000     0.0000     0.1212     0.1956
                     A          A          A          A          A   
    1  N  1  S    0.205963   0.096115  -0.002272  -0.104423   0.022509
    2  N  1  S    0.730763   0.250434  -0.009005  -0.150358   0.023806
    3  N  1  S    0.208798  -0.097450   0.019749   1.161546  -0.351646
    4  N  1  X   -0.097426   0.972081  -0.004574   0.034737   0.133602
    5  N  1  Y    0.013370   0.031601   0.843164  -0.009334   0.022690
    6  N  1  Z    0.632422  -0.002026   0.027386  -0.141026   0.014946
    7  N  1  X   -0.064093   0.140669  -0.002787  -0.214099  -0.768215
    8  N  1  Y    0.012245   0.006001  -0.018120   0.026868  -0.055368
    9  N  1  Z   -0.053050  -0.050671  -0.001735   0.338495   0.004533
   10  N  1 XX   -0.046021   0.003668   0.008186   0.088100  -0.072650
   11  N  1 YY    0.042780  -0.019999  -0.007927  -0.047855   0.040035
   12  N  1 ZZ    0.003241   0.016331  -0.000258  -0.040245   0.032615
   13  N  1 XY   -0.006896  -0.011693   0.044431   0.004922  -0.013018
   14  N  1 XZ    0.032568  -0.048270  -0.000762  -0.056270  -0.098859
   15  N  1 YZ   -0.006498  -0.006057  -0.018478   0.009485  -0.005019
   16  H  2  S   -0.452503   0.276509  -0.605644   0.348634   0.193217
   17  H  2  S   -0.058033   0.055617  -0.197095  -0.874693  -0.689492
   18  H  2  X   -0.023511  -0.015078  -0.043686  -0.100448  -0.012569
   19  H  2  Y    0.051490  -0.032252   0.016505  -0.010663   0.010578
   20  H  2  Z   -0.014489   0.010044   0.018126   0.048328   0.060559
   21  H  3  S   -0.445170   0.289804   0.579757   0.374348   0.181001
   22  H  3  S   -0.059102   0.064834   0.192174  -0.888682  -0.658406
   23  H  3  X   -0.028514  -0.004464   0.049447  -0.089636  -0.021145
   24  H  3  Y   -0.046859   0.033316   0.012316   0.016316  -0.007918
   25  H  3  Z   -0.018577   0.014604  -0.014416   0.043142   0.067976
   26  H  4  S   -0.490303  -0.710315   0.000970   0.304709  -0.540435
   27  H  4  S   -0.052177  -0.134776   0.001938  -0.578604   1.935843
   28  H  4  X    0.060278   0.067883   0.003146   0.077089  -0.126781
   29  H  4  Y    0.004710   0.005089  -0.007279  -0.000899  -0.012666
   30  H  4  Z   -0.007370  -0.020408  -0.003442  -0.024238  -0.074948

                     11         12         13         14         15
                    0.2420     0.5281     0.5697     0.6395     0.8507
                     A          A          A          A          A   
    1  N  1  S    0.006994  -0.106741  -0.008126   0.008987  -0.544787
    2  N  1  S    0.015252  -0.113676   0.020914  -0.038470  -1.221553
    3  N  1  S   -0.045117   0.947166   0.217037  -0.181911   2.157939
    4  N  1  X    0.017165  -0.223675   0.035644  -0.401612   0.093318
    5  N  1  Y    0.020132   0.166245  -0.665291  -0.099226   0.002122
    6  N  1  Z    0.008529  -0.650484  -0.159800   0.269386   0.297159
    7  N  1  X   -0.053515   0.629918  -0.145549   1.891366  -0.118589
    8  N  1  Y   -0.448998  -0.260637   1.491910   0.244993  -0.000029
    9  N  1  Z   -0.032406   0.980666   0.327166  -0.649873  -0.105202
   10  N  1 XX    0.003204  -0.033911  -0.021628   0.000785  -0.051946
   11  N  1 YY   -0.001338   0.010260   0.013547  -0.010048   0.080211
   12  N  1 ZZ   -0.001866   0.023651   0.008081   0.009263  -0.028265
   13  N  1 XY    0.091704   0.007507   0.022715   0.015407   0.022925
   14  N  1 XZ    0.000830   0.002075  -0.001365  -0.055667   0.023823
   15  N  1 YZ   -0.060909  -0.003496   0.003392  -0.007686   0.018729
   16  H  2  S   -0.603917  -0.155663  -0.495515   0.470786   0.013010
   17  H  2  S    2.044220   0.174940  -0.929821   0.261630  -0.333752
   18  H  2  X    0.029512   0.087649  -0.077114   0.126192   0.089172
   19  H  2  Y   -0.084879   0.062574   0.053594  -0.156466   0.318844
   20  H  2  Z   -0.023983   0.077667   0.089463   0.060369   0.068400
   21  H  3  S    0.592990  -0.242861   0.237973   0.614712   0.006052
   22  H  3  S   -2.008646  -0.159378   0.804999   0.441037  -0.373150
   23  H  3  X   -0.030212   0.053233   0.083367   0.182483   0.045227
   24  H  3  Y   -0.082842  -0.088355  -0.035490   0.132725  -0.334927
   25  H  3  Z    0.015368   0.107939  -0.034618   0.073672   0.023909
   26  H  4  S    0.023363  -0.638443  -0.120927  -0.481519  -0.174040
   27  H  4  S   -0.020751  -0.422049   0.070825  -0.752339  -0.473638
   28  H  4  X   -0.011472   0.094543  -0.007810   0.182702   0.078536
   29  H  4  Y    0.042844   0.013518   0.091515   0.038164   0.054633
   30  H  4  Z   -0.001817   0.051503   0.016763  -0.135741   0.170856

                     16         17         18         19         20
                    1.0214     1.1065     1.2572     1.3209     1.4802
                     A          A          A          A          A   
    1  N  1  S   -0.282997   0.107342  -0.209275   0.138819  -0.473953
    2  N  1  S   -0.584919   0.224008  -0.438043   0.294383  -0.998235
    3  N  1  S    1.190116  -0.493571   0.853673  -0.529664   1.627670
    4  N  1  X    0.069396   0.031404  -0.195871   0.004982   0.150672
    5  N  1  Y    0.000727   0.098431  -0.053078  -0.114665   0.011691
    6  N  1  Z    0.083703  -0.011517  -0.020120   0.001599  -0.066745
    7  N  1  X   -0.469221  -0.180059   1.249377  -0.228795  -0.637674
    8  N  1  Y    0.028906  -0.451064   0.090934   0.275709   0.123070
    9  N  1  Z   -0.138526  -0.116589   0.196801  -0.190918   0.803662
   10  N  1 XX   -0.038865  -0.026288   0.036805  -0.001544   0.121799
   11  N  1 YY   -0.222687   0.001394   0.044721  -0.069862  -0.008629
   12  N  1 ZZ    0.261552   0.024894  -0.081525   0.071406  -0.113169
   13  N  1 XY    0.000010   0.215790   0.014136  -0.025422   0.003301
   14  N  1 XZ    0.033793  -0.016632   0.030912   0.008086  -0.014393
   15  N  1 YZ   -0.005759   0.286586   0.104221   0.144336  -0.046318
   16  H  2  S   -0.393633   0.207670   0.049566  -0.090074  -0.680655
   17  H  2  S   -0.141084   0.132132   0.047859   0.032027  -0.186365
   18  H  2  X   -0.070909   0.185002  -0.168864   0.624980   0.036908
   19  H  2  Y   -0.321178  -0.035920  -0.129230   0.083241  -0.138998
   20  H  2  Z    0.382870   0.428705  -0.230657   0.396135   0.043497
   21  H  3  S   -0.399212  -0.133932   0.229167   0.272501  -0.648716
   22  H  3  S   -0.126190  -0.072126   0.061658  -0.011406  -0.044967
   23  H  3  X   -0.070225  -0.022096  -0.542832  -0.336122  -0.025820
   24  H  3  Y    0.294068  -0.011506   0.226889  -0.065868   0.196157
   25  H  3  Z    0.379651  -0.309353  -0.515238  -0.124595  -0.300733
   26  H  4  S    0.012297   0.179580  -0.763035   0.214072  -0.190068
   27  H  4  S   -0.094510   0.136494  -0.416290   0.117486  -0.059614
   28  H  4  X   -0.043588  -0.068465  -0.164958   0.068418   0.115367
   29  H  4  Y   -0.001304   0.607837  -0.025377  -0.587659  -0.122742
   30  H  4  Z    0.276514  -0.055382   0.363620   0.002926  -0.796577

                     21         22         23         24         25
                    1.6098     1.8493     1.8882     2.0019     2.0691
                     A          A          A          A          A   
    1  N  1  S   -0.069746   0.013405   0.085425   0.019238   0.029375
    2  N  1  S   -0.142393   0.141792   0.216428   0.082842   0.061295
    3  N  1  S    0.261403   1.051869   0.597294   0.633577  -0.018120
    4  N  1  X    0.080466  -0.486588   0.448272   0.169418   0.041888
    5  N  1  Y   -0.210951   0.017210   0.056616  -0.011651   0.151760
    6  N  1  Z   -0.015364   0.261613   0.083945   0.076577   0.020373
    7  N  1  X   -0.265147  -0.282893  -0.002642   0.215298   0.025531
    8  N  1  Y   -0.468098  -0.064803   0.020467  -0.057797  -0.176683
    9  N  1  Z    0.126212   0.404053   0.138140   0.434843   0.018990
   10  N  1 XX    0.005612  -0.075050  -0.301694  -0.067472  -0.027053
   11  N  1 YY    0.064530   0.086717   0.566287  -0.711512  -0.097674
   12  N  1 ZZ   -0.070142  -0.011667  -0.264593   0.778984   0.124728
   13  N  1 XY   -0.093780  -0.022617  -0.017173  -0.051600   0.299058
   14  N  1 XZ   -0.000586   0.215098  -0.041871  -0.198561  -0.016178
   15  N  1 YZ    0.293270  -0.083597  -0.110804  -0.063409  -0.034959
   16  H  2  S   -0.221591  -0.198164  -0.164764  -0.053783  -0.222853
   17  H  2  S    0.369485  -0.341435   0.013512   0.083386  -0.336331
   18  H  2  X    0.434824  -0.606354  -0.107314  -0.151852   0.104960
   19  H  2  Y   -0.033526   0.300405  -0.181029   0.073000   1.091882
   20  H  2  Z   -0.540916   0.427216   0.117887  -0.336033  -0.112425
   21  H  3  S   -0.085439  -0.209945  -0.148387  -0.133726   0.251722
   22  H  3  S   -0.424042  -0.389904   0.002974  -0.112540   0.343859
   23  H  3  X   -0.419627  -0.747037  -0.174169  -0.232503  -0.013467
   24  H  3  Y    0.074995  -0.229793   0.197139  -0.306823   1.050852
   25  H  3  Z    0.566107   0.344495  -0.108281  -0.341014   0.093326
   26  H  4  S    0.070351  -0.122086  -0.058127  -0.259779  -0.024307
   27  H  4  S   -0.005652   0.074784  -0.400133  -0.319760  -0.012045
   28  H  4  X    0.071472   0.062494   0.950997   0.613322   0.092091
   29  H  4  Y    0.429790   0.075526   0.038328   0.173863  -0.048435
   30  H  4  Z   -0.159794  -0.503405   0.244206  -0.091168   0.011697

                     26         27         28         29
                    2.2050     2.6455     2.7240     2.8809
                     A          A          A          A   
    1  N  1  S   -0.035888   0.137284   0.002190   0.002928
    2  N  1  S   -0.047287   0.180070   0.112699   0.100276
    3  N  1  S    0.450117  -1.161214   1.452631   1.226407
    4  N  1  X    0.004524   0.435382   0.247692   0.332980
    5  N  1  Y    0.051971   0.011730   0.251641  -0.216310
    6  N  1  Z    0.047338  -0.150978   0.216823   0.148277
    7  N  1  X   -0.019782   1.371862   0.377090   0.530384
    8  N  1  Y    0.527739   0.052247   0.482235  -0.360942
    9  N  1  Z    0.219083  -0.383284   0.257025   0.140703
   10  N  1 XX   -0.150385  -0.172887   0.991399   0.988514
   11  N  1 YY    0.062567  -0.072026  -0.473585  -0.466452
   12  N  1 ZZ    0.087819   0.244913  -0.517814  -0.522061
   13  N  1 XY    0.450048  -0.078386  -0.766610   0.991872
   14  N  1 XZ   -0.003574   1.322322   0.065086   0.215319
   15  N  1 YZ    0.866626   0.029479   0.483149  -0.393558
   16  H  2  S   -0.255044   0.854069  -0.876433   0.563825
   17  H  2  S   -0.252283   0.282501  -0.340938   0.218942
   18  H  2  X   -0.583504   0.390774  -0.530647   0.404398
   19  H  2  Y   -0.080520  -0.343689   0.535657  -0.335751
   20  H  2  Z   -0.181677  -0.295596   0.532927  -0.223158
   21  H  3  S   -0.011104   0.949376   0.323984  -0.783578
   22  H  3  S    0.144487   0.323812   0.212342  -0.254177
   23  H  3  X    0.265004   0.550823   0.364719  -0.542025
   24  H  3  Y   -0.121898   0.343391   0.174741  -0.506952
   25  H  3  Z    0.147586  -0.306955  -0.059814   0.467794
   26  H  4  S   -0.129377  -0.567438  -1.053312  -1.154966
   27  H  4  S   -0.068120  -0.286787  -0.337296  -0.346286
   28  H  4  X    0.202056   0.417413   0.814720   0.877527
   29  H  4  Y   -0.625530   0.087138   0.238743  -0.093488
   30  H  4  Z   -0.109552  -0.210926   0.336876   0.370899
 .....DONE WITH MCSCF ITERATIONS.....
 CPU     0: STEP CPU TIME=    10.04 TOTAL CPU TIME=         11.2 (      0.2 MIN)
 TOTAL WALL CLOCK TIME=         11.2 SECONDS, CPU UTILIZATION IS    99.91%

     ----------------------------------------------------------------
     PROPERTY VALUES FOR THE MCSCF SELF-CONSISTENT FIELD WAVEFUNCTION
     ----------------------------------------------------------------

          -----------------
          ENERGY COMPONENTS
          -----------------

         WAVEFUNCTION NORMALIZATION =       1.0000000000

                ONE ELECTRON ENERGY =     -94.0272041386
                TWO ELECTRON ENERGY =      27.0326721099
           NUCLEAR REPULSION ENERGY =      11.2797486978
                                      ------------------
                       TOTAL ENERGY =     -55.7147833309

 ELECTRON-ELECTRON POTENTIAL ENERGY =      27.0326721099
  NUCLEUS-ELECTRON POTENTIAL ENERGY =    -149.7808914302
   NUCLEUS-NUCLEUS POTENTIAL ENERGY =      11.2797486978
                                      ------------------
             TOTAL POTENTIAL ENERGY =    -111.4684706225
               TOTAL KINETIC ENERGY =      55.7536872916
                 VIRIAL RATIO (V/T) =       1.9993022173

          ---------------------------------------
          MULLIKEN AND LOWDIN POPULATION ANALYSES
          ---------------------------------------

     ATOMIC MULLIKEN POPULATION IN EACH MOLECULAR ORBITAL

                      1          2          3          4          5

                  2.000000   1.981003   1.655711   1.649791   1.640026

    1             2.000756   1.349254   1.441881   0.934149   1.165804
    2            -0.000224   0.239718   0.009119   0.218860   0.231342
    3            -0.000190   0.208917   0.008314   0.216510   0.234390
    4            -0.000342   0.183113   0.196398   0.280273   0.008490

                      6          7          8

                  0.029594   0.025770   0.018105

    1             0.013439   0.013461   0.009525
    2             0.004668   0.008582   0.000133
    3             0.011041   0.002654   0.000513
    4             0.000446   0.001073   0.007934
 WARNING! MCSCF POPULATIONS SHOWN ABOVE ARE FOR THE NATURAL ORBITALS.
 IGNORE THE ABOVE DATA FOR MCSCF FUNCTIONS WHICH ARE NOT OF -FORS- TYPE.
 THE FOLLOWING POPULATIONS ARE CORRECT FOR ANY MCSCF WAVEFUNCTION.

               ----- POPULATIONS IN EACH AO -----
                             MULLIKEN      LOWDIN
              1  N  1  S      2.00240     1.90082
              2  N  1  S      0.81890     0.57740
              3  N  1  S      0.68438     0.40509
              4  N  1  X      0.63278     0.54817
              5  N  1  Y      0.74936     0.69178
              6  N  1  Z      0.85822     0.80655
              7  N  1  X      0.22314     0.36702
              8  N  1  Y      0.42142     0.47298
              9  N  1  Z      0.52179     0.55827
             10  N  1 XX      0.00044     0.19001
             11  N  1 YY      0.00155     0.14878
             12  N  1 ZZ      0.00312     0.14245
             13  N  1 XY      0.00637     0.00987
             14  N  1 XZ      0.00440     0.01394
             15  N  1 YZ      0.00000     0.00611
             16  H  2  S      0.60152     0.45851
             17  H  2  S      0.05402     0.14831
             18  H  2  X      0.02087     0.03652
             19  H  2  Y      0.01957     0.04863
             20  H  2  Z      0.01622     0.03581
             21  H  3  S      0.57463     0.43812
             22  H  3  S      0.05287     0.14917
             23  H  3  X      0.02276     0.03867
             24  H  3  Y      0.01775     0.04587
             25  H  3  Z      0.01414     0.03207
             26  H  4  S      0.59582     0.46328
             27  H  4  S      0.02489     0.14428
             28  H  4  X      0.03711     0.06537
             29  H  4  Y      0.00831     0.02378
             30  H  4  Z      0.01126     0.03236

          ----- MULLIKEN ATOMIC OVERLAP POPULATIONS -----
          (OFF-DIAGONAL ELEMENTS NEED TO BE MULTIPLIED BY 2)

             1           2           3           4

    1    6.0840503
    2    0.2675846   0.4601524
    3    0.2616977  -0.0103822   0.4364061
    4    0.3149369  -0.0051578  -0.0055728   0.3731787

          TOTAL MULLIKEN AND LOWDIN ATOMIC POPULATIONS
       ATOM         MULL.POP.    CHARGE          LOW.POP.     CHARGE
    1 N             6.928269    0.071731         6.839234    0.160766
    2 H             0.712197    0.287803         0.727786    0.272214
    3 H             0.682149    0.317851         0.703902    0.296098
    4 H             0.677385    0.322615         0.729079    0.270921

          MULLIKEN SPHERICAL HARMONIC POPULATIONS
       ATOM           S       P       D      F      G      H      I    TOTAL
    1 N             3.51    3.41    0.02   0.00   0.00   0.00   0.00    6.93
    2 H             0.66    0.06    0.00   0.00   0.00   0.00   0.00    0.71
    3 H             0.63    0.05    0.00   0.00   0.00   0.00   0.00    0.68
    4 H             0.62    0.06    0.00   0.00   0.00   0.00   0.00    0.68

          ---------------------
          ELECTROSTATIC MOMENTS
          ---------------------

 POINT   1           X           Y           Z (BOHR)    CHARGE
                -0.000004    0.000001   -0.177185        1.00 (A.U.)
         DX          DY          DZ         /D/  (DEBYE)
    -0.706058    0.115648    2.183108    2.297358
 ...... END OF PROPERTY EVALUATION ......
 CPU     0: STEP CPU TIME=     0.00 TOTAL CPU TIME=         11.2 (      0.2 MIN)
 TOTAL WALL CLOCK TIME=         11.2 SECONDS, CPU UTILIZATION IS    99.82%

     -------------------------------------------------
     GMC-PT/GMC-QDPT or general MCSCF input parameters
     -------------------------------------------------
 # of frozen core orbs. =         0 ->         0
 # of doubly occ. orbs. =         1
 # of active      orbs. =         7
 # of virtual     orbs. =        21
 # of active electrons  =         7
 # of states in CI      =         3
 Highest state in CI    =         3
 kstate =  1 1 1
 avecoe =  0.333 0.333 0.333
 State symmetry           = A           
 Assigned symmetry number = 1

 <<<Act. MO sym.: 1111111

 <<<Division of 1-ext.:  0
 <<<Division of 2-ext.:  0

     ------------------------
     Orbital canonicalization
     ------------------------

 MOs are canonicalized for core, virtual, and invariant-active orbital spaces.
 This is a part of the GMC-QDPT calculation.
 SCHWARZ INEQUALITY OVERHEAD:       465 INTEGRALS, T=        0.00
 DIRECT TRANSFORMATION SKIPS AO INTEGRAL STORAGE ON DISK.

 Averaged energy =     -55.714783331

 State #    1  Energy =     -55.849470529  S =  0.500
 State #    2  Energy =     -55.748773793  S =  0.500
 State #    3  Energy =     -55.546105671  S =  0.500

 Orbital energies for filled orbital space
  -15.986305
 Orbital energies for active orbital space
   -1.508581  -1.015855  -0.803375  -0.742789   0.210869
    0.419381   0.250228
 Orbital energies for external orbital space
    0.121248   0.195583   0.242033   0.528099   0.569688
    0.639535   0.850663   1.021436   1.106492   1.257188
    1.320903   1.480155   1.609767   1.849348   1.888213
    2.001855   2.069090   2.205033   2.645544   2.723953
    2.880892

 Zero values mean non-canonical orbitals.
 ... done with orbital canonicalization ...
 CPU     0: STEP CPU TIME=     0.59 TOTAL CPU TIME=         11.8 (      0.2 MIN)
 TOTAL WALL CLOCK TIME=         11.8 SECONDS, CPU UTILIZATION IS    99.92%

     --------------------------------------------
     PARTIAL TWO ELECTRON INTEGRAL TRANSFORMATION
     --------------------------------------------

 NUMBER OF CORE MOLECULAR ORBITALS     =    0
 NUMBER OF OCCUPIED MOLECULAR ORBITALS =    8
 TOTAL NUMBER OF MOLECULAR ORBITALS    =   29
 TOTAL NUMBER OF ATOMIC ORBITALS       =   30
 THRESHOLD FOR KEEPING TRANSFORMED 2E- INTEGRALS = 1.000E-09
 AO INTEGRALS WILL BE CALCULATED IN DIRECT MODE...
 DIRECT TRANSFORMATION SKIPS AO INTEGRAL STORAGE ON DISK.
 SCHWARZ INEQUALITY OVERHEAD:       465 INTEGRALS, T=        0.00

 PLAN A: REQUIREMENTS FOR FULLY IN-MEMORY TRANSFORMATION:
 # OF WORDS AVAILABLE =            100000000
 # OF WORDS NEEDED    =               221798

 PARALLEL ONLY WORKS WITH THE SEGMENTED ALGORITHM.
 ADJUSTING MEMORY TO USE SEGMENTED ALGORITHM.


 PLAN B: REQUIREMENTS FOR THE SEGMENTED TRANSFORMATION:
       MINIMUM=         124148 WORDS FOR 1 MOLECULAR ORBITAL PER PASS
       MAXIMUM=         221798 WORDS FOR ALL MOLECULAR ORBITALS IN 1 PASS
              (          13950 EXTRA WORDS INCLUDES 1 EXTRA ORBITAL/PASS)
 THIS RUN USES=         221798 WORDS,
 DISTRIBUTING   1 PASSES EACH CONTAINING     8 ORBITALS OVER   1 PROCESSORS.

 CHOOSING SEGMENTED PARTIAL TRANSFORMATION...
 DIRECT TRANSFORMATION SKIPS AO INTEGRAL STORAGE ON DISK.
 PASS #   1 TOOK        0.04 SECONDS.
 TOTAL NUMBER OF TRANSFORMED 2E- INTEGRALS KEPT =        29226
 ... END OF INTEGRAL TRANSFORMATION ...
 CPU     0: STEP CPU TIME=     0.04 TOTAL CPU TIME=         11.9 (      0.2 MIN)
 TOTAL WALL CLOCK TIME=         11.9 SECONDS, CPU UTILIZATION IS    99.92%

     --------     ------------------------------------------
     GMC-QDPT     Program written by H.Nakano (Kyushu Univ.)
     --------     ------------------------------------------

 *** Reference space

 Reference type: ORMAS (= Occupation restricted multiple active space)
 # of orbitals          =  7
 # of minimum electrons =  7
 # of maximum electrons =  7
 State symmetry    =    1 (input)
 2*Sz              =    1 (input)
 Spin multiplicity =    2 (input)
 Dimension of reference space =      1225  (from      3432 walks)

 Dimension of reference space =      1225  (from      1225 walks)

 <<<Ionized spaces for Ref-CI:
      0:         1225 /   -1-0:         1960 /  0-1-0:         2891

 ***                    ***
 *** Reference space CI ***
 ***                    ***

 Converged after   31 iterations

 Reference wavefunctions:

 State #    1  Energy =     -55.849470529  S =  0.500

      Det      Coef    Occupancy (Ignoring core)
      ---      ----    --------- --------- -----
        1   -0.975357  11110001110000
      143   -0.056374  11011001100100
      393   -0.058922  10110101010010
      717   -0.061582  11010011100001

 State #    2  Energy =     -55.748773793  S =  0.500

      Det      Coef    Occupancy (Ignoring core)
      ---      ----    --------- --------- -----
        1   -0.050329  11110001110000
       36   -0.981607  11110001101000
      463   -0.058676  10110101001010

 State #    3  Energy =     -55.546105671  S =  0.500

      Det      Coef    Occupancy (Ignoring core)
      ---      ----    --------- --------- -----
       71   -0.976109  11110001011000
      248    0.057031  11011001001100
      822    0.063207  11010011001001

 Davidson method: CPU/Wall time =           0.43 /           0.43 sec.

 Oscillator strength (invalid if E(1)/=E(GS)):
 -----------------------------------------
   State                        f
 -----------------------------------------
     2     F(REF-CI)=        0.0003653472
     3     F(REF-CI)=        0.0039876952
 -----------------------------------------

 Dipole moment matrix elements, x, y, z, in A.U.

 Dimension of ionized spaces for PT:
 (N-2) space:         1715 /  (N-1) space:         2842 /  N space:         2891
 (N+1) space:         2842 /  (N+2) space:         1715

 <<<Ionized spaces for internal:
         0:         1225 /      -1-0:         1960 /     0-1-0:         2891
  -1-0-1-0:         2842 / 0-1-0-1-0:         3381

 Diagonal elements of averaged one-particle density matrix:
       2       3       4       5       6       7       8
  0.9930  0.9879  0.9844  0.9919  0.0167  0.0106  0.0154
  0.9878  0.6625  0.6557  0.6628  0.0121  0.0076  0.0114

 Orbital energies:
 -------- Doubly-occupied orbitals (highest several orbs.) -------
             1
 -1.598630D+01
 -------- Active orbitals ----------------------------------------
             2            3            4            5            6
 -1.508581D+00-1.015855D+00-8.033750D-01-7.427888D-01 2.108694D-01
             7            8
  4.193807D-01 2.502278D-01
 -------- External orbitals (lowest several orbs.) ---------------
             9           10           11           12           13
  1.212484D-01 1.955830D-01 2.420334D-01 5.280989D-01 5.696881D-01
            14           15           16           17           18
  6.395353D-01 8.506632D-01 1.021436D+00 1.106492D+00 1.257188D+00

 *** Quasi-degeneracy checking

 === Det (|Ci| > 1.0D-01 and dE < 5.0D-03)

 # of small denominators (single excitations)
 State       dEmin  dE < 5.0D-03  dE < 5.0D-04  dE < 5.0D-05  dE < 5.0D-06
 ----- ----------- ------------- ------------- ------------- -------------
     1    5.00D-03             0             0             0             0
     2    5.00D-03             0             0             0             0
     3    5.00D-03             0             0             0             0

 # of small denominators (double excitations)
 State       dEmin  dE < 5.0D-03  dE < 5.0D-04  dE < 5.0D-05  dE < 5.0D-06
 ----- ----------- ------------- ------------- ------------- -------------
     1    5.00D-03             0             0             0             0
     2    5.00D-03             0             0             0             0
     3    5.00D-03             0             0             0             0

 *** Zeroth-Order Setup (Granovsky's zeroth-order vectors)
 Zeroth-order effective Hamiltonian
  (= Sum_i e(i)*<I|a+(i)a(i)|J> ):
                   1            2            3
     1 -7.291847D+00
     2 -5.198773D-03-7.254861D+00
     3 -1.003755D-03 1.675834D-03-7.026933D+00

 Zeroth-order vectors:
 State #    1
       MC st            1           2           3
       Coeff    9.906D-01   1.365D-01   2.882D-03
 State #    2
       MC st            2           1           3
       Coeff   -9.906D-01   1.364D-01   7.909D-03
 State #    3
       MC st            3           2           1
       Coeff    1.000D+00   7.441D-03  -3.935D-03

 *** GMC-QDPT computation

 (Integral reading:  CPU/Wall time =           0.00 /           0.00 sec.)

 One-external:
   0 -ionized terms: CPU/Wall time =           0.04 /           0.03 sec.
 (-1)-ionized terms: CPU/Wall time =           0.08 /           0.09 sec.
 (+1)-ionized terms: CPU/Wall time =           0.03 /           0.03 sec.
 (+1)-ionized terms: CPU/Wall time =           0.00 /           0.00 sec.
 (+2)-ionized terms: CPU/Wall time =           0.00 /           0.00 sec.

 Internal:
 # of macro loops for internal contribution =         1 (input)
 Loop:    1
 Dimension of internal CISD space     =         0  (after screening)
 Space construction: CPU/Wall time =           0.02 /           0.02 sec.
 Internal terms:     CPU/Wall time =           0.00 /           0.00 sec.

 Two-external:
   0 -ionized terms: CPU/Wall time =           0.06 /           0.06 sec.
 (-1)-ionized terms: CPU/Wall time =           1.00 /           1.00 sec.
 (-2)-ionized terms: CPU/Wall time =           0.17 /           0.17 sec.

 Total time:         CPU/Wall time =           1.40 /           1.40 sec.

 ***                  ***
 *** GMC-QDPT Results ***
 ***                  ***

 Diagonal elements of effective Hamiltonian:
 Heff(  1) =   -55.94655523
 Heff(  2) =   -55.85800973
 Heff(  3) =   -55.65767428

 Off-diagonal elements of effective Hamiltonian:
                   1            2
     2 -1.207953D-02
     3  4.986332D-04 1.518040D-03

 ******** GMC-QDPT energies ********
 ----------------------------------------------------------------------------
   State                        1st order                           2nd order
 ----------------------------------------------------------------------------
     1     E(REF-CI)=      -55.8494705290   E(GMC-QDPT2)=      -55.9481752242
     2     E(REF-CI)=      -55.7487737933   E(GMC-QDPT2)=      -55.8564018048
     3     E(REF-CI)=      -55.5461056705   E(GMC-QDPT2)=      -55.6576622016
 ----------------------------------------------------------------------------

 Excitation energies (invalid if E(1)/=E(GS)):
 ----------------------------------------------------------------------------
   State                        1st order                           2nd order
 ----------------------------------------------------------------------------

     TZ Sorted GMC-PT ENERGIES:
         1      -55.9481752242
         2      -55.8564018048
         3      -55.6576622016
     2     E(REF-CI)=        2.7400992 eV   E(GMC-QDPT2)=        2.4972832 eV
     3     E(REF-CI)=        8.2549825 eV   E(GMC-QDPT2)=        7.9052661 eV
 ----------------------------------------------------------------------------

 Main characters of perturbed GMC-QDPT states:

 State #    1  Energy =     -55.948175224  S =  0.500

      Det      Coef    Occupancy (Ignoring core)
      ---      ----    --------- --------- -----
        1   -0.975528  11110001110000
      143   -0.056297  11011001100100
      393   -0.058902  10110101010010
      717   -0.061650  11010011100001

 State #    2  Energy =     -55.856401805  S =  0.500

      Det      Coef    Occupancy (Ignoring core)
      ---      ----    --------- --------- -----
       36   -0.981779  11110001101000
      463   -0.058685  10110101001010

 State #    3  Energy =     -55.657662202  S =  0.500

      Det      Coef    Occupancy (Ignoring core)
      ---      ----    --------- --------- -----
       71   -0.976103  11110001011000
      248    0.057038  11011001001100
      822    0.063200  11010011001001

 <<<Max |V/de| = 2.965D-02  Thresh = 1.000D+00

 Oscillator strength (invalid if E(1)/=E(GS)):
 ----------------------------------------------------------------------------
   State                        1st order                           2nd order
 ----------------------------------------------------------------------------
     2     F(REF-CI)=        0.0003653472     F(GMC-PT2)=        0.0003440756
     3     F(REF-CI)=        0.0039876952     F(GMC-PT2)=        0.0038658261
 ----------------------------------------------------------------------------

 Dipole moment matrix elements, x, y, z, in A.U.
States    1    1       -0.3190188182        0.0375745499        0.7246229732
States    1    2        0.0133816490       -0.0543731200       -0.0498826064
States    1    3       -0.1188866724       -0.0106028335       -0.0755902147
States    2    1        0.0133816490       -0.0543731200       -0.0498826064
States    2    2       -0.1220309042        0.0871318796        0.2710388592
States    2    3       -0.0196648873       -0.1295277156       -0.0000365452
States    3    1       -0.1188866724       -0.0106028335       -0.0755902147
States    3    2       -0.0196648873       -0.1295277156       -0.0000365452
States    3    3       -0.6103813875        0.0529034969        0.2397038012

 Oscillator strength (valid only when positive): 
 ----------------------------------------------------------------------------
  States                        1st order                           2nd order
 ----------------------------------------------------------------------------
  1  1     F(REF-CI)=        0.0000000000     F(GMC-PT2)=        0.0000000000
  1  2     F(REF-CI)=       -0.0003653472     F(GMC-PT2)=       -0.0003440756
  1  3     F(REF-CI)=       -0.0039876952     F(GMC-PT2)=       -0.0038658261
  2  1     F(REF-CI)=        0.0003653472     F(GMC-PT2)=        0.0003440756
  2  2     F(REF-CI)=        0.0000000000     F(GMC-PT2)=        0.0000000000
  2  3     F(REF-CI)=       -0.0023263623     F(GMC-PT2)=       -0.0022741293
  3  1     F(REF-CI)=        0.0039876952     F(GMC-PT2)=        0.0038658261
  3  2     F(REF-CI)=        0.0023263623     F(GMC-PT2)=        0.0022741293
  3  3     F(REF-CI)=        0.0000000000     F(GMC-PT2)=        0.0000000000
 CPU     0: STEP CPU TIME=     1.90 TOTAL CPU TIME=         13.8 (      0.2 MIN)
 TOTAL WALL CLOCK TIME=         13.8 SECONDS, CPU UTILIZATION IS    99.93%

     !!! DIABATIZATION FOR REF CI STATES !!!

 *******************************************************
          $DMO GROUP FOUND IN THE INPUT.
        DIABATIZATION OF ADIABATIC STATES BEGINS.
     PROGRAMMED BY TAO ZENG (CARLETON UNIVERSITY).
               Email: toby.zeng@carleton.ca
     See T. Zeng, J. Chem. Phys. 2017, 146, 144103
 *******************************************************

 *************************************************************************
     STEP 1: TRANSFORMATION OF ADIABATIC STATES TO THE DMO REPRESENTATION
         See Atchity and Ruedenberg, J. Chem. Phys. 1999, 111, 2910
 *************************************************************************

Read in Diabatic Molecualr Orbitals:

                      1          2          3          4          5

    1  N  1  S    0.008609   0.000000   0.000000  -0.013219   0.279491
    2  N  1  S    0.442914  -0.000000   0.000000  -0.184329   0.867803
    3  N  1  S    0.276913   0.000000  -0.000000  -0.288315   0.144236
    4  N  1  X   -0.000000   0.493155  -0.024636  -0.000000  -0.000000
    5  N  1  Y    0.000000   0.024636   0.493155  -0.000000   0.000000
    6  N  1  Z    0.090197   0.000000   0.000000   0.593421   0.705309
    7  N  1  X   -0.000000   0.210628  -0.010522   0.000000   0.000000
    8  N  1  Y    0.000000   0.010522   0.210628  -0.000000  -0.000000
    9  N  1  Z   -0.004381   0.000000   0.000000   0.381592  -0.106092
   10  N  1 XX   -0.000457   0.010719  -0.000535  -0.012387   0.006153
   11  N  1 YY   -0.000457  -0.010719   0.000535  -0.012387   0.006153
   12  N  1 ZZ    0.000914  -0.000000   0.000000   0.024773  -0.012306
   13  N  1 XY    0.000000  -0.000618  -0.012377  -0.000000   0.000000
   14  N  1 XZ   -0.000000   0.026529  -0.001325  -0.000000   0.000000
   15  N  1 YZ    0.000000   0.001325   0.026529  -0.000000   0.000000
   16  H  2  S    0.194462  -0.176074   0.343485   0.112865  -0.523343
   17  H  2  S    0.003574  -0.023812   0.046452   0.024014  -0.054445
   18  H  2  X    0.018760   0.009101   0.022834   0.009336  -0.039151
   19  H  2  Y   -0.032493   0.022287  -0.020044  -0.016171   0.067811
   20  H  2  Z   -0.009251   0.008464  -0.016511   0.018769  -0.010566
   21  H  3  S    0.194462  -0.209430  -0.324227   0.112865  -0.523343
   22  H  3  S    0.003574  -0.028322  -0.043847   0.024014  -0.054445
   23  H  3  X    0.018760   0.006781  -0.023627   0.009336  -0.039151
   24  H  3  Y    0.032493  -0.024174  -0.017723   0.016171  -0.067811
   25  H  3  Z   -0.009251   0.010067   0.015585   0.018769  -0.010566
   26  H  4  S    0.194462   0.385503  -0.019258   0.112865  -0.523343
   27  H  4  S    0.003574   0.052134  -0.002604   0.024014  -0.054445
   28  H  4  X   -0.037519  -0.032295   0.001613  -0.018672   0.078302
   29  H  4  Y    0.000000   0.001067   0.021353  -0.000000   0.000000
   30  H  4  Z   -0.009251  -0.018530   0.000926   0.018769  -0.010566

                      6          7

    1  N  1  S    0.000000  -0.000000
    2  N  1  S    0.000000  -0.000000
    3  N  1  S   -0.000000   0.000000
    4  N  1  X   -0.930415  -0.002083
    5  N  1  Y   -0.002083   0.930415
    6  N  1  Z   -0.000000   0.000000
    7  N  1  X   -0.046866  -0.000105
    8  N  1  Y   -0.000105   0.046866
    9  N  1  Z   -0.000000   0.000000
   10  N  1 XX    0.001538   0.000003
   11  N  1 YY   -0.001538  -0.000003
   12  N  1 ZZ   -0.000000   0.000000
   13  N  1 XY   -0.000004   0.001776
   14  N  1 XZ    0.039985   0.000090
   15  N  1 YZ    0.000090  -0.039985
   16  H  2  S   -0.362630  -0.631354
   17  H  2  S   -0.065964  -0.114846
   18  H  2  X    0.002763  -0.037520
   19  H  2  Y    0.037435   0.040736
   20  H  2  Z    0.001882   0.003276
   21  H  3  S   -0.365454   0.629724
   22  H  3  S   -0.066477   0.114549
   23  H  3  X    0.002595   0.037532
   24  H  3  Y   -0.037617   0.040567
   25  H  3  Z    0.001896  -0.003268
   26  H  4  S    0.728084   0.001630
   27  H  4  S    0.132441   0.000297
   28  H  4  X   -0.062317  -0.000140
   29  H  4  Y    0.000055  -0.024345
   30  H  4  Z   -0.003778  -0.000008

NUMBER OF SUB ACTIVE SPACES:   1
ROTATE ACTIVE MOS TO DMOS IN EACH SUB-SPACE

SPACE  1:

OVERLAP BETWEEN ORTHONORMAL AND PRE-ORTHONORMAL REF. DMOS

             1           2           3           4           5

    1    0.9840105  -0.0168046   0.0080919  -0.0059034  -0.0033837
    2   -0.0168046   1.0470654   0.0000377  -0.0342064   0.0741346
    3    0.0080919   0.0000377   0.8887430   0.0093970  -0.0129336
    4   -0.0059034  -0.0342064   0.0093970   0.9951940  -0.0070997
    5   -0.0033837   0.0741346  -0.0129336  -0.0070997   1.1157167
    6    0.0033793   0.0570604   0.0064254  -0.0511399   0.0591638
    7   -0.0002083   0.0014702   0.0851367  -0.0059675  -0.0139454

             6           7

    1    0.0033793  -0.0002083
    2    0.0570604   0.0014702
    3    0.0064254   0.0851367
    4   -0.0511399  -0.0059675
    5    0.0591638  -0.0139454
    6    1.0213648   0.0048130
    7    0.0048130   1.0460587
REFERENCE DMOS AFTER ORTHONORMALIZATION:

                      1          2          3          4          5

    1  N  1  S    0.009265  -0.017364   0.003532  -0.012776   0.252446
    2  N  1  S    0.450956  -0.051344   0.008743  -0.181477   0.784462
    3  N  1  S    0.279962  -0.012958   0.002556  -0.288728   0.130358
    4  N  1  X    0.012168   0.520483  -0.020822  -0.030138   0.015031
    5  N  1  Y   -0.003247   0.021817   0.473678   0.000901   0.015263
    6  N  1  Z    0.097070  -0.023715   0.000958   0.600357   0.638325
    7  N  1  X    0.003783   0.205194  -0.011743   0.004213  -0.010729
    8  N  1  Y   -0.001749   0.009875   0.234620  -0.001842   0.002500
    9  N  1  Z   -0.002199   0.017969  -0.005725   0.384645  -0.095154
   10  N  1 XX   -0.000355   0.009492  -0.000405  -0.012079   0.004797
   11  N  1 YY   -0.000708  -0.011010   0.000854  -0.012890   0.006273
   12  N  1 ZZ    0.001064   0.001518  -0.000450   0.024969  -0.011069
   13  N  1 XY    0.000107  -0.000587  -0.014205   0.000137  -0.000095
   14  N  1 XZ    0.000291   0.023605  -0.001852   0.002767  -0.003597
   15  N  1 YZ   -0.000268   0.001317   0.033781  -0.000524  -0.000211
   16  H  2  S    0.191995  -0.112474   0.441295   0.083075  -0.446483
   17  H  2  S    0.002992  -0.015447   0.062842   0.018927  -0.045169
   18  H  2  X    0.018937   0.011666   0.028564   0.009369  -0.036142
   19  H  2  Y   -0.032546   0.014412  -0.025479  -0.013404   0.058170
   20  H  2  Z   -0.009015   0.009131  -0.019318   0.019413  -0.010308
   21  H  3  S    0.198998  -0.146016  -0.432415   0.097869  -0.438244
   22  H  3  S    0.004000  -0.020076  -0.060740   0.021301  -0.043381
   23  H  3  X    0.019411   0.009353  -0.031060   0.010318  -0.035715
   24  H  3  Y    0.032953  -0.016325  -0.024859   0.014304  -0.057590
   25  H  3  Z   -0.009296   0.010658   0.017695   0.019045  -0.010084
   26  H  4  S    0.200960   0.374518  -0.037723   0.161540  -0.531548
   27  H  4  S    0.004029   0.047878  -0.005065   0.032209  -0.058830
   28  H  4  X   -0.038398  -0.034051   0.003904  -0.022970   0.075658
   29  H  4  Y   -0.000207   0.001047   0.026467  -0.000372  -0.000080
   30  H  4  Z   -0.009607  -0.016606   0.000834   0.018095  -0.008200

                      6          7

    1  N  1  S   -0.014360   0.003097
    2  N  1  S   -0.053249   0.009118
    3  N  1  S   -0.022227   0.000059
    4  N  1  X   -0.942335   0.003338
    5  N  1  Y   -0.011078   0.851125
    6  N  1  Z   -0.005974   0.011937
    7  N  1  X   -0.056459   0.000709
    8  N  1  Y   -0.002483   0.025727
    9  N  1  Z    0.023805   0.001257
   10  N  1 XX    0.000096   0.000017
   11  N  1 YY   -0.001902  -0.000039
   12  N  1 ZZ    0.001806   0.000021
   13  N  1 XY    0.000117   0.002853
   14  N  1 XZ    0.038188  -0.000005
   15  N  1 YZ   -0.000018  -0.040982
   16  H  2  S   -0.319118  -0.643285
   17  H  2  S   -0.060020  -0.115099
   18  H  2  X    0.004556  -0.038654
   19  H  2  Y    0.031878   0.041541
   20  H  2  Z    0.003031   0.004649
   21  H  3  S   -0.320290   0.633625
   22  H  3  S   -0.060556   0.114300
   23  H  3  X    0.004556   0.037959
   24  H  3  Y   -0.032008   0.040295
   25  H  3  Z    0.002740  -0.004619
   26  H  4  S    0.730407  -0.005383
   27  H  4  S    0.132038  -0.000579
   28  H  4  X   -0.064545   0.000764
   29  H  4  Y   -0.000065  -0.025431
   30  H  4  Z   -0.001364  -0.000054

 -------------------------------------------
       MAXIMIZING MORMO OVERLAP TERM        
 -------------------------------------------
   SWEEP    VALUE       PROGRESS
     0     5.63807
     1     6.92627     1.28820609
     2     6.96460     0.03832916
     3     6.96461     0.00000596
     4     6.96461     0.00000000
     5     6.96461     0.00000000
 THE ROTATION IS DONE
FLIPPING SIGN FOR ORBITAL   7
ACTIVE ORBITALS AFTER MORMO:

                      1          2          3          4          5

    1  N  1  S    0.007945  -0.021145   0.006397  -0.012222   0.212083
    2  N  1  S    0.434147  -0.041440   0.016210  -0.186948   0.732240
    3  N  1  S    0.320283   0.003636  -0.016086  -0.277959   0.192893
    4  N  1  X    0.012119   0.515553  -0.019827  -0.034357   0.026640
    5  N  1  Y    0.000975   0.022630   0.430943   0.006408   0.011380
    6  N  1  Z    0.086947  -0.037688   0.006539   0.601232   0.613239
    7  N  1  X    0.005897   0.168596  -0.013908   0.040989  -0.039006
    8  N  1  Y   -0.006994   0.007677   0.311903  -0.009860   0.008503
    9  N  1  Z    0.019453   0.049329  -0.015325   0.384351  -0.061806
   10  N  1 XX    0.004301   0.008640  -0.004036  -0.012549  -0.044914
   11  N  1 YY   -0.004684  -0.009407   0.004001  -0.009698   0.040772
   12  N  1 ZZ    0.000382   0.000768   0.000035   0.022247   0.004142
   13  N  1 XY    0.000784   0.001849  -0.018915   0.001394  -0.007371
   14  N  1 XZ   -0.002977   0.015402  -0.001227   0.003512   0.030160
   15  N  1 YZ   -0.000394   0.001460   0.026952   0.001058  -0.007373
   16  H  2  S    0.185761  -0.143436   0.375194   0.093454  -0.461660
   17  H  2  S    0.002985  -0.008985   0.125602   0.024376  -0.057554
   18  H  2  X    0.024885   0.000485   0.031291   0.011448  -0.026752
   19  H  2  Y   -0.021099   0.015449  -0.007753  -0.013356   0.051768
   20  H  2  Z   -0.011390   0.015799  -0.020326   0.017587  -0.011787
   21  H  3  S    0.186362  -0.178563  -0.354338   0.098985  -0.442128
   22  H  3  S    0.004529  -0.018845  -0.123199   0.028485  -0.054037
   23  H  3  X    0.026059  -0.007406  -0.035073   0.011832  -0.030376
   24  H  3  Y    0.018837  -0.017253  -0.004635   0.010532  -0.046778
   25  H  3  Z   -0.009021   0.017028   0.013932   0.017853  -0.016165
   26  H  4  S    0.183027   0.390734  -0.027764   0.132229  -0.525512
   27  H  4  S   -0.001232   0.041330  -0.007826   0.032829  -0.060078
   28  H  4  X   -0.035538  -0.041898  -0.000477  -0.014156   0.064208
   29  H  4  Y   -0.002266  -0.003862   0.020694  -0.001339   0.004558
   30  H  4  Z   -0.003649  -0.011325   0.000059   0.021553  -0.010322

                      6          7

    1  N  1  S   -0.079572  -0.001138
    2  N  1  S   -0.172749  -0.005089
    3  N  1  S    0.140751   0.019636
    4  N  1  X   -0.910236   0.007233
    5  N  1  Y   -0.012847   0.866840
    6  N  1  Z    0.016662   0.020110
    7  N  1  X   -0.125557  -0.002156
    8  N  1  Y   -0.001761  -0.001882
    9  N  1  Z    0.027125  -0.006752
   10  N  1 XX   -0.005802   0.008293
   11  N  1 YY    0.023384  -0.008044
   12  N  1 ZZ   -0.017582  -0.000249
   13  N  1 XY    0.011891   0.043351
   14  N  1 XZ    0.053856  -0.001687
   15  N  1 YZ    0.005499  -0.017182
   16  H  2  S   -0.355857  -0.581953
   17  H  2  S   -0.066955  -0.190069
   18  H  2  X    0.011967  -0.042344
   19  H  2  Y    0.040745   0.015568
   20  H  2  Z   -0.010277   0.017073
   21  H  3  S   -0.360370   0.567391
   22  H  3  S   -0.073607   0.186935
   23  H  3  X    0.000616   0.047656
   24  H  3  Y   -0.041107   0.012677
   25  H  3  Z   -0.015390  -0.013663
   26  H  4  S    0.720967  -0.010840
   27  H  4  S    0.134951  -0.000580
   28  H  4  X   -0.068314   0.004086
   29  H  4  Y   -0.005194  -0.006141
   30  H  4  Z    0.016621  -0.003875

Actually Used Diabatic Molecualr Orbitals:

                      1          2          3          4          5

    1  N  1  S    0.007945  -0.021145   0.006397  -0.012222   0.212083
    2  N  1  S    0.434147  -0.041440   0.016210  -0.186948   0.732240
    3  N  1  S    0.320283   0.003636  -0.016086  -0.277959   0.192893
    4  N  1  X    0.012119   0.515553  -0.019827  -0.034357   0.026640
    5  N  1  Y    0.000975   0.022630   0.430943   0.006408   0.011380
    6  N  1  Z    0.086947  -0.037688   0.006539   0.601232   0.613239
    7  N  1  X    0.005897   0.168596  -0.013908   0.040989  -0.039006
    8  N  1  Y   -0.006994   0.007677   0.311903  -0.009860   0.008503
    9  N  1  Z    0.019453   0.049329  -0.015325   0.384351  -0.061806
   10  N  1 XX    0.004301   0.008640  -0.004036  -0.012549  -0.044914
   11  N  1 YY   -0.004684  -0.009407   0.004001  -0.009698   0.040772
   12  N  1 ZZ    0.000382   0.000768   0.000035   0.022247   0.004142
   13  N  1 XY    0.000784   0.001849  -0.018915   0.001394  -0.007371
   14  N  1 XZ   -0.002977   0.015402  -0.001227   0.003512   0.030160
   15  N  1 YZ   -0.000394   0.001460   0.026952   0.001058  -0.007373
   16  H  2  S    0.185761  -0.143436   0.375194   0.093454  -0.461660
   17  H  2  S    0.002985  -0.008985   0.125602   0.024376  -0.057554
[...]

     STATE:    1
 Group Ref#    Coefficients
     1    1    0.960431
     2    2    0.002353
     3    3    0.001663

WEIGHT OF LISTED PROTOTYPES:   92.24%

     STATE:    2
 Group Ref#    Coefficients
     1    1    0.002353
     2    2    0.958916
     3    3   -0.000772

WEIGHT OF LISTED PROTOTYPES:   91.95%

     STATE:    3
 Group Ref#    Coefficients
     1    1    0.001663
     2    2   -0.000772
     3    3    0.960921

WEIGHT OF LISTED PROTOTYPES:   92.34%

 --------------------------------------------------
 IN DIRECT MAX. DIABATIZATION FOR GMC-QDPT

 DIRECT MAXIMIZATION (DM) WITHOUT TRUNCATING ADIABATS
 EXPANSIONS INTO THE REFERENCE CONFIGURATION SPACE
 --------------------------------------------------

 -------------------------------------------
 - DM DIABT PT HAMILTONIAN MATRIX ELEMENTS -
 -------------------------------------------
                                            
 --- DIABATIC ENERGIES (DIAGONAL ELEMENT) ---       HARTREE            EV
 STATE #  1'S GMC-PT-LEVEL DIABATIC ENERGY=     -55.940191122       0.000000000
 STATE #  2'S GMC-PT-LEVEL DIABATIC ENERGY=     -55.665118174       7.485116146
 STATE #  3'S GMC-PT-LEVEL DIABATIC ENERGY=     -55.856929935       2.265652291

 --- DIABATIC COUPLINGS (OFF DIAGONAL ELEMENTS)---  HATREE            EV
 STATE #  1 &  2'S GMC-PT-LEVEL COUPLING  =       0.044944689       1.223007272
 STATE #  1 &  3'S GMC-PT-LEVEL COUPLING  =      -0.007355346      -0.200149158
 STATE #  2 &  3'S GMC-PT-LEVEL COUPLING  =       0.008977257       0.244283594

 ---------------------------------------
     - ROTATION TO DIABATIC STATES -    
 ---------------------------------------
 ROWS=ADIABATIC, COLUMNS=DIABATIC STATES

             1           2           3

    1    0.9827031  -0.1590453   0.0948642
    2   -0.0997869  -0.0232384   0.9947374
    3   -0.1560039  -0.9869977  -0.0387071

 ---------------------------------------
          - DIABATIC STATES -           
 ---------------------------------------

 State #    1  Energy =     -55.940191122

      Det      Coef        Coefp    Occupancy (Ignoring core)
      ---      ----        ----    --------- --------- -----
        1    0.941135   -0.941135  222+000
       17    0.163359    0.163359  22-+00+
      701   -0.130565   -0.130565  22++00-
        4    0.103002   -0.103002  2-2++00
      176   -0.100018    0.100018  2+2+-00
      717   -0.068861   -0.068861  220+002
        6   -0.066911    0.066911  22200+0
      393   -0.060165   -0.060165  202+020
      402    0.046634   -0.046634  2+-+0-+
      708    0.042169   -0.042169  2-++0+-
      215   -0.037891   -0.037891  022+200
      192    0.036079   -0.036079  2+-+-0+
      227   -0.035715   -0.035715  +2-+-0+
      705   -0.034743   -0.034743  -2+++0-
      386   -0.034509    0.034509  2+2+0-0
      704    0.034347   -0.034347  2-+++0-
      390    0.033578   -0.033578  -+2++-0
      218    0.033189   -0.033189  +-2+-+0
       51   -0.032794    0.032794  22+-00+
      212    0.030100    0.030100  +220200
       23   -0.029377   -0.029377  2--++0+
      122    0.029338    0.029338  +2-200+
      702    0.027048    0.027048  22+0+0-
      706    0.026313    0.026313  22+00+-
      143   -0.026222   -0.026222  220+200
     1051   -0.026108   -0.026108  2+++0--
      773    0.025634   -0.025634  +2-++0-
        3   -0.025407   -0.025407  22-++00
      911   -0.025348   -0.025348  2+++-0-
      159    0.024967   -0.024967  -2++-0+
      141    0.024352    0.024352  22++-00
      424   -0.023810   -0.023810  +-2++-0
       76    0.023151    0.023151  2+2-0+0
       29   -0.023129   -0.023129  2--+0++
      184   -0.022484   -0.022484  -+2+-+0
      113   -0.022395    0.022395  +-220+0
      387   -0.021925    0.021925  2+20+-0
      179   -0.021534   -0.021534  202+200
       26   -0.021006   -0.021006  22-00++
      368   -0.020294   -0.020294  2-++0-+

 State #    2  Energy =     -55.665118174

      Det      Coef        Coefp    Occupancy (Ignoring core)
      ---      ----        ----    --------- --------- -----
       71   -0.946127    0.946127  2+22000
      806   -0.132815   -0.132815  2++200-
       87    0.118464   -0.118464  2+-200+
      822    0.074445   -0.074445  2+02002
       74   -0.074299    0.074299  2022+00
       78   -0.071815    0.071815  20220+0
      386    0.067931   -0.067931  2+2+0-0
       76   -0.063003   -0.063003  2+2-0+0
      813    0.051256   -0.051256  20+20+-
      106   -0.049458   -0.049458  +222000
      122    0.048898    0.048898  +2-200+
       36    0.045160    0.045160  22+2000
      111    0.042180   -0.042180  +22-0+0
      332   -0.039212    0.039212  ++-2-0+
      320    0.038865    0.038865  0+22200
      810   -0.038091   -0.038091  -++2+0-
       38   -0.036651    0.036651  2202+00
       99   -0.034526    0.034526  20-20++
      807   -0.033651    0.033651  2++-+0-
      317    0.033443   -0.033443  ++2-200
       72   -0.032735   -0.032735  2+2-+00
      180   -0.032194    0.032194  -+2+200
      192   -0.031900    0.031900  2+-+-0+
      248    0.031893   -0.031893  2+02200
      177    0.031111   -0.031111  2+20200
      323   -0.031010    0.031010  +022-+0
      809    0.029780   -0.029780  20+2+0-
       51    0.028242   -0.028242  22+-00+
      841   -0.028213    0.028213  +2+200-
      264    0.027437   -0.027437  -++2-0+
        6    0.027011   -0.027011  22200+0
       90    0.026894    0.026894  2+--+0+
      811   -0.026247    0.026247  2++-0+-
      878    0.026201    0.026201  ++-2+0-
      109   -0.025274    0.025274  +-22+00
      402   -0.024467    0.024467  2+-+0-+
       73   -0.023998    0.023998  2+-2+00
        4    0.022644   -0.022644  2-2++00
      316    0.022543    0.022543  ++22-00
      246    0.021891    0.021891  2++2-00
      911    0.021542    0.021542  2+++-0-
      183   -0.021477    0.021477  202+-+0
      421   -0.021253   -0.021253  +22+0-0
      391    0.021023   -0.021023  2+20020
        9   -0.020928   -0.020928  -22+0+0
       54   -0.020685    0.020685  -2+200+
       17   -0.020413   -0.020413  22-+00+
       79   -0.020121   -0.020121  -+220+0

 State #    3  Energy =     -55.856929935

      Det      Coef        Coefp    Occupancy (Ignoring core)
      ---      ----        ----    --------- --------- -----
       36   -0.943568   -0.943568  22+2000
       39   -0.134812   -0.134812  2-+2+00
      246    0.117047    0.117047  2++2-00
       52   -0.116493    0.116493  220200+
       41   -0.099385    0.099385  22+-0+0
      351    0.092070    0.092070  22++0-0
      463    0.056895   -0.056895  20+2020
      472   -0.050282   -0.050282  2+020-+
      456    0.050033    0.050033  2++20-0
       43   -0.047337   -0.047337  2-+20+0
       71   -0.045771    0.045771  2+22000
      285    0.037601   -0.037601  02+2200
      262   -0.036792   -0.036792  2+02-0+
      297    0.036316   -0.036316  +202-0+
      157    0.035146   -0.035146  220+-0+
       64    0.034238   -0.034238  2-020++
      460   -0.033521   -0.033521  -++2+-0
       37   -0.032428    0.032428  22+-+00
      288   -0.032378   -0.032378  +-+2-+0
      367    0.032065   -0.032065  220+0-+
      145   -0.031975   -0.031975  -2++200
       58    0.031918   -0.031918  2-02+0+
      142    0.031280    0.031280  22+0200
      282    0.031213    0.031213  +2+-200
      121   -0.030912    0.030912  +22-00+
       55   -0.030454   -0.030454  220-+0+
       38    0.028895   -0.028895  2202+00
      123    0.028768   -0.028768  +-2200+
       61   -0.025738   -0.025738  220-0++
      716    0.024238    0.024238  22+0002
      843   -0.024021   -0.024021  +202+0-
      494    0.023113   -0.023113  +-+2+-0
      491    0.022339   -0.022339  +2+20-0
      457   -0.021912    0.021912  2++-+-0
      148   -0.021756   -0.021756  2-++-+0
      254    0.021266   -0.021266  -++2-+0
      141    0.021108    0.021108  22++-00
      859    0.020635   -0.020635  02+2002
       16   -0.020592    0.020592  222000+

 ---------------------------------------
      - DIABATIC STATES IN CMO -        
 ---------------------------------------

 State #    1  Energy =     -55.940191122

      Det      Coef        Coefp    Occupancy (Ignoring core)
      ---      ----        ----    --------- --------- -----
        1    0.954746   -0.954746  222+000
       71   -0.147560    0.147560  2+22000
       36    0.141590    0.141590  22+2000
      393   -0.060636   -0.060636  202+020
      717   -0.058834   -0.058834  220+002
      143   -0.057589   -0.057589  220+200
        8   -0.037868    0.037868  2-2+0+0
      106   -0.034060   -0.034060  +222000
       17   -0.032833   -0.032833  22-+00+
      145    0.031646    0.031646  -2++200
      157    0.031369   -0.031369  220+-0+
      787    0.029864   -0.029864  +2-+002
      213   -0.029202    0.029202  +2-+200
      719   -0.029153   -0.029153  -2++002
      703   -0.028284   -0.028284  220++0-
        2    0.027749   -0.027749  2220+00
      215   -0.027071   -0.027071  022+200
      789   -0.027001   -0.027001  022+002
      179   -0.026760   -0.026760  202+200
      142   -0.026615   -0.026615  22+0200
      718    0.026047   -0.026047  2-++002
       51    0.025924   -0.025924  22+-00+
      148    0.024445    0.024445  2-++-+0
      752   -0.024193   -0.024193  2+-+002
      753   -0.023633   -0.023633  202+002
      144   -0.023417    0.023417  2-++200
        3   -0.022120   -0.022120  22-++00
       76    0.021974    0.021974  2+2-0+0
      122   -0.021702   -0.021702  +2-200+
      391    0.021642   -0.021642  2+20020
      428    0.021598    0.021598  +-2+020
      402   -0.021310    0.021310  2+-+0-+
      708   -0.021145    0.021145  2-++0+-
      108   -0.020979   -0.020979  +2-2+00
      388    0.020816    0.020816  2+-++-0
      113   -0.020760    0.020760  +-220+0
      394   -0.020708    0.020708  -+2+020
      390    0.020016   -0.020016  -+2++-0

 State #    2  Energy =     -55.665118174

      Det      Coef        Coefp    Occupancy (Ignoring core)
      ---      ----        ----    --------- --------- -----
       71   -0.964344    0.964344  2+22000
        1   -0.151445    0.151445  222+000
      822    0.061822   -0.061822  2+02002
      248    0.056672   -0.056672  2+02200
      111    0.039633   -0.039633  +22-0+0
      122   -0.035459   -0.035459  +2-200+
      108   -0.031887   -0.031887  +2-2+00
      177    0.030927   -0.030927  2+20200
      824   -0.030345   -0.030345  -++2002
      250    0.030229    0.030229  -++2200
      262   -0.030078   -0.030078  2+02-0+
      808    0.029902   -0.029902  2+02+0-
      892    0.029838    0.029838  ++-2002
      318   -0.029671   -0.029671  ++-2200
       52    0.028703   -0.028703  220200+
      320    0.028666    0.028666  0+22200
      894    0.028534    0.028534  0+22002
      823    0.026945   -0.026945  20+2002
       76    0.026517    0.026517  2+2-0+0
      109   -0.025545    0.025545  +-22+00
      391    0.025467   -0.025467  2+20020
       37   -0.025304    0.025304  22+-+00
      178   -0.024958   -0.024958  2+-+200
       78   -0.024718    0.024718  20220+0
       38   -0.024694    0.024694  2202+00
      421   -0.023695   -0.023695  +22+0-0
        3    0.023562    0.023562  22-++00
      813   -0.023211    0.023211  20+20+-
      911   -0.022582   -0.022582  2+++-0-
      107    0.022479   -0.022479  +22-+00
        4    0.021906   -0.021906  2-2++00
      253    0.021894    0.021894  20+2-+0
      751    0.021814   -0.021814  2+20002
      249   -0.021586    0.021586  20+2200
      247    0.021369   -0.021369  2++-200
       90   -0.020727   -0.020727  2+--+0+
      121   -0.020524    0.020524  +22-00+

 State #    3  Energy =     -55.856929935

      Det      Coef        Coefp    Occupancy (Ignoring core)
      ---      ----        ----    --------- --------- -----
       36   -0.972507   -0.972507  22+2000
        1    0.139248   -0.139248  222+000
      463    0.057873   -0.057873  20+2020
       71   -0.033011    0.033011  2+22000
      249    0.031715   -0.031715  20+2200
      822    0.031099   -0.031099  2+02002
      857   -0.028733   -0.028733  +202002
      283    0.028711    0.028711  +202200
      859    0.028589   -0.028589  02+2002
      823    0.028461   -0.028461  20+2002
      142    0.028235    0.028235  22+0200
      285    0.028144   -0.028144  02+2200
       58   -0.026888    0.026888  2-02+0+
      109   -0.025250    0.025250  +-22+00
       55    0.025133    0.025133  220-+0+
      716    0.024857    0.024857  22+0002
      472    0.024795    0.024795  2+020-+
      717   -0.024654   -0.024654  220+002
      356    0.024149    0.024149  22+0020
      458   -0.023295    0.023295  2+02+-0
      123   -0.023048    0.023048  +-2200+
      498   -0.021178    0.021178  +-+2020
      464    0.020895    0.020895  -++2020
      121    0.020846   -0.020846  +22-00+
      248   -0.020378    0.020378  2+02200

 ---------------------------------------
    -DIABATIC STATES IN PROTOTYPES-     
 ---------------------------------------

     STATE:    1
 Group Ref#    Coefficients
     1    1    0.960431
     2    2    0.002351
     3    3    0.001663

WEIGHT OF LISTED PROTOTYPES:   92.24%

     STATE:    2
 Group Ref#    Coefficients
     1    1    0.002355
     2    2    0.958916
     3    3   -0.000773

WEIGHT OF LISTED PROTOTYPES:   91.95%

     STATE:    3
 Group Ref#    Coefficients
     1    1    0.001662
     2    2   -0.000772
     3    3    0.960921

WEIGHT OF LISTED PROTOTYPES:   92.34%

     DIRECT MAX. DIABATIZATION FINISHED    
 CPU     0: STEP CPU TIME=     0.24 TOTAL CPU TIME=         14.0 (      0.2 MIN)
 TOTAL WALL CLOCK TIME=         14.0 SECONDS, CPU UTILIZATION IS    99.93%

DIABATS FOR SPIN-ORBIT CALCULATION ARE READY

TRANSITION DIPOLES BETWEEN ADIABATS (in A.U.):

STATE PAIR      X         Y         Z
    1    1 -0.319019  0.037575  0.724623
    2    1  0.013382 -0.054373 -0.049883
    2    2 -0.122031  0.087132  0.271039
    3    1 -0.118887 -0.010603 -0.075590
    3    2 -0.019665 -0.129528 -0.000037
    3    3 -0.610381  0.052903  0.239704


TRANSITION DIPOLES BETWEEN DIABATS (in A.U.):

STATE PAIR      X         Y         Z
    1    1 -0.290933  0.048323  0.741264
    2    1  0.065854 -0.000352 -0.003933
    2    2 -0.640876  0.042862  0.227885
    3    1  0.000899 -0.037303 -0.002195
    3    2  0.011858  0.136144  0.006609
    3    3 -0.119622  0.086425  0.266217

TRANSITION DIPOLES BETWEEN DIRECT MAX. DIABATS (in A.U.):

STATE PAIR      X         Y         Z
    1    1 -0.290933  0.048323  0.741264
    2    1  0.065854 -0.000352 -0.003932
    2    2 -0.640876  0.042862  0.227885
    3    1  0.000899 -0.037303 -0.002195
    3    2  0.011858  0.136144  0.006609
    3    3 -0.119622  0.086425  0.266217
 No $TRANST Group Found.
 Quit without doing spin-orbit coupling
 ..... DONE WITH MP2 ENERGY .....
 CPU     0: STEP CPU TIME=     0.01 TOTAL CPU TIME=         14.0 (      0.2 MIN)
 TOTAL WALL CLOCK TIME=         14.0 SECONDS, CPU UTILIZATION IS   100.00%
            100000000  WORDS OF DYNAMIC MEMORY USED
 EXECUTION OF GAMESS TERMINATED NORMALLY Wed Nov 16 19:28:05 2022
 DDI: 715512 bytes (0.7 MB / 0 MWords) used by master data server.

 ----------------------------------------
 CPU timing information for all processes
 ========================================
 0: 13.711 + 0.300 = 14.11
 ----------------------------------------
Note: The following floating-point exceptions are signalling: IEEE_DENORMAL
 ddikick.x: exited gracefully.
unset echo
----- accounting info -----
Files used on the master node io002 were:
-rw-r--r-- 1 bsonghao nooijen   20717 Nov 16 19:27 /scratch/bsonghao/nh3_diabatization_2d_at_mode_7_8_dist0.1_-0.6.F05
-rw-r--r-- 1 bsonghao nooijen  363520 Nov 16 19:28 /scratch/bsonghao/nh3_diabatization_2d_at_mode_7_8_dist0.1_-0.6.F09
-rw-r--r-- 1 bsonghao nooijen 1995920 Nov 16 19:28 /scratch/bsonghao/nh3_diabatization_2d_at_mode_7_8_dist0.1_-0.6.F10
-rw-r--r-- 1 bsonghao nooijen  131264 Nov 16 19:28 /scratch/bsonghao/nh3_diabatization_2d_at_mode_7_8_dist0.1_-0.6.F13
-rw-r--r-- 1 bsonghao nooijen  180312 Nov 16 19:28 /scratch/bsonghao/nh3_diabatization_2d_at_mode_7_8_dist0.1_-0.6.F15
-rw-r--r-- 1 bsonghao nooijen       0 Nov 16 19:27 /scratch/bsonghao/nh3_diabatization_2d_at_mode_7_8_dist0.1_-0.6.F16
-rw-r--r-- 1 bsonghao nooijen    9808 Nov 16 19:28 /scratch/bsonghao/nh3_diabatization_2d_at_mode_7_8_dist0.1_-0.6.F70
-rw-r--r-- 1 bsonghao nooijen    9808 Nov 16 19:28 /scratch/bsonghao/nh3_diabatization_2d_at_mode_7_8_dist0.1_-0.6.F71
-rw-r--r-- 1 bsonghao nooijen   19608 Nov 16 19:28 /scratch/bsonghao/nh3_diabatization_2d_at_mode_7_8_dist0.1_-0.6.F72
-rw-r--r-- 1 bsonghao nooijen   19608 Nov 16 19:28 /scratch/bsonghao/nh3_diabatization_2d_at_mode_7_8_dist0.1_-0.6.F73
-rw-r--r-- 1 bsonghao nooijen 1920824 Nov 16 19:28 /scratch/bsonghao/nh3_diabatization_2d_at_mode_7_8_dist0.1_-0.6.F74
-rw-r--r-- 1 bsonghao nooijen       0 Nov 16 19:27 /scratch/bsonghao/nh3_diabatization_2d_at_mode_7_8_dist0.1_-0.6.F75
-rw-r--r-- 1 bsonghao nooijen   58848 Nov 16 19:28 /scratch/bsonghao/nh3_diabatization_2d_at_mode_7_8_dist0.1_-0.6.F76
-rw-r--r-- 1 bsonghao nooijen       0 Nov 16 19:27 /scratch/bsonghao/nh3_diabatization_2d_at_mode_7_8_dist0.1_-0.6.F77
-rw-r--r-- 1 bsonghao nooijen    1864 Nov 16 19:28 /scratch/bsonghao/nh3_diabatization_2d_at_mode_7_8_dist0.1_-0.6.F78
-rw-r--r-- 1 bsonghao nooijen   39208 Nov 16 19:28 /scratch/bsonghao/nh3_diabatization_2d_at_mode_7_8_dist0.1_-0.6.F79
-rw-r--r-- 1 bsonghao nooijen     104 Nov 16 19:28 /scratch/bsonghao/nh3_diabatization_2d_at_mode_7_8_dist0.1_-0.6.F80
-rw-r--r-- 1 bsonghao nooijen   13472 Nov 16 19:28 /scratch/bsonghao/nh3_diabatization_2d_at_mode_7_8_dist0.1_-0.6.F81
-rw-r--r-- 1 bsonghao nooijen      16 Nov 16 19:28 /scratch/bsonghao/nh3_diabatization_2d_at_mode_7_8_dist0.1_-0.6.F82
-rw-r--r-- 1 bsonghao nooijen   19216 Nov 16 19:28 /scratch/bsonghao/nh3_diabatization_2d_at_mode_7_8_dist0.1_-0.6.F83
-rw-r--r-- 1 bsonghao nooijen   29712 Nov 16 19:28 /scratch/bsonghao/nh3_diabatization_2d_at_mode_7_8_dist0.1_-0.6.F84
-rw-r--r-- 1 bsonghao nooijen  401576 Nov 16 19:28 /scratch/bsonghao/nh3_diabatization_2d_at_mode_7_8_dist0.1_-0.6.F85
-rw-r--r-- 1 bsonghao nooijen  903672 Nov 16 19:28 /scratch/bsonghao/nh3_diabatization_2d_at_mode_7_8_dist0.1_-0.6.F86
-rw-r--r-- 1 bsonghao nooijen     656 Nov 16 19:28 /scratch/bsonghao/nh3_diabatization_2d_at_mode_7_8_dist0.1_-0.6.F87
-rw-r--r-- 1 bsonghao nooijen   35856 Nov 16 19:28 /scratch/bsonghao/nh3_diabatization_2d_at_mode_7_8_dist0.1_-0.6.F88
-rw-r--r-- 1 bsonghao nooijen     240 Nov 16 19:28 /scratch/bsonghao/nh3_diabatization_2d_at_mode_7_8_dist0.1_-0.6.F89
-rw-r--r-- 1 bsonghao nooijen       0 Nov 16 19:27 /scratch/bsonghao/nh3_diabatization_2d_at_mode_7_8_dist0.1_-0.6.F90
-rw-r--r-- 1 bsonghao nooijen   13760 Nov 16 19:28 /scratch/bsonghao/nh3_diabatization_2d_at_mode_7_8_dist0.1_-0.6.F91
-rw-r--r-- 1 bsonghao nooijen   22776 Nov 16 19:28 /scratch/bsonghao/nh3_diabatization_2d_at_mode_7_8_dist0.1_-0.6.F92
-rw-r--r-- 1 bsonghao nooijen   23168 Nov 16 19:28 /scratch/bsonghao/nh3_diabatization_2d_at_mode_7_8_dist0.1_-0.6.F93
-rw-r--r-- 1 bsonghao nooijen   22776 Nov 16 19:28 /scratch/bsonghao/nh3_diabatization_2d_at_mode_7_8_dist0.1_-0.6.F94
-rw-r--r-- 1 bsonghao nooijen   13760 Nov 16 19:28 /scratch/bsonghao/nh3_diabatization_2d_at_mode_7_8_dist0.1_-0.6.F95
-rw-r--r-- 1 bsonghao nooijen   29440 Nov 16 19:28 /scratch/bsonghao/nh3_diabatization_2d_at_mode_7_8_dist0.1_-0.6.F96
-rw-r--r-- 1 bsonghao nooijen    1184 Nov 16 19:28 /scratch/bsonghao/nh3_diabatization_2d_at_mode_7_8_dist0.1_-0.6.F97
-rw-r--r-- 1 bsonghao nooijen    9808 Nov 16 19:28 /scratch/bsonghao/nh3_diabatization_2d_at_mode_7_8_dist0.1_-0.6.F98
-rw-r--r-- 1 bsonghao nooijen   30264 Nov 16 19:28 /scratch/bsonghao/nh3_diabatization_2d_at_mode_7_8_dist0.1_-0.6.F99
ls: No match.
ls: No match.
ls: No match.
Wed 16 Nov 2022 07:28:08 PM EST
0.299u 0.034s 0:17.38 1.8%	0+0k 48+224io 0pf+0w
