----- GAMESS execution script 'rungms' -----
This job is running on host io002
under operating system Linux at Wed 16 Nov 2022 07:36:46 PM EST
Available scratch disk space (Kbyte units) at beginning of the job is
Filesystem       1K-blocks       Used   Available Use% Mounted on
/dev/sdc1      15378471580 3278917120 11318349060  23% /scratch
GAMESS temporary binary files will be written to /scratch/bsonghao
GAMESS supplementary output files will be written to /home/bsonghao/.gamess_ascii_files/267638
Copying input file nh3_diabatization_2d_at_mode_7_8_dist0.2_-0.3.inp to your run's scratch directory...
cp nh3_diabatization_2d_at_mode_7_8_dist0.2_-0.3.inp /scratch/bsonghao/nh3_diabatization_2d_at_mode_7_8_dist0.2_-0.3.F05
unset echo
/home/bjb2chen/gamess/ddikick.x /home/bjb2chen/gamess/gamess.00.x nh3_diabatization_2d_at_mode_7_8_dist0.2_-0.3 -ddi 1 1 io002 -scr /scratch/bsonghao

 Distributed Data Interface kickoff program.
 Initiating 1 compute processes on 1 nodes to run the following command:
 /home/bjb2chen/gamess/gamess.00.x nh3_diabatization_2d_at_mode_7_8_dist0.2_-0.3 

          ******************************************************
          *         GAMESS VERSION = 02 AUG 2018 (R2)         *
          *             FROM IOWA STATE UNIVERSITY             *
          * M.W.SCHMIDT, K.K.BALDRIDGE, J.A.BOATZ, S.T.ELBERT, *
          *   M.S.GORDON, J.H.JENSEN, S.KOSEKI, N.MATSUNAGA,   *
          *          K.A.NGUYEN, S.J.SU, T.L.WINDUS,           *
          *       TOGETHER WITH M.DUPUIS, J.A.MONTGOMERY       *
          *         J.COMPUT.CHEM.  14, 1347-1363(1993)        *
          **************** 64 BIT LINUX VERSION ****************

  SINCE 1993, STUDENTS AND POSTDOCS WORKING AT IOWA STATE UNIVERSITY
  AND ALSO IN THEIR VARIOUS JOBS AFTER LEAVING ISU HAVE MADE IMPORTANT
  CONTRIBUTIONS TO THE CODE:
     IVANA ADAMOVIC, CHRISTINE AIKENS, YURI ALEXEEV, POOJA ARORA,
     ANDREY ASADCHEV, ROB BELL, PRADIPTA BANDYOPADHYAY, JONATHAN BENTZ,
     BRETT BODE, KURT BRORSEN, CALEB CARLIN, GALINA CHABAN, WEI CHEN,
     CHEOL HO CHOI, PAUL DAY, ALBERT DEFUSCO, NUWAN DESILVA, TIM DUDLEY,
     DMITRI FEDOROV, ALEX FINDLATER, GRAHAM FLETCHER, MARK FREITAG,
     KURT GLAESEMANN, ANASTASIA GUININA,
     DAN KEMP, GRANT MERRILL, NORIYUKI MINEZAWA, JONATHAN MULLIN,
     TAKESHI NAGATA, SEAN NEDD, HEATHER NETZLOFF, BOSILJKA NJEGIC, RYAN OLSON,
     MIKE PAK, BUU PHAM,
     SPENCER PRUITT, LUKE ROSKOP, JIM SHOEMAKER, LYUDMILA SLIPCHENKO,
     TONY SMITH, SAROM SOK LEANG, JIE SONG, TETSUYA TAKETSUGU, SIMON WEBB,
     PENG XU, SOOHAENG YOO, FEDERICO ZAHARIEV

  ADDITIONAL CODE HAS BEEN PROVIDED BY COLLABORATORS IN OTHER GROUPS:
     IOWA STATE UNIVERSITY:
          JOE IVANIC, AARON WEST, LAIMUTIS BYTAUTAS, KLAUS RUEDENBERG
     UNIVERSITY OF TOKYO: KIMIHIKO HIRAO, TAKAHITO NAKAJIMA,
          TAKAO TSUNEDA, MUNEAKI KAMIYA, SUSUMU YANAGISAWA,
          KIYOSHI YAGI, MAHITO CHIBA, SEIKEN TOKURA, NAOAKI KAWAKAMI
     UNIVERSITY OF AARHUS: FRANK JENSEN
     UNIVERSITY OF IOWA: VISVALDAS KAIRYS, HUI LI
     NATIONAL INST. OF STANDARDS AND TECHNOLOGY: WALT STEVENS, DAVID GARMER
     UNIVERSITY OF PISA: BENEDETTA MENNUCCI, JACOPO TOMASI
     UNIVERSITY OF MEMPHIS: HENRY KURTZ, PRAKASHAN KORAMBATH
     UNIVERSITY OF ALBERTA: TOBY ZENG, MARIUSZ KLOBUKOWSKI
     UNIVERSITY OF NEW ENGLAND: MARK SPACKMAN
     MIE UNIVERSITY: HIROAKI UMEDA
     NAT. INST. OF ADVANCED INDUSTRIAL SCIENCE AND TECHNOLOGY: KAZUO KITAURA
     MICHIGAN STATE UNIVERSITY:
          KAROL KOWALSKI, MARTA WLOCH, JEFFREY GOUR, JESSE LUTZ,
          WEI LI, JUN SHEN, J. EMILIANO DEUSTUA, PIOTR PIECUCH
     UNIVERSITY OF MINNESOTA:
          YINAN SHU
     UNIVERSITY OF SILESIA: MONIKA MUSIAL, STANISLAW KUCHARSKI
     FACULTES UNIVERSITAIRES NOTRE-DAME DE LA PAIX:
          OLIVIER QUINET, BENOIT CHAMPAGNE
     UNIVERSITY OF CALIFORNIA - SANTA BARBARA: BERNARD KIRTMAN
     INSTITUTE FOR MOLECULAR SCIENCE:
          KAZUYA ISHIMURA, MICHIO KATOUDA, AND SHIGERU NAGASE
     UNIVERSITY OF NOTRE DAME: ANNA POMOGAEVA, DAN CHIPMAN
     KYUSHU UNIVERSITY:
          HARUYUKI NAKANO,
          FENG LONG GU, JACEK KORCHOWIEC, MARCIN MAKOWSKI, AND YURIKO AOKI,
          HIROTOSHI MORI AND EISAKU MIYOSHI
     PENNSYLVANIA STATE UNIVERSITY:
          TZVETELIN IORDANOV, CHET SWALINA, JONATHAN SKONE,
          SHARON HAMMES-SCHIFFER
     WASEDA UNIVERSITY:
          MASATO KOBAYASHI, TOMOKO AKAMA, TSUGUKI TOUMA,
          TAKESHI YOSHIKAWA, YASUHIRO IKABATA, JUNJI SEINO,
          YUYA NAKAJIMA, HIROMI NAKAI
     NANJING UNIVERSITY: SHUHUA LI
     UNIVERSITY OF NEBRASKA:
          PEIFENG SU, DEJUN SI, NANDUN THELLAMUREGE, YALI WANG, HUI LI
     UNIVERSITY OF ZURICH: ROBERTO PEVERATI, KIM BALDRIDGE
     N. COPERNICUS UNIVERSITY AND JACKSON STATE UNIVERSITY:
          MARIA BARYSZ
     UNIVERSITY OF COPENHAGEN: Jimmy Kromann, CASPER STEINMANN
     TOKYO INSTITUTE OF TECHNOLOGY: HIROYA NAKATA
     NAGOYA UNIVERSITY: YOSHIO NISHIMOTO, STEPHAN IRLE
     MOSCOW STATE UNIVERSITY: VLADIMIR MIRONOV

 EXECUTION OF GAMESS BEGUN Wed Nov 16 19:36:46 2022

            ECHO OF THE FIRST FEW INPUT CARDS -
 INPUT CARD> $system kdiag=3 mwords=100 memddi=1000 parall=.t. $end                         
 INPUT CARD> $contrl runtyp=energy ispher=1 $end                                            
 INPUT CARD> $contrl icut=9 itol=20 inttyp=rysquad qmttol=1.0d-05 nosym=1 $end              
 INPUT CARD> $scf    npunch=2 conv=1.0d-06 dirscf=.t.      $end                             
 INPUT CARD> $contrl scftyp=mcscf  mult=2 maxit=200 icharg=1 mplevl=2 $end                  
 INPUT CARD> $guess  guess=moread norb=29 purify=.t. $end                                   
 INPUT CARD> $basis  gbasis=ccd $end                                                        
 INPUT CARD> $mcscf  cistep=gmcci fullnr=.t. finci=mos                                      
 INPUT CARD>         acurcy=1.d-6 maxit=100 $end                                            
 INPUT CARD> $trans  dirtrf=.t. $end                                                        
 INPUT CARD> $mrmp   mrpt=gmcpt rdvecs=.f. $end                                             
 INPUT CARD> $gmcpt  nmofzc=0 nmodoc=1 nmoact=7 nelact=7 stsym(1)=A                         
 INPUT CARD>         reftyp=ormas nspace=1 mstart(1)=2 mine(1)=7 maxe(1)=7                  
 INPUT CARD>         kstate(1)=1,1,1                                                        
 INPUT CARD>         wstate(1)=1,1,1                                                        
 INPUT CARD>         iwgt=0 thrwgt=-1.0 krot=.f. kszdoe=.f. knospn=.f.                      
 INPUT CARD>         thrde=-1.0 edshft=0.02 $end                                            
 INPUT CARD> $data                                                                          
 INPUT CARD> NH3+ 3 states calculation at NH3 structure.                                    
 INPUT CARD> c1                                                                             
 INPUT CARD>N 7.0 0.018686754000000003 -0.012457805999999998 -0.1693805222                  
 INPUT CARD>H 1.0 -0.541641251 0.7049086588 0.3417770151                                    
 INPUT CARD>H 1.0 -0.694491879 -0.6777547218000001 0.25033407110000006                      
 INPUT CARD>H 1.0 0.976475666 0.14595148199999997 0.1772671171                              
 INPUT CARD>$end                                                                            
 INPUT CARD>--- OPTIMIZED RHF      MO-S --- GENERATED AT Mon Nov 14 16:47:08 2022           
 INPUT CARD>E=      -56.3825050291, E(NUC)=   11.8429239490                                 
 INPUT CARD> $VEC                                                                           
 INPUT CARD> 1  1-1.00134066E+00-2.25158504E-03 3.44925845E-03 0.00000000E+00 0.00000000E+00
 INPUT CARD> 1  2-2.13170927E-03 0.00000000E+00 0.00000000E+00 6.57129898E-04-6.87950443E-05
 INPUT CARD> 1  3-6.87950443E-05 1.37590089E-04 0.00000000E+00 0.00000000E+00 0.00000000E+00
 INPUT CARD> 1  4 3.25502815E-04-4.84772356E-04 3.62525460E-04-6.27912517E-04-3.45956485E-04
 INPUT CARD> 1  5 3.25502815E-04-4.84772356E-04 3.62525460E-04 6.27912517E-04-3.45956485E-04
 INPUT CARD> 1  6 3.25502815E-04-4.84772356E-04-7.25050921E-04 0.00000000E+00-3.45956485E-04
 INPUT CARD> 2  1 1.31286642E-02-4.05911371E-01-2.82090992E-01 0.00000000E+00 0.00000000E+00
 INPUT CARD> 2  2-7.71489043E-02 0.00000000E+00 0.00000000E+00 9.73717494E-03 6.62450916E-04
 INPUT CARD> 2  3 6.62450916E-04-1.32490183E-03 0.00000000E+00 0.00000000E+00 0.00000000E+00
 INPUT CARD> 2  4-1.96090317E-01-1.96656153E-02-1.74855877E-02 3.02859263E-02 8.68214399E-03
 INPUT CARD> 2  5-1.96090317E-01-1.96656153E-02-1.74855877E-02-3.02859263E-02 8.68214399E-03
 INPUT CARD> 2  6-1.96090317E-01-1.96656153E-02 3.49711754E-02 0.00000000E+00 8.68214399E-03
 INPUT CARD> 3  1 0.00000000E+00 0.00000000E+00 0.00000000E+00 4.48608762E-01 0.00000000E+00
 INPUT CARD> 3  2 0.00000000E+00 2.18692520E-01 0.00000000E+00 0.00000000E+00 1.30198027E-02
 INPUT CARD> 3  3-1.30198027E-02 0.00000000E+00 0.00000000E+00 2.71832968E-02 0.00000000E+00
 INPUT CARD> 3  4-1.85332726E-01-7.03958951E-02 8.47929477E-03 1.95242443E-02 8.32835058E-03
 INPUT CARD> 3  5-1.85332726E-01-7.03958951E-02 8.47929477E-03-1.95242443E-02 8.32835058E-03
 INPUT CARD> 3  6 3.70665453E-01 1.40791790E-01-2.53376884E-02 0.00000000E+00-1.66567012E-02
 INPUT CARD> 4  1 0.00000000E+00 0.00000000E+00 0.00000000E+00 0.00000000E+00 4.48608762E-01
 INPUT CARD> 4  2 0.00000000E+00 0.00000000E+00 2.18692520E-01 0.00000000E+00 0.00000000E+00
 INPUT CARD> 4  3 0.00000000E+00 0.00000000E+00-1.50339731E-02 0.00000000E+00 2.71832968E-02
 INPUT CARD> 4  4 3.21005698E-01 1.21929267E-01 1.95242443E-02-1.40653607E-02-1.44251263E-02
  100000000 WORDS OF MEMORY AVAILABLE

     BASIS OPTIONS
     -------------
     GBASIS=CCD          IGAUSS=       0      POLAR=NONE    
     NDFUNC=       0     NFFUNC=       0     DIFFSP=       F
     NPFUNC=       0      DIFFS=       F     BASNAM=        


     RUN TITLE
     ---------
  NH3+ 3 states calculation at NH3 structure.                                    

 THE POINT GROUP OF THE MOLECULE IS C1      
 THE ORDER OF THE PRINCIPAL AXIS IS     0

 ATOM      ATOMIC                      COORDINATES (BOHR)
           CHARGE         X                   Y                   Z
 N           7.0     0.0353128447       -0.0235418397       -0.3200827746
 H           1.0    -1.0235535480        1.3320842115        0.6458649074
 H           1.0    -1.3123993520       -1.2807707111        0.4730627998
 H           1.0     1.8452714424        0.2758083085        0.3349862780

          INTERNUCLEAR DISTANCES (ANGS.)
          ------------------------------

                1 N          2 H          3 H          4 H     

   1 N       0.0000000    1.0439656 *  1.0617929 *  1.0308335 *
   2 H       1.0439656 *  0.0000000    1.3940886 *  1.6260921 *
   3 H       1.0617929 *  1.3940886 *  0.0000000    1.8643935 *
   4 H       1.0308335 *  1.6260921 *  1.8643935 *  0.0000000  

  * ... LESS THAN  3.000


     ATOMIC BASIS SET
     ----------------
 THE CONTRACTED PRIMITIVE FUNCTIONS HAVE BEEN UNNORMALIZED
 THE CONTRACTED BASIS FUNCTIONS ARE NOW NORMALIZED TO UNITY

  SHELL TYPE  PRIMITIVE        EXPONENT          CONTRACTION COEFFICIENT(S)

 N         

      1   S       1          9046.0000000    0.000699617413
      1   S       2          1357.0000000    0.005386054630
      1   S       3           309.3000000    0.027391021189
      1   S       4            87.7300000    0.103150591982
      1   S       5            28.5600000    0.278570663317
      1   S       6            10.2100000    0.448294849454
      1   S       7             3.8380000    0.278085928395
      1   S       8             0.7466000    0.015431561233

      2   S       9          9046.0000000   -0.000304990096
      2   S      10          1357.0000000   -0.002408026379
      2   S      11           309.3000000   -0.011944448725
      2   S      12            87.7300000   -0.048925992909
      2   S      13            28.5600000   -0.134472724725
      2   S      14            10.2100000   -0.315112577700
      2   S      15             3.8380000   -0.242857832550
      2   S      16             0.7466000    1.094382206854

      3   S      17             0.2248000    1.000000000000

      4   P      18            13.5500000    0.058905676772
      4   P      19             2.9170000    0.320461106714
      4   P      20             0.7973000    0.753042061792

      5   P      21             0.2185000    1.000000000000

      6   D      22             0.8170000    1.000000000000

 H         

      7   S      23            13.0100000    0.033498726390
      7   S      24             1.9620000    0.234800801174
      7   S      25             0.4446000    0.813682957883

      8   S      26             0.1220000    1.000000000000

      9   P      27             0.7270000    1.000000000000

 H         

     10   S      28            13.0100000    0.033498726390
     10   S      29             1.9620000    0.234800801174
     10   S      30             0.4446000    0.813682957883

     11   S      31             0.1220000    1.000000000000

     12   P      32             0.7270000    1.000000000000

 H         

     13   S      33            13.0100000    0.033498726390
     13   S      34             1.9620000    0.234800801174
     13   S      35             0.4446000    0.813682957883

     14   S      36             0.1220000    1.000000000000

     15   P      37             0.7270000    1.000000000000

 TOTAL NUMBER OF BASIS SET SHELLS             =   15
 NUMBER OF CARTESIAN GAUSSIAN BASIS FUNCTIONS =   30
 NOTE: THIS RUN WILL RESTRICT THE MO VARIATION SPACE TO SPHERICAL HARMONICS.
 THE NUMBER OF ORBITALS KEPT IN THE VARIATIONAL SPACE WILL BE PRINTED LATER.
 NUMBER OF ELECTRONS                          =    9
 CHARGE OF MOLECULE                           =    1
 SPIN MULTIPLICITY                            =    2
 NUMBER OF OCCUPIED ORBITALS (ALPHA)          =    5
 NUMBER OF OCCUPIED ORBITALS (BETA )          =    4
 TOTAL NUMBER OF ATOMS                        =    4
 THE NUCLEAR REPULSION ENERGY IS       11.6191975096

     $CONTRL OPTIONS
     ---------------
 SCFTYP=MCSCF        RUNTYP=ENERGY       EXETYP=RUN     
 MPLEVL=       2     CITYP =NONE         CCTYP =NONE         VBTYP =NONE    
 DFTTYP=NONE         TDDFT =NONE    
 MULT  =       2     ICHARG=       1     NZVAR =       0     COORD =UNIQUE  
 PP    =NONE         RELWFN=NONE         LOCAL =NONE         NUMGRD=       F
 ISPHER=       1     NOSYM =       1     MAXIT =     200     UNITS =ANGS    
 PLTORB=       F     MOLPLT=       F     AIMPAC=       F     FRIEND=        
 NPRINT=       7     IREST =       0     GEOM  =INPUT   
 NORMF =       0     NORMP =       0     ITOL  =      20     ICUT  =       9
 INTTYP=RYSQUAD      GRDTYP=BEST         QMTTOL= 1.0E-05

     $SYSTEM OPTIONS
     ---------------
  REPLICATED MEMORY=   100000000 WORDS (ON EVERY NODE).
 DISTRIBUTED MEMDDI=        1000 MILLION WORDS IN AGGREGATE,
 MEMDDI DISTRIBUTED OVER   1 PROCESSORS IS  1000000000 WORDS/PROCESSOR.
 TOTAL MEMORY REQUESTED ON EACH PROCESSOR=  1100000000 WORDS.
 TIMLIM=      525600.00 MINUTES, OR     365.0 DAYS.
 PARALL= T  BALTYP=  DLB     KDIAG=    3  COREFL= F
 MXSEQ2=     300 MXSEQ3=     150  mem10=         0

          ----------------
          PROPERTIES INPUT
          ----------------

     MOMENTS            FIELD           POTENTIAL          DENSITY
 IEMOM =       1   IEFLD =       0   IEPOT =       0   IEDEN =       0
 WHERE =COMASS     WHERE =NUCLEI     WHERE =NUCLEI     WHERE =NUCLEI  
 OUTPUT=BOTH       OUTPUT=BOTH       OUTPUT=BOTH       OUTPUT=BOTH    
 IEMINT=       0   IEFINT=       0                     IEDINT=       0
                                                       MORB  =       0

     -------------------------------
     INTEGRAL TRANSFORMATION OPTIONS
     -------------------------------
     NWORD  =            0
     CUTOFF = 1.0E-09     MPTRAN =       0
     DIRTRF =       T     AOINTS =DUP     

          ----------------------
          MCSCF INPUT PARAMETERS
          ----------------------
 CONVERGER SELECTION: FOCAS = F  SOSCF = F  FULLNR = T  QUD = F  JACOBI = F
 SECULAR EQUATION METHOD CISTEP = GMCCI   
 --- GENERAL INPUT OPTIONS:
 MAXIT =     100  MICIT =       1  ACURCY= 1.000E-06
 DAMP  =   0.000  CANONC=       T  ENGTOL= 1.000E-10
 EKT   =       F  NPUNCH=       2  NWORD =         0
 REGENERATE CI AFTER CONVERGENCE = NONE    
 DIABATIZATION AFTER CONVERGENCE =        F
 --- INPUT FOR FULLNR CONVERGER:
 METHOD=DM2       FORS  =       F  DROPC =       T
 LINSER=       F  FCORE =       F  NORB  =      30

          ----------------------
          INTEGRAL INPUT OPTIONS
          ----------------------
 NOPK  =       1 NORDER=       0 SCHWRZ=       T

 ------------------------------------------
 MULTIREFERENCE PERTURBATION THEORY CONTROL
 ------------------------------------------
 MRPT=GMCPT    READ CONVERGED MCSCF VECTORS= F


     ------------------------------------------
     THE POINT GROUP IS C1 , NAXIS= 1, ORDER= 1
     ------------------------------------------

 -- VARIATIONAL SPACE WILL BE RESTRICTED TO PURE SPHERICAL HARMONICS ONLY --
 AFTER EXCLUDING CONTAMINANT COMBINATIONS FROM THE CARTESIAN GAUSSIAN BASIS
 SET, THE NUMBER OF SPHERICAL HARMONICS KEPT IN THE VARIATION SPACE IS   29

     DIMENSIONS OF THE SYMMETRY SUBSPACES ARE
 A   =   29

 ..... DONE SETTING UP THE RUN .....
 CPU     0: STEP CPU TIME=     0.03 TOTAL CPU TIME=          0.0 (      0.0 MIN)
 TOTAL WALL CLOCK TIME=          0.0 SECONDS, CPU UTILIZATION IS    75.00%

          ********************
          1 ELECTRON INTEGRALS
          ********************
 TIME TO DO   DIPOLE INTEGRALS=      0.00
 ...... END OF ONE-ELECTRON INTEGRALS ......
 CPU     0: STEP CPU TIME=     0.00 TOTAL CPU TIME=          0.0 (      0.0 MIN)
 TOTAL WALL CLOCK TIME=          0.0 SECONDS, CPU UTILIZATION IS    75.00%

          -------------
          GUESS OPTIONS
          -------------
          GUESS =MOREAD            NORB  =      29          NORDER=       0
          MIX   =       F          PRTMO =       F          PUNMO =       F
          TOLZ  = 1.0E-08          TOLE  = 1.0E-05
          SYMDEN=       F          PURIFY=       T

 INITIAL GUESS ORBITALS GENERATED BY MOREAD   ROUTINE.

 STATISTICS FOR GENERATION OF SYMMETRY ORBITAL -Q- MATRIX
 NUMBER OF CARTESIAN ATOMIC ORBITALS=         30
 NUMBER OF SPHERICAL CONTAMINANTS DROPPED=     1
 NUMBER OF LINEARLY DEPENDENT MOS DROPPED=     0
 TOTAL NUMBER OF MOS IN VARIATION SPACE=      29
 ORBITAL PURIFICATION WILL OCCUR

 SYMMETRIES FOR INITIAL GUESS ORBITALS FOLLOW.   BOTH SET(S).
     5 ORBITALS ARE OCCUPIED (    1 CORE ORBITALS).
     1=A        2=A        3=A        4=A        5=A        6=A        7=A   
     8=A        9=A       10=A       11=A       12=A       13=A       14=A   
    15=A       16=A       17=A       18=A       19=A       20=A       21=A   
    22=A       23=A       24=A       25=A       26=A       27=A       28=A   
    29=A   
 ...... END OF INITIAL ORBITAL SELECTION ......
 CPU     0: STEP CPU TIME=     0.01 TOTAL CPU TIME=          0.0 (      0.0 MIN)
 TOTAL WALL CLOCK TIME=          0.1 SECONDS, CPU UTILIZATION IS    80.00%

                    ----------------------
                    AO INTEGRAL TECHNOLOGY
                    ----------------------
     S,P,L SHELL ROTATED AXIS INTEGRALS, REPROGRAMMED BY
        KAZUYA ISHIMURA (IMS) AND JOSE SIERRA (SYNSTAR).
     S,P,D,L SHELL ROTATED AXIS INTEGRALS PROGRAMMED BY
        KAZUYA ISHIMURA (INSTITUTE FOR MOLECULAR SCIENCE).
     S,P,D,F,G SHELL TO TOTAL QUARTET ANGULAR MOMENTUM SUM 5,
        ERIC PROGRAM BY GRAHAM FLETCHER (ELORET AND NASA ADVANCED
        SUPERCOMPUTING DIVISION, AMES RESEARCH CENTER).
     S,P,D,F,G,L SHELL GENERAL RYS QUADRATURE PROGRAMMED BY
        MICHEL DUPUIS (PACIFIC NORTHWEST NATIONAL LABORATORY).

          --------------------
          2 ELECTRON INTEGRALS
          --------------------

 DIRECT SCF METHOD SKIPS INTEGRAL STORAGE ON DISK.
 DIRECT TRANSFORMATION SKIPS AO INTEGRAL STORAGE ON DISK.
  ...... END OF TWO-ELECTRON INTEGRALS .....
 STEP CPU TIME =     0.02 TOTAL CPU TIME =          0.1 (      0.0 MIN)
 TOTAL WALL CLOCK TIME=          0.1 SECONDS, CPU UTILIZATION IS    75.00%
 DDI: Creating Array [0] - 900 x 36 = 32400 words.
 DDI: Creating Array [1] - 21 x 288 = 6048 words.
 DDI: Creating Array [2] - 36 x 36 = 1296 words.
 DDI: Creating Array [3] - 465 x 36 = 16740 words.

          -----------------
          MCSCF CALCULATION
          -----------------

 ----- NUCLEAR ENERGY ----- =        11.6191975096

     -------------------------------------------------
     GMC-PT/GMC-QDPT or general MCSCF input parameters
     -------------------------------------------------
 # of frozen core orbs. =         0 ->         0
 # of doubly occ. orbs. =         1
 # of active      orbs. =         7
 # of virtual     orbs. =        21
 # of active electrons  =         7
 # of states in CI      =         3
 Highest state in CI    =         3
 kstate =  1 1 1
 avecoe =  0.333 0.333 0.333
 State symmetry           = A           
 Assigned symmetry number = 1

 <<<Act. MO sym.: 1111111

 <<<Division of 1-ext.:  0
 <<<Division of 2-ext.:  0

 *** Reference space

 Reference type: ORMAS (= Occupation restricted multiple active space)
 # of orbitals          =  7
 # of minimum electrons =  7
 # of maximum electrons =  7
 State symmetry    =    1 (input)
 2*Sz              =    1 (input)
 Spin multiplicity =    2 (input)
 Dimension of reference space =      1225  (from      3432 walks)

 Dimension of reference space =      1225  (from      1225 walks)

 <<<Ionized spaces for Ref-CI:
      0:         1225 /   -1-0:         1960 /  0-1-0:         2891

 EVALUATING EXCHANGE INTEGRALS FOR DIRECT INTEGRAL TRANSFORMATION
 SCHWARZ INEQUALITY OVERHEAD:       465 INTEGRALS, T=        0.00

     --------------------------------------------
     PARTIAL TWO ELECTRON INTEGRAL TRANSFORMATION
     --------------------------------------------

 NUMBER OF CORE MOLECULAR ORBITALS     =    1
 NUMBER OF OCCUPIED MOLECULAR ORBITALS =    8
 TOTAL NUMBER OF MOLECULAR ORBITALS    =   29
 TOTAL NUMBER OF ATOMIC ORBITALS       =   30
 THRESHOLD FOR KEEPING TRANSFORMED 2E- INTEGRALS = 1.000E-09

 -------------------------------     ------------------------------
 DISTRIBUTED DATA TRANSFORMATION     PROGRAM WRITTEN BY G. FLETCHER
 -------------------------------     ------------------------------

 THE DISTRIBUTED MEMORY REQUIRED FOR THIS STEP IS MEMDDI=         1 MWORDS
 CREATING DISTRIBUTED STORAGE FOR [VIR OCC|VIR OCC] INTEGRALS
 CREATING DISTRIBUTED STORAGE FOR [VIR OCC|OCC OCC] INTEGRALS
 CREATING DISTRIBUTED STORAGE FOR [OCC OCC|OCC OCC] INTEGRALS
 CREATING DISTRIBUTED STORAGE FOR [VIR VIR|OCC OCC] INTEGRALS
 FOR    1 PROCESSORS, THE REPLICATED MEMORY NEEDED IS       73700 WORDS.
 SCHWARZ INEQUALITY OVERHEAD:       465 INTEGRALS, T=        0.00

      DIRECT 4-INDEX TRANSFORMATION 
      SCHWARZ INEQUALITY TEST SKIPPED          0 INTEGRAL BLOCKS
 ----- FROZEN CORE ENERGY =       -47.7693420571
 ... END OF INTEGRAL TRANSFORMATION ...
 CPU     0: STEP CPU TIME=     0.22 TOTAL CPU TIME=          0.3 (      0.0 MIN)
 TOTAL WALL CLOCK TIME=          0.3 SECONDS, CPU UTILIZATION IS    93.33%

     --------------------------------     -----------------------------
     MCHF NEWTON-RAPHSON OPTIMIZATION     CODE WRITTEN BY MICHEL DUPUIS
     --------------------------------     -----------------------------
     PARALLEL VERSION WRITTEN BY G. FLETCHER (ELORET)
     NASA ADVANCED SUPERCOMPUTING DIVISION, AMES RESEARCH CENTER

 NUMBER OF INDEPENDENT ORBITAL ROTATION PARAMETERS =   175
 ..... DONE SOLVING NEWTON-RAPHSON EQUATIONS .....
 CPU     0: STEP CPU TIME=     0.85 TOTAL CPU TIME=          1.1 (      0.0 MIN)
 TOTAL WALL CLOCK TIME=          1.1 SECONDS, CPU UTILIZATION IS    99.12%
 ..... DONE WITH NTN-RPH ORBITAL ROTATIONS ..... 
 CPU     0: STEP CPU TIME=     0.00 TOTAL CPU TIME=          1.1 (      0.0 MIN)
 TOTAL WALL CLOCK TIME=          1.1 SECONDS, CPU UTILIZATION IS    99.12%
 MAXIMUM MEMORY USED BY NTN-RPH CODE WAS     57645 WORDS.

 ITER     TOTAL ENERGY      DEL(E)  LAGRANGIAN ASYMMETRY   SQCDF  MICIT   DAMP
   1      -55.666186407 -0.666186407  0.134631   13    3 1.582E-01  1   0.0000
   2      -55.705271741 -0.039085334  0.023630   12    5 4.511E-01  1   0.0000
   3      -55.737993494 -0.032721753  0.012169   11    6 2.132E-01  1   0.0254
   4      -55.751636261 -0.013642767  0.004159   11    6 3.784E-02  1   0.0044
   5      -55.753289828 -0.001653567  0.000724   12    5 1.060E-03  1   0.0000
   6      -55.753336982 -0.000047154  0.000238   12    5 8.432E-05  1   0.0000
   7      -55.753341544 -0.000004562  0.000107   12    5 1.204E-05  1   0.0000
   8      -55.753342242 -0.000000698  0.000047   12    5 1.971E-06  1   0.0000
   9      -55.753342361 -0.000000119  0.000020   12    5 3.601E-07  1   0.0000
  10      -55.753342383 -0.000000022  0.000008   12    5 7.553E-08  1   0.0000
  11      -55.753342388 -0.000000005  0.000003   22    5 1.845E-08  1   0.0000
  12      -55.753342389 -0.000000001  0.000002   22    5 5.156E-09  1   0.0000
  13      -55.753342390 -0.000000000  0.000001   22    5 1.571E-09  1   0.0000
  14      -55.753342390 -0.000000000  0.000001   12    7 5.064E-10  1   0.0000

          --------------------
          LAGRANGIAN CONVERGED
          --------------------

 FINAL MCSCF ENERGY IS      -55.7533423896 AFTER  14 ITERATIONS

 -MCCI- BASED ON OPTIMIZED ORBITALS
 ----------------------------------

 PLEASE NOTE: IF THE ACTIVE ORBITALS ARE CANONICALIZED BELOW,
 THE FOLLOWING CI EXPANSION COEFFICIENTS AND THE DENSITY DO NOT
 CORRESPOND TO THE PRINTED ORBITALS.  THE PRINTED EXPANSIONS MATCH
 THE ORBITALS USED DURING THE LAST ITERATION.  IF YOU WISH TO SEE
 CI EXPANSIONS BASED ON THE CANONICAL (OR NATURAL) ORBITALS, YOU
 MUST RUN A CI CALCULATION WITH THAT ORBITAL CHOICE READ IN $VEC.

 Averaged energy =     -55.753342390

 State #    1  Energy =     -55.894445966  S =  0.500

      Det      Coef    Occupancy (Ignoring core)
      ---      ----    --------- --------- -----
        1   -0.944921  11110001110000
        2   -0.053565  11101001110000
        5    0.062062  01111001110000
        8    0.133679  10110101110000
       17   -0.122665  11010011110000
       36   -0.099576  11110001101000
       71   -0.077240  11110001011000
      386   -0.110113  11110001010010
      393   -0.050459  10110101010010
      701    0.090196  11110001100001
      717   -0.070201  11010011100001

 State #    2  Energy =     -55.734967464  S =  0.500

      Det      Coef    Occupancy (Ignoring core)
      ---      ----    --------- --------- -----
        1    0.109621  11110001110000
       36   -0.943888  11110001101000
       40    0.056484  01111001101000
       43    0.098895  10110101101000
       52   -0.064737  11010011101000
       71   -0.184551  11110001011000
      281   -0.054360  11110000101100
      456   -0.099599  11110001001010
      463   -0.053803  10110101001010

 State #    3  Energy =     -55.630613738  S =  0.500

      Det      Coef    Occupancy (Ignoring core)
      ---      ----    --------- --------- -----
        1    0.055052  11110001110000
       36    0.193210  11110001101000
       71   -0.948637  11110001011000
       78    0.067226  10110101011000
       87   -0.075192  11010011011000
      316   -0.066610  11110000011100
      806   -0.090787  11110001001001
      822    0.073513  11010011001001

 DENSITY MATRIX OVER ACTIVE MO-S

             1           2           3           4           5

    1    1.9787121
    2   -0.0066599   1.6360526
    3    0.0082527  -0.0000285   1.6355991
    4    0.0028872  -0.0005613   0.0013537   1.6553236
    5    0.0968252   0.0077296  -0.0120479   0.0389464   0.0252857
    6    0.0049725  -0.1536686  -0.0033630  -0.0124556  -0.0007903
    7    0.0007615  -0.0033693  -0.1297872   0.0159538   0.0027800

             6           7

    6    0.0337555
    7   -0.0010500   0.0352715

 FORMING THE "STANDARD FOCK OPERATOR" IN DIRECT AO INTEGRAL MODE...
 ONLY THE    1 CORE AND   21 VIRTUAL ORBITALS WILL BE CANONICALIZED

          ----------------------
          MCSCF NATURAL ORBITALS
          ----------------------

                      1          2          3          4          5
                  -15.9864     1.9839     1.6566     1.6505     1.6459
                     A          A          A          A          A   
    1  N  1  S    1.001288   0.008616  -0.010834   0.001357  -0.001577
    2  N  1  S   -0.001802   0.438232  -0.176348   0.053211  -0.040516
    3  N  1  S   -0.006348   0.292888  -0.278688   0.073396  -0.060399
    4  N  1  X    0.000067  -0.019291   0.098752   0.471255  -0.087988
    5  N  1  Y    0.000024   0.018247  -0.031114   0.083918   0.512482
    6  N  1  Z    0.001156   0.095864   0.588021  -0.077612   0.021320
    7  N  1  X   -0.000027   0.001466   0.057656   0.170987  -0.045569
    8  N  1  Y    0.000040  -0.002946  -0.030722   0.028720   0.252353
    9  N  1  Z   -0.000454   0.007450   0.382209  -0.037644  -0.002778
   10  N  1 XX    0.000338   0.000828  -0.011043   0.007865  -0.004702
   11  N  1 YY   -0.000144  -0.001817  -0.012946  -0.004176   0.003578
   12  N  1 ZZ   -0.000193   0.000989   0.023989  -0.003689   0.001124
   13  N  1 XY    0.000160   0.000362   0.000689   0.001540  -0.014258
   14  N  1 XZ   -0.000077  -0.001502   0.002663   0.023044  -0.004892
   15  N  1 YZ    0.000081   0.000439   0.000620   0.003070   0.025056
   16  H  2  S   -0.001962   0.205748   0.083524  -0.158827   0.349980
   17  H  2  S    0.000339   0.006752   0.020465  -0.020110   0.070752
   18  H  2  X   -0.000556   0.021812   0.010759   0.009268   0.022541
   19  H  2  Y    0.000746  -0.027759  -0.013936   0.022550  -0.016645
   20  H  2  Z    0.000486  -0.013493   0.020178   0.005545  -0.018840
   21  H  3  S   -0.001905   0.184400   0.080356  -0.272763  -0.262083
   22  H  3  S    0.000454   0.001059   0.024251  -0.034885  -0.054976
   23  H  3  X   -0.000652   0.024291   0.010165  -0.009331  -0.026951
   24  H  3  Y   -0.000711   0.024668   0.009570  -0.028803  -0.004949
   25  H  3  Z    0.000440  -0.008231   0.020729   0.009774   0.012744
   26  H  4  S   -0.002069   0.180831   0.153403   0.353824  -0.040213
   27  H  4  S    0.000586   0.000278   0.030775   0.041058  -0.010993
   28  H  4  X    0.001070  -0.036317  -0.019379  -0.033207  -0.001612
   29  H  4  Y    0.000121  -0.003986  -0.003247  -0.004102   0.019994
   30  H  4  Z    0.000407  -0.005248   0.017179  -0.018049   0.002634

                      6          7          8
                    0.0253     0.0193     0.0185
                     A          A          A   
    1  N  1  S   -0.075809  -0.197121  -0.142922
    2  N  1  S   -0.237836  -0.645836  -0.439586
    3  N  1  S    0.009326  -0.167965  -0.035663
    4  N  1  X   -0.204233   0.508895  -0.765566
    5  N  1  Y    0.792184  -0.079619  -0.332023
    6  N  1  Z   -0.091048  -0.608259  -0.289150
    7  N  1  X   -0.000666   0.071431  -0.053670
    8  N  1  Y    0.000254  -0.019915  -0.031171
    9  N  1  Z    0.023649   0.078127   0.054670
   10  N  1 XX    0.018597   0.026626  -0.009072
   11  N  1 YY   -0.017305  -0.034614   0.009753
   12  N  1 ZZ   -0.001292   0.007988  -0.000682
   13  N  1 XY    0.035189   0.001446   0.016876
   14  N  1 XZ    0.002257  -0.046269   0.033840
   15  N  1 YZ   -0.022124   0.012589   0.024476
   16  H  2  S   -0.569227   0.647350   0.141974
   17  H  2  S   -0.137964   0.091911   0.015461
   18  H  2  X   -0.027043   0.025601   0.040582
   19  H  2  Y    0.023852  -0.075288  -0.004945
   20  H  2  Z    0.015971   0.008502  -0.000134
   21  H  3  S    0.600892   0.555543  -0.273268
   22  H  3  S    0.123415   0.074495  -0.077002
   23  H  3  X    0.051926   0.034306  -0.000579
   24  H  3  Y    0.029488   0.065999  -0.017340
   25  H  3  Z   -0.007768   0.019713  -0.000909
   26  H  4  S    0.295762   0.089340   0.840875
   27  H  4  S    0.046954  -0.019101   0.137999
   28  H  4  X   -0.026898  -0.028514  -0.089977
   29  H  4  Y   -0.018874  -0.001036  -0.006178
   30  H  4  Z   -0.003407   0.006153   0.013741

          ------------------------
          MCSCF OPTIMIZED ORBITALS
          ------------------------

                      1          2          3          4          5
                  -15.9864     0.0000     0.0000     0.0000     0.0000
                     A          A          A          A          A   
    1  N  1  S    1.001288  -0.003517  -0.005365   0.001834  -0.017229
    2  N  1  S   -0.001802   0.401939   0.009543  -0.009870  -0.197416
    3  N  1  S   -0.006348   0.290663   0.039134  -0.038024  -0.287054
    4  N  1  X    0.000067  -0.004558   0.397682  -0.022156   0.022952
    5  N  1  Y    0.000024   0.005995  -0.003336   0.449523  -0.013876
    6  N  1  Z    0.001156   0.053091   0.002004   0.000905   0.579328
    7  N  1  X   -0.000027   0.007114   0.173881  -0.022226   0.031961
    8  N  1  Y    0.000040  -0.009858  -0.013827   0.252731  -0.024702
    9  N  1  Z   -0.000454   0.006901   0.019363  -0.016436   0.385630
   10  N  1 XX    0.000338   0.002422   0.005289  -0.004910  -0.011585
   11  N  1 YY   -0.000144  -0.003343  -0.004491   0.004726  -0.012810
   12  N  1 ZZ   -0.000193   0.000920  -0.000798   0.000184   0.024395
   13  N  1 XY    0.000160   0.001523   0.005679  -0.016173   0.000714
   14  N  1 XZ   -0.000077  -0.002330   0.028328  -0.000899  -0.001007
   15  N  1 YZ    0.000081   0.000648   0.000559   0.027398   0.001415
   16  H  2  S   -0.001962   0.217619  -0.223673   0.371306   0.125110
   17  H  2  S    0.000339   0.007164  -0.032278   0.077475   0.025487
   18  H  2  X   -0.000556   0.022870   0.008659   0.026837   0.011147
   19  H  2  Y    0.000746  -0.029851   0.026132  -0.015336  -0.018878
   20  H  2  Z    0.000486  -0.012594   0.011166  -0.019708   0.018612
   21  H  3  S   -0.001905   0.210351  -0.254179  -0.348935   0.123880
   22  H  3  S    0.000454   0.004624  -0.029694  -0.071121   0.028679
   23  H  3  X   -0.000652   0.026699  -0.004709  -0.031651   0.011970
   24  H  3  Y   -0.000711   0.026989  -0.030071  -0.011470   0.014895
   25  H  3  Z    0.000440  -0.007848   0.009762   0.013953   0.019739
   26  H  4  S   -0.002069   0.209864   0.440688   0.009295   0.121802
   27  H  4  S    0.000586   0.003323   0.059103  -0.005912   0.026696
   28  H  4  X    0.001070  -0.039904  -0.040979  -0.006812  -0.017326
   29  H  4  Y    0.000121  -0.004892  -0.008075   0.020401  -0.002286
   30  H  4  Z    0.000407  -0.005344  -0.014628   0.000061   0.019749

                      6          7          8          9         10
                    0.0000     0.0000     0.0000     0.1506     0.1993
                     A          A          A          A          A   
    1  N  1  S    0.251027   0.041757  -0.011251  -0.150656  -0.009076
    2  N  1  S    0.824798   0.110628  -0.035747  -0.231821  -0.021196
    3  N  1  S    0.168058  -0.053009   0.033777   1.503853   0.007406
    4  N  1  X   -0.057271   0.981953  -0.004799   0.022810   0.109798
    5  N  1  Y    0.037248   0.062106   0.898643  -0.022501   0.039766
    6  N  1  Z    0.694167  -0.026130   0.048139  -0.223075  -0.026035
    7  N  1  X   -0.036204   0.097204   0.007920  -0.113413  -0.741009
    8  N  1  Y    0.027955   0.015689   0.032072   0.070902  -0.095523
    9  N  1  Z   -0.087731  -0.008919  -0.006000   0.511549   0.076895
   10  N  1 XX   -0.023390   0.016825   0.017926   0.067387  -0.059409
   11  N  1 YY    0.029142  -0.021703  -0.015994  -0.020960   0.048620
   12  N  1 ZZ   -0.005752   0.004878  -0.001932  -0.046427   0.010789
   13  N  1 XY   -0.016258  -0.021139   0.026900   0.027470  -0.017483
   14  N  1 XZ    0.024858  -0.049088  -0.004257  -0.034494  -0.108687
   15  N  1 YZ   -0.017033  -0.009440  -0.027426   0.024844  -0.007093
   16  H  2  S   -0.490971   0.305387  -0.612402   0.192884   0.269306
   17  H  2  S   -0.056173   0.060516  -0.137960  -0.732353  -0.976363
   18  H  2  X   -0.033023  -0.014834  -0.038289  -0.085016  -0.007297
   19  H  2  Y    0.060817  -0.035600   0.029671   0.052604   0.045231
   20  H  2  Z   -0.010853   0.001802   0.012773   0.051915   0.050881
   21  H  3  S   -0.481329   0.340919   0.577980   0.306515   0.210008
   22  H  3  S   -0.056854   0.070658   0.128568  -0.920894  -0.845807
   23  H  3  X   -0.039291   0.004873   0.043963  -0.090128  -0.023300
   24  H  3  Y   -0.054726   0.037323   0.026576  -0.043854  -0.045108
   25  H  3  Z   -0.015031   0.013284  -0.007844   0.030198   0.067130
   26  H  4  S   -0.499512  -0.694696   0.016780   0.318123  -0.531216
   27  H  4  S   -0.053603  -0.131263   0.003463  -0.868279   1.881278
   28  H  4  X    0.068021   0.064587   0.003943   0.107880  -0.097436
   29  H  4  Y    0.007314   0.008315  -0.014328   0.013307  -0.019354
   30  H  4  Z   -0.010547  -0.009099  -0.008188  -0.001308  -0.077630

                     11         12         13         14         15
                    0.2095     0.5404     0.5831     0.6336     0.8007
                     A          A          A          A          A   
    1  N  1  S    0.022579   0.054774   0.008239  -0.078744  -0.227881
    2  N  1  S    0.043337   0.049798   0.101560  -0.280672  -0.520333
    3  N  1  S   -0.157115  -0.480380   0.338173  -0.086310   0.948632
    4  N  1  X    0.038556   0.295249  -0.219381  -0.325439   0.079566
    5  N  1  Y    0.021854  -0.484307  -0.390812  -0.031881   0.032283
    6  N  1  Z    0.036047   0.369230  -0.357519   0.461695   0.178705
    7  N  1  X   -0.108233  -0.861695   0.850807   1.560288  -0.446094
    8  N  1  Y   -0.494407   1.154307   1.269369   0.083385  -0.179747
    9  N  1  Z   -0.101180  -0.505998   0.618137  -0.843941  -0.032058
   10  N  1 XX    0.008162   0.015537  -0.065308   0.025093  -0.096033
   11  N  1 YY   -0.005507   0.002050   0.033735   0.018154   0.142674
   12  N  1 ZZ   -0.002655  -0.017587   0.031573  -0.043247  -0.046641
   13  N  1 XY    0.092132  -0.017937   0.017781   0.020197   0.056615
   14  N  1 XZ   -0.005671  -0.021161   0.009111  -0.044172   0.091222
   15  N  1 YZ   -0.081016   0.029342   0.001169   0.007876   0.049456
   16  H  2  S   -0.543239  -0.189744  -0.473468   0.649290   0.019110
   17  H  2  S    1.857061  -0.862247  -0.440853   0.259808  -0.171423
   18  H  2  X    0.056624  -0.112301   0.056150   0.022850   0.284688
   19  H  2  Y   -0.062884   0.047014   0.084969  -0.072880   0.396112
   20  H  2  Z   -0.046696   0.059525   0.073505  -0.008042  -0.044797
   21  H  3  S    0.530019   0.318764   0.274032   0.716485  -0.072800
   22  H  3  S   -1.743507   0.488092   0.781326   0.220144  -0.335700
   23  H  3  X   -0.048831  -0.006499   0.178208   0.087200   0.084818
   24  H  3  Y   -0.047630   0.068279  -0.017804   0.066600  -0.446254
   25  H  3  Z    0.036957  -0.077672  -0.003896   0.018725  -0.194893
   26  H  4  S    0.029220   0.486921  -0.653862  -0.224002   0.057769
   27  H  4  S    0.019341   0.532761  -0.329369  -0.754630  -0.050694
   28  H  4  X   -0.025836  -0.074315   0.054703   0.168827  -0.105733
   29  H  4  Y    0.039431   0.007400   0.116670   0.057704   0.145949
   30  H  4  Z   -0.015356  -0.068962   0.041326  -0.091305   0.240702

                     16         17         18         19         20
                    0.9676     1.0110     1.3075     1.4469     1.5079
                     A          A          A          A          A   
    1  N  1  S   -0.519815  -0.162113  -0.026418  -0.433715  -0.390847
    2  N  1  S   -1.102877  -0.342134  -0.054319  -0.903766  -0.797549
    3  N  1  S    2.218249   0.838068   0.093353   1.613285   1.620194
    4  N  1  X    0.055579   0.000927  -0.158722  -0.002991   0.004301
    5  N  1  Y   -0.031064  -0.065325  -0.131547  -0.007386   0.079396
    6  N  1  Z    0.159170   0.055035  -0.009019  -0.031108  -0.004424
    7  N  1  X   -0.236144  -0.028376   0.727687   0.565632  -0.690314
    8  N  1  Y    0.158498   0.422312   0.386715  -0.094726   0.282008
    9  N  1  Z   -0.059129   0.252415   0.007363   0.641328   0.743128
   10  N  1 XX   -0.072876   0.017408   0.058159   0.097911   0.085933
   11  N  1 YY   -0.148605   0.051797  -0.048828   0.130401   0.015190
   12  N  1 ZZ    0.221481  -0.069206  -0.009330  -0.228312  -0.101123
   13  N  1 XY    0.005684  -0.173723  -0.038850   0.007492   0.007997
   14  N  1 XZ    0.014550   0.045281   0.009841  -0.023666   0.048250
   15  N  1 YZ   -0.025409  -0.247852   0.034881   0.014626  -0.093479
   16  H  2  S   -0.424610  -0.243127  -0.020231  -0.304191  -0.635520
   17  H  2  S   -0.312218  -0.221575   0.015432  -0.073362  -0.339132
   18  H  2  X   -0.007024  -0.286358   0.244886  -0.429580   0.168941
   19  H  2  Y   -0.155705   0.214292   0.053590  -0.098722   0.126644
   20  H  2  Z    0.331924  -0.447778   0.001573  -0.435969   0.355536
   21  H  3  S   -0.354994  -0.019273   0.370777  -0.319493  -0.573479
   22  H  3  S   -0.280403  -0.003422   0.124608  -0.059429  -0.086244
   23  H  3  X   -0.023432   0.171102  -0.601419  -0.258641   0.094279
   24  H  3  Y    0.114528  -0.140577   0.184095   0.254116  -0.068956
   25  H  3  Z    0.353903   0.251496  -0.345451  -0.375472  -0.332674
   26  H  4  S   -0.245014  -0.145030  -0.383943  -0.664408  -0.202261
   27  H  4  S   -0.298921  -0.128032  -0.182592  -0.280085   0.022708
   28  H  4  X   -0.014801   0.153588  -0.103472  -0.178613   0.202994
   29  H  4  Y   -0.006911  -0.447245  -0.582701   0.442856  -0.296340
   30  H  4  Z    0.288942   0.034648   0.301302  -0.008565  -0.794709

                     21         22         23         24         25
                    1.6131     1.8553     1.8943     2.0144     2.1660
                     A          A          A          A          A   
    1  N  1  S   -0.095370   0.068572   0.035708   0.110630   0.096302
    2  N  1  S   -0.195491   0.133751   0.051091   0.347335   0.196456
    3  N  1  S    0.333982  -0.437067  -0.289969   1.539108  -0.298836
    4  N  1  X    0.073034  -0.420129   0.468302  -0.056571  -0.144186
    5  N  1  Y   -0.214717   0.189674   0.298727   0.098193   0.021883
    6  N  1  Z   -0.023074   0.035468  -0.039276   0.345151   0.020550
    7  N  1  X   -0.522306  -0.053673   0.071102   0.093187  -0.029951
    8  N  1  Y   -0.571363  -0.243215  -0.070287  -0.176959  -0.040839
    9  N  1  Z    0.137115  -0.157337  -0.139329   0.615967  -0.420565
   10  N  1 XX    0.032555   0.122176  -0.155211  -0.227969  -0.091025
   11  N  1 YY    0.069262  -0.237674   0.213165  -0.009630   0.864782
   12  N  1 ZZ   -0.101817   0.115498  -0.057954   0.237599  -0.773758
   13  N  1 XY   -0.045332   0.162857   0.185591  -0.065395  -0.150424
   14  N  1 XZ    0.020141   0.120702  -0.123360   0.078692   0.352363
   15  N  1 YZ    0.189534  -0.034190  -0.100396  -0.202527  -0.230199
   16  H  2  S   -0.157413   0.227853   0.094915  -0.351707   0.116658
   17  H  2  S    0.220536  -0.367551  -0.103122  -0.191205  -0.057137
   18  H  2  X    0.642587  -0.191435   0.161831  -0.459388  -0.066319
   19  H  2  Y    0.183249   0.804003   0.331833   0.507748  -0.204198
   20  H  2  Z   -0.430843   0.139792  -0.032051   0.223887   0.626934
   21  H  3  S   -0.290999   0.046793   0.038700  -0.397043   0.087228
   22  H  3  S   -0.344100   0.143344   0.442569  -0.291305  -0.039263
   23  H  3  X   -0.347417   0.034016   0.356606  -0.806489  -0.188146
   24  H  3  Y    0.235415   0.373012   0.863181  -0.202273   0.193382
   25  H  3  Z    0.591703   0.263596  -0.245235  -0.016790   0.386050
   26  H  4  S    0.159447   0.078008   0.082810  -0.415433   0.159419
   27  H  4  S    0.043693   0.384170  -0.217689  -0.332068   0.128377
   28  H  4  X    0.122099  -0.658614   0.475726   0.769859  -0.214813
   29  H  4  Y    0.244727   0.005644  -0.071332   0.377249   0.014746
   30  H  4  Z   -0.320685  -0.210762   0.367187  -0.100729   0.104995

                     26         27         28         29
                    2.3345     2.5739     2.7224     2.9766
                     A          A          A          A   
    1  N  1  S   -0.051443  -0.045215   0.048915   0.022372
    2  N  1  S   -0.072918   0.057176   0.101036   0.093478
    3  N  1  S    0.603050   2.163820   0.074482   0.559074
    4  N  1  X   -0.082090  -0.089734   0.550772   0.304006
    5  N  1  Y    0.009463   0.189496   0.267162  -0.446815
    6  N  1  Z    0.067461   0.326452   0.023172   0.054947
    7  N  1  X    0.027045  -0.491092   1.319345   0.502439
    8  N  1  Y    0.418430   0.456113   0.600922  -0.714965
    9  N  1  Z    0.284944   0.511477  -0.046840  -0.017479
   10  N  1 XX   -0.510272   0.824774   0.550344   0.747738
   11  N  1 YY    0.428441  -0.122575  -0.463629  -0.389923
   12  N  1 ZZ    0.081831  -0.702199  -0.086715  -0.357816
   13  N  1 XY    0.660433  -0.040454  -0.383939   1.202212
   14  N  1 XZ    0.166481  -0.645175   1.076468   0.369013
   15  N  1 YZ    0.712052   0.504503   0.518799  -0.656087
   16  H  2  S   -0.312483  -1.172235   0.064977   1.068291
   17  H  2  S   -0.184757  -0.451689  -0.005219   0.370635
   18  H  2  X   -0.590964  -0.360665  -0.131058   0.523766
   19  H  2  Y   -0.070695   0.673139  -0.054280  -0.635634
   20  H  2  Z   -0.151832   0.511425   0.050074  -0.455299
   21  H  3  S   -0.092635  -0.638384   1.058493  -0.835244
   22  H  3  S    0.001637  -0.101657   0.427456  -0.274967
   23  H  3  X   -0.084538  -0.021338   0.610512  -0.510286
   24  H  3  Y   -0.049195  -0.425393   0.482222  -0.517623
   25  H  3  Z    0.234552   0.313722  -0.222990   0.434202
   26  H  4  S   -0.167165  -0.578519  -1.202053  -0.878994
   27  H  4  S   -0.027390  -0.114640  -0.473212  -0.268827
   28  H  4  X    0.158467   0.429607   0.880571   0.676436
   29  H  4  Y   -0.590596  -0.056893   0.199871   0.049262
   30  H  4  Z   -0.217327   0.465109   0.200717   0.370511
 .....DONE WITH MCSCF ITERATIONS.....
 CPU     0: STEP CPU TIME=     8.65 TOTAL CPU TIME=          9.8 (      0.2 MIN)
 TOTAL WALL CLOCK TIME=          9.8 SECONDS, CPU UTILIZATION IS    99.90%

     ----------------------------------------------------------------
     PROPERTY VALUES FOR THE MCSCF SELF-CONSISTENT FIELD WAVEFUNCTION
     ----------------------------------------------------------------

          -----------------
          ENERGY COMPONENTS
          -----------------

         WAVEFUNCTION NORMALIZATION =       1.0000000000

                ONE ELECTRON ENERGY =     -94.6661673247
                TWO ELECTRON ENERGY =      27.2936274255
           NUCLEAR REPULSION ENERGY =      11.6191975096
                                      ------------------
                       TOTAL ENERGY =     -55.7533423896

 ELECTRON-ELECTRON POTENTIAL ENERGY =      27.2936274255
  NUCLEUS-ELECTRON POTENTIAL ENERGY =    -150.5443954702
   NUCLEUS-NUCLEUS POTENTIAL ENERGY =      11.6191975096
                                      ------------------
             TOTAL POTENTIAL ENERGY =    -111.6315705352
               TOTAL KINETIC ENERGY =      55.8782281456
                 VIRIAL RATIO (V/T) =       1.9977650373

          ---------------------------------------
          MULLIKEN AND LOWDIN POPULATION ANALYSES
          ---------------------------------------

     ATOMIC MULLIKEN POPULATION IN EACH MOLECULAR ORBITAL

                      1          2          3          4          5

                  2.000000   1.983883   1.656558   1.650541   1.645888

    1             2.000960   1.310600   1.538031   0.920727   1.065528
    2            -0.000329   0.261417   0.028376   0.085447   0.354539
    3            -0.000287   0.210940   0.023088   0.239451   0.212722
    4            -0.000343   0.200926   0.067063   0.404917   0.013099

                      6          7          8

                  0.025328   0.019308   0.018494

    1             0.012289   0.010441   0.009785
    2             0.005256   0.005000   0.000205
    3             0.006267   0.003848   0.000716
    4             0.001516   0.000019   0.007788
 WARNING! MCSCF POPULATIONS SHOWN ABOVE ARE FOR THE NATURAL ORBITALS.
 IGNORE THE ABOVE DATA FOR MCSCF FUNCTIONS WHICH ARE NOT OF -FORS- TYPE.
 THE FOLLOWING POPULATIONS ARE CORRECT FOR ANY MCSCF WAVEFUNCTION.

               ----- POPULATIONS IN EACH AO -----
                             MULLIKEN      LOWDIN
              1  N  1  S      2.00266     1.89570
              2  N  1  S      0.82589     0.57622
              3  N  1  S      0.63452     0.39315
              4  N  1  X      0.66894     0.58725
              5  N  1  Y      0.71156     0.64642
              6  N  1  Z      0.88429     0.82681
              7  N  1  X      0.25620     0.37745
              8  N  1  Y      0.34701     0.42071
              9  N  1  Z      0.51880     0.55564
             10  N  1 XX      0.00055     0.17937
             11  N  1 YY      0.00155     0.15494
             12  N  1 ZZ      0.00387     0.14207
             13  N  1 XY      0.00663     0.01297
             14  N  1 XZ      0.00590     0.01336
             15  N  1 YZ      0.00000     0.01022
             16  H  2  S      0.63517     0.49065
             17  H  2  S      0.04520     0.14208
             18  H  2  X      0.01801     0.03182
             19  H  2  Y      0.02409     0.04449
             20  H  2  Z      0.01745     0.04208
             21  H  3  S      0.60129     0.46535
             22  H  3  S      0.03830     0.14377
             23  H  3  X      0.02162     0.03903
             24  H  3  Y      0.02147     0.03937
             25  H  3  Z      0.01406     0.03558
             26  H  4  S      0.60771     0.47357
             27  H  4  S      0.02943     0.14249
             28  H  4  X      0.03633     0.06046
             29  H  4  Y      0.00868     0.02170
             30  H  4  Z      0.01283     0.03531

          ----- MULLIKEN ATOMIC OVERLAP POPULATIONS -----
          (OFF-DIAGONAL ELEMENTS NEED TO BE MULTIPLIED BY 2)

             1           2           3           4

    1    5.9456541
    2    0.3044298   0.4479674
    3    0.3009165  -0.0073495   0.4091396
    4    0.3173593  -0.0051366  -0.0059615   0.3887228

          TOTAL MULLIKEN AND LOWDIN ATOMIC POPULATIONS
       ATOM         MULL.POP.    CHARGE          LOW.POP.     CHARGE
    1 N             6.868360    0.131640         6.792254    0.207746
    2 H             0.739911    0.260089         0.751130    0.248870
    3 H             0.696745    0.303255         0.723092    0.276908
    4 H             0.694984    0.305016         0.733525    0.266475

          MULLIKEN SPHERICAL HARMONIC POPULATIONS
       ATOM           S       P       D      F      G      H      I    TOTAL
    1 N             3.46    3.39    0.02   0.00   0.00   0.00   0.00    6.87
    2 H             0.68    0.06    0.00   0.00   0.00   0.00   0.00    0.74
    3 H             0.64    0.06    0.00   0.00   0.00   0.00   0.00    0.70
    4 H             0.64    0.06    0.00   0.00   0.00   0.00   0.00    0.69

          ---------------------
          ELECTROSTATIC MOMENTS
          ---------------------

 POINT   1           X           Y           Z (BOHR)    CHARGE
                -0.000002    0.000001   -0.177185        1.00 (A.U.)
         DX          DY          DZ         /D/  (DEBYE)
    -0.322184    0.207941    2.148594    2.182543
 ...... END OF PROPERTY EVALUATION ......
 CPU     0: STEP CPU TIME=     0.00 TOTAL CPU TIME=          9.8 (      0.2 MIN)
 TOTAL WALL CLOCK TIME=          9.8 SECONDS, CPU UTILIZATION IS    99.80%

     -------------------------------------------------
     GMC-PT/GMC-QDPT or general MCSCF input parameters
     -------------------------------------------------
 # of frozen core orbs. =         0 ->         0
 # of doubly occ. orbs. =         1
 # of active      orbs. =         7
 # of virtual     orbs. =        21
 # of active electrons  =         7
 # of states in CI      =         3
 Highest state in CI    =         3
 kstate =  1 1 1
 avecoe =  0.333 0.333 0.333
 State symmetry           = A           
 Assigned symmetry number = 1

 <<<Act. MO sym.: 1111111

 <<<Division of 1-ext.:  0
 <<<Division of 2-ext.:  0

     ------------------------
     Orbital canonicalization
     ------------------------

 MOs are canonicalized for core, virtual, and invariant-active orbital spaces.
 This is a part of the GMC-QDPT calculation.
 SCHWARZ INEQUALITY OVERHEAD:       465 INTEGRALS, T=        0.00
 DIRECT TRANSFORMATION SKIPS AO INTEGRAL STORAGE ON DISK.

 Averaged energy =     -55.753342390

 State #    1  Energy =     -55.894445966  S =  0.500
 State #    2  Energy =     -55.734967464  S =  0.500
 State #    3  Energy =     -55.630613738  S =  0.500

 Orbital energies for filled orbital space
  -15.986428
 Orbital energies for active orbital space
   -1.528598  -0.985578  -0.876244  -0.754198   0.396375
    0.418032   0.273432
 Orbital energies for external orbital space
    0.150612   0.199256   0.209452   0.540380   0.583146
    0.633589   0.800683   0.967567   1.011039   1.307473
    1.446858   1.507891   1.613058   1.855327   1.894281
    2.014382   2.166039   2.334475   2.573878   2.722363
    2.976606

 Zero values mean non-canonical orbitals.
 ... done with orbital canonicalization ...
 CPU     0: STEP CPU TIME=     0.58 TOTAL CPU TIME=         10.4 (      0.2 MIN)
 TOTAL WALL CLOCK TIME=         10.4 SECONDS, CPU UTILIZATION IS    99.81%

     --------------------------------------------
     PARTIAL TWO ELECTRON INTEGRAL TRANSFORMATION
     --------------------------------------------

 NUMBER OF CORE MOLECULAR ORBITALS     =    0
 NUMBER OF OCCUPIED MOLECULAR ORBITALS =    8
 TOTAL NUMBER OF MOLECULAR ORBITALS    =   29
 TOTAL NUMBER OF ATOMIC ORBITALS       =   30
 THRESHOLD FOR KEEPING TRANSFORMED 2E- INTEGRALS = 1.000E-09
 AO INTEGRALS WILL BE CALCULATED IN DIRECT MODE...
 DIRECT TRANSFORMATION SKIPS AO INTEGRAL STORAGE ON DISK.
 SCHWARZ INEQUALITY OVERHEAD:       465 INTEGRALS, T=        0.00

 PLAN A: REQUIREMENTS FOR FULLY IN-MEMORY TRANSFORMATION:
 # OF WORDS AVAILABLE =            100000000
 # OF WORDS NEEDED    =               221798

 PARALLEL ONLY WORKS WITH THE SEGMENTED ALGORITHM.
 ADJUSTING MEMORY TO USE SEGMENTED ALGORITHM.


 PLAN B: REQUIREMENTS FOR THE SEGMENTED TRANSFORMATION:
       MINIMUM=         124148 WORDS FOR 1 MOLECULAR ORBITAL PER PASS
       MAXIMUM=         221798 WORDS FOR ALL MOLECULAR ORBITALS IN 1 PASS
              (          13950 EXTRA WORDS INCLUDES 1 EXTRA ORBITAL/PASS)
 THIS RUN USES=         221798 WORDS,
 DISTRIBUTING   1 PASSES EACH CONTAINING     8 ORBITALS OVER   1 PROCESSORS.

 CHOOSING SEGMENTED PARTIAL TRANSFORMATION...
 DIRECT TRANSFORMATION SKIPS AO INTEGRAL STORAGE ON DISK.
 PASS #   1 TOOK        0.04 SECONDS.
 TOTAL NUMBER OF TRANSFORMED 2E- INTEGRALS KEPT =        29226
 ... END OF INTEGRAL TRANSFORMATION ...
 CPU     0: STEP CPU TIME=     0.05 TOTAL CPU TIME=         10.4 (      0.2 MIN)
 TOTAL WALL CLOCK TIME=         10.4 SECONDS, CPU UTILIZATION IS    99.90%

     --------     ------------------------------------------
     GMC-QDPT     Program written by H.Nakano (Kyushu Univ.)
     --------     ------------------------------------------

 *** Reference space

 Reference type: ORMAS (= Occupation restricted multiple active space)
 # of orbitals          =  7
 # of minimum electrons =  7
 # of maximum electrons =  7
 State symmetry    =    1 (input)
 2*Sz              =    1 (input)
 Spin multiplicity =    2 (input)
 Dimension of reference space =      1225  (from      3432 walks)

 Dimension of reference space =      1225  (from      1225 walks)

 <<<Ionized spaces for Ref-CI:
      0:         1225 /   -1-0:         1960 /  0-1-0:         2891

 ***                    ***
 *** Reference space CI ***
 ***                    ***

 Converged after   30 iterations

 Reference wavefunctions:

 State #    1  Energy =     -55.894445966  S =  0.500

      Det      Coef    Occupancy (Ignoring core)
      ---      ----    --------- --------- -----
        1   -0.978725  11110001110000
      393   -0.063006  10110101010010
      717   -0.072277  11010011100001

 State #    2  Energy =     -55.734967464  S =  0.500

      Det      Coef    Occupancy (Ignoring core)
      ---      ----    --------- --------- -----
       36    0.983509  11110001101000
      463    0.062932  10110101001010

 State #    3  Energy =     -55.630613738  S =  0.500

      Det      Coef    Occupancy (Ignoring core)
      ---      ----    --------- --------- -----
       71   -0.981212  11110001011000
      822    0.072546  11010011001001

 Davidson method: CPU/Wall time =           0.42 /           0.42 sec.

 Oscillator strength (invalid if E(1)/=E(GS)):
 -----------------------------------------
   State                        f
 -----------------------------------------
     2     F(REF-CI)=        0.0006824958
     3     F(REF-CI)=        0.0012430920
 -----------------------------------------

 Dipole moment matrix elements, x, y, z, in A.U.

 Dimension of ionized spaces for PT:
 (N-2) space:         1715 /  (N-1) space:         2842 /  N space:         2891
 (N+1) space:         2842 /  (N+2) space:         1715

 <<<Ionized spaces for internal:
         0:         1225 /      -1-0:         1960 /     0-1-0:         2891
  -1-0-1-0:         2842 / 0-1-0-1-0:         3381

 Diagonal elements of averaged one-particle density matrix:
       2       3       4       5       6       7       8
  0.9941  0.9890  0.9874  0.9930  0.0107  0.0110  0.0149
  0.9897  0.6614  0.6584  0.6634  0.0087  0.0078  0.0105

 Orbital energies:
 -------- Doubly-occupied orbitals (highest several orbs.) -------
             1
 -1.598643D+01
 -------- Active orbitals ----------------------------------------
             2            3            4            5            6
 -1.528598D+00-9.855777D-01-8.762444D-01-7.541985D-01 3.963749D-01
             7            8
  4.180322D-01 2.734324D-01
 -------- External orbitals (lowest several orbs.) ---------------
             9           10           11           12           13
  1.506119D-01 1.992556D-01 2.094516D-01 5.403801D-01 5.831464D-01
            14           15           16           17           18
  6.335892D-01 8.006834D-01 9.675670D-01 1.011039D+00 1.307473D+00

 *** Quasi-degeneracy checking

 === Det (|Ci| > 1.0D-01 and dE < 5.0D-03)

 # of small denominators (single excitations)
 State       dEmin  dE < 5.0D-03  dE < 5.0D-04  dE < 5.0D-05  dE < 5.0D-06
 ----- ----------- ------------- ------------- ------------- -------------
     1    5.00D-03             0             0             0             0
     2    5.00D-03             0             0             0             0
     3    5.00D-03             0             0             0             0

 # of small denominators (double excitations)
 State       dEmin  dE < 5.0D-03  dE < 5.0D-04  dE < 5.0D-05  dE < 5.0D-06
 ----- ----------- ------------- ------------- ------------- -------------
     1    5.00D-03             0             0             0             0
     2    5.00D-03             0             0             0             0
     3    5.00D-03             0             0             0             0

 *** Zeroth-Order Setup (Granovsky's zeroth-order vectors)
 Zeroth-order effective Hamiltonian
  (= Sum_i e(i)*<I|a+(i)a(i)|J> ):
                   1            2            3
     1 -7.433712D+00
     2  6.812723D-03-7.333226D+00
     3 -1.891798D-03-1.537326D-03-7.216805D+00

 Zeroth-order vectors:
 State #    1
       MC st            1           2           3
       Coeff   -9.977D-01   6.720D-02  -8.207D-03
 State #    2
       MC st            2           1           3
       Coeff   -9.976D-01  -6.708D-02  -1.432D-02
 State #    3
       MC st            3           2           1
       Coeff    9.999D-01  -1.373D-02  -9.150D-03

 *** GMC-QDPT computation

 (Integral reading:  CPU/Wall time =           0.00 /           0.00 sec.)

 One-external:
   0 -ionized terms: CPU/Wall time =           0.03 /           0.03 sec.
 (-1)-ionized terms: CPU/Wall time =           0.09 /           0.09 sec.
 (+1)-ionized terms: CPU/Wall time =           0.02 /           0.02 sec.
 (+1)-ionized terms: CPU/Wall time =           0.01 /           0.01 sec.
 (+2)-ionized terms: CPU/Wall time =           0.00 /           0.00 sec.

 Internal:
 # of macro loops for internal contribution =         1 (input)
 Loop:    1
 Dimension of internal CISD space     =         0  (after screening)
 Space construction: CPU/Wall time =           0.01 /           0.02 sec.
 Internal terms:     CPU/Wall time =           0.00 /           0.00 sec.

 Two-external:
   0 -ionized terms: CPU/Wall time =           0.07 /           0.06 sec.
 (-1)-ionized terms: CPU/Wall time =           0.99 /           0.99 sec.
 (-2)-ionized terms: CPU/Wall time =           0.17 /           0.17 sec.

 Total time:         CPU/Wall time =           1.39 /           1.39 sec.

 ***                  ***
 *** GMC-QDPT Results ***
 ***                  ***

 Diagonal elements of effective Hamiltonian:
 Heff(  1) =   -55.99159183
 Heff(  2) =   -55.84440830
 Heff(  3) =   -55.74163399

 Off-diagonal elements of effective Hamiltonian:
                   1            2
     2 -9.486691D-03
     3 -2.001060D-03-1.462294D-03

 ******** GMC-QDPT energies ********
 ----------------------------------------------------------------------------
   State                        1st order                           2nd order
 ----------------------------------------------------------------------------
     1     E(REF-CI)=      -55.8944459665   E(GMC-QDPT2)=      -55.9922182162
     2     E(REF-CI)=      -55.7349674641   E(GMC-QDPT2)=      -55.8438166865
     3     E(REF-CI)=      -55.6306137384   E(GMC-QDPT2)=      -55.7415992164
 ----------------------------------------------------------------------------

 Excitation energies (invalid if E(1)/=E(GS)):
 ----------------------------------------------------------------------------
   State                        1st order                           2nd order
 ----------------------------------------------------------------------------

     TZ Sorted GMC-PT ENERGIES:
         1      -55.9922182162
         2      -55.8438166865
         3      -55.7415992164
     2     E(REF-CI)=        4.3396333 eV   E(GMC-QDPT2)=        4.0382134 eV
     3     E(REF-CI)=        7.1792443 eV   E(GMC-QDPT2)=        6.8196939 eV
 ----------------------------------------------------------------------------

 Main characters of perturbed GMC-QDPT states:

 State #    1  Energy =     -55.992218216  S =  0.500

      Det      Coef    Occupancy (Ignoring core)
      ---      ----    --------- --------- -----
        1   -0.978817  11110001110000
      393   -0.062998  10110101010010
      717   -0.072257  11010011100001

 State #    2  Energy =     -55.843816686  S =  0.500

      Det      Coef    Occupancy (Ignoring core)
      ---      ----    --------- --------- -----
       36    0.983601  11110001101000
      463    0.062933  10110101001010

 State #    3  Energy =     -55.741599216  S =  0.500

      Det      Coef    Occupancy (Ignoring core)
      ---      ----    --------- --------- -----
       71   -0.981220  11110001011000
      822    0.072549  11010011001001

 <<<Max |V/de| = 2.224D-02  Thresh = 1.000D+00

 Oscillator strength (invalid if E(1)/=E(GS)):
 ----------------------------------------------------------------------------
   State                        1st order                           2nd order
 ----------------------------------------------------------------------------
     2     F(REF-CI)=        0.0006824958     F(GMC-PT2)=        0.0006585372
     3     F(REF-CI)=        0.0012430920     F(GMC-PT2)=        0.0012044820
 ----------------------------------------------------------------------------

 Dipole moment matrix elements, x, y, z, in A.U.
States    1    1       -0.1645907761        0.0998001690        0.7551985861
States    1    2       -0.0151293399        0.0266040385        0.0756282543
States    1    3       -0.0706634980       -0.0229012563       -0.0411247517
States    2    1       -0.0151293399        0.0266040385        0.0756282543
States    2    2        0.0275880419        0.0935302417        0.2646493047
States    2    3        0.1336892550        0.1862231007        0.0014424163
States    3    1       -0.0706634980       -0.0229012563       -0.0411247517
States    3    2        0.1336892550        0.1862231007        0.0014424163
States    3    3       -0.4251381259        0.1895016932        0.2563790791

 Oscillator strength (valid only when positive): 
 ----------------------------------------------------------------------------
  States                        1st order                           2nd order
 ----------------------------------------------------------------------------
  1  1     F(REF-CI)=        0.0000000000     F(GMC-PT2)=        0.0000000000
  1  2     F(REF-CI)=       -0.0006824958     F(GMC-PT2)=       -0.0006585372
  1  3     F(REF-CI)=       -0.0012430920     F(GMC-PT2)=       -0.0012044820
  2  1     F(REF-CI)=        0.0006824958     F(GMC-PT2)=        0.0006585372
  2  2     F(REF-CI)=        0.0000000000     F(GMC-PT2)=        0.0000000000
  2  3     F(REF-CI)=       -0.0036665024     F(GMC-PT2)=       -0.0035812872
  3  1     F(REF-CI)=        0.0012430920     F(GMC-PT2)=        0.0012044820
  3  2     F(REF-CI)=        0.0036665024     F(GMC-PT2)=        0.0035812872
  3  3     F(REF-CI)=        0.0000000000     F(GMC-PT2)=        0.0000000000
 CPU     0: STEP CPU TIME=     1.88 TOTAL CPU TIME=         12.3 (      0.2 MIN)
 TOTAL WALL CLOCK TIME=         12.3 SECONDS, CPU UTILIZATION IS    99.92%

     !!! DIABATIZATION FOR REF CI STATES !!!

 *******************************************************
          $DMO GROUP FOUND IN THE INPUT.
        DIABATIZATION OF ADIABATIC STATES BEGINS.
     PROGRAMMED BY TAO ZENG (CARLETON UNIVERSITY).
               Email: toby.zeng@carleton.ca
     See T. Zeng, J. Chem. Phys. 2017, 146, 144103
 *******************************************************

 *************************************************************************
     STEP 1: TRANSFORMATION OF ADIABATIC STATES TO THE DMO REPRESENTATION
         See Atchity and Ruedenberg, J. Chem. Phys. 1999, 111, 2910
 *************************************************************************

Read in Diabatic Molecualr Orbitals:

                      1          2          3          4          5

    1  N  1  S    0.008609   0.000000   0.000000  -0.013219   0.279491
    2  N  1  S    0.442914  -0.000000   0.000000  -0.184329   0.867803
    3  N  1  S    0.276913   0.000000  -0.000000  -0.288315   0.144236
    4  N  1  X   -0.000000   0.493155  -0.024636  -0.000000  -0.000000
    5  N  1  Y    0.000000   0.024636   0.493155  -0.000000   0.000000
    6  N  1  Z    0.090197   0.000000   0.000000   0.593421   0.705309
    7  N  1  X   -0.000000   0.210628  -0.010522   0.000000   0.000000
    8  N  1  Y    0.000000   0.010522   0.210628  -0.000000  -0.000000
    9  N  1  Z   -0.004381   0.000000   0.000000   0.381592  -0.106092
   10  N  1 XX   -0.000457   0.010719  -0.000535  -0.012387   0.006153
   11  N  1 YY   -0.000457  -0.010719   0.000535  -0.012387   0.006153
   12  N  1 ZZ    0.000914  -0.000000   0.000000   0.024773  -0.012306
   13  N  1 XY    0.000000  -0.000618  -0.012377  -0.000000   0.000000
   14  N  1 XZ   -0.000000   0.026529  -0.001325  -0.000000   0.000000
   15  N  1 YZ    0.000000   0.001325   0.026529  -0.000000   0.000000
   16  H  2  S    0.194462  -0.176074   0.343485   0.112865  -0.523343
   17  H  2  S    0.003574  -0.023812   0.046452   0.024014  -0.054445
   18  H  2  X    0.018760   0.009101   0.022834   0.009336  -0.039151
   19  H  2  Y   -0.032493   0.022287  -0.020044  -0.016171   0.067811
   20  H  2  Z   -0.009251   0.008464  -0.016511   0.018769  -0.010566
   21  H  3  S    0.194462  -0.209430  -0.324227   0.112865  -0.523343
   22  H  3  S    0.003574  -0.028322  -0.043847   0.024014  -0.054445
   23  H  3  X    0.018760   0.006781  -0.023627   0.009336  -0.039151
   24  H  3  Y    0.032493  -0.024174  -0.017723   0.016171  -0.067811
   25  H  3  Z   -0.009251   0.010067   0.015585   0.018769  -0.010566
   26  H  4  S    0.194462   0.385503  -0.019258   0.112865  -0.523343
   27  H  4  S    0.003574   0.052134  -0.002604   0.024014  -0.054445
   28  H  4  X   -0.037519  -0.032295   0.001613  -0.018672   0.078302
   29  H  4  Y    0.000000   0.001067   0.021353  -0.000000   0.000000
   30  H  4  Z   -0.009251  -0.018530   0.000926   0.018769  -0.010566

                      6          7

    1  N  1  S    0.000000  -0.000000
    2  N  1  S    0.000000  -0.000000
    3  N  1  S   -0.000000   0.000000
    4  N  1  X   -0.930415  -0.002083
    5  N  1  Y   -0.002083   0.930415
    6  N  1  Z   -0.000000   0.000000
    7  N  1  X   -0.046866  -0.000105
    8  N  1  Y   -0.000105   0.046866
    9  N  1  Z   -0.000000   0.000000
   10  N  1 XX    0.001538   0.000003
   11  N  1 YY   -0.001538  -0.000003
   12  N  1 ZZ   -0.000000   0.000000
   13  N  1 XY   -0.000004   0.001776
   14  N  1 XZ    0.039985   0.000090
   15  N  1 YZ    0.000090  -0.039985
   16  H  2  S   -0.362630  -0.631354
   17  H  2  S   -0.065964  -0.114846
   18  H  2  X    0.002763  -0.037520
   19  H  2  Y    0.037435   0.040736
   20  H  2  Z    0.001882   0.003276
   21  H  3  S   -0.365454   0.629724
   22  H  3  S   -0.066477   0.114549
   23  H  3  X    0.002595   0.037532
   24  H  3  Y   -0.037617   0.040567
   25  H  3  Z    0.001896  -0.003268
   26  H  4  S    0.728084   0.001630
   27  H  4  S    0.132441   0.000297
   28  H  4  X   -0.062317  -0.000140
   29  H  4  Y    0.000055  -0.024345
   30  H  4  Z   -0.003778  -0.000008

NUMBER OF SUB ACTIVE SPACES:   1
ROTATE ACTIVE MOS TO DMOS IN EACH SUB-SPACE

SPACE  1:

OVERLAP BETWEEN ORTHONORMAL AND PRE-ORTHONORMAL REF. DMOS

             1           2           3           4           5

    1    0.9934473  -0.0118503   0.0129586  -0.0022811   0.0004703
    2   -0.0118503   1.0274627   0.0162481  -0.0186113   0.0382617
    3    0.0129586   0.0162481   0.9502875   0.0156131  -0.0251825
    4   -0.0022811  -0.0186113   0.0156131   0.9983751  -0.0031150
    5    0.0004703   0.0382617  -0.0251825  -0.0031150   1.0407586
    6    0.0030164   0.0291840   0.0160272  -0.0239326   0.0094868
    7    0.0013210  -0.0124829   0.0360190  -0.0135353  -0.0171496

             6           7

    1    0.0030164   0.0013210
    2    0.0291840  -0.0124829
    3    0.0160272   0.0360190
    4   -0.0239326  -0.0135353
    5    0.0094868  -0.0171496
    6    1.0021891   0.0112256
    7    0.0112256   1.0300724
REFERENCE DMOS AFTER ORTHONORMALIZATION:

                      1          2          3          4          5

    1  N  1  S    0.008296  -0.010146   0.007298  -0.012697   0.269144
    2  N  1  S    0.444449  -0.029073   0.019393  -0.182034   0.834896
    3  N  1  S    0.277894  -0.007005   0.004948  -0.288167   0.138025
    4  N  1  X    0.009128   0.507513  -0.019442  -0.012658  -0.010329
    5  N  1  Y   -0.007139   0.026706   0.485916   0.004496   0.025602
    6  N  1  Z    0.091548  -0.013560   0.006374   0.596801   0.680321
    7  N  1  X    0.002820   0.207113  -0.014139   0.002853  -0.007415
    8  N  1  Y   -0.002837   0.007043   0.220398  -0.002894   0.005732
    9  N  1  Z   -0.003269   0.010581  -0.009416   0.382521  -0.101437
   10  N  1 XX   -0.000369   0.009985  -0.000401  -0.012175   0.005492
   11  N  1 YY   -0.000632  -0.010880   0.001168  -0.012651   0.006314
   12  N  1 ZZ    0.001001   0.000895  -0.000767   0.024826  -0.011806
   13  N  1 XY    0.000164  -0.000357  -0.013118   0.000232  -0.000270
   14  N  1 XZ    0.000214   0.024824  -0.002545   0.001441  -0.001327
   15  N  1 YZ   -0.000330   0.000316   0.029444  -0.000995   0.000041
   16  H  2  S    0.191342  -0.152843   0.376760   0.086244  -0.495154
   17  H  2  S    0.003068  -0.021270   0.052896   0.019607  -0.051482
   18  H  2  X    0.018767   0.009726   0.023835   0.008645  -0.038030
   19  H  2  Y   -0.032436   0.018486  -0.021193  -0.013979   0.064286
   20  H  2  Z   -0.008929   0.009154  -0.018206   0.019314  -0.010824
   21  H  3  S    0.199487  -0.157620  -0.373651   0.114780  -0.492405
   22  H  3  S    0.004134  -0.021183  -0.050746   0.024274  -0.050237
   23  H  3  X    0.019342   0.009236  -0.027915   0.010456  -0.038027
   24  H  3  Y    0.032891  -0.018632  -0.021617   0.015730  -0.063982
   25  H  3  Z   -0.009353   0.010057   0.015881   0.018685  -0.010154
   26  H  4  S    0.199400   0.379779  -0.057584   0.137112  -0.524596
   27  H  4  S    0.003983   0.049723  -0.007771   0.028091  -0.055463
   28  H  4  X   -0.038142  -0.033434   0.006191  -0.020752   0.077155
   29  H  4  Y   -0.000270   0.000352   0.023411  -0.000693   0.000149
   30  H  4  Z   -0.009476  -0.017400   0.000901   0.018343  -0.009409

                      6          7

    1  N  1  S   -0.002741   0.003955
    2  N  1  S   -0.013164   0.010051
    3  N  1  S   -0.008877  -0.002006
    4  N  1  X   -0.943248   0.014737
    5  N  1  Y   -0.020680   0.887304
    6  N  1  Z    0.007621   0.018581
    7  N  1  X   -0.052477   0.003385
    8  N  1  Y   -0.004375   0.037985
    9  N  1  Z    0.009906   0.003691
   10  N  1 XX    0.000908   0.000060
   11  N  1 YY   -0.001594  -0.000219
   12  N  1 ZZ    0.000686   0.000159
   13  N  1 XY    0.000199   0.002174
   14  N  1 XZ    0.039262   0.000045
   15  N  1 YZ    0.000033  -0.039856
   16  H  2  S   -0.350168  -0.631489
   17  H  2  S   -0.063828  -0.113508
   18  H  2  X    0.003025  -0.037716
   19  H  2  Y    0.035849   0.041049
   20  H  2  Z    0.002448   0.003986
   21  H  3  S   -0.354227   0.619410
   22  H  3  S   -0.065126   0.112910
   23  H  3  X    0.002904   0.036972
   24  H  3  Y   -0.036205   0.039407
   25  H  3  Z    0.001956  -0.003539
   26  H  4  S    0.724072  -0.006880
   27  H  4  S    0.132021  -0.000836
   28  H  4  X   -0.062428   0.000984
   29  H  4  Y   -0.000073  -0.024454
   30  H  4  Z   -0.002721  -0.000124

 -------------------------------------------
       MAXIMIZING MORMO OVERLAP TERM        
 -------------------------------------------
   SWEEP    VALUE       PROGRESS
     0     6.31860
     1     6.98132     0.66271660
     2     6.98686     0.00553834
     3     6.98686     0.00000008
     4     6.98686     0.00000000
 THE ROTATION IS DONE
FLIPPING SIGN FOR ORBITAL   7
ACTIVE ORBITALS AFTER MORMO:

                      1          2          3          4          5

    1  N  1  S    0.007835  -0.013372   0.010899  -0.012566   0.252006
    2  N  1  S    0.438086  -0.028290   0.026284  -0.184961   0.812852
    3  N  1  S    0.296306   0.014538  -0.025454  -0.283750   0.161091
    4  N  1  X    0.005225   0.506107  -0.015330  -0.017937  -0.002440
    5  N  1  Y   -0.000864   0.030819   0.468289   0.012607   0.017694
    6  N  1  Z    0.088080  -0.021220   0.013481   0.596768   0.675401
    7  N  1  X    0.008951   0.185169  -0.026613   0.024377  -0.024976
    8  N  1  Y   -0.012332  -0.006151   0.254867  -0.019135   0.020715
    9  N  1  Z    0.006218   0.030511  -0.026913   0.382422  -0.094997
   10  N  1 XX    0.001479   0.008162  -0.004876  -0.012480  -0.022310
   11  N  1 YY   -0.002345  -0.008700   0.005215  -0.011553   0.028461
   12  N  1 ZZ    0.000865   0.000538  -0.000338   0.024034  -0.006150
   13  N  1 XY    0.000865   0.004130  -0.016767   0.001198  -0.016535
   14  N  1 XZ   -0.001147   0.021334  -0.002030   0.000544   0.024455
   15  N  1 YZ   -0.000443   0.000600   0.026079   0.001150  -0.017965
   16  H  2  S    0.192254  -0.165007   0.357035   0.098633  -0.507148
   17  H  2  S    0.004190  -0.022523   0.074841   0.020980  -0.057318
   18  H  2  X    0.021218   0.008553   0.024565   0.010083  -0.034847
   19  H  2  Y   -0.027003   0.019063  -0.014350  -0.016111   0.062486
   20  H  2  Z   -0.012544   0.012059  -0.020560   0.018097  -0.009566
   21  H  3  S    0.191202  -0.189270  -0.338312   0.111150  -0.485238
   22  H  3  S    0.002911  -0.017798  -0.068587   0.027152  -0.055156
   23  H  3  X    0.025249  -0.002310  -0.031691   0.011163  -0.040073
   24  H  3  Y    0.024532  -0.022813  -0.011000   0.013107  -0.055970
   25  H  3  Z   -0.008311   0.012660   0.012856   0.018862  -0.014477
   26  H  4  S    0.189128   0.385028  -0.032975   0.122441  -0.515847
   27  H  4  S    0.001086   0.047101  -0.012412   0.028408  -0.056115
   28  H  4  X   -0.036965  -0.036813  -0.002230  -0.016679   0.070666
   29  H  4  Y   -0.004855  -0.007139   0.020723  -0.002151   0.006992
   30  H  4  Z   -0.005896  -0.014652  -0.000620   0.019896  -0.011627

                      6          7

    1  N  1  S   -0.033816  -0.007659
    2  N  1  S   -0.075762  -0.020875
    3  N  1  S    0.072913   0.040242
    4  N  1  X   -0.932589   0.016350
    5  N  1  Y   -0.021654   0.891026
    6  N  1  Z    0.031774   0.040184
    7  N  1  X   -0.079268   0.006751
    8  N  1  Y   -0.008963   0.028375
    9  N  1  Z   -0.004470  -0.015202
   10  N  1 XX   -0.015994   0.018487
   11  N  1 YY    0.021930  -0.016158
   12  N  1 ZZ   -0.005936  -0.002329
   13  N  1 XY    0.021584   0.026302
   14  N  1 XZ    0.052526  -0.006125
   15  N  1 YZ    0.008555  -0.028406
   16  H  2  S   -0.358289  -0.610980
   17  H  2  S   -0.068965  -0.137796
   18  H  2  X    0.013732  -0.039846
   19  H  2  Y    0.041269   0.029090
   20  H  2  Z   -0.001540   0.012468
   21  H  3  S   -0.374000   0.594473
   22  H  3  S   -0.073524   0.131620
   23  H  3  X   -0.006149   0.044327
   24  H  3  Y   -0.041885   0.027895
   25  H  3  Z   -0.013167  -0.008472
   26  H  4  S    0.720409  -0.019610
   27  H  4  S    0.134278  -0.002625
   28  H  4  X   -0.066142   0.007674
   29  H  4  Y   -0.008888  -0.014214
   30  H  4  Z    0.006139  -0.008665

Actually Used Diabatic Molecualr Orbitals:

                      1          2          3          4          5

    1  N  1  S    0.007835  -0.013372   0.010899  -0.012566   0.252006
    2  N  1  S    0.438086  -0.028290   0.026284  -0.184961   0.812852
    3  N  1  S    0.296306   0.014538  -0.025454  -0.283750   0.161091
    4  N  1  X    0.005225   0.506107  -0.015330  -0.017937  -0.002440
    5  N  1  Y   -0.000864   0.030819   0.468289   0.012607   0.017694
    6  N  1  Z    0.088080  -0.021220   0.013481   0.596768   0.675401
    7  N  1  X    0.008951   0.185169  -0.026613   0.024377  -0.024976
    8  N  1  Y   -0.012332  -0.006151   0.254867  -0.019135   0.020715
    9  N  1  Z    0.006218   0.030511  -0.026913   0.382422  -0.094997
   10  N  1 XX    0.001479   0.008162  -0.004876  -0.012480  -0.022310
   11  N  1 YY   -0.002345  -0.008700   0.005215  -0.011553   0.028461
   12  N  1 ZZ    0.000865   0.000538  -0.000338   0.024034  -0.006150
   13  N  1 XY    0.000865   0.004130  -0.016767   0.001198  -0.016535
   14  N  1 XZ   -0.001147   0.021334  -0.002030   0.000544   0.024455
   15  N  1 YZ   -0.000443   0.000600   0.026079   0.001150  -0.017965
   16  H  2  S    0.192254  -0.165007   0.357035   0.098633  -0.507148
   17  H  2  S    0.004190  -0.022523   0.074841   0.020980  -0.057318
   18  H  2  X    0.021218   0.008553   0.024565   0.010083  -0.034847
   19  H  2  Y   -0.027003   0.019063  -0.014350  -0.016111   0.062486
   20  H  2  Z   -0.012544   0.012059  -0.020560   0.018097  -0.009566
   21  H  3  S    0.191202  -0.189270  -0.338312   0.111150  -0.485238
[...]
      391    0.025005   -0.025005  2+20020
      177    0.024671   -0.024671  2+20200
      192    0.023960   -0.023960  2+-+-0+
      323   -0.023338    0.023338  +022-+0
      123   -0.022973    0.022973  +-2200+
       76    0.022861    0.022861  2+2-0+0
      421   -0.022657   -0.022657  +22+0-0
      751    0.021767   -0.021767  2+20002
      809   -0.021580    0.021580  20+2+0-
      807    0.021492   -0.021492  2++-+0-
       78   -0.020887    0.020887  20220+0
      180   -0.020513    0.020513  -+2+200
      894    0.020071    0.020071  0+22002

 State #    3  Energy =     -55.841075673

      Det      Coef        Coefp    Occupancy (Ignoring core)
      ---      ----        ----    --------- --------- -----
       36   -0.951060   -0.951060  22+2000
       71   -0.206697    0.206697  2+22000
        1    0.145633   -0.145633  222+000
      463    0.059286   -0.059286  20+2020
      472    0.032235    0.032235  2+020-+
      285    0.031527   -0.031527  02+2200
      123   -0.030239    0.030239  +-2200+
      157   -0.028005    0.028005  220+-0+
      142    0.027610    0.027610  22+0200
      823    0.027315   -0.027315  20+2002
      262    0.027303    0.027303  2+02-0+
      297   -0.026080    0.026080  +202-0+
      121    0.026074   -0.026074  +22-00+
       16    0.025462   -0.025462  222000+
      288   -0.023309   -0.023309  +-+2-+0
      356    0.022248    0.022248  22+0020
      460   -0.021845   -0.021845  -++2+-0
      145   -0.021473   -0.021473  -2++200
      249    0.021238   -0.021238  20+2200
      122    0.021233    0.021233  +2-200+
      859    0.021002   -0.021002  02+2002
      716    0.020459    0.020459  22+0002
       64   -0.020315    0.020315  2-020++

 ---------------------------------------
    -DIABATIC STATES IN PROTOTYPES-     
 ---------------------------------------

     STATE:    1
 Group Ref#    Coefficients
     1    1    0.986977
     2    2   -0.000284
     3    3    0.001557

WEIGHT OF LISTED PROTOTYPES:   97.41%

     STATE:    2
 Group Ref#    Coefficients
     1    1   -0.000284
     2    2    0.985137
     3    3   -0.001396

WEIGHT OF LISTED PROTOTYPES:   97.05%

     STATE:    3
 Group Ref#    Coefficients
     1    1    0.001557
     2    2   -0.001396
     3    3    0.986701

WEIGHT OF LISTED PROTOTYPES:   97.36%

 --------------------------------------------------
 IN DIRECT MAX. DIABATIZATION FOR GMC-QDPT

 DIRECT MAXIMIZATION (DM) WITHOUT TRUNCATING ADIABATS
 EXPANSIONS INTO THE REFERENCE CONFIGURATION SPACE
 --------------------------------------------------

 -------------------------------------------
 - DM DIABT PT HAMILTONIAN MATRIX ELEMENTS -
 -------------------------------------------
                                            
 --- DIABATIC ENERGIES (DIAGONAL ELEMENT) ---       HARTREE            EV
 STATE #  1'S GMC-PT-LEVEL DIABATIC ENERGY=     -55.987808302       0.000000000
 STATE #  2'S GMC-PT-LEVEL DIABATIC ENERGY=     -55.748750190       6.505102572
 STATE #  3'S GMC-PT-LEVEL DIABATIC ENERGY=     -55.841075627       3.992799467

 --- DIABATIC COUPLINGS (OFF DIAGONAL ELEMENTS)---  HATREE            EV
 STATE #  1 &  2'S GMC-PT-LEVEL COUPLING  =       0.023078367       0.627994361
 STATE #  1 &  3'S GMC-PT-LEVEL COUPLING  =      -0.015945230      -0.433891811
 STATE #  2 &  3'S GMC-PT-LEVEL COUPLING  =       0.023653381       0.643641268

 ---------------------------------------
     - ROTATION TO DIABATIC STATES -    
 ---------------------------------------
 ROWS=ADIABATIC, COLUMNS=DIABATIC STATES

             1           2           3

    1    0.9871005  -0.1052853   0.1206139
    2    0.1403721   0.2068333  -0.9682539
    3   -0.0769959  -0.9726947  -0.2189444

 ---------------------------------------
          - DIABATIC STATES -           
 ---------------------------------------

 State #    1  Energy =     -55.987808302

      Det      Coef        Coefp    Occupancy (Ignoring core)
      ---      ----        ----    --------- --------- -----
        1    0.969442   -0.969442  222+000
       17    0.093889    0.093889  22-+00+
      717   -0.076374   -0.076374  220+002
      393   -0.066037   -0.066037  202+020
      701   -0.063714   -0.063714  22++00-
        4    0.049865   -0.049865  2-2++00
      176   -0.048617    0.048617  2+2+-00
      402    0.039517   -0.039517  2+-+0-+
        3   -0.038904   -0.038904  22-++00
      708    0.037570   -0.037570  2-++0+-
      141    0.037445    0.037445  22++-00
      215   -0.035065   -0.035065  022+200
      227   -0.033924   -0.033924  +2-+-0+
      705   -0.033573   -0.033573  -2+++0-
        6   -0.033042    0.033042  22200+0
      390    0.032336   -0.032336  -+2++-0
      218    0.032326   -0.032326  +-2+-+0
       51   -0.030176    0.030176  22+-00+
      212    0.028411    0.028411  +220200
      122    0.027693    0.027693  +2-200+
        2    0.026642   -0.026642  2220+00
       76    0.025824    0.025824  2+2-0+0
       16   -0.025366    0.025366  222000+
      773    0.023865   -0.023865  +2-++0-
      113   -0.023656    0.023656  +-220+0
      179   -0.023166   -0.023166  202+200
      159    0.023005   -0.023005  -2++-0+
      702    0.022944    0.022944  22+0+0-
        7    0.022761    0.022761  22-+0+0
      387   -0.021702    0.021702  2+20+-0
      424   -0.021419   -0.021419  +-2++-0
      143   -0.021320   -0.021320  220+200
      184   -0.020795   -0.020795  -+2+-+0
      351   -0.020786   -0.020786  22++0-0
      106   -0.020784   -0.020784  +222000
      368   -0.020214   -0.020214  2-++0-+

 State #    2  Energy =     -55.748750190

      Det      Coef        Coefp    Occupancy (Ignoring core)
      ---      ----        ----    --------- --------- -----
       71   -0.972282    0.972282  2+22000
      822    0.078117   -0.078117  2+02002
      806   -0.062808   -0.062808  2++200-
       87    0.051210   -0.051210  2+-200+
       36    0.046859    0.046859  22+2000
       78   -0.044268    0.044268  20220+0
      813    0.042729   -0.042729  20+20+-
      111    0.041287   -0.041287  +22-0+0
      246    0.039871    0.039871  2++2-00
       73   -0.038453    0.038453  2+-2+00
      122    0.035882    0.035882  +2-200+
      332   -0.035370    0.035370  ++-2-0+
      320    0.035217    0.035217  0+22200
      810   -0.034995   -0.034995  -++2+0-
      106   -0.032590   -0.032590  +222000
      323   -0.030668    0.030668  +022-+0
      736    0.030367   -0.030367  2+2+00-
      317    0.029023   -0.029023  ++2-200
      180   -0.028972    0.028972  -+2+200
       38   -0.028842    0.028842  2202+00
      386    0.028151   -0.028151  2+2+0-0
       86   -0.027974   -0.027974  2+2-00+
      177    0.027236   -0.027236  2+20200
        6    0.026636   -0.026636  22200+0
       99   -0.026336    0.026336  20-20++
      807   -0.025724    0.025724  2++-+0-
      192   -0.025573    0.025573  2+-+-0+
       51    0.024859   -0.024859  22+-00+
      456   -0.024334   -0.024334  2++20-0
      248    0.024291   -0.024291  2+02200
      391    0.024046   -0.024046  2+20020
      878    0.023958    0.023958  ++-2+0-
      264    0.023954   -0.023954  -++2-0+
       77    0.023734   -0.023734  2+-20+0
       74   -0.023037    0.023037  2022+00
      183   -0.022995    0.022995  202+-+0
      421   -0.021954   -0.021954  +22+0-0
      113    0.021205   -0.021205  +-220+0
      841   -0.020386    0.020386  +2+200-
      751    0.020005   -0.020005  2+20002

 State #    3  Energy =     -55.841075627

      Det      Coef        Coefp    Occupancy (Ignoring core)
      ---      ----        ----    --------- --------- -----
       36   -0.971806   -0.971806  22+2000
       39   -0.079397   -0.079397  2-+2+00
      463    0.064279   -0.064279  20+2020
       41   -0.060311    0.060311  22+-0+0
      246    0.058274    0.058274  2++2-00
      351    0.051121    0.051121  22++0-0
       71   -0.046802    0.046802  2+22000
      472   -0.042186   -0.042186  2+020-+
       38    0.041504   -0.041504  2202+00
      121   -0.034971    0.034971  +22-00+
       52   -0.034460    0.034460  220200+
      285    0.034437   -0.034437  02+2200
      297    0.034079   -0.034079  +202-0+
      460   -0.032644   -0.032644  -++2+-0
      288   -0.032082   -0.032082  +-+2-+0
       51   -0.030361    0.030361  22+-00+
      701    0.029958    0.029958  22++00-
      123    0.029483   -0.029483  +-2200+
      106    0.029343    0.029343  +222000
      145   -0.029071   -0.029071  -2++200
      282    0.028740    0.028740  +2+-200
      157    0.027355   -0.027355  220+-0+
      142    0.027273    0.027273  22+0200
       64    0.026023   -0.026023  2-020++
       16   -0.024455    0.024455  222000+
      716    0.024041    0.024041  22+0002
      249    0.023414   -0.023414  20+2200
      457   -0.022581    0.022581  2++-+-0
      148   -0.022291   -0.022291  2-++-+0
      494    0.021469   -0.021469  +-+2+-0
       55   -0.021383   -0.021383  220-+0+
       73    0.021123   -0.021123  2+-2+00
      843   -0.020950   -0.020950  +202+0-
      859    0.020500   -0.020500  02+2002

 ---------------------------------------
      - DIABATIC STATES IN CMO -        
 ---------------------------------------

 State #    1  Energy =     -55.987808302

      Det      Coef        Coefp    Occupancy (Ignoring core)
      ---      ----        ----    --------- --------- -----
        1    0.961936   -0.961936  222+000
       36    0.164224    0.164224  22+2000
       71   -0.078849    0.078849  2+22000
      717   -0.072322   -0.072322  220+002
      393   -0.063080   -0.063080  202+020
        8   -0.041367    0.041367  2-2+0+0
       17   -0.038743   -0.038743  22-+00+
      708   -0.035287    0.035287  2-++0+-
      143   -0.032644   -0.032644  220+200
      215   -0.032256   -0.032256  022+200
      402   -0.031673    0.031673  2+-+0-+
      705    0.029154    0.029154  -2+++0-
      106   -0.027322   -0.027322  +222000
       51    0.026508   -0.026508  22+-00+
      227    0.025953    0.025953  +2-+-0+
      753   -0.025901   -0.025901  202+002
      122   -0.025419   -0.025419  +2-200+
      390    0.024201   -0.024201  -+2++-0
      218    0.024116   -0.024116  +-2+-+0
       76    0.023975    0.023975  2+2-0+0
        2    0.023886   -0.023886  2220+00
      113   -0.022556    0.022556  +-220+0
      703    0.022517    0.022517  220++0-
      702   -0.022066   -0.022066  22+0+0-
        3    0.021255    0.021255  22-++00
      704   -0.020632    0.020632  2-+++0-
      368    0.020393    0.020393  2-++0-+

 State #    2  Energy =     -55.748750190

      Det      Coef        Coefp    Occupancy (Ignoring core)
      ---      ----        ----    --------- --------- -----
       71   -0.955998    0.955998  2+22000
       36    0.191852    0.191852  22+2000
        1   -0.111355    0.111355  222+000
      822    0.071134   -0.071134  2+02002
      111    0.039362   -0.039362  +22-0+0
      122   -0.033179   -0.033179  +2-200+
      248    0.033022   -0.033022  2+02200
      320    0.031692    0.031692  0+22200
      813   -0.031599    0.031599  20+20+-
      810    0.026981    0.026981  -++2+0-
       38   -0.026068    0.026068  2202+00
      332    0.025787   -0.025787  ++-2-0+
      391    0.025005   -0.025005  2+20020
      177    0.024671   -0.024671  2+20200
      192    0.023960   -0.023960  2+-+-0+
      323   -0.023338    0.023338  +022-+0
      123   -0.022973    0.022973  +-2200+
       76    0.022861    0.022861  2+2-0+0
      421   -0.022657   -0.022657  +22+0-0
      751    0.021767   -0.021767  2+20002
      809   -0.021580    0.021580  20+2+0-
      807    0.021492   -0.021492  2++-+0-
       78   -0.020887    0.020887  20220+0
      180   -0.020513    0.020513  -+2+200
      894    0.020071    0.020071  0+22002

 State #    3  Energy =     -55.841075627

      Det      Coef        Coefp    Occupancy (Ignoring core)
      ---      ----        ----    --------- --------- -----
       36   -0.951060   -0.951060  22+2000
       71   -0.206698    0.206698  2+22000
        1    0.145634   -0.145634  222+000
      463    0.059286   -0.059286  20+2020
      472    0.032235    0.032235  2+020-+
      285    0.031527   -0.031527  02+2200
      123   -0.030239    0.030239  +-2200+
      157   -0.028005    0.028005  220+-0+
      142    0.027610    0.027610  22+0200
      823    0.027315   -0.027315  20+2002
      262    0.027303    0.027303  2+02-0+
      297   -0.026080    0.026080  +202-0+
      121    0.026074   -0.026074  +22-00+
       16    0.025462   -0.025462  222000+
      288   -0.023309   -0.023309  +-+2-+0
      356    0.022248    0.022248  22+0020
      460   -0.021845   -0.021845  -++2+-0
      145   -0.021473   -0.021473  -2++200
      249    0.021238   -0.021238  20+2200
      122    0.021233    0.021233  +2-200+
      859    0.021002   -0.021002  02+2002
      716    0.020459    0.020459  22+0002
       64   -0.020315    0.020315  2-020++

 ---------------------------------------
    -DIABATIC STATES IN PROTOTYPES-     
 ---------------------------------------

     STATE:    1
 Group Ref#    Coefficients
     1    1    0.986977
     2    2   -0.000284
     3    3    0.001556

WEIGHT OF LISTED PROTOTYPES:   97.41%

     STATE:    2
 Group Ref#    Coefficients
     1    1   -0.000284
     2    2    0.985137
     3    3   -0.001397

WEIGHT OF LISTED PROTOTYPES:   97.05%

     STATE:    3
 Group Ref#    Coefficients
     1    1    0.001557
     2    2   -0.001395
     3    3    0.986701

WEIGHT OF LISTED PROTOTYPES:   97.36%

     DIRECT MAX. DIABATIZATION FINISHED    
 CPU     0: STEP CPU TIME=     0.24 TOTAL CPU TIME=         12.5 (      0.2 MIN)
 TOTAL WALL CLOCK TIME=         12.5 SECONDS, CPU UTILIZATION IS    99.92%

DIABATS FOR SPIN-ORBIT CALCULATION ARE READY

TRANSITION DIPOLES BETWEEN ADIABATS (in A.U.):

STATE PAIR      X         Y         Z
    1    1 -0.164591  0.099800  0.755199
    2    1 -0.015129  0.026604  0.075628
    2    2  0.027588  0.093530  0.264649
    3    1 -0.070663 -0.022901 -0.041125
    3    2  0.133689  0.186223  0.001442
    3    3 -0.425138  0.189502  0.256379


TRANSITION DIPOLES BETWEEN DIABATS (in A.U.):

STATE PAIR      X         Y         Z
    1    1 -0.158690  0.107037  0.769754
    2    1  0.030093  0.004985  0.001655
    2    2 -0.470489  0.103622  0.249965
    3    1  0.005478 -0.009290 -0.003405
    3    2  0.030624  0.192848  0.006776
    3    3  0.067038  0.172173  0.256508

TRANSITION DIPOLES BETWEEN DIRECT MAX. DIABATS (in A.U.):

STATE PAIR      X         Y         Z
    1    1 -0.158690  0.107037  0.769754
    2    1  0.030093  0.004985  0.001655
    2    2 -0.470489  0.103622  0.249965
    3    1  0.005478 -0.009290 -0.003405
    3    2  0.030623  0.192848  0.006776
    3    3  0.067039  0.172174  0.256508
 No $TRANST Group Found.
 Quit without doing spin-orbit coupling
 ..... DONE WITH MP2 ENERGY .....
 CPU     0: STEP CPU TIME=     0.01 TOTAL CPU TIME=         12.5 (      0.2 MIN)
 TOTAL WALL CLOCK TIME=         12.6 SECONDS, CPU UTILIZATION IS    99.92%
            100000000  WORDS OF DYNAMIC MEMORY USED
 EXECUTION OF GAMESS TERMINATED NORMALLY Wed Nov 16 19:36:59 2022
 DDI: 715512 bytes (0.7 MB / 0 MWords) used by master data server.

 ----------------------------------------
 CPU timing information for all processes
 ========================================
 0: 12.231 + 0.315 = 12.547
 ----------------------------------------
Note: The following floating-point exceptions are signalling: IEEE_DENORMAL
 ddikick.x: exited gracefully.
unset echo
----- accounting info -----
Files used on the master node io002 were:
-rw-r--r-- 1 bsonghao nooijen   20718 Nov 16 19:36 /scratch/bsonghao/nh3_diabatization_2d_at_mode_7_8_dist0.2_-0.3.F05
-rw-r--r-- 1 bsonghao nooijen  363520 Nov 16 19:36 /scratch/bsonghao/nh3_diabatization_2d_at_mode_7_8_dist0.2_-0.3.F09
-rw-r--r-- 1 bsonghao nooijen 1995920 Nov 16 19:37 /scratch/bsonghao/nh3_diabatization_2d_at_mode_7_8_dist0.2_-0.3.F10
-rw-r--r-- 1 bsonghao nooijen  131264 Nov 16 19:36 /scratch/bsonghao/nh3_diabatization_2d_at_mode_7_8_dist0.2_-0.3.F13
-rw-r--r-- 1 bsonghao nooijen  180312 Nov 16 19:37 /scratch/bsonghao/nh3_diabatization_2d_at_mode_7_8_dist0.2_-0.3.F15
-rw-r--r-- 1 bsonghao nooijen       0 Nov 16 19:36 /scratch/bsonghao/nh3_diabatization_2d_at_mode_7_8_dist0.2_-0.3.F16
-rw-r--r-- 1 bsonghao nooijen    9808 Nov 16 19:36 /scratch/bsonghao/nh3_diabatization_2d_at_mode_7_8_dist0.2_-0.3.F70
-rw-r--r-- 1 bsonghao nooijen    9808 Nov 16 19:36 /scratch/bsonghao/nh3_diabatization_2d_at_mode_7_8_dist0.2_-0.3.F71
-rw-r--r-- 1 bsonghao nooijen   19608 Nov 16 19:36 /scratch/bsonghao/nh3_diabatization_2d_at_mode_7_8_dist0.2_-0.3.F72
-rw-r--r-- 1 bsonghao nooijen   19608 Nov 16 19:36 /scratch/bsonghao/nh3_diabatization_2d_at_mode_7_8_dist0.2_-0.3.F73
-rw-r--r-- 1 bsonghao nooijen 1920824 Nov 16 19:36 /scratch/bsonghao/nh3_diabatization_2d_at_mode_7_8_dist0.2_-0.3.F74
-rw-r--r-- 1 bsonghao nooijen       0 Nov 16 19:36 /scratch/bsonghao/nh3_diabatization_2d_at_mode_7_8_dist0.2_-0.3.F75
-rw-r--r-- 1 bsonghao nooijen   58848 Nov 16 19:36 /scratch/bsonghao/nh3_diabatization_2d_at_mode_7_8_dist0.2_-0.3.F76
-rw-r--r-- 1 bsonghao nooijen       0 Nov 16 19:36 /scratch/bsonghao/nh3_diabatization_2d_at_mode_7_8_dist0.2_-0.3.F77
-rw-r--r-- 1 bsonghao nooijen    1864 Nov 16 19:36 /scratch/bsonghao/nh3_diabatization_2d_at_mode_7_8_dist0.2_-0.3.F78
-rw-r--r-- 1 bsonghao nooijen   39208 Nov 16 19:36 /scratch/bsonghao/nh3_diabatization_2d_at_mode_7_8_dist0.2_-0.3.F79
-rw-r--r-- 1 bsonghao nooijen     104 Nov 16 19:36 /scratch/bsonghao/nh3_diabatization_2d_at_mode_7_8_dist0.2_-0.3.F80
-rw-r--r-- 1 bsonghao nooijen   13472 Nov 16 19:36 /scratch/bsonghao/nh3_diabatization_2d_at_mode_7_8_dist0.2_-0.3.F81
-rw-r--r-- 1 bsonghao nooijen      16 Nov 16 19:36 /scratch/bsonghao/nh3_diabatization_2d_at_mode_7_8_dist0.2_-0.3.F82
-rw-r--r-- 1 bsonghao nooijen   19216 Nov 16 19:36 /scratch/bsonghao/nh3_diabatization_2d_at_mode_7_8_dist0.2_-0.3.F83
-rw-r--r-- 1 bsonghao nooijen   29712 Nov 16 19:36 /scratch/bsonghao/nh3_diabatization_2d_at_mode_7_8_dist0.2_-0.3.F84
-rw-r--r-- 1 bsonghao nooijen  401576 Nov 16 19:36 /scratch/bsonghao/nh3_diabatization_2d_at_mode_7_8_dist0.2_-0.3.F85
-rw-r--r-- 1 bsonghao nooijen  903672 Nov 16 19:36 /scratch/bsonghao/nh3_diabatization_2d_at_mode_7_8_dist0.2_-0.3.F86
-rw-r--r-- 1 bsonghao nooijen     656 Nov 16 19:36 /scratch/bsonghao/nh3_diabatization_2d_at_mode_7_8_dist0.2_-0.3.F87
-rw-r--r-- 1 bsonghao nooijen   30192 Nov 16 19:37 /scratch/bsonghao/nh3_diabatization_2d_at_mode_7_8_dist0.2_-0.3.F88
-rw-r--r-- 1 bsonghao nooijen     240 Nov 16 19:36 /scratch/bsonghao/nh3_diabatization_2d_at_mode_7_8_dist0.2_-0.3.F89
-rw-r--r-- 1 bsonghao nooijen       0 Nov 16 19:36 /scratch/bsonghao/nh3_diabatization_2d_at_mode_7_8_dist0.2_-0.3.F90
-rw-r--r-- 1 bsonghao nooijen   13760 Nov 16 19:36 /scratch/bsonghao/nh3_diabatization_2d_at_mode_7_8_dist0.2_-0.3.F91
-rw-r--r-- 1 bsonghao nooijen   22776 Nov 16 19:36 /scratch/bsonghao/nh3_diabatization_2d_at_mode_7_8_dist0.2_-0.3.F92
-rw-r--r-- 1 bsonghao nooijen   23168 Nov 16 19:36 /scratch/bsonghao/nh3_diabatization_2d_at_mode_7_8_dist0.2_-0.3.F93
-rw-r--r-- 1 bsonghao nooijen   22776 Nov 16 19:36 /scratch/bsonghao/nh3_diabatization_2d_at_mode_7_8_dist0.2_-0.3.F94
-rw-r--r-- 1 bsonghao nooijen   13760 Nov 16 19:36 /scratch/bsonghao/nh3_diabatization_2d_at_mode_7_8_dist0.2_-0.3.F95
-rw-r--r-- 1 bsonghao nooijen   29440 Nov 16 19:36 /scratch/bsonghao/nh3_diabatization_2d_at_mode_7_8_dist0.2_-0.3.F96
-rw-r--r-- 1 bsonghao nooijen    1184 Nov 16 19:36 /scratch/bsonghao/nh3_diabatization_2d_at_mode_7_8_dist0.2_-0.3.F97
-rw-r--r-- 1 bsonghao nooijen    9808 Nov 16 19:36 /scratch/bsonghao/nh3_diabatization_2d_at_mode_7_8_dist0.2_-0.3.F98
-rw-r--r-- 1 bsonghao nooijen   30264 Nov 16 19:36 /scratch/bsonghao/nh3_diabatization_2d_at_mode_7_8_dist0.2_-0.3.F99
ls: No match.
ls: No match.
ls: No match.
Wed 16 Nov 2022 07:37:02 PM EST
0.292u 0.042s 0:15.93 2.0%	0+0k 48+232io 0pf+0w
