----- GAMESS execution script 'rungms' -----
This job is running on host io002
under operating system Linux at Wed 16 Nov 2022 07:04:38 PM EST
Available scratch disk space (Kbyte units) at beginning of the job is
Filesystem       1K-blocks       Used   Available Use% Mounted on
/dev/sdc1      15378471580 3278917120 11318349060  23% /scratch
GAMESS temporary binary files will be written to /scratch/bsonghao
GAMESS supplementary output files will be written to /home/bsonghao/.gamess_ascii_files/267638
Copying input file nh3_diabatization_2d_at_mode_7_8_dist-0.2_-0.8.inp to your run's scratch directory...
cp nh3_diabatization_2d_at_mode_7_8_dist-0.2_-0.8.inp /scratch/bsonghao/nh3_diabatization_2d_at_mode_7_8_dist-0.2_-0.8.F05
unset echo
/home/bjb2chen/gamess/ddikick.x /home/bjb2chen/gamess/gamess.00.x nh3_diabatization_2d_at_mode_7_8_dist-0.2_-0.8 -ddi 1 1 io002 -scr /scratch/bsonghao

 Distributed Data Interface kickoff program.
 Initiating 1 compute processes on 1 nodes to run the following command:
 /home/bjb2chen/gamess/gamess.00.x nh3_diabatization_2d_at_mode_7_8_dist-0.2_-0.8 

          ******************************************************
          *         GAMESS VERSION = 02 AUG 2018 (R2)         *
          *             FROM IOWA STATE UNIVERSITY             *
          * M.W.SCHMIDT, K.K.BALDRIDGE, J.A.BOATZ, S.T.ELBERT, *
          *   M.S.GORDON, J.H.JENSEN, S.KOSEKI, N.MATSUNAGA,   *
          *          K.A.NGUYEN, S.J.SU, T.L.WINDUS,           *
          *       TOGETHER WITH M.DUPUIS, J.A.MONTGOMERY       *
          *         J.COMPUT.CHEM.  14, 1347-1363(1993)        *
          **************** 64 BIT LINUX VERSION ****************

  SINCE 1993, STUDENTS AND POSTDOCS WORKING AT IOWA STATE UNIVERSITY
  AND ALSO IN THEIR VARIOUS JOBS AFTER LEAVING ISU HAVE MADE IMPORTANT
  CONTRIBUTIONS TO THE CODE:
     IVANA ADAMOVIC, CHRISTINE AIKENS, YURI ALEXEEV, POOJA ARORA,
     ANDREY ASADCHEV, ROB BELL, PRADIPTA BANDYOPADHYAY, JONATHAN BENTZ,
     BRETT BODE, KURT BRORSEN, CALEB CARLIN, GALINA CHABAN, WEI CHEN,
     CHEOL HO CHOI, PAUL DAY, ALBERT DEFUSCO, NUWAN DESILVA, TIM DUDLEY,
     DMITRI FEDOROV, ALEX FINDLATER, GRAHAM FLETCHER, MARK FREITAG,
     KURT GLAESEMANN, ANASTASIA GUININA,
     DAN KEMP, GRANT MERRILL, NORIYUKI MINEZAWA, JONATHAN MULLIN,
     TAKESHI NAGATA, SEAN NEDD, HEATHER NETZLOFF, BOSILJKA NJEGIC, RYAN OLSON,
     MIKE PAK, BUU PHAM,
     SPENCER PRUITT, LUKE ROSKOP, JIM SHOEMAKER, LYUDMILA SLIPCHENKO,
     TONY SMITH, SAROM SOK LEANG, JIE SONG, TETSUYA TAKETSUGU, SIMON WEBB,
     PENG XU, SOOHAENG YOO, FEDERICO ZAHARIEV

  ADDITIONAL CODE HAS BEEN PROVIDED BY COLLABORATORS IN OTHER GROUPS:
     IOWA STATE UNIVERSITY:
          JOE IVANIC, AARON WEST, LAIMUTIS BYTAUTAS, KLAUS RUEDENBERG
     UNIVERSITY OF TOKYO: KIMIHIKO HIRAO, TAKAHITO NAKAJIMA,
          TAKAO TSUNEDA, MUNEAKI KAMIYA, SUSUMU YANAGISAWA,
          KIYOSHI YAGI, MAHITO CHIBA, SEIKEN TOKURA, NAOAKI KAWAKAMI
     UNIVERSITY OF AARHUS: FRANK JENSEN
     UNIVERSITY OF IOWA: VISVALDAS KAIRYS, HUI LI
     NATIONAL INST. OF STANDARDS AND TECHNOLOGY: WALT STEVENS, DAVID GARMER
     UNIVERSITY OF PISA: BENEDETTA MENNUCCI, JACOPO TOMASI
     UNIVERSITY OF MEMPHIS: HENRY KURTZ, PRAKASHAN KORAMBATH
     UNIVERSITY OF ALBERTA: TOBY ZENG, MARIUSZ KLOBUKOWSKI
     UNIVERSITY OF NEW ENGLAND: MARK SPACKMAN
     MIE UNIVERSITY: HIROAKI UMEDA
     NAT. INST. OF ADVANCED INDUSTRIAL SCIENCE AND TECHNOLOGY: KAZUO KITAURA
     MICHIGAN STATE UNIVERSITY:
          KAROL KOWALSKI, MARTA WLOCH, JEFFREY GOUR, JESSE LUTZ,
          WEI LI, JUN SHEN, J. EMILIANO DEUSTUA, PIOTR PIECUCH
     UNIVERSITY OF MINNESOTA:
          YINAN SHU
     UNIVERSITY OF SILESIA: MONIKA MUSIAL, STANISLAW KUCHARSKI
     FACULTES UNIVERSITAIRES NOTRE-DAME DE LA PAIX:
          OLIVIER QUINET, BENOIT CHAMPAGNE
     UNIVERSITY OF CALIFORNIA - SANTA BARBARA: BERNARD KIRTMAN
     INSTITUTE FOR MOLECULAR SCIENCE:
          KAZUYA ISHIMURA, MICHIO KATOUDA, AND SHIGERU NAGASE
     UNIVERSITY OF NOTRE DAME: ANNA POMOGAEVA, DAN CHIPMAN
     KYUSHU UNIVERSITY:
          HARUYUKI NAKANO,
          FENG LONG GU, JACEK KORCHOWIEC, MARCIN MAKOWSKI, AND YURIKO AOKI,
          HIROTOSHI MORI AND EISAKU MIYOSHI
     PENNSYLVANIA STATE UNIVERSITY:
          TZVETELIN IORDANOV, CHET SWALINA, JONATHAN SKONE,
          SHARON HAMMES-SCHIFFER
     WASEDA UNIVERSITY:
          MASATO KOBAYASHI, TOMOKO AKAMA, TSUGUKI TOUMA,
          TAKESHI YOSHIKAWA, YASUHIRO IKABATA, JUNJI SEINO,
          YUYA NAKAJIMA, HIROMI NAKAI
     NANJING UNIVERSITY: SHUHUA LI
     UNIVERSITY OF NEBRASKA:
          PEIFENG SU, DEJUN SI, NANDUN THELLAMUREGE, YALI WANG, HUI LI
     UNIVERSITY OF ZURICH: ROBERTO PEVERATI, KIM BALDRIDGE
     N. COPERNICUS UNIVERSITY AND JACKSON STATE UNIVERSITY:
          MARIA BARYSZ
     UNIVERSITY OF COPENHAGEN: Jimmy Kromann, CASPER STEINMANN
     TOKYO INSTITUTE OF TECHNOLOGY: HIROYA NAKATA
     NAGOYA UNIVERSITY: YOSHIO NISHIMOTO, STEPHAN IRLE
     MOSCOW STATE UNIVERSITY: VLADIMIR MIRONOV

 EXECUTION OF GAMESS BEGUN Wed Nov 16 19:04:39 2022

            ECHO OF THE FIRST FEW INPUT CARDS -
 INPUT CARD> $system kdiag=3 mwords=100 memddi=1000 parall=.t. $end                         
 INPUT CARD> $contrl runtyp=energy ispher=1 $end                                            
 INPUT CARD> $contrl icut=9 itol=20 inttyp=rysquad qmttol=1.0d-05 nosym=1 $end              
 INPUT CARD> $scf    npunch=2 conv=1.0d-06 dirscf=.t.      $end                             
 INPUT CARD> $contrl scftyp=mcscf  mult=2 maxit=200 icharg=1 mplevl=2 $end                  
 INPUT CARD> $guess  guess=moread norb=29 purify=.t. $end                                   
 INPUT CARD> $basis  gbasis=ccd $end                                                        
 INPUT CARD> $mcscf  cistep=gmcci fullnr=.t. finci=mos                                      
 INPUT CARD>         acurcy=1.d-6 maxit=100 $end                                            
 INPUT CARD> $trans  dirtrf=.t. $end                                                        
 INPUT CARD> $mrmp   mrpt=gmcpt rdvecs=.f. $end                                             
 INPUT CARD> $gmcpt  nmofzc=0 nmodoc=1 nmoact=7 nelact=7 stsym(1)=A                         
 INPUT CARD>         reftyp=ormas nspace=1 mstart(1)=2 mine(1)=7 maxe(1)=7                  
 INPUT CARD>         kstate(1)=1,1,1                                                        
 INPUT CARD>         wstate(1)=1,1,1                                                        
 INPUT CARD>         iwgt=0 thrwgt=-1.0 krot=.f. kszdoe=.f. knospn=.f.                      
 INPUT CARD>         thrde=-1.0 edshft=0.02 $end                                            
 INPUT CARD> $data                                                                          
 INPUT CARD> NH3+ 3 states calculation at NH3 structure.                                    
 INPUT CARD> c1                                                                             
 INPUT CARD>N 7.0 0.049831344 0.012457805999999998 -0.1693802522                            
 INPUT CARD>H 1.0 -0.949058204 0.4866915278 0.31632624810000004                             
 INPUT CARD>H 1.0 -0.796207554 -0.5138454758000001 0.4077692141                             
 INPUT CARD>H 1.0 1.052845876 -0.14595150399999995 0.04527860610000001                      
 INPUT CARD>$end                                                                            
 INPUT CARD>--- OPTIMIZED RHF      MO-S --- GENERATED AT Mon Nov 14 16:47:08 2022           
 INPUT CARD>E=      -56.3825050291, E(NUC)=   11.8429239490                                 
 INPUT CARD> $VEC                                                                           
 INPUT CARD> 1  1-1.00134066E+00-2.25158504E-03 3.44925845E-03 0.00000000E+00 0.00000000E+00
 INPUT CARD> 1  2-2.13170927E-03 0.00000000E+00 0.00000000E+00 6.57129898E-04-6.87950443E-05
 INPUT CARD> 1  3-6.87950443E-05 1.37590089E-04 0.00000000E+00 0.00000000E+00 0.00000000E+00
 INPUT CARD> 1  4 3.25502815E-04-4.84772356E-04 3.62525460E-04-6.27912517E-04-3.45956485E-04
 INPUT CARD> 1  5 3.25502815E-04-4.84772356E-04 3.62525460E-04 6.27912517E-04-3.45956485E-04
 INPUT CARD> 1  6 3.25502815E-04-4.84772356E-04-7.25050921E-04 0.00000000E+00-3.45956485E-04
 INPUT CARD> 2  1 1.31286642E-02-4.05911371E-01-2.82090992E-01 0.00000000E+00 0.00000000E+00
 INPUT CARD> 2  2-7.71489043E-02 0.00000000E+00 0.00000000E+00 9.73717494E-03 6.62450916E-04
 INPUT CARD> 2  3 6.62450916E-04-1.32490183E-03 0.00000000E+00 0.00000000E+00 0.00000000E+00
 INPUT CARD> 2  4-1.96090317E-01-1.96656153E-02-1.74855877E-02 3.02859263E-02 8.68214399E-03
 INPUT CARD> 2  5-1.96090317E-01-1.96656153E-02-1.74855877E-02-3.02859263E-02 8.68214399E-03
 INPUT CARD> 2  6-1.96090317E-01-1.96656153E-02 3.49711754E-02 0.00000000E+00 8.68214399E-03
 INPUT CARD> 3  1 0.00000000E+00 0.00000000E+00 0.00000000E+00 4.48608762E-01 0.00000000E+00
 INPUT CARD> 3  2 0.00000000E+00 2.18692520E-01 0.00000000E+00 0.00000000E+00 1.30198027E-02
 INPUT CARD> 3  3-1.30198027E-02 0.00000000E+00 0.00000000E+00 2.71832968E-02 0.00000000E+00
 INPUT CARD> 3  4-1.85332726E-01-7.03958951E-02 8.47929477E-03 1.95242443E-02 8.32835058E-03
 INPUT CARD> 3  5-1.85332726E-01-7.03958951E-02 8.47929477E-03-1.95242443E-02 8.32835058E-03
 INPUT CARD> 3  6 3.70665453E-01 1.40791790E-01-2.53376884E-02 0.00000000E+00-1.66567012E-02
 INPUT CARD> 4  1 0.00000000E+00 0.00000000E+00 0.00000000E+00 0.00000000E+00 4.48608762E-01
 INPUT CARD> 4  2 0.00000000E+00 0.00000000E+00 2.18692520E-01 0.00000000E+00 0.00000000E+00
 INPUT CARD> 4  3 0.00000000E+00 0.00000000E+00-1.50339731E-02 0.00000000E+00 2.71832968E-02
 INPUT CARD> 4  4 3.21005698E-01 1.21929267E-01 1.95242443E-02-1.40653607E-02-1.44251263E-02
  100000000 WORDS OF MEMORY AVAILABLE

     BASIS OPTIONS
     -------------
     GBASIS=CCD          IGAUSS=       0      POLAR=NONE    
     NDFUNC=       0     NFFUNC=       0     DIFFSP=       F
     NPFUNC=       0      DIFFS=       F     BASNAM=        


     RUN TITLE
     ---------
  NH3+ 3 states calculation at NH3 structure.                                    

 THE POINT GROUP OF THE MOLECULE IS C1      
 THE ORDER OF THE PRINCIPAL AXIS IS     0

 ATOM      ATOMIC                      COORDINATES (BOHR)
           CHARGE         X                   Y                   Z
 N           7.0     0.0941675858        0.0235418397       -0.3200822644
 H           1.0    -1.7934599520        0.9197136281        0.5977699316
 H           1.0    -1.5046141064       -0.9710271493        0.7705720809
 H           1.0     1.9895902129       -0.2758083501        0.0855641586

          INTERNUCLEAR DISTANCES (ANGS.)
          ------------------------------

                1 N          2 H          3 H          4 H     

   1 N       0.0000000    1.2077205 *  1.1514680 *  1.0378873 *
   2 H       1.2077205 *  0.0000000    1.0162674 *  2.1169138 *
   3 H       1.1514680 *  1.0162674 *  0.0000000    1.9198292 *
   4 H       1.0378873 *  2.1169138 *  1.9198292 *  0.0000000  

  * ... LESS THAN  3.000


     ATOMIC BASIS SET
     ----------------
 THE CONTRACTED PRIMITIVE FUNCTIONS HAVE BEEN UNNORMALIZED
 THE CONTRACTED BASIS FUNCTIONS ARE NOW NORMALIZED TO UNITY

  SHELL TYPE  PRIMITIVE        EXPONENT          CONTRACTION COEFFICIENT(S)

 N         

      1   S       1          9046.0000000    0.000699617413
      1   S       2          1357.0000000    0.005386054630
      1   S       3           309.3000000    0.027391021189
      1   S       4            87.7300000    0.103150591982
      1   S       5            28.5600000    0.278570663317
      1   S       6            10.2100000    0.448294849454
      1   S       7             3.8380000    0.278085928395
      1   S       8             0.7466000    0.015431561233

      2   S       9          9046.0000000   -0.000304990096
      2   S      10          1357.0000000   -0.002408026379
      2   S      11           309.3000000   -0.011944448725
      2   S      12            87.7300000   -0.048925992909
      2   S      13            28.5600000   -0.134472724725
      2   S      14            10.2100000   -0.315112577700
      2   S      15             3.8380000   -0.242857832550
      2   S      16             0.7466000    1.094382206854

      3   S      17             0.2248000    1.000000000000

      4   P      18            13.5500000    0.058905676772
      4   P      19             2.9170000    0.320461106714
      4   P      20             0.7973000    0.753042061792

      5   P      21             0.2185000    1.000000000000

      6   D      22             0.8170000    1.000000000000

 H         

      7   S      23            13.0100000    0.033498726390
      7   S      24             1.9620000    0.234800801174
      7   S      25             0.4446000    0.813682957883

      8   S      26             0.1220000    1.000000000000

      9   P      27             0.7270000    1.000000000000

 H         

     10   S      28            13.0100000    0.033498726390
     10   S      29             1.9620000    0.234800801174
     10   S      30             0.4446000    0.813682957883

     11   S      31             0.1220000    1.000000000000

     12   P      32             0.7270000    1.000000000000

 H         

     13   S      33            13.0100000    0.033498726390
     13   S      34             1.9620000    0.234800801174
     13   S      35             0.4446000    0.813682957883

     14   S      36             0.1220000    1.000000000000

     15   P      37             0.7270000    1.000000000000

 TOTAL NUMBER OF BASIS SET SHELLS             =   15
 NUMBER OF CARTESIAN GAUSSIAN BASIS FUNCTIONS =   30
 NOTE: THIS RUN WILL RESTRICT THE MO VARIATION SPACE TO SPHERICAL HARMONICS.
 THE NUMBER OF ORBITALS KEPT IN THE VARIATIONAL SPACE WILL BE PRINTED LATER.
 NUMBER OF ELECTRONS                          =    9
 CHARGE OF MOLECULE                           =    1
 SPIN MULTIPLICITY                            =    2
 NUMBER OF OCCUPIED ORBITALS (ALPHA)          =    5
 NUMBER OF OCCUPIED ORBITALS (BETA )          =    4
 TOTAL NUMBER OF ATOMS                        =    4
 THE NUCLEAR REPULSION ENERGY IS       10.8994469813

     $CONTRL OPTIONS
     ---------------
 SCFTYP=MCSCF        RUNTYP=ENERGY       EXETYP=RUN     
 MPLEVL=       2     CITYP =NONE         CCTYP =NONE         VBTYP =NONE    
 DFTTYP=NONE         TDDFT =NONE    
 MULT  =       2     ICHARG=       1     NZVAR =       0     COORD =UNIQUE  
 PP    =NONE         RELWFN=NONE         LOCAL =NONE         NUMGRD=       F
 ISPHER=       1     NOSYM =       1     MAXIT =     200     UNITS =ANGS    
 PLTORB=       F     MOLPLT=       F     AIMPAC=       F     FRIEND=        
 NPRINT=       7     IREST =       0     GEOM  =INPUT   
 NORMF =       0     NORMP =       0     ITOL  =      20     ICUT  =       9
 INTTYP=RYSQUAD      GRDTYP=BEST         QMTTOL= 1.0E-05

     $SYSTEM OPTIONS
     ---------------
  REPLICATED MEMORY=   100000000 WORDS (ON EVERY NODE).
 DISTRIBUTED MEMDDI=        1000 MILLION WORDS IN AGGREGATE,
 MEMDDI DISTRIBUTED OVER   1 PROCESSORS IS  1000000000 WORDS/PROCESSOR.
 TOTAL MEMORY REQUESTED ON EACH PROCESSOR=  1100000000 WORDS.
 TIMLIM=      525600.00 MINUTES, OR     365.0 DAYS.
 PARALL= T  BALTYP=  DLB     KDIAG=    3  COREFL= F
 MXSEQ2=     300 MXSEQ3=     150  mem10=         0

          ----------------
          PROPERTIES INPUT
          ----------------

     MOMENTS            FIELD           POTENTIAL          DENSITY
 IEMOM =       1   IEFLD =       0   IEPOT =       0   IEDEN =       0
 WHERE =COMASS     WHERE =NUCLEI     WHERE =NUCLEI     WHERE =NUCLEI  
 OUTPUT=BOTH       OUTPUT=BOTH       OUTPUT=BOTH       OUTPUT=BOTH    
 IEMINT=       0   IEFINT=       0                     IEDINT=       0
                                                       MORB  =       0

     -------------------------------
     INTEGRAL TRANSFORMATION OPTIONS
     -------------------------------
     NWORD  =            0
     CUTOFF = 1.0E-09     MPTRAN =       0
     DIRTRF =       T     AOINTS =DUP     

          ----------------------
          MCSCF INPUT PARAMETERS
          ----------------------
 CONVERGER SELECTION: FOCAS = F  SOSCF = F  FULLNR = T  QUD = F  JACOBI = F
 SECULAR EQUATION METHOD CISTEP = GMCCI   
 --- GENERAL INPUT OPTIONS:
 MAXIT =     100  MICIT =       1  ACURCY= 1.000E-06
 DAMP  =   0.000  CANONC=       T  ENGTOL= 1.000E-10
 EKT   =       F  NPUNCH=       2  NWORD =         0
 REGENERATE CI AFTER CONVERGENCE = NONE    
 DIABATIZATION AFTER CONVERGENCE =        F
 --- INPUT FOR FULLNR CONVERGER:
 METHOD=DM2       FORS  =       F  DROPC =       T
 LINSER=       F  FCORE =       F  NORB  =      30

          ----------------------
          INTEGRAL INPUT OPTIONS
          ----------------------
 NOPK  =       1 NORDER=       0 SCHWRZ=       T

 ------------------------------------------
 MULTIREFERENCE PERTURBATION THEORY CONTROL
 ------------------------------------------
 MRPT=GMCPT    READ CONVERGED MCSCF VECTORS= F


     ------------------------------------------
     THE POINT GROUP IS C1 , NAXIS= 1, ORDER= 1
     ------------------------------------------

 -- VARIATIONAL SPACE WILL BE RESTRICTED TO PURE SPHERICAL HARMONICS ONLY --
 AFTER EXCLUDING CONTAMINANT COMBINATIONS FROM THE CARTESIAN GAUSSIAN BASIS
 SET, THE NUMBER OF SPHERICAL HARMONICS KEPT IN THE VARIATION SPACE IS   29

     DIMENSIONS OF THE SYMMETRY SUBSPACES ARE
 A   =   29

 ..... DONE SETTING UP THE RUN .....
 CPU     0: STEP CPU TIME=     0.04 TOTAL CPU TIME=          0.0 (      0.0 MIN)
 TOTAL WALL CLOCK TIME=          0.0 SECONDS, CPU UTILIZATION IS   100.00%

          ********************
          1 ELECTRON INTEGRALS
          ********************
 TIME TO DO   DIPOLE INTEGRALS=      0.00
 ...... END OF ONE-ELECTRON INTEGRALS ......
 CPU     0: STEP CPU TIME=     0.00 TOTAL CPU TIME=          0.0 (      0.0 MIN)
 TOTAL WALL CLOCK TIME=          0.1 SECONDS, CPU UTILIZATION IS    80.00%

          -------------
          GUESS OPTIONS
          -------------
          GUESS =MOREAD            NORB  =      29          NORDER=       0
          MIX   =       F          PRTMO =       F          PUNMO =       F
          TOLZ  = 1.0E-08          TOLE  = 1.0E-05
          SYMDEN=       F          PURIFY=       T

 INITIAL GUESS ORBITALS GENERATED BY MOREAD   ROUTINE.

 STATISTICS FOR GENERATION OF SYMMETRY ORBITAL -Q- MATRIX
 NUMBER OF CARTESIAN ATOMIC ORBITALS=         30
 NUMBER OF SPHERICAL CONTAMINANTS DROPPED=     1
 NUMBER OF LINEARLY DEPENDENT MOS DROPPED=     0
 TOTAL NUMBER OF MOS IN VARIATION SPACE=      29
 ORBITAL PURIFICATION WILL OCCUR

 SYMMETRIES FOR INITIAL GUESS ORBITALS FOLLOW.   BOTH SET(S).
     5 ORBITALS ARE OCCUPIED (    1 CORE ORBITALS).
     1=A        2=A        3=A        4=A        5=A        6=A        7=A   
     8=A        9=A       10=A       11=A       12=A       13=A       14=A   
    15=A       16=A       17=A       18=A       19=A       20=A       21=A   
    22=A       23=A       24=A       25=A       26=A       27=A       28=A   
    29=A   
 ...... END OF INITIAL ORBITAL SELECTION ......
 CPU     0: STEP CPU TIME=     0.01 TOTAL CPU TIME=          0.0 (      0.0 MIN)
 TOTAL WALL CLOCK TIME=          0.1 SECONDS, CPU UTILIZATION IS   100.00%

                    ----------------------
                    AO INTEGRAL TECHNOLOGY
                    ----------------------
     S,P,L SHELL ROTATED AXIS INTEGRALS, REPROGRAMMED BY
        KAZUYA ISHIMURA (IMS) AND JOSE SIERRA (SYNSTAR).
     S,P,D,L SHELL ROTATED AXIS INTEGRALS PROGRAMMED BY
        KAZUYA ISHIMURA (INSTITUTE FOR MOLECULAR SCIENCE).
     S,P,D,F,G SHELL TO TOTAL QUARTET ANGULAR MOMENTUM SUM 5,
        ERIC PROGRAM BY GRAHAM FLETCHER (ELORET AND NASA ADVANCED
        SUPERCOMPUTING DIVISION, AMES RESEARCH CENTER).
     S,P,D,F,G,L SHELL GENERAL RYS QUADRATURE PROGRAMMED BY
        MICHEL DUPUIS (PACIFIC NORTHWEST NATIONAL LABORATORY).

          --------------------
          2 ELECTRON INTEGRALS
          --------------------

 DIRECT SCF METHOD SKIPS INTEGRAL STORAGE ON DISK.
 DIRECT TRANSFORMATION SKIPS AO INTEGRAL STORAGE ON DISK.
  ...... END OF TWO-ELECTRON INTEGRALS .....
 STEP CPU TIME =     0.02 TOTAL CPU TIME =          0.1 (      0.0 MIN)
 TOTAL WALL CLOCK TIME=          0.1 SECONDS, CPU UTILIZATION IS    87.50%
 DDI: Creating Array [0] - 900 x 36 = 32400 words.
 DDI: Creating Array [1] - 21 x 288 = 6048 words.
 DDI: Creating Array [2] - 36 x 36 = 1296 words.
 DDI: Creating Array [3] - 465 x 36 = 16740 words.

          -----------------
          MCSCF CALCULATION
          -----------------

 ----- NUCLEAR ENERGY ----- =        10.8994469813

     -------------------------------------------------
     GMC-PT/GMC-QDPT or general MCSCF input parameters
     -------------------------------------------------
 # of frozen core orbs. =         0 ->         0
 # of doubly occ. orbs. =         1
 # of active      orbs. =         7
 # of virtual     orbs. =        21
 # of active electrons  =         7
 # of states in CI      =         3
 Highest state in CI    =         3
 kstate =  1 1 1
 avecoe =  0.333 0.333 0.333
 State symmetry           = A           
 Assigned symmetry number = 1

 <<<Act. MO sym.: 1111111

 <<<Division of 1-ext.:  0
 <<<Division of 2-ext.:  0

 *** Reference space

 Reference type: ORMAS (= Occupation restricted multiple active space)
 # of orbitals          =  7
 # of minimum electrons =  7
 # of maximum electrons =  7
 State symmetry    =    1 (input)
 2*Sz              =    1 (input)
 Spin multiplicity =    2 (input)
 Dimension of reference space =      1225  (from      3432 walks)

 Dimension of reference space =      1225  (from      1225 walks)

 <<<Ionized spaces for Ref-CI:
      0:         1225 /   -1-0:         1960 /  0-1-0:         2891

 EVALUATING EXCHANGE INTEGRALS FOR DIRECT INTEGRAL TRANSFORMATION
 SCHWARZ INEQUALITY OVERHEAD:       465 INTEGRALS, T=        0.00

     --------------------------------------------
     PARTIAL TWO ELECTRON INTEGRAL TRANSFORMATION
     --------------------------------------------

 NUMBER OF CORE MOLECULAR ORBITALS     =    1
 NUMBER OF OCCUPIED MOLECULAR ORBITALS =    8
 TOTAL NUMBER OF MOLECULAR ORBITALS    =   29
 TOTAL NUMBER OF ATOMIC ORBITALS       =   30
 THRESHOLD FOR KEEPING TRANSFORMED 2E- INTEGRALS = 1.000E-09

 -------------------------------     ------------------------------
 DISTRIBUTED DATA TRANSFORMATION     PROGRAM WRITTEN BY G. FLETCHER
 -------------------------------     ------------------------------

 THE DISTRIBUTED MEMORY REQUIRED FOR THIS STEP IS MEMDDI=         1 MWORDS
 CREATING DISTRIBUTED STORAGE FOR [VIR OCC|VIR OCC] INTEGRALS
 CREATING DISTRIBUTED STORAGE FOR [VIR OCC|OCC OCC] INTEGRALS
 CREATING DISTRIBUTED STORAGE FOR [OCC OCC|OCC OCC] INTEGRALS
 CREATING DISTRIBUTED STORAGE FOR [VIR VIR|OCC OCC] INTEGRALS
 FOR    1 PROCESSORS, THE REPLICATED MEMORY NEEDED IS       73700 WORDS.
 SCHWARZ INEQUALITY OVERHEAD:       465 INTEGRALS, T=        0.00

      DIRECT 4-INDEX TRANSFORMATION 
      SCHWARZ INEQUALITY TEST SKIPPED          0 INTEGRAL BLOCKS
 ----- FROZEN CORE ENERGY =       -47.5470773429
 ... END OF INTEGRAL TRANSFORMATION ...
 CPU     0: STEP CPU TIME=     0.21 TOTAL CPU TIME=          0.3 (      0.0 MIN)
 TOTAL WALL CLOCK TIME=          0.3 SECONDS, CPU UTILIZATION IS    93.33%

     --------------------------------     -----------------------------
     MCHF NEWTON-RAPHSON OPTIMIZATION     CODE WRITTEN BY MICHEL DUPUIS
     --------------------------------     -----------------------------
     PARALLEL VERSION WRITTEN BY G. FLETCHER (ELORET)
     NASA ADVANCED SUPERCOMPUTING DIVISION, AMES RESEARCH CENTER

 NUMBER OF INDEPENDENT ORBITAL ROTATION PARAMETERS =   175
 ..... DONE SOLVING NEWTON-RAPHSON EQUATIONS .....
 CPU     0: STEP CPU TIME=     0.67 TOTAL CPU TIME=          0.9 (      0.0 MIN)
 TOTAL WALL CLOCK TIME=          1.0 SECONDS, CPU UTILIZATION IS    98.96%
 ..... DONE WITH NTN-RPH ORBITAL ROTATIONS ..... 
 CPU     0: STEP CPU TIME=     0.00 TOTAL CPU TIME=          0.9 (      0.0 MIN)
 TOTAL WALL CLOCK TIME=          1.0 SECONDS, CPU UTILIZATION IS    98.96%
 MAXIMUM MEMORY USED BY NTN-RPH CODE WAS     57645 WORDS.

 ITER     TOTAL ENERGY      DEL(E)  LAGRANGIAN ASYMMETRY   SQCDF  MICIT   DAMP
   1      -55.540714251 -0.540714251  0.177936   10    4 8.860E-02  1   0.0000
   2      -55.611165344 -0.070451093  0.021173   12    5 4.539E-01  1   0.0000
   3      -55.649032477 -0.037867134  0.015355   14    8 2.464E-01  1   0.0161
   4      -55.667147084 -0.018114607  0.005572    9    7 6.207E-02  1   0.0070
   5      -55.670275760 -0.003128676  0.001002   22    5 2.406E-03  1   0.0000
   6      -55.670405084 -0.000129324  0.000477   22    5 2.120E-04  1   0.0000
   7      -55.670418711 -0.000013627  0.000226   22    5 4.236E-05  1   0.0000
   8      -55.670421499 -0.000002788  0.000114   22    5 1.098E-05  1   0.0000
   9      -55.670422216 -0.000000717  0.000060   22    5 3.314E-06  1   0.0000
  10      -55.670422427 -0.000000212  0.000033   22    5 1.100E-06  1   0.0000
  11      -55.670422496 -0.000000068  0.000019   22    5 3.877E-07  1   0.0000
  12      -55.670422519 -0.000000024  0.000011   22    5 1.416E-07  1   0.0000
  13      -55.670422528 -0.000000008  0.000006   22    5 5.292E-08  1   0.0000
  14      -55.670422531 -0.000000003  0.000004   22    5 2.006E-08  1   0.0000
  15      -55.670422532 -0.000000001  0.000002   22    5 7.674E-09  1   0.0000
  16      -55.670422532 -0.000000000  0.000001   22    5 2.951E-09  1   0.0000
  17      -55.670422532 -0.000000000  0.000001   22    5 1.138E-09  1   0.0000

          --------------------
          LAGRANGIAN CONVERGED
          --------------------

 FINAL MCSCF ENERGY IS      -55.6704225324 AFTER  17 ITERATIONS

 -MCCI- BASED ON OPTIMIZED ORBITALS
 ----------------------------------

 PLEASE NOTE: IF THE ACTIVE ORBITALS ARE CANONICALIZED BELOW,
 THE FOLLOWING CI EXPANSION COEFFICIENTS AND THE DENSITY DO NOT
 CORRESPOND TO THE PRINTED ORBITALS.  THE PRINTED EXPANSIONS MATCH
 THE ORBITALS USED DURING THE LAST ITERATION.  IF YOU WISH TO SEE
 CI EXPANSIONS BASED ON THE CANONICAL (OR NATURAL) ORBITALS, YOU
 MUST RUN A CI CALCULATION WITH THAT ORBITAL CHOICE READ IN $VEC.

 Averaged energy =     -55.670422532

 State #    1  Energy =     -55.800978287  S =  0.500

      Det      Coef    Occupancy (Ignoring core)
      ---      ----    --------- --------- -----
        1   -0.904382  11110001110000
        5    0.071416  01111001110000
        8    0.127464  10110101110000
       17    0.145807  11010011110000
       36    0.223499  11110001101000
       71   -0.138198  11110001011000
      211   -0.053096  11110000110100
      386   -0.104009  11110001010010
      701   -0.105190  11110001100001
      717   -0.068876  11010011100001

 State #    2  Energy =     -55.733532246  S =  0.500

      Det      Coef    Occupancy (Ignoring core)
      ---      ----    --------- --------- -----
        1   -0.221406  11110001110000
       36   -0.922866  11110001101000
       39   -0.061518  10111001101000
       40    0.075302  01111001101000
       43    0.103544  10110101101000
       52    0.131320  11010011101000
      281   -0.051540  11110000101100
      456   -0.092504  11110001001010

 State #    3  Energy =     -55.476757065  S =  0.500

      Det      Coef    Occupancy (Ignoring core)
      ---      ----    --------- --------- -----
        1    0.136033  11110001110000
       38   -0.068785  11011001101000
       71   -0.940071  11110001011000
       72    0.052450  11101001011000
       78    0.061787  10110101011000
       87    0.089085  11010011011000
      122   -0.058820  11010010111000
      316   -0.083560  11110000011100
      806    0.109023  11110001001001
      822    0.079691  11010011001001

 DENSITY MATRIX OVER ACTIVE MO-S

             1           2           3           4           5

    1    1.9705809
    2   -0.0111468   1.6346479
    3   -0.0140626  -0.0017757   1.6113194
    4    0.0011860   0.0010558  -0.0035891   1.6462828
    5    0.1103670   0.0648411   0.0470727  -0.0523146   0.0476772
    6    0.0088912  -0.1515383  -0.0156513  -0.0518940  -0.0004060
    7    0.0096390  -0.0019319   0.1821876   0.0311925   0.0081372

             6           7

    6    0.0360248
    7   -0.0036213   0.0534670

 FORMING THE "STANDARD FOCK OPERATOR" IN DIRECT AO INTEGRAL MODE...
 ONLY THE    1 CORE AND   21 VIRTUAL ORBITALS WILL BE CANONICALIZED

          ----------------------
          MCSCF NATURAL ORBITALS
          ----------------------

                      1          2          3          4          5
                  -15.9852     1.9775     1.6545     1.6472     1.6335
                     A          A          A          A          A   
    1  N  1  S    1.001041   0.008860  -0.006763  -0.006625   0.001221
    2  N  1  S   -0.001934   0.432722  -0.063353  -0.191589   0.013879
    3  N  1  S   -0.006321   0.344178  -0.137172  -0.273493   0.023920
    4  N  1  X    0.000250  -0.024400   0.395735  -0.223973  -0.010703
    5  N  1  Y   -0.000119  -0.022985   0.012802  -0.046386   0.566644
    6  N  1  Z    0.001194   0.078508   0.391931   0.416081   0.050997
    7  N  1  X    0.000165  -0.010202   0.164557  -0.036267   0.006553
    8  N  1  Y    0.000032  -0.003204   0.022415  -0.026345   0.345671
    9  N  1  Z   -0.000659   0.020003   0.278048   0.260154   0.045729
   10  N  1 XX    0.000480   0.005133  -0.004282  -0.009312   0.002375
   11  N  1 YY   -0.000259  -0.004277  -0.009912  -0.007897  -0.004744
   12  N  1 ZZ   -0.000221  -0.000856   0.014194   0.017208   0.002370
   13  N  1 XY   -0.000053  -0.001317  -0.003448   0.003537  -0.010634
   14  N  1 XZ    0.000013  -0.003361   0.014072  -0.012337  -0.000738
   15  N  1 YZ   -0.000048  -0.000587  -0.001151  -0.004256   0.023746
   16  H  2  S   -0.001214   0.168574  -0.095697   0.228691   0.266434
   17  H  2  S    0.000257   0.000438   0.003723   0.033166   0.130171
   18  H  2  X   -0.000533   0.024339  -0.005715   0.016492   0.030268
   19  H  2  Y    0.000316  -0.014854   0.009880  -0.023513   0.001390
   20  H  2  Z    0.000340  -0.007724   0.022512   0.008819  -0.008866
   21  H  3  S   -0.001444   0.197465  -0.081722   0.300347  -0.221278
   22  H  3  S    0.000282   0.007514   0.006568   0.063806  -0.121362
   23  H  3  X   -0.000579   0.025390   0.003365   0.015119  -0.021948
   24  H  3  Y   -0.000456   0.020498  -0.004937   0.029006   0.004629
   25  H  3  Z    0.000445  -0.014242   0.023447   0.001672   0.017115
   26  H  4  S   -0.001917   0.167880   0.342833  -0.153390  -0.041818
   27  H  4  S    0.000703  -0.001834   0.049174  -0.006038   0.002786
   28  H  4  X    0.001021  -0.031895  -0.036756   0.018363   0.009698
   29  H  4  Y   -0.000162   0.003316   0.008849  -0.006160   0.019205
   30  H  4  Z    0.000289  -0.002041   0.006457   0.020334   0.002999

                      6          7          8
                    0.0378     0.0307     0.0188
                     A          A          A   
    1  N  1  S   -0.125213  -0.029266  -0.153408
    2  N  1  S   -0.489515  -0.142815  -0.450008
    3  N  1  S   -0.198251  -0.154074   0.037594
    4  N  1  X    0.261021   0.263119  -0.829886
    5  N  1  Y   -0.302311   0.674668   0.177809
    6  N  1  Z   -0.504047  -0.283619  -0.161391
    7  N  1  X    0.101986   0.079151  -0.118919
    8  N  1  Y    0.067174  -0.088056   0.005929
    9  N  1  Z   -0.000418  -0.028441   0.101666
   10  N  1 XX    0.047212  -0.000387   0.028487
   11  N  1 YY   -0.044773  -0.002790   0.001865
   12  N  1 ZZ   -0.002439   0.003177  -0.030352
   13  N  1 XY   -0.031382   0.051224  -0.019837
   14  N  1 XZ   -0.032435  -0.019241   0.030310
   15  N  1 YZ   -0.000219  -0.016728  -0.017104
   16  H  2  S    0.672402  -0.293558  -0.247832
   17  H  2  S    0.190937  -0.210754  -0.083962
   18  H  2  X    0.043833  -0.045091  -0.002694
   19  H  2  Y   -0.035294  -0.028451   0.021915
   20  H  2  Z    0.017762   0.025211  -0.007201
   21  H  3  S    0.145259   0.789982  -0.066803
   22  H  3  S   -0.064366   0.291574   0.006771
   23  H  3  X   -0.016837   0.038149   0.028421
   24  H  3  Y    0.044994   0.025288  -0.017267
   25  H  3  Z    0.025131  -0.014550  -0.006202
   26  H  4  S    0.309868   0.019287   0.833855
   27  H  4  S    0.029849  -0.018390   0.156523
   28  H  4  X   -0.034223  -0.011954  -0.079932
   29  H  4  Y    0.010915  -0.007077   0.011254
   30  H  4  Z   -0.001777   0.000749   0.029445

          ------------------------
          MCSCF OPTIMIZED ORBITALS
          ------------------------

                      1          2          3          4          5
                  -15.9852     0.0000     0.0000     0.0000     0.0000
                     A          A          A          A          A   
    1  N  1  S    1.001041  -0.000005  -0.018687  -0.005087  -0.007974
    2  N  1  S   -0.001934   0.399565   0.010300  -0.000355  -0.177416
    3  N  1  S   -0.006321   0.331197   0.063053   0.044843  -0.283417
    4  N  1  X    0.000250  -0.002230   0.364610   0.013736   0.055754
    5  N  1  Y   -0.000119  -0.009670  -0.000830   0.479597   0.008159
    6  N  1  Z    0.001194   0.049514  -0.003857  -0.010310   0.592775
    7  N  1  X    0.000165  -0.000060   0.136585   0.012388   0.072615
    8  N  1  Y    0.000032   0.008899   0.005962   0.357137   0.025856
    9  N  1  Z   -0.000659   0.024725   0.047399   0.018031   0.383671
   10  N  1 XX    0.000480   0.008029   0.006184   0.006845  -0.010286
   11  N  1 YY   -0.000259  -0.006971  -0.002505  -0.006718  -0.011465
   12  N  1 ZZ   -0.000221  -0.001058  -0.003679  -0.000127   0.021751
   13  N  1 XY   -0.000053  -0.002699  -0.006735  -0.018014  -0.001951
   14  N  1 XZ    0.000013  -0.004696   0.021183   0.000412   0.002002
   15  N  1 YZ   -0.000048  -0.000410  -0.001816   0.025430  -0.001635
   16  H  2  S   -0.001214   0.198869  -0.257323   0.305778   0.119819
   17  H  2  S    0.000257   0.009291  -0.033677   0.157879   0.039635
   18  H  2  X   -0.000533   0.026286  -0.017393   0.034491   0.011590
   19  H  2  Y    0.000316  -0.016463   0.024481   0.004803  -0.008635
   20  H  2  Z    0.000340  -0.006200   0.011725  -0.010437   0.019050
   21  H  3  S   -0.001444   0.206802  -0.248267  -0.323745   0.118251
   22  H  3  S    0.000282   0.005420  -0.027698  -0.159341   0.032891
   23  H  3  X   -0.000579   0.024688  -0.003590  -0.028938   0.011129
   24  H  3  Y   -0.000456   0.022811  -0.024303   0.001352   0.016422
   25  H  3  Z    0.000445  -0.012205   0.015355   0.020474   0.017834
   26  H  4  S   -0.001917   0.201423   0.445255  -0.002703   0.110924
   27  H  4  S    0.000703   0.002270   0.056960   0.008073   0.030706
   28  H  4  X    0.001021  -0.035481  -0.048111   0.006477  -0.009346
   29  H  4  Y   -0.000162   0.004669   0.010229   0.021114   0.002945
   30  H  4  Z    0.000289  -0.001856  -0.005555   0.000460   0.020363

                      6          7          8          9         10
                    0.0000     0.0000     0.0000     0.1040     0.1952
                     A          A          A          A          A   
    1  N  1  S    0.161584   0.116852   0.006003  -0.075605   0.036614
    2  N  1  S    0.635818   0.307892   0.019827  -0.101115   0.040288
    3  N  1  S    0.258239  -0.110516  -0.046870   0.941242  -0.520003
    4  N  1  X   -0.106618   0.941131   0.014756   0.037321   0.143559
    5  N  1  Y   -0.021142  -0.063829   0.816957   0.014826  -0.044614
    6  N  1  Z    0.582425   0.019798  -0.049813  -0.091692   0.041450
    7  N  1  X   -0.087038   0.165814   0.014056  -0.235646  -0.756755
    8  N  1  Y   -0.016801  -0.009278  -0.065556  -0.042087   0.118897
    9  N  1  Z   -0.023450  -0.087674  -0.001997   0.250399  -0.031811
   10  N  1 XX   -0.047988  -0.018929  -0.016161   0.083625  -0.080817
   11  N  1 YY    0.040148  -0.010937   0.015951  -0.050690   0.036114
   12  N  1 ZZ    0.007840   0.029865   0.000210  -0.032935   0.044702
   13  N  1 XY    0.012516   0.024513   0.054799  -0.003404   0.027582
   14  N  1 XZ    0.029020  -0.037221   0.000760  -0.056870  -0.081128
   15  N  1 YZ    0.011738   0.012603  -0.014376  -0.012727   0.010121
   16  H  2  S   -0.416469   0.270900  -0.547840   0.437517   0.167707
   17  H  2  S   -0.065061   0.065439  -0.264102  -0.855997  -0.566642
   18  H  2  X   -0.019602  -0.001118  -0.055426  -0.060888  -0.025306
   19  H  2  Y    0.037194  -0.031703  -0.007211  -0.032862  -0.001295
   20  H  2  Z   -0.024454   0.017482   0.013208   0.034147   0.060454
   21  H  3  S   -0.426978   0.248130   0.606137   0.409700   0.152192
   22  H  3  S   -0.062895   0.046166   0.273402  -0.910267  -0.514436
   23  H  3  X   -0.006901  -0.021892   0.042454  -0.088163  -0.008955
   24  H  3  Y   -0.045512   0.028506   0.001722   0.023607   0.000852
   25  H  3  Z   -0.015251   0.009292  -0.022116   0.039589   0.048298
   26  H  4  S   -0.471920  -0.699182  -0.000422   0.277376  -0.552111
   27  H  4  S   -0.058107  -0.143231  -0.006724  -0.426140   1.942092
   28  H  4  X    0.052133   0.063563  -0.006462   0.055635  -0.136135
   29  H  4  Y   -0.008673  -0.009300  -0.007027   0.003513   0.024889
   30  H  4  Z   -0.007258  -0.028333   0.005866  -0.026410  -0.062845

                     11         12         13         14         15
                    0.2781     0.5256     0.5751     0.6653     0.8832
                     A          A          A          A          A   
    1  N  1  S    0.005999  -0.109220   0.026257   0.037635  -0.626955
    2  N  1  S    0.016204  -0.141471  -0.011277   0.046139  -1.400887
    3  N  1  S   -0.044346   0.816683  -0.388706  -0.135092   2.368278
    4  N  1  X    0.023008  -0.213138  -0.094784  -0.402838   0.151223
    5  N  1  Y   -0.052847  -0.304695  -0.613647   0.209615  -0.001012
    6  N  1  Z    0.000043  -0.645798   0.319329   0.259119   0.269859
    7  N  1  X   -0.085643   0.573434   0.369881   1.748901  -0.212156
    8  N  1  Y    0.481544   0.416853   1.251428  -0.456562  -0.033454
    9  N  1  Z   -0.043785   0.867555  -0.613357  -0.586846  -0.119819
   10  N  1 XX    0.008127  -0.025142   0.028014  -0.020071  -0.057748
   11  N  1 YY   -0.002750   0.000223  -0.017256  -0.007820   0.038893
   12  N  1 ZZ   -0.005377   0.024919  -0.010758   0.027891   0.018855
   13  N  1 XY   -0.085109  -0.002656   0.038527  -0.041521  -0.040520
   14  N  1 XZ    0.007296  -0.015363   0.004367  -0.076451   0.012302
   15  N  1 YZ    0.052138  -0.002885  -0.011002   0.025181  -0.029223
   16  H  2  S    0.603251  -0.215797  -0.135396   0.555771  -0.052549
   17  H  2  S   -2.214073  -0.233091  -0.601598   0.467653  -0.360796
   18  H  2  X   -0.024160   0.040146  -0.020792   0.238087   0.011603
   19  H  2  Y    0.124122   0.055410  -0.086007  -0.061672   0.234736
   20  H  2  Z   -0.003469   0.146151  -0.015414   0.115841   0.107038
   21  H  3  S   -0.630986  -0.013503   0.552876   0.271416  -0.031935
   22  H  3  S    2.280021   0.186389   0.892266   0.177651  -0.343278
   23  H  3  X    0.006599   0.077669   0.088488   0.167502   0.050116
   24  H  3  Y    0.125508  -0.025755   0.035931   0.159445  -0.198083
   25  H  3  Z   -0.023747   0.107140  -0.104967   0.082728   0.187512
   26  H  4  S    0.062199  -0.534002   0.167288  -0.504476  -0.154516
   27  H  4  S   -0.103671  -0.356553  -0.150479  -0.638150  -0.527267
   28  H  4  X   -0.017228   0.087128   0.020982   0.167734   0.087605
   29  H  4  Y   -0.033901  -0.017674   0.093648  -0.071373  -0.107038
   30  H  4  Z    0.003321   0.014404  -0.031877  -0.158550   0.149348

                     16         17         18         19         20
                    1.0833     1.1090     1.2058     1.3211     1.4460
                     A          A          A          A          A   
    1  N  1  S   -0.116378  -0.219939  -0.089291   0.165059  -0.375322
    2  N  1  S   -0.261327  -0.439972  -0.180263   0.353212  -0.821329
    3  N  1  S    0.512370   1.014724   0.425657  -0.599866   1.087627
    4  N  1  X   -0.149881  -0.115169  -0.199810  -0.051366   0.171446
    5  N  1  Y    0.083410   0.076866  -0.029134   0.083669   0.010931
    6  N  1  Z   -0.053836   0.041452  -0.007879  -0.004337  -0.114708
    7  N  1  X    1.035427   0.342025   1.009091   0.125345  -0.411599
    8  N  1  Y   -0.291521  -0.361663   0.215463  -0.130085  -0.216124
    9  N  1  Z    0.307169  -0.027377   0.039242  -0.261192   0.592683
   10  N  1 XX    0.056531   0.017847  -0.013686  -0.003034   0.121106
   11  N  1 YY    0.177189  -0.168207   0.043192  -0.070736  -0.154536
   12  N  1 ZZ   -0.233720   0.150360  -0.029507   0.073770   0.033430
   13  N  1 XY    0.114255   0.153167  -0.141516  -0.007636  -0.020594
   14  N  1 XZ   -0.007945   0.097129   0.031069   0.028620  -0.029527
   15  N  1 YZ    0.080546   0.116578  -0.206035  -0.294198   0.050059
   16  H  2  S    0.467198   0.009691   0.110188   0.398087  -0.496358
   17  H  2  S    0.074880   0.050472   0.038915  -0.060878   0.141405
   18  H  2  X   -0.138824  -0.270817  -0.306826  -0.383869  -0.006168
   19  H  2  Y    0.163483  -0.289274  -0.238655   0.117114  -0.319485
   20  H  2  Z   -0.314976   0.249189  -0.472010  -0.292015  -0.489043
   21  H  3  S    0.120343  -0.321311   0.198115   0.101949  -0.541271
   22  H  3  S   -0.045999  -0.113542   0.087093   0.101434  -0.131390
   23  H  3  X   -0.058707  -0.187382  -0.177025   0.605181   0.115768
   24  H  3  Y   -0.273335   0.261585   0.114299  -0.054021   0.259563
   25  H  3  Z   -0.555838  -0.068993  -0.014603   0.405922   0.169246
   26  H  4  S   -0.570248  -0.339936  -0.538735   0.061127  -0.159674
   27  H  4  S   -0.364648  -0.275182  -0.290973   0.050832  -0.059652
   28  H  4  X    0.105325   0.022583  -0.179784   0.030810   0.031080
   29  H  4  Y    0.273529   0.398175  -0.537381   0.364249   0.215010
   30  H  4  Z   -0.087160   0.425306   0.274307   0.174238  -0.601412

                     21         22         23         24         25
                    1.5984     1.6860     1.8747     1.9231     2.1424
                     A          A          A          A          A   
    1  N  1  S    0.113310  -0.001041   0.129816   0.023529   0.041819
    2  N  1  S    0.217445   0.116300   0.278850   0.076713   0.053011
    3  N  1  S   -0.535486   0.963956   0.191199   0.229152  -0.528133
    4  N  1  X   -0.135530  -0.276287   0.562708  -0.009798  -0.046048
    5  N  1  Y   -0.110828  -0.091068  -0.090422   0.006465   0.062566
    6  N  1  Z    0.006966   0.217984  -0.011296   0.026183  -0.048326
    7  N  1  X    0.577541  -0.385141   0.256010   0.163458   0.045398
    8  N  1  Y   -0.421304  -0.029350  -0.029075   0.145192   0.416996
    9  N  1  Z   -0.286870   0.393658   0.010855   0.244111  -0.277148
   10  N  1 XX    0.018471  -0.103778  -0.242979  -0.017421   0.217665
   11  N  1 YY   -0.109287   0.157523   0.233725  -0.812872  -0.057240
   12  N  1 ZZ    0.090816  -0.053745   0.009254   0.830292  -0.160424
   13  N  1 XY   -0.141515  -0.011471   0.013732   0.012518   0.496252
   14  N  1 XZ   -0.005905   0.128607  -0.176057  -0.093263   0.045824
   15  N  1 YZ    0.248968   0.200483   0.173357   0.071475   0.763208
   16  H  2  S    0.185493  -0.152411  -0.017165  -0.011564  -0.060097
   17  H  2  S    0.496529  -0.284198   0.117036  -0.159418  -0.240949
   18  H  2  X    0.557163  -0.641372   0.075025  -0.190993  -0.223157
   19  H  2  Y    0.138340   0.067463  -0.167517   0.283830   0.256946
   20  H  2  Z   -0.520139   0.071710  -0.353062  -0.134483  -0.158397
   21  H  3  S    0.417341  -0.150174  -0.033397   0.111172   0.389755
   22  H  3  S   -0.328977  -0.386153   0.160463   0.072609   0.349895
   23  H  3  X   -0.347999  -0.560668   0.097972  -0.117667   0.510355
   24  H  3  Y   -0.103474  -0.205422   0.165107  -0.185161   0.269791
   25  H  3  Z    0.386954   0.558215  -0.050696  -0.325696   0.192613
   26  H  4  S   -0.182762  -0.006602  -0.071881  -0.103238   0.158193
   27  H  4  S    0.009284  -0.019881  -0.467647  -0.135046   0.089192
   28  H  4  X   -0.175278   0.315499   0.996196   0.217377  -0.323514
   29  H  4  Y    0.401719   0.033672  -0.124368  -0.251596  -0.553568
   30  H  4  Z    0.363652  -0.456276   0.390727  -0.164580   0.145008

                     26         27         28         29
                    2.2372     2.5538     2.6866     2.9458
                     A          A          A          A   
    1  N  1  S   -0.056547   0.122767  -0.108265  -0.065309
    2  N  1  S   -0.094378   0.240510  -0.100826   0.001588
    3  N  1  S    0.341211   0.003832   1.412235   1.673931
    4  N  1  X   -0.015570   0.376407  -0.106184   0.372546
    5  N  1  Y    0.062187  -0.109144  -0.176566   0.047105
    6  N  1  Z    0.008121   0.028651   0.195934   0.152661
    7  N  1  X   -0.034654   1.210096  -0.607899   0.489170
    8  N  1  Y   -0.277669  -0.279637  -0.331103   0.071436
    9  N  1  Z    0.137903  -0.115782   0.388919   0.214977
   10  N  1 XX   -0.014711   0.360158   0.655696   1.218190
   11  N  1 YY    0.066538  -0.249085  -0.329097  -0.563902
   12  N  1 ZZ   -0.051827  -0.111073  -0.326599  -0.654288
   13  N  1 XY    0.265079   0.427365   0.706443  -0.812759
   14  N  1 XZ   -0.021834   1.042749  -0.782774   0.042651
   15  N  1 YZ   -0.320638  -0.278863  -0.388650   0.172955
   16  H  2  S   -0.635892   0.798487   0.014058  -0.725251
   17  H  2  S   -0.250668   0.385938   0.061834  -0.196132
   18  H  2  X    0.032723   0.692055   0.036235  -0.592163
   19  H  2  Y    1.200325  -0.312507  -0.240799   0.466338
   20  H  2  Z   -0.182629  -0.198046   0.055755   0.400068
   21  H  3  S    0.420667   0.060837  -1.245851   0.306793
   22  H  3  S    0.191056  -0.031771  -0.498439   0.054773
   23  H  3  X   -0.510412   0.019464  -0.733153   0.139201
   24  H  3  Y    1.191156  -0.170152  -0.721400   0.249230
   25  H  3  Z    0.036269   0.088098   0.636103  -0.094932
   26  H  4  S   -0.052547  -0.915190  -0.203714  -1.344196
   27  H  4  S   -0.073858  -0.401934  -0.012950  -0.388894
   28  H  4  X    0.073718   0.727606   0.181241   1.042299
   29  H  4  Y    0.047128  -0.318102  -0.211773  -0.043708
   30  H  4  Z   -0.074404  -0.118988   0.248878   0.377633
 .....DONE WITH MCSCF ITERATIONS.....
 CPU     0: STEP CPU TIME=    11.40 TOTAL CPU TIME=         12.3 (      0.2 MIN)
 TOTAL WALL CLOCK TIME=         12.4 SECONDS, CPU UTILIZATION IS    99.92%

     ----------------------------------------------------------------
     PROPERTY VALUES FOR THE MCSCF SELF-CONSISTENT FIELD WAVEFUNCTION
     ----------------------------------------------------------------

          -----------------
          ENERGY COMPONENTS
          -----------------

         WAVEFUNCTION NORMALIZATION =       1.0000000000

                ONE ELECTRON ENERGY =     -93.3091333313
                TWO ELECTRON ENERGY =      26.7392638176
           NUCLEAR REPULSION ENERGY =      10.8994469813
                                      ------------------
                       TOTAL ENERGY =     -55.6704225324

 ELECTRON-ELECTRON POTENTIAL ENERGY =      26.7392638176
  NUCLEUS-ELECTRON POTENTIAL ENERGY =    -148.9504115555
   NUCLEUS-NUCLEUS POTENTIAL ENERGY =      10.8994469813
                                      ------------------
             TOTAL POTENTIAL ENERGY =    -111.3117007566
               TOTAL KINETIC ENERGY =      55.6412782242
                 VIRIAL RATIO (V/T) =       2.0005237893

          ---------------------------------------
          MULLIKEN AND LOWDIN POPULATION ANALYSES
          ---------------------------------------

     ATOMIC MULLIKEN POPULATION IN EACH MOLECULAR ORBITAL

                      1          2          3          4          5

                  2.000000   1.977516   1.654515   1.647235   1.633460

    1             2.000541   1.373631   1.217671   1.083597   1.257017
    2            -0.000095   0.183789   0.043771   0.177782   0.224965
    3            -0.000158   0.247931   0.033285   0.285205   0.137016
    4            -0.000288   0.172165   0.359789   0.100651   0.014462

                      6          7          8

                  0.037842   0.030676   0.018755

    1             0.018102   0.014122   0.009906
    2             0.015801   0.002089   0.000676
    3             0.000938   0.014514   0.000101
    4             0.003002  -0.000049   0.008071
 WARNING! MCSCF POPULATIONS SHOWN ABOVE ARE FOR THE NATURAL ORBITALS.
 IGNORE THE ABOVE DATA FOR MCSCF FUNCTIONS WHICH ARE NOT OF -FORS- TYPE.
 THE FOLLOWING POPULATIONS ARE CORRECT FOR ANY MCSCF WAVEFUNCTION.

               ----- POPULATIONS IN EACH AO -----
                             MULLIKEN      LOWDIN
              1  N  1  S      2.00217     1.90484
              2  N  1  S      0.81740     0.58274
              3  N  1  S      0.72522     0.41990
              4  N  1  X      0.59882     0.51815
              5  N  1  Y      0.78902     0.73575
              6  N  1  Z      0.81983     0.77443
              7  N  1  X      0.21869     0.36685
              8  N  1  Y      0.47471     0.51871
              9  N  1  Z      0.51491     0.55421
             10  N  1 XX      0.00034     0.19338
             11  N  1 YY      0.00200     0.15069
             12  N  1 ZZ      0.00263     0.14462
             13  N  1 XY      0.00542     0.00686
             14  N  1 XZ      0.00342     0.01279
             15  N  1 YZ      0.00000     0.00412
             16  H  2  S      0.53242     0.39920
             17  H  2  S      0.06499     0.15505
             18  H  2  X      0.02276     0.03578
             19  H  2  Y      0.01678     0.05334
             20  H  2  Z      0.01183     0.02580
             21  H  3  S      0.59768     0.44709
             22  H  3  S      0.06467     0.15524
             23  H  3  X      0.01929     0.03386
             24  H  3  Y      0.02101     0.05829
             25  H  3  Z      0.01619     0.03284
             26  H  4  S      0.57601     0.44743
             27  H  4  S      0.02603     0.14763
             28  H  4  X      0.03639     0.06530
             29  H  4  Y      0.00958     0.02668
             30  H  4  Z      0.00978     0.02844

          ----- MULLIKEN ATOMIC OVERLAP POPULATIONS -----
          (OFF-DIAGONAL ELEMENTS NEED TO BE MULTIPLIED BY 2)

             1           2           3           4

    1    6.2281797
    2    0.2148967   0.4367824
    3    0.2279646   0.0020092   0.4925324
    4    0.3035460  -0.0049102  -0.0036745   0.3628418

          TOTAL MULLIKEN AND LOWDIN ATOMIC POPULATIONS
       ATOM         MULL.POP.    CHARGE          LOW.POP.     CHARGE
    1 N             6.974587    0.025413         6.888026    0.111974
    2 H             0.648778    0.351222         0.669170    0.330830
    3 H             0.718832    0.281168         0.727322    0.272678
    4 H             0.657803    0.342197         0.715481    0.284519

          MULLIKEN SPHERICAL HARMONIC POPULATIONS
       ATOM           S       P       D      F      G      H      I    TOTAL
    1 N             3.54    3.42    0.01   0.00   0.00   0.00   0.00    6.97
    2 H             0.60    0.05    0.00   0.00   0.00   0.00   0.00    0.65
    3 H             0.66    0.06    0.00   0.00   0.00   0.00   0.00    0.72
    4 H             0.60    0.06    0.00   0.00   0.00   0.00   0.00    0.66

          ---------------------
          ELECTROSTATIC MOMENTS
          ---------------------

 POINT   1           X           Y           Z (BOHR)    CHARGE
                -0.000005   -0.000001   -0.177185        1.00 (A.U.)
         DX          DY          DZ         /D/  (DEBYE)
    -0.978575   -0.258513    2.182663    2.405921
 ...... END OF PROPERTY EVALUATION ......
 CPU     0: STEP CPU TIME=     0.01 TOTAL CPU TIME=         12.4 (      0.2 MIN)
 TOTAL WALL CLOCK TIME=         12.4 SECONDS, CPU UTILIZATION IS    99.92%

     -------------------------------------------------
     GMC-PT/GMC-QDPT or general MCSCF input parameters
     -------------------------------------------------
 # of frozen core orbs. =         0 ->         0
 # of doubly occ. orbs. =         1
 # of active      orbs. =         7
 # of virtual     orbs. =        21
 # of active electrons  =         7
 # of states in CI      =         3
 Highest state in CI    =         3
 kstate =  1 1 1
 avecoe =  0.333 0.333 0.333
 State symmetry           = A           
 Assigned symmetry number = 1

 <<<Act. MO sym.: 1111111

 <<<Division of 1-ext.:  0
 <<<Division of 2-ext.:  0

     ------------------------
     Orbital canonicalization
     ------------------------

 MOs are canonicalized for core, virtual, and invariant-active orbital spaces.
 This is a part of the GMC-QDPT calculation.
 SCHWARZ INEQUALITY OVERHEAD:       465 INTEGRALS, T=        0.00
 DIRECT TRANSFORMATION SKIPS AO INTEGRAL STORAGE ON DISK.

 Averaged energy =     -55.670422532

 State #    1  Energy =     -55.800978287  S =  0.500
 State #    2  Energy =     -55.733532246  S =  0.500
 State #    3  Energy =     -55.476757065  S =  0.500

 Orbital energies for filled orbital space
  -15.985161
 Orbital energies for active orbital space
   -1.484853  -1.020492  -0.761179  -0.723545   0.070925
    0.403520   0.208305
 Orbital energies for external orbital space
    0.104041   0.195161   0.278103   0.525622   0.575117
    0.665296   0.883187   1.083311   1.109050   1.205770
    1.321138   1.445997   1.598400   1.685951   1.874650
    1.923056   2.142358   2.237201   2.553812   2.686598
    2.945784

 Zero values mean non-canonical orbitals.
 ... done with orbital canonicalization ...
 CPU     0: STEP CPU TIME=     0.63 TOTAL CPU TIME=         13.0 (      0.2 MIN)
 TOTAL WALL CLOCK TIME=         13.0 SECONDS, CPU UTILIZATION IS    99.92%

     --------------------------------------------
     PARTIAL TWO ELECTRON INTEGRAL TRANSFORMATION
     --------------------------------------------

 NUMBER OF CORE MOLECULAR ORBITALS     =    0
 NUMBER OF OCCUPIED MOLECULAR ORBITALS =    8
 TOTAL NUMBER OF MOLECULAR ORBITALS    =   29
 TOTAL NUMBER OF ATOMIC ORBITALS       =   30
 THRESHOLD FOR KEEPING TRANSFORMED 2E- INTEGRALS = 1.000E-09
 AO INTEGRALS WILL BE CALCULATED IN DIRECT MODE...
 DIRECT TRANSFORMATION SKIPS AO INTEGRAL STORAGE ON DISK.
 SCHWARZ INEQUALITY OVERHEAD:       465 INTEGRALS, T=        0.00

 PLAN A: REQUIREMENTS FOR FULLY IN-MEMORY TRANSFORMATION:
 # OF WORDS AVAILABLE =            100000000
 # OF WORDS NEEDED    =               221798

 PARALLEL ONLY WORKS WITH THE SEGMENTED ALGORITHM.
 ADJUSTING MEMORY TO USE SEGMENTED ALGORITHM.


 PLAN B: REQUIREMENTS FOR THE SEGMENTED TRANSFORMATION:
       MINIMUM=         124148 WORDS FOR 1 MOLECULAR ORBITAL PER PASS
       MAXIMUM=         221798 WORDS FOR ALL MOLECULAR ORBITALS IN 1 PASS
              (          13950 EXTRA WORDS INCLUDES 1 EXTRA ORBITAL/PASS)
 THIS RUN USES=         221798 WORDS,
 DISTRIBUTING   1 PASSES EACH CONTAINING     8 ORBITALS OVER   1 PROCESSORS.

 CHOOSING SEGMENTED PARTIAL TRANSFORMATION...
 DIRECT TRANSFORMATION SKIPS AO INTEGRAL STORAGE ON DISK.
 PASS #   1 TOOK        0.04 SECONDS.
 TOTAL NUMBER OF TRANSFORMED 2E- INTEGRALS KEPT =        29226
 ... END OF INTEGRAL TRANSFORMATION ...
 CPU     0: STEP CPU TIME=     0.04 TOTAL CPU TIME=         13.0 (      0.2 MIN)
 TOTAL WALL CLOCK TIME=         13.0 SECONDS, CPU UTILIZATION IS    99.92%

     --------     ------------------------------------------
     GMC-QDPT     Program written by H.Nakano (Kyushu Univ.)
     --------     ------------------------------------------

 *** Reference space

 Reference type: ORMAS (= Occupation restricted multiple active space)
 # of orbitals          =  7
 # of minimum electrons =  7
 # of maximum electrons =  7
 State symmetry    =    1 (input)
 2*Sz              =    1 (input)
 Spin multiplicity =    2 (input)
 Dimension of reference space =      1225  (from      3432 walks)

 Dimension of reference space =      1225  (from      1225 walks)

 <<<Ionized spaces for Ref-CI:
      0:         1225 /   -1-0:         1960 /  0-1-0:         2891

 ***                    ***
 *** Reference space CI ***
 ***                    ***

 Converged after   34 iterations

 Reference wavefunctions:

 State #    1  Energy =     -55.800978287  S =  0.500

      Det      Coef    Occupancy (Ignoring core)
      ---      ----    --------- --------- -----
        1   -0.955312  11110001110000
       36   -0.190475  11110001101000
      393   -0.052359  10110101010010
      717   -0.082855  11010011100001

 State #    2  Energy =     -55.733532246  S =  0.500

      Det      Coef    Occupancy (Ignoring core)
      ---      ----    --------- --------- -----
        1    0.194836  11110001110000
       36   -0.960027  11110001101000
      142    0.051778  11101001100100
      463   -0.052846  10110101001010

 State #    3  Energy =     -55.476757065  S =  0.500

      Det      Coef    Occupancy (Ignoring core)
      ---      ----    --------- --------- -----
        3   -0.050225  11011001110000
       71    0.967872  11110001011000
      122    0.057404  11010010111000
      177   -0.051722  11101001010100
      822   -0.083618  11010011001001

 Davidson method: CPU/Wall time =           0.46 /           0.46 sec.

 Oscillator strength (invalid if E(1)/=E(GS)):
 -----------------------------------------
   State                        f
 -----------------------------------------
     2     F(REF-CI)=        0.0006983025
     3     F(REF-CI)=        0.0071673766
 -----------------------------------------

 Dipole moment matrix elements, x, y, z, in A.U.

 Dimension of ionized spaces for PT:
 (N-2) space:         1715 /  (N-1) space:         2842 /  N space:         2891
 (N+1) space:         2842 /  (N+2) space:         1715

 <<<Ionized spaces for internal:
         0:         1225 /      -1-0:         1960 /     0-1-0:         2891
  -1-0-1-0:         2842 / 0-1-0-1-0:         3381

 Diagonal elements of averaged one-particle density matrix:
       2       3       4       5       6       7       8
  0.9919  0.9856  0.9826  0.9881  0.0224  0.0110  0.0184
  0.9855  0.6646  0.6549  0.6593  0.0153  0.0079  0.0126

 Orbital energies:
 -------- Doubly-occupied orbitals (highest several orbs.) -------
             1
 -1.598516D+01
 -------- Active orbitals ----------------------------------------
             2            3            4            5            6
 -1.484853D+00-1.020492D+00-7.611789D-01-7.235450D-01 7.092489D-02
             7            8
  4.035196D-01 2.083050D-01
 -------- External orbitals (lowest several orbs.) ---------------
             9           10           11           12           13
  1.040406D-01 1.951612D-01 2.781032D-01 5.256225D-01 5.751171D-01
            14           15           16           17           18
  6.652956D-01 8.831870D-01 1.083311D+00 1.109050D+00 1.205770D+00

 *** Quasi-degeneracy checking

 === Det (|Ci| > 1.0D-01 and dE < 5.0D-03)

 # of small denominators (single excitations)
 State       dEmin  dE < 5.0D-03  dE < 5.0D-04  dE < 5.0D-05  dE < 5.0D-06
 ----- ----------- ------------- ------------- ------------- -------------
     1    5.00D-03             0             0             0             0
     2    5.00D-03             0             0             0             0
     3    5.00D-03             0             0             0             0

 # of small denominators (double excitations)
 State       dEmin  dE < 5.0D-03  dE < 5.0D-04  dE < 5.0D-05  dE < 5.0D-06
 ----- ----------- ------------- ------------- ------------- -------------
     1    5.00D-03             0             0             0             0
     2    5.00D-03             0             0             0             0
     3    5.00D-03             0             0             0             0

 *** Zeroth-Order Setup (Granovsky's zeroth-order vectors)
 Zeroth-order effective Hamiltonian
  (= Sum_i e(i)*<I|a+(i)a(i)|J> ):
                   1            2            3
     1 -7.146006D+00
     2  1.218068D-02-7.129996D+00
     3 -2.234268D-03 4.202901D-03-6.849036D+00

 Zeroth-order vectors:
 State #    1
       MC st            1           2           3
       Coeff    8.795D-01  -4.758D-01   1.306D-02
 State #    2
       MC st            2           1           3
       Coeff    8.795D-01   4.759D-01  -9.595D-03
 State #    3
       MC st            3           2           1
       Coeff    9.999D-01   1.465D-02  -6.920D-03

 *** GMC-QDPT computation

 (Integral reading:  CPU/Wall time =           0.00 /           0.00 sec.)

 One-external:
   0 -ionized terms: CPU/Wall time =           0.03 /           0.04 sec.
 (-1)-ionized terms: CPU/Wall time =           0.09 /           0.08 sec.
 (+1)-ionized terms: CPU/Wall time =           0.02 /           0.02 sec.
 (+1)-ionized terms: CPU/Wall time =           0.01 /           0.01 sec.
 (+2)-ionized terms: CPU/Wall time =           0.00 /           0.00 sec.

 Internal:
 # of macro loops for internal contribution =         1 (input)
 Loop:    1
 Dimension of internal CISD space     =         0  (after screening)
 Space construction: CPU/Wall time =           0.02 /           0.02 sec.
 Internal terms:     CPU/Wall time =           0.00 /           0.00 sec.

 Two-external:
   0 -ionized terms: CPU/Wall time =           0.06 /           0.06 sec.
 (-1)-ionized terms: CPU/Wall time =           1.00 /           1.00 sec.
 (-2)-ionized terms: CPU/Wall time =           0.18 /           0.18 sec.

 Total time:         CPU/Wall time =           1.41 /           1.41 sec.

 ***                  ***
 *** GMC-QDPT Results ***
 ***                  ***

 Diagonal elements of effective Hamiltonian:
 Heff(  1) =   -55.88760813
 Heff(  2) =   -55.85306897
 Heff(  3) =   -55.58853325

 Off-diagonal elements of effective Hamiltonian:
                   1            2
     2 -2.505025D-02
     3  4.268178D-03-1.781319D-03

 ******** GMC-QDPT energies ********
 ----------------------------------------------------------------------------
   State                        1st order                           2nd order
 ----------------------------------------------------------------------------
     1     E(REF-CI)=      -55.8009782865   E(GMC-QDPT2)=      -55.9007926460
     2     E(REF-CI)=      -55.7335322459   E(GMC-QDPT2)=      -55.8399627805
     3     E(REF-CI)=      -55.4767570648   E(GMC-QDPT2)=      -55.5884549254
 ----------------------------------------------------------------------------

 Excitation energies (invalid if E(1)/=E(GS)):
 ----------------------------------------------------------------------------
   State                        1st order                           2nd order
 ----------------------------------------------------------------------------

     TZ Sorted GMC-PT ENERGIES:
         1      -55.9007926460
         2      -55.8399627805
         3      -55.5884549254
     2     E(REF-CI)=        1.8353012 eV   E(GMC-QDPT2)=        1.6552658 eV
     3     E(REF-CI)=        8.8225134 eV   E(GMC-QDPT2)=        8.4991466 eV
 ----------------------------------------------------------------------------

 Main characters of perturbed GMC-QDPT states:

 State #    1  Energy =     -55.900792646  S =  0.500

      Det      Coef    Occupancy (Ignoring core)
      ---      ----    --------- --------- -----
        1   -0.957721  11110001110000
       36   -0.178024  11110001101000
      393   -0.052445  10110101010010
      717   -0.082875  11010011100001

 State #    2  Energy =     -55.839962781  S =  0.500

      Det      Coef    Occupancy (Ignoring core)
      ---      ----    --------- --------- -----
        1   -0.182439  11110001110000
       36    0.962419  11110001101000
      142   -0.052040  11101001100100
      463    0.052971  10110101001010

 State #    3  Energy =     -55.588454925  S =  0.500

      Det      Coef    Occupancy (Ignoring core)
      ---      ----    --------- --------- -----
        3   -0.050259  11011001110000
       71    0.967840  11110001011000
      122    0.057445  11010010111000
      177   -0.051676  11101001010100
      822   -0.083600  11010011001001

 <<<Max |V/de| = 2.979D-02  Thresh = 1.000D+00

 Oscillator strength (invalid if E(1)/=E(GS)):
 ----------------------------------------------------------------------------
   State                        1st order                           2nd order
 ----------------------------------------------------------------------------
     2     F(REF-CI)=        0.0006983025     F(GMC-PT2)=        0.0006698896
     3     F(REF-CI)=        0.0071673766     F(GMC-PT2)=        0.0069785064
 ----------------------------------------------------------------------------

 Dipole moment matrix elements, x, y, z, in A.U.
States    1    1       -0.4066649993       -0.0532399973        0.6716241756
States    1    2        0.0286805871        0.0447521401       -0.1170189645
States    1    3        0.1617289064       -0.0152026529        0.0844208188
States    2    1        0.0286805871        0.0447521401       -0.1170189645
States    2    2       -0.2752174260       -0.1924230847        0.3230732333
States    2    3       -0.0110605375       -0.0710006652       -0.0048006108
States    3    1        0.1617289064       -0.0152026529        0.0844208188
States    3    2       -0.0110605375       -0.0710006652       -0.0048006108
States    3    3       -0.6761134238       -0.0773866187        0.2410928518

 Oscillator strength (valid only when positive): 
 ----------------------------------------------------------------------------
  States                        1st order                           2nd order
 ----------------------------------------------------------------------------
  1  1     F(REF-CI)=        0.0000000000     F(GMC-PT2)=        0.0000000000
  1  2     F(REF-CI)=       -0.0006983025     F(GMC-PT2)=       -0.0006698896
  1  3     F(REF-CI)=       -0.0071673766     F(GMC-PT2)=       -0.0069785064
  2  1     F(REF-CI)=        0.0006983025     F(GMC-PT2)=        0.0006698896
  2  2     F(REF-CI)=        0.0000000000     F(GMC-PT2)=        0.0000000000
  2  3     F(REF-CI)=       -0.0008867883     F(GMC-PT2)=       -0.0008696263
  3  1     F(REF-CI)=        0.0071673766     F(GMC-PT2)=        0.0069785064
  3  2     F(REF-CI)=        0.0008867883     F(GMC-PT2)=        0.0008696263
  3  3     F(REF-CI)=        0.0000000000     F(GMC-PT2)=        0.0000000000
 CPU     0: STEP CPU TIME=     1.94 TOTAL CPU TIME=         15.0 (      0.2 MIN)
 TOTAL WALL CLOCK TIME=         15.0 SECONDS, CPU UTILIZATION IS    99.93%

     !!! DIABATIZATION FOR REF CI STATES !!!

 *******************************************************
          $DMO GROUP FOUND IN THE INPUT.
        DIABATIZATION OF ADIABATIC STATES BEGINS.
     PROGRAMMED BY TAO ZENG (CARLETON UNIVERSITY).
               Email: toby.zeng@carleton.ca
     See T. Zeng, J. Chem. Phys. 2017, 146, 144103
 *******************************************************

 *************************************************************************
     STEP 1: TRANSFORMATION OF ADIABATIC STATES TO THE DMO REPRESENTATION
         See Atchity and Ruedenberg, J. Chem. Phys. 1999, 111, 2910
 *************************************************************************

Read in Diabatic Molecualr Orbitals:

                      1          2          3          4          5

    1  N  1  S    0.008609   0.000000   0.000000  -0.013219   0.279491
    2  N  1  S    0.442914  -0.000000   0.000000  -0.184329   0.867803
    3  N  1  S    0.276913   0.000000  -0.000000  -0.288315   0.144236
    4  N  1  X   -0.000000   0.493155  -0.024636  -0.000000  -0.000000
    5  N  1  Y    0.000000   0.024636   0.493155  -0.000000   0.000000
    6  N  1  Z    0.090197   0.000000   0.000000   0.593421   0.705309
    7  N  1  X   -0.000000   0.210628  -0.010522   0.000000   0.000000
    8  N  1  Y    0.000000   0.010522   0.210628  -0.000000  -0.000000
    9  N  1  Z   -0.004381   0.000000   0.000000   0.381592  -0.106092
   10  N  1 XX   -0.000457   0.010719  -0.000535  -0.012387   0.006153
   11  N  1 YY   -0.000457  -0.010719   0.000535  -0.012387   0.006153
   12  N  1 ZZ    0.000914  -0.000000   0.000000   0.024773  -0.012306
   13  N  1 XY    0.000000  -0.000618  -0.012377  -0.000000   0.000000
   14  N  1 XZ   -0.000000   0.026529  -0.001325  -0.000000   0.000000
   15  N  1 YZ    0.000000   0.001325   0.026529  -0.000000   0.000000
   16  H  2  S    0.194462  -0.176074   0.343485   0.112865  -0.523343
   17  H  2  S    0.003574  -0.023812   0.046452   0.024014  -0.054445
   18  H  2  X    0.018760   0.009101   0.022834   0.009336  -0.039151
   19  H  2  Y   -0.032493   0.022287  -0.020044  -0.016171   0.067811
   20  H  2  Z   -0.009251   0.008464  -0.016511   0.018769  -0.010566
   21  H  3  S    0.194462  -0.209430  -0.324227   0.112865  -0.523343
   22  H  3  S    0.003574  -0.028322  -0.043847   0.024014  -0.054445
   23  H  3  X    0.018760   0.006781  -0.023627   0.009336  -0.039151
   24  H  3  Y    0.032493  -0.024174  -0.017723   0.016171  -0.067811
   25  H  3  Z   -0.009251   0.010067   0.015585   0.018769  -0.010566
   26  H  4  S    0.194462   0.385503  -0.019258   0.112865  -0.523343
   27  H  4  S    0.003574   0.052134  -0.002604   0.024014  -0.054445
   28  H  4  X   -0.037519  -0.032295   0.001613  -0.018672   0.078302
   29  H  4  Y    0.000000   0.001067   0.021353  -0.000000   0.000000
   30  H  4  Z   -0.009251  -0.018530   0.000926   0.018769  -0.010566

                      6          7

    1  N  1  S    0.000000  -0.000000
    2  N  1  S    0.000000  -0.000000
    3  N  1  S   -0.000000   0.000000
    4  N  1  X   -0.930415  -0.002083
    5  N  1  Y   -0.002083   0.930415
    6  N  1  Z   -0.000000   0.000000
    7  N  1  X   -0.046866  -0.000105
    8  N  1  Y   -0.000105   0.046866
    9  N  1  Z   -0.000000   0.000000
   10  N  1 XX    0.001538   0.000003
   11  N  1 YY   -0.001538  -0.000003
   12  N  1 ZZ   -0.000000   0.000000
   13  N  1 XY   -0.000004   0.001776
   14  N  1 XZ    0.039985   0.000090
   15  N  1 YZ    0.000090  -0.039985
   16  H  2  S   -0.362630  -0.631354
   17  H  2  S   -0.065964  -0.114846
   18  H  2  X    0.002763  -0.037520
   19  H  2  Y    0.037435   0.040736
   20  H  2  Z    0.001882   0.003276
   21  H  3  S   -0.365454   0.629724
   22  H  3  S   -0.066477   0.114549
   23  H  3  X    0.002595   0.037532
   24  H  3  Y   -0.037617   0.040567
   25  H  3  Z    0.001896  -0.003268
   26  H  4  S    0.728084   0.001630
   27  H  4  S    0.132441   0.000297
   28  H  4  X   -0.062317  -0.000140
   29  H  4  Y    0.000055  -0.024345
   30  H  4  Z   -0.003778  -0.000008

NUMBER OF SUB ACTIVE SPACES:   1
ROTATE ACTIVE MOS TO DMOS IN EACH SUB-SPACE

SPACE  1:

OVERLAP BETWEEN ORTHONORMAL AND PRE-ORTHONORMAL REF. DMOS

             1           2           3           4           5

    1    0.9722762  -0.0190054  -0.0142454  -0.0102831  -0.0055422
    2   -0.0190054   1.0473241  -0.0233016  -0.0435245   0.0901520
    3   -0.0142454  -0.0233016   0.8412246  -0.0131629   0.0103970
    4   -0.0102831  -0.0435245  -0.0131629   0.9917734  -0.0117898
    5   -0.0055422   0.0901520   0.0103970  -0.0117898   1.1909692
    6    0.0001940   0.0682913  -0.0239978  -0.0680251   0.0939002
    7    0.0019288   0.0069165   0.1218163   0.0105468   0.0305115

             6           7

    1    0.0001940   0.0019288
    2    0.0682913   0.0069165
    3   -0.0239978   0.1218163
    4   -0.0680251   0.0105468
    5    0.0939002   0.0305115
    6    1.0551518  -0.0076606
    7   -0.0076606   1.0514552
REFERENCE DMOS AFTER ORTHONORMALIZATION:

                      1          2          3          4          5

    1  N  1  S    0.009666  -0.019498  -0.003176  -0.012659   0.237908
    2  N  1  S    0.456705  -0.058017  -0.005034  -0.179805   0.739784
    3  N  1  S    0.282120  -0.015658  -0.002369  -0.288994   0.123054
    4  N  1  X    0.009645   0.525814  -0.040746  -0.040149   0.033127
    5  N  1  Y    0.005614   0.029998   0.467541  -0.000557  -0.028838
    6  N  1  Z    0.102279  -0.023674   0.006260   0.604966   0.602074
    7  N  1  X    0.003909   0.205849  -0.008045   0.004960  -0.010962
    8  N  1  Y    0.003942   0.015735   0.248872   0.004181  -0.004125
    9  N  1  Z   -0.000365   0.021922   0.008989   0.386968  -0.089429
   10  N  1 XX   -0.000399   0.009357  -0.000637  -0.012062   0.004368
   11  N  1 YY   -0.000792  -0.011175  -0.000028  -0.013062   0.006046
   12  N  1 ZZ    0.001191   0.001818   0.000665   0.025124  -0.010414
   13  N  1 XY   -0.000252  -0.000962  -0.015260  -0.000303   0.000137
   14  N  1 XZ    0.000465   0.023476   0.000212   0.003519  -0.004668
   15  N  1 YZ    0.000699   0.002364   0.037785   0.001105   0.000553
   16  H  2  S    0.205722  -0.091831   0.501590   0.100924  -0.395429
   17  H  2  S    0.004730  -0.012487   0.071085   0.021599  -0.037728
   18  H  2  X    0.020053   0.013022   0.034229   0.011072  -0.033429
   19  H  2  Y   -0.033549   0.012737  -0.030040  -0.014337   0.052627
   20  H  2  Z   -0.009498   0.008858  -0.019839   0.018977  -0.009593
   21  H  3  S    0.187012  -0.153465  -0.485161   0.069900  -0.415299
   22  H  3  S    0.001941  -0.021313  -0.070617   0.016661  -0.041791
   23  H  3  X    0.018807   0.008839  -0.032650   0.009073  -0.034515
   24  H  3  Y    0.032447  -0.016306  -0.027171   0.012456  -0.053984
   25  H  3  Z   -0.008837   0.011370   0.020005   0.019787  -0.009902
   26  H  4  S    0.206362   0.377264   0.018721   0.176026  -0.522916
   27  H  4  S    0.004657   0.047983   0.003016   0.034599  -0.059308
   28  H  4  X   -0.039128  -0.034663  -0.002570  -0.024354   0.073140
   29  H  4  Y    0.000528   0.001838   0.029313   0.000791   0.000262
   30  H  4  Z   -0.009676  -0.016418   0.000828   0.017980  -0.007452

                      6          7

    1  N  1  S   -0.020847  -0.006450
    2  N  1  S   -0.074016  -0.020076
    3  N  1  S   -0.028682  -0.001021
    4  N  1  X   -0.922338  -0.008016
    5  N  1  Y    0.015283   0.831462
    6  N  1  Z   -0.013099  -0.024392
    7  N  1  X   -0.056632  -0.000673
    8  N  1  Y    0.005293   0.015745
    9  N  1  Z    0.031676  -0.002241
   10  N  1 XX   -0.000329   0.000008
   11  N  1 YY   -0.002115   0.000015
   12  N  1 ZZ    0.002444  -0.000023
   13  N  1 XY   -0.000295   0.003461
   14  N  1 XZ    0.037025   0.000275
   15  N  1 YZ    0.000505  -0.042447
   16  H  2  S   -0.289385  -0.649989
   17  H  2  S   -0.056191  -0.116919
   18  H  2  X    0.005957  -0.038869
   19  H  2  Y    0.028667   0.041026
   20  H  2  Z    0.002878   0.005482
   21  H  3  S   -0.301196   0.664937
   22  H  3  S   -0.057581   0.117887
   23  H  3  X    0.005091   0.040333
   24  H  3  Y   -0.029300   0.043006
   25  H  3  Z    0.003636  -0.005369
   26  H  4  S    0.723992   0.015205
   27  H  4  S    0.130003   0.001930
   28  H  4  X   -0.064960  -0.001887
   29  H  4  Y    0.000434  -0.026575
   30  H  4  Z   -0.000675   0.000053

 -------------------------------------------
       MAXIMIZING MORMO OVERLAP TERM        
 -------------------------------------------
   SWEEP    VALUE       PROGRESS
     0     5.81687
     1     6.92243     1.10555847
     2     6.93167     0.00924410
     3     6.93167     0.00000081
     4     6.93167     0.00000000
     5     6.93167     0.00000000
 THE ROTATION IS DONE
ACTIVE ORBITALS AFTER MORMO:

                      1          2          3          4          5

    1  N  1  S    0.008104  -0.022031  -0.010689  -0.012334   0.171749
    2  N  1  S    0.428806  -0.042235  -0.029617  -0.190429   0.648979
    3  N  1  S    0.338543  -0.006895   0.037093  -0.272058   0.236860
    4  N  1  X    0.013445   0.514152  -0.039296  -0.043390   0.051560
    5  N  1  Y   -0.003951   0.020406   0.396058  -0.012455  -0.024252
    6  N  1  Z    0.085501  -0.042935  -0.005983   0.606182   0.564065
    7  N  1  X    0.002388   0.173970  -0.000870   0.049495  -0.051268
    8  N  1  Y    0.014022   0.030567   0.361354   0.019357  -0.009040
    9  N  1  Z    0.030143   0.058196   0.023423   0.385856  -0.035821
   10  N  1 XX    0.005687   0.009040   0.009076  -0.010267  -0.048907
   11  N  1 YY   -0.005614  -0.010138  -0.008383  -0.009192   0.038121
   12  N  1 ZZ   -0.000073   0.001097  -0.000693   0.019459   0.010785
   13  N  1 XY   -0.002291  -0.005881  -0.023957  -0.004026   0.013968
   14  N  1 XZ   -0.003307   0.011691  -0.000069   0.005311   0.026361
   15  N  1 YZ    0.000596   0.000193   0.026198  -0.002538   0.013706
   16  H  2  S    0.183796  -0.134319   0.370572   0.093966  -0.403372
   17  H  2  S    0.009419  -0.002013   0.184559   0.034644  -0.054620
   18  H  2  X    0.025670  -0.012186   0.041023   0.011617  -0.021492
   19  H  2  Y   -0.014650   0.014646   0.004595  -0.005381   0.036364
   20  H  2  Z   -0.006679   0.017637  -0.012307   0.016307  -0.020983
   21  H  3  S    0.181506  -0.171433  -0.370244   0.084938  -0.440315
   22  H  3  S    0.000589  -0.021465  -0.184218   0.025973  -0.065872
   23  H  3  X    0.023731  -0.007740  -0.032119   0.012304  -0.012336
   24  H  3  Y    0.020797  -0.013182   0.002301   0.013016  -0.045179
   25  H  3  Z   -0.011821   0.020916   0.021903   0.016055  -0.011234
   26  H  4  S    0.182987   0.392277  -0.001810   0.135842  -0.516625
   27  H  4  S   -0.000195   0.043801   0.011074   0.038812  -0.069478
   28  H  4  X   -0.033421  -0.043491   0.007583  -0.010783   0.056267
   29  H  4  Y    0.004755   0.011128   0.021428   0.002686  -0.008340
   30  H  4  Z   -0.002307  -0.007560   0.001555   0.022590  -0.011566

                      6          7

    1  N  1  S   -0.099585   0.002459
    2  N  1  S   -0.215874   0.010765
    3  N  1  S    0.171231  -0.040354
    4  N  1  X   -0.873242  -0.019612
    5  N  1  Y    0.018612   0.862398
    6  N  1  Z   -0.005063  -0.034728
    7  N  1  X   -0.154623   0.009526
    8  N  1  Y    0.000425  -0.028848
    9  N  1  Z    0.059320   0.009796
   10  N  1 XX    0.015771  -0.015339
   11  N  1 YY    0.014958   0.015852
   12  N  1 ZZ   -0.030729  -0.000514
   13  N  1 XY   -0.025162   0.051799
   14  N  1 XZ    0.042722   0.002680
   15  N  1 YZ   -0.011293  -0.012147
   16  H  2  S   -0.347615  -0.528264
   17  H  2  S   -0.073625  -0.249446
   18  H  2  X   -0.003515  -0.051724
   19  H  2  Y    0.039763  -0.005084
   20  H  2  Z   -0.019486   0.011522
   21  H  3  S   -0.352265   0.556669
   22  H  3  S   -0.065289   0.253831
   23  H  3  X    0.018351   0.040223
   24  H  3  Y   -0.038040   0.000401
   25  H  3  Z   -0.009269  -0.020080
   26  H  4  S    0.699554   0.024500
   27  H  4  S    0.140782  -0.000199
   28  H  4  X   -0.063964  -0.007946
   29  H  4  Y    0.009440  -0.004530
   30  H  4  Z    0.024033   0.007244

Actually Used Diabatic Molecualr Orbitals:

                      1          2          3          4          5

    1  N  1  S    0.008104  -0.022031  -0.010689  -0.012334   0.171749
    2  N  1  S    0.428806  -0.042235  -0.029617  -0.190429   0.648979
    3  N  1  S    0.338543  -0.006895   0.037093  -0.272058   0.236860
    4  N  1  X    0.013445   0.514152  -0.039296  -0.043390   0.051560
    5  N  1  Y   -0.003951   0.020406   0.396058  -0.012455  -0.024252
    6  N  1  Z    0.085501  -0.042935  -0.005983   0.606182   0.564065
    7  N  1  X    0.002388   0.173970  -0.000870   0.049495  -0.051268
    8  N  1  Y    0.014022   0.030567   0.361354   0.019357  -0.009040
    9  N  1  Z    0.030143   0.058196   0.023423   0.385856  -0.035821
   10  N  1 XX    0.005687   0.009040   0.009076  -0.010267  -0.048907
   11  N  1 YY   -0.005614  -0.010138  -0.008383  -0.009192   0.038121
[...]

 --- DIABATIC COUPLINGS (OFF DIAGONAL ELEMENTS)---  HATREE            EV
 STATE #  1 &  2'S GMC-PT-LEVEL COUPLING  =       0.060596439       1.648913094
 STATE #  1 &  3'S GMC-PT-LEVEL COUPLING  =       0.012263572       0.333708786
 STATE #  2 &  3'S GMC-PT-LEVEL COUPLING  =      -0.017003715      -0.462694653

 ---------------------------------------
     - ROTATION TO DIABATIC STATES -    
 ---------------------------------------
 ROWS=ADIABATIC, COLUMNS=DIABATIC STATES

             1           2           3

    1    0.9427603  -0.2059151  -0.2623015
    2   -0.2681576  -0.0005521  -0.9633749
    3    0.1982286   0.9785697  -0.0557382

 ---------------------------------------
          - DIABATIC STATES -           
 ---------------------------------------

 State #    1  Energy =     -55.884145280

      Det      Coef        Coefp    Occupancy (Ignoring core)
      ---      ----        ----    --------- --------- -----
        1    0.895981   -0.895981  222+000
       17    0.222440    0.222440  22-+00+
      701   -0.190494   -0.190494  22++00-
        4    0.143099   -0.143099  2-2++00
      176   -0.136107    0.136107  2+2+-00
        6   -0.094357    0.094357  22200+0
      393   -0.057221   -0.057221  202+020
      192    0.054640   -0.054640  2+-+-0+
      402    0.054093   -0.054093  2+-+0-+
      704    0.053255   -0.053255  2-+++0-
       23   -0.050075   -0.050075  2--++0+
      708    0.048192   -0.048192  2-++0+-
      386   -0.047383    0.047383  2+2+0-0
      717   -0.044740   -0.044740  220+002
      911   -0.043584   -0.043584  2+++-0-
      215   -0.040312   -0.040312  022+200
      706    0.039074    0.039074  22+00+-
        3    0.035648    0.035648  22-++00
      390    0.035601   -0.035601  -+2++-0
      141   -0.035420   -0.035420  22++-00
      227   -0.034963   -0.034963  +2-+-0+
      218    0.034853   -0.034853  +-2+-+0
      702    0.034678    0.034678  22+0+0-
     1051   -0.034612   -0.034612  2+++0--
       26   -0.034269   -0.034269  22-00++
      351    0.034233    0.034233  22++0-0
      705   -0.033709   -0.033709  -2+++0-
        7   -0.033288   -0.033288  22-+0+0
      212    0.032485    0.032485  +220200
      143   -0.032383   -0.032383  220+200
       51   -0.031946    0.031946  22+-00+
       29   -0.031216   -0.031216  2--+0++
      122    0.029404    0.029404  +2-200+
       20   -0.027882   -0.027882  22-0+0+
        8    0.027820   -0.027820  2-2+0+0
       16    0.027120   -0.027120  222000+
      424   -0.026342   -0.026342  +-2++-0
      773    0.025445   -0.025445  +2-++0-
      159    0.024989   -0.024989  -2++-0+
      184   -0.023854   -0.023854  -+2+-+0
       38   -0.023526    0.023526  2202+00
      387   -0.022851    0.022851  2+20+-0
      113   -0.021758    0.021758  +-220+0
        5    0.020635    0.020635  -22++00

 State #    2  Energy =     -55.601698443

      Det      Coef        Coefp    Occupancy (Ignoring core)
      ---      ----        ----    --------- --------- -----
       71   -0.896394    0.896394  2+22000
      806   -0.191755   -0.191755  2++200-
       87    0.178976   -0.178976  2+-200+
       74   -0.110552    0.110552  2022+00
       76   -0.104651   -0.104651  2+2-0+0
      386    0.101455   -0.101455  2+2+0-0
       78   -0.083444    0.083444  20220+0
       72   -0.066700   -0.066700  2+2-+00
      813    0.060363   -0.060363  20+20+-
       38   -0.057707    0.057707  2202+00
      122    0.057449    0.057449  +2-200+
      106   -0.056126   -0.056126  +222000
      822    0.052952   -0.052952  2+02002
       73    0.048871   -0.048871  2+-2+00
      807   -0.048707    0.048707  2++-+0-
      246   -0.046693   -0.046693  2++2-00
       36    0.045492    0.045492  22+2000
      809    0.044811   -0.044811  20+2+0-
       99   -0.044589    0.044589  20-20++
       77   -0.043353    0.043353  2+-20+0
      192   -0.043213    0.043213  2+-+-0+
      811   -0.042163    0.042163  2++-0+-
      111    0.042030   -0.042030  +22-0+0
      248    0.042027   -0.042027  2+02200
      320    0.041769    0.041769  0+22200
       90    0.041442    0.041442  2+--+0+
      317    0.040255   -0.040255  ++2-200
      332   -0.039700    0.039700  ++-2-0+
      810   -0.038763   -0.038763  -++2+0-
      402   -0.038399    0.038399  2+-+0-+
      180   -0.037028    0.037028  -+2+200
      456    0.036734    0.036734  2++20-0
      177    0.036252   -0.036252  2+20200
      176    0.035011   -0.035011  2+2+-00
      841   -0.034473    0.034473  +2+200-
       93   -0.033923    0.033923  20-2+0+
      911    0.032546    0.032546  2+++-0-
      323   -0.032185    0.032185  +022-+0
        4    0.031689   -0.031689  2-2++00
       51    0.031199   -0.031199  22+-00+
     1051    0.031129    0.031129  2+++0--
      736   -0.030597    0.030597  2+2+00-
       86    0.029602    0.029602  2+2-00+
       96    0.028725    0.028725  2+--0++
      264    0.028504   -0.028504  -++2-0+
       17   -0.027196   -0.027196  22-+00+
      316    0.027127    0.027127  ++22-00
      109   -0.026794    0.026794  +-22+00
      878    0.026220    0.026220  ++-2+0-
        6    0.025575   -0.025575  22200+0
      107    0.022985   -0.022985  +22-+00
       54   -0.022977    0.022977  -2+200+
        9   -0.022632   -0.022632  -22+0+0
      529    0.021139    0.021139  +022+-0
      183   -0.021022    0.021022  202+-+0

 State #    3  Energy =     -55.843366629

      Det      Coef        Coefp    Occupancy (Ignoring core)
      ---      ----        ----    --------- --------- -----
       36   -0.895636   -0.895636  22+2000
       52   -0.195453    0.195453  220200+
       39   -0.172479   -0.172479  2-+2+00
      246    0.154684    0.154684  2++2-00
       41   -0.130817    0.130817  22+-0+0
      351    0.125405    0.125405  22++0-0
      456    0.069982    0.069982  2++20-0
       43   -0.061044   -0.061044  2-+20+0
      472   -0.060755   -0.060755  2+020-+
       37   -0.060697    0.060697  22+-+00
      262   -0.058576   -0.058576  2+02-0+
       58    0.056290   -0.056290  2-02+0+
      463    0.052679   -0.052679  20+2020
      141    0.051560    0.051560  22++-00
      367    0.050579   -0.050579  220+0-+
      157    0.048643   -0.048643  220+-0+
       55   -0.045226   -0.045226  220-+0+
       64    0.045204   -0.045204  2-020++
       61   -0.043974   -0.043974  220-0++
       71   -0.040675    0.040675  2+22000
      285    0.040594   -0.040594  02+2200
       38   -0.039953    0.039953  2202+00
      142    0.036438    0.036438  22+0200
      145   -0.036343   -0.036343  -2++200
      297    0.035741   -0.035741  +202-0+
      460   -0.035260   -0.035260  -++2+-0
      282    0.034489    0.034489  +2+-200
      288   -0.033353   -0.033353  +-+2-+0
       42    0.031343   -0.031343  22020+0
      106   -0.029800   -0.029800  +222000
      123    0.027813   -0.027813  +-2200+
      701   -0.027789   -0.027789  22++00-
       51    0.027748   -0.027748  22+-00+
      121   -0.026478    0.026478  +22-00+
      843   -0.026135   -0.026135  +202+0-
       40   -0.024967    0.024967  -2+2+00
      494    0.024526   -0.024526  +-+2+-0
       46    0.024392   -0.024392  2-+-++0
      254    0.022696   -0.022696  -++2-+0
      108    0.022668    0.022668  +2-2+00
      716    0.022576    0.022576  22+0002
      148   -0.021714   -0.021714  2-++-+0
      457   -0.021584    0.021584  2++-+-0

 ---------------------------------------
      - DIABATIC STATES IN CMO -        
 ---------------------------------------

 State #    1  Energy =     -55.884145280

      Det      Coef        Coefp    Occupancy (Ignoring core)
      ---      ----        ----    --------- --------- -----
        1    0.857319   -0.857319  222+000
       36   -0.424950   -0.424950  22+2000
       71   -0.178558    0.178558  2+22000
      717   -0.078327   -0.078327  220+002
      393   -0.050318   -0.050318  202+020
      106   -0.043093   -0.043093  +222000
      215   -0.035987   -0.035987  022+200
      179   -0.035399   -0.035399  202+200
      704    0.035015   -0.035015  2-+++0-
      142    0.032125    0.032125  22+0200
      705   -0.031453   -0.031453  -2+++0-
        8   -0.031379    0.031379  2-2+0+0
      702    0.031259    0.031259  22+0+0-
      143   -0.030046   -0.030046  220+200
      122    0.029821    0.029821  +2-200+
        2    0.029093   -0.029093  2220+00
      708    0.028354   -0.028354  2-++0+-
      212    0.028155    0.028155  +220200
      463    0.026442   -0.026442  20+2020
       17    0.025546    0.025546  22-+00+
      227   -0.025451   -0.025451  +2-+-0+
      109   -0.025190    0.025190  +-22+00
      752    0.024938    0.024938  2+-+002
       51   -0.024916    0.024916  22+-00+
        3   -0.023915   -0.023915  22-++00
      390    0.022756   -0.022756  -+2++-0
      911   -0.022713   -0.022713  2+++-0-
       23   -0.022065   -0.022065  2--++0+
      753   -0.021750   -0.021750  202+002
      192    0.021674   -0.021674  2+-+-0+
      402    0.021536   -0.021536  2+-+0-+
      718   -0.021324    0.021324  2-++002
      249    0.021073   -0.021073  20+2200
      218    0.021055   -0.021055  +-2+-+0
       38   -0.020852    0.020852  2202+00
      428    0.020722    0.020722  +-2+020
      716    0.020525    0.020525  22+0002
      394   -0.020016    0.020016  -+2+020

 State #    2  Energy =     -55.601698443

      Det      Coef        Coefp    Occupancy (Ignoring core)
      ---      ----        ----    --------- --------- -----
       71   -0.950366    0.950366  2+22000
        1   -0.180818    0.180818  222+000
      822    0.082522   -0.082522  2+02002
      177    0.054755   -0.054755  2+20200
      122    0.053330    0.053330  +2-200+
        3   -0.046476   -0.046476  22-++00
       37    0.045923   -0.045923  22+-+00
      107    0.044060   -0.044060  +22-+00
      109   -0.043014    0.043014  +-22+00
      320    0.041278    0.041278  0+22200
       36    0.040883    0.040883  22+2000
        4    0.040303   -0.040303  2-2++00
      192   -0.035713    0.035713  2+-+-0+
      180   -0.035629    0.035629  -+2+200
       38   -0.034209    0.034209  2202+00
      111    0.033551   -0.033551  +22-0+0
      809    0.032016   -0.032016  20+2+0-
      807   -0.031807    0.031807  2++-+0-
      317    0.030801   -0.030801  ++2-200
      810   -0.030130   -0.030130  -++2+0-
      248    0.029448   -0.029448  2+02200
       54   -0.028896    0.028896  -2+200+
      179    0.028404    0.028404  202+200
      332   -0.028340    0.028340  ++-2-0+
      911    0.027226    0.027226  2+++-0-
       78   -0.026820    0.026820  20220+0
       72   -0.026281   -0.026281  2+2-+00
        5   -0.026102   -0.026102  -22++00
      813    0.026095   -0.026095  20+20+-
        2   -0.025214    0.025214  2220+00
      823   -0.025008    0.025008  20+2002
      841   -0.024434    0.024434  +2+200-
       52    0.024175   -0.024175  220200+
       75    0.023614    0.023614  -+22+00
       16   -0.023533    0.023533  222000+
       90    0.023383    0.023383  2+--+0+
       93   -0.023096    0.023096  20-2+0+
      391    0.022303   -0.022303  2+20020
      183   -0.021331    0.021331  202+-+0
      323   -0.020708    0.020708  +022-+0
      421   -0.020643   -0.020643  +22+0-0
      894    0.020145    0.020145  0+22002
       99   -0.020092    0.020092  20-20++

 State #    3  Energy =     -55.843366629

      Det      Coef        Coefp    Occupancy (Ignoring core)
      ---      ----        ----    --------- --------- -----
       36   -0.880745   -0.880745  22+2000
        1   -0.427908    0.427908  222+000
      463    0.047617   -0.047617  20+2020
      142    0.045080    0.045080  22+0200
      249    0.044337   -0.044337  20+2200
       71    0.043875   -0.043875  2+22000
      285    0.034488   -0.034488  02+2200
      262   -0.033098   -0.033098  2+02-0+
      157    0.030869   -0.030869  220+-0+
      123    0.030463   -0.030463  +-2200+
      282    0.028508    0.028508  +2+-200
       58    0.028437   -0.028437  2-02+0+
      822   -0.026921    0.026921  2+02002
      145   -0.026122   -0.026122  -2++200
      297    0.025866   -0.025866  +202-0+
       55   -0.025477   -0.025477  220-+0+
      823    0.025382   -0.025382  20+2002
      108    0.024707    0.024707  +2-2+00
      472   -0.024572   -0.024572  2+020-+
      393    0.023772    0.023772  202+020
      717    0.023422    0.023422  220+002
       16   -0.022948    0.022948  222000+
      356    0.022771    0.022771  22+0020
      247   -0.021877    0.021877  2++-200
       52   -0.021699    0.021699  220200+
      457   -0.021201    0.021201  2++-+-0
      358   -0.020881    0.020881  2-++020
      179    0.020759    0.020759  202+200
      288   -0.020593   -0.020593  +-+2-+0
      498   -0.020328    0.020328  +-+2020
      148   -0.020224   -0.020224  2-++-+0

 ---------------------------------------
    -DIABATIC STATES IN PROTOTYPES-     
 ---------------------------------------

     STATE:    1
 Group Ref#    Coefficients
     1    1    0.916084
     2    2    0.006507
     3    3   -0.005377

WEIGHT OF LISTED PROTOTYPES:   83.93%

     STATE:    2
 Group Ref#    Coefficients
     1    1    0.006558
     2    2    0.909043
     3    3   -0.000793

WEIGHT OF LISTED PROTOTYPES:   82.64%

     STATE:    3
 Group Ref#    Coefficients
     1    1   -0.005381
     2    2   -0.000788
     3    3    0.915546

WEIGHT OF LISTED PROTOTYPES:   83.83%

     DIRECT MAX. DIABATIZATION FINISHED    
 CPU     0: STEP CPU TIME=     0.24 TOTAL CPU TIME=         15.2 (      0.3 MIN)
 TOTAL WALL CLOCK TIME=         15.2 SECONDS, CPU UTILIZATION IS    99.93%

DIABATS FOR SPIN-ORBIT CALCULATION ARE READY

TRANSITION DIPOLES BETWEEN ADIABATS (in A.U.):

STATE PAIR      X         Y         Z
    1    1 -0.406665 -0.053240  0.671624
    2    1  0.028681  0.044752 -0.117019
    2    2 -0.275217 -0.192423  0.323073
    3    1  0.161729 -0.015203  0.084421
    3    2 -0.011061 -0.071001 -0.004801
    3    3 -0.676113 -0.077387  0.241093


TRANSITION DIPOLES BETWEEN DIABATS (in A.U.):

STATE PAIR      X         Y         Z
    1    1 -0.360672 -0.084958  0.720873
    2    1  0.094816  0.002978 -0.014283
    2    2 -0.729853 -0.070149  0.225305
    3    1 -0.002058 -0.059097  0.004783
    3    2 -0.008768  0.080788 -0.016108
    3    3 -0.267471 -0.167943  0.289612

TRANSITION DIPOLES BETWEEN DIRECT MAX. DIABATS (in A.U.):

STATE PAIR      X         Y         Z
    1    1 -0.360678 -0.084959  0.720873
    2    1  0.094827  0.002978 -0.014270
    2    2 -0.729847 -0.070149  0.225304
    3    1 -0.002057 -0.059100  0.004782
    3    2 -0.008769  0.080787 -0.016108
    3    3 -0.267471 -0.167942  0.289612
 No $TRANST Group Found.
 Quit without doing spin-orbit coupling
 ..... DONE WITH MP2 ENERGY .....
 CPU     0: STEP CPU TIME=     0.00 TOTAL CPU TIME=         15.2 (      0.3 MIN)
 TOTAL WALL CLOCK TIME=         15.2 SECONDS, CPU UTILIZATION IS    99.87%
            100000000  WORDS OF DYNAMIC MEMORY USED
 EXECUTION OF GAMESS TERMINATED NORMALLY Wed Nov 16 19:04:54 2022
 DDI: 715512 bytes (0.7 MB / 0 MWords) used by master data server.

 ----------------------------------------
 CPU timing information for all processes
 ========================================
 0: 14.908 + 0.316 = 15.224
 ----------------------------------------
Note: The following floating-point exceptions are signalling: IEEE_DENORMAL
 ddikick.x: exited gracefully.
unset echo
----- accounting info -----
Files used on the master node io002 were:
-rw-r--r-- 1 bsonghao nooijen   20716 Nov 16 19:04 /scratch/bsonghao/nh3_diabatization_2d_at_mode_7_8_dist-0.2_-0.8.F05
-rw-r--r-- 1 bsonghao nooijen  363520 Nov 16 19:04 /scratch/bsonghao/nh3_diabatization_2d_at_mode_7_8_dist-0.2_-0.8.F09
-rw-r--r-- 1 bsonghao nooijen 1995920 Nov 16 19:04 /scratch/bsonghao/nh3_diabatization_2d_at_mode_7_8_dist-0.2_-0.8.F10
-rw-r--r-- 1 bsonghao nooijen  131264 Nov 16 19:04 /scratch/bsonghao/nh3_diabatization_2d_at_mode_7_8_dist-0.2_-0.8.F13
-rw-r--r-- 1 bsonghao nooijen  180312 Nov 16 19:04 /scratch/bsonghao/nh3_diabatization_2d_at_mode_7_8_dist-0.2_-0.8.F15
-rw-r--r-- 1 bsonghao nooijen       0 Nov 16 19:04 /scratch/bsonghao/nh3_diabatization_2d_at_mode_7_8_dist-0.2_-0.8.F16
-rw-r--r-- 1 bsonghao nooijen    9808 Nov 16 19:04 /scratch/bsonghao/nh3_diabatization_2d_at_mode_7_8_dist-0.2_-0.8.F70
-rw-r--r-- 1 bsonghao nooijen    9808 Nov 16 19:04 /scratch/bsonghao/nh3_diabatization_2d_at_mode_7_8_dist-0.2_-0.8.F71
-rw-r--r-- 1 bsonghao nooijen   19608 Nov 16 19:04 /scratch/bsonghao/nh3_diabatization_2d_at_mode_7_8_dist-0.2_-0.8.F72
-rw-r--r-- 1 bsonghao nooijen   19608 Nov 16 19:04 /scratch/bsonghao/nh3_diabatization_2d_at_mode_7_8_dist-0.2_-0.8.F73
-rw-r--r-- 1 bsonghao nooijen 1920824 Nov 16 19:04 /scratch/bsonghao/nh3_diabatization_2d_at_mode_7_8_dist-0.2_-0.8.F74
-rw-r--r-- 1 bsonghao nooijen       0 Nov 16 19:04 /scratch/bsonghao/nh3_diabatization_2d_at_mode_7_8_dist-0.2_-0.8.F75
-rw-r--r-- 1 bsonghao nooijen   58848 Nov 16 19:04 /scratch/bsonghao/nh3_diabatization_2d_at_mode_7_8_dist-0.2_-0.8.F76
-rw-r--r-- 1 bsonghao nooijen       0 Nov 16 19:04 /scratch/bsonghao/nh3_diabatization_2d_at_mode_7_8_dist-0.2_-0.8.F77
-rw-r--r-- 1 bsonghao nooijen    1864 Nov 16 19:04 /scratch/bsonghao/nh3_diabatization_2d_at_mode_7_8_dist-0.2_-0.8.F78
-rw-r--r-- 1 bsonghao nooijen   39208 Nov 16 19:04 /scratch/bsonghao/nh3_diabatization_2d_at_mode_7_8_dist-0.2_-0.8.F79
-rw-r--r-- 1 bsonghao nooijen     104 Nov 16 19:04 /scratch/bsonghao/nh3_diabatization_2d_at_mode_7_8_dist-0.2_-0.8.F80
-rw-r--r-- 1 bsonghao nooijen   13472 Nov 16 19:04 /scratch/bsonghao/nh3_diabatization_2d_at_mode_7_8_dist-0.2_-0.8.F81
-rw-r--r-- 1 bsonghao nooijen      16 Nov 16 19:04 /scratch/bsonghao/nh3_diabatization_2d_at_mode_7_8_dist-0.2_-0.8.F82
-rw-r--r-- 1 bsonghao nooijen   19216 Nov 16 19:04 /scratch/bsonghao/nh3_diabatization_2d_at_mode_7_8_dist-0.2_-0.8.F83
-rw-r--r-- 1 bsonghao nooijen   29712 Nov 16 19:04 /scratch/bsonghao/nh3_diabatization_2d_at_mode_7_8_dist-0.2_-0.8.F84
-rw-r--r-- 1 bsonghao nooijen  401576 Nov 16 19:04 /scratch/bsonghao/nh3_diabatization_2d_at_mode_7_8_dist-0.2_-0.8.F85
-rw-r--r-- 1 bsonghao nooijen  903672 Nov 16 19:04 /scratch/bsonghao/nh3_diabatization_2d_at_mode_7_8_dist-0.2_-0.8.F86
-rw-r--r-- 1 bsonghao nooijen     656 Nov 16 19:04 /scratch/bsonghao/nh3_diabatization_2d_at_mode_7_8_dist-0.2_-0.8.F87
-rw-r--r-- 1 bsonghao nooijen   40528 Nov 16 19:04 /scratch/bsonghao/nh3_diabatization_2d_at_mode_7_8_dist-0.2_-0.8.F88
-rw-r--r-- 1 bsonghao nooijen     240 Nov 16 19:04 /scratch/bsonghao/nh3_diabatization_2d_at_mode_7_8_dist-0.2_-0.8.F89
-rw-r--r-- 1 bsonghao nooijen       0 Nov 16 19:04 /scratch/bsonghao/nh3_diabatization_2d_at_mode_7_8_dist-0.2_-0.8.F90
-rw-r--r-- 1 bsonghao nooijen   13760 Nov 16 19:04 /scratch/bsonghao/nh3_diabatization_2d_at_mode_7_8_dist-0.2_-0.8.F91
-rw-r--r-- 1 bsonghao nooijen   22776 Nov 16 19:04 /scratch/bsonghao/nh3_diabatization_2d_at_mode_7_8_dist-0.2_-0.8.F92
-rw-r--r-- 1 bsonghao nooijen   23168 Nov 16 19:04 /scratch/bsonghao/nh3_diabatization_2d_at_mode_7_8_dist-0.2_-0.8.F93
-rw-r--r-- 1 bsonghao nooijen   22776 Nov 16 19:04 /scratch/bsonghao/nh3_diabatization_2d_at_mode_7_8_dist-0.2_-0.8.F94
-rw-r--r-- 1 bsonghao nooijen   13760 Nov 16 19:04 /scratch/bsonghao/nh3_diabatization_2d_at_mode_7_8_dist-0.2_-0.8.F95
-rw-r--r-- 1 bsonghao nooijen   29440 Nov 16 19:04 /scratch/bsonghao/nh3_diabatization_2d_at_mode_7_8_dist-0.2_-0.8.F96
-rw-r--r-- 1 bsonghao nooijen    1184 Nov 16 19:04 /scratch/bsonghao/nh3_diabatization_2d_at_mode_7_8_dist-0.2_-0.8.F97
-rw-r--r-- 1 bsonghao nooijen    9808 Nov 16 19:04 /scratch/bsonghao/nh3_diabatization_2d_at_mode_7_8_dist-0.2_-0.8.F98
-rw-r--r-- 1 bsonghao nooijen   30264 Nov 16 19:04 /scratch/bsonghao/nh3_diabatization_2d_at_mode_7_8_dist-0.2_-0.8.F99
ls: No match.
ls: No match.
ls: No match.
Wed 16 Nov 2022 07:04:57 PM EST
0.281u 0.050s 0:18.60 1.7%	0+0k 48+224io 0pf+0w
