----- GAMESS execution script 'rungms' -----
This job is running on host io002
under operating system Linux at Wed 16 Nov 2022 08:28:53 PM EST
Available scratch disk space (Kbyte units) at beginning of the job is
Filesystem       1K-blocks       Used   Available Use% Mounted on
/dev/sdc1      15378471580 3278917120 11318349060  23% /scratch
GAMESS temporary binary files will be written to /scratch/bsonghao
GAMESS supplementary output files will be written to /home/bsonghao/.gamess_ascii_files/267638
Copying input file nh3_diabatization_2d_at_mode_7_8_dist0.8_0.7.inp to your run's scratch directory...
cp nh3_diabatization_2d_at_mode_7_8_dist0.8_0.7.inp /scratch/bsonghao/nh3_diabatization_2d_at_mode_7_8_dist0.8_0.7.F05
unset echo
/home/bjb2chen/gamess/ddikick.x /home/bjb2chen/gamess/gamess.00.x nh3_diabatization_2d_at_mode_7_8_dist0.8_0.7 -ddi 1 1 io002 -scr /scratch/bsonghao

 Distributed Data Interface kickoff program.
 Initiating 1 compute processes on 1 nodes to run the following command:
 /home/bjb2chen/gamess/gamess.00.x nh3_diabatization_2d_at_mode_7_8_dist0.8_0.7 

          ******************************************************
          *         GAMESS VERSION = 02 AUG 2018 (R2)         *
          *             FROM IOWA STATE UNIVERSITY             *
          * M.W.SCHMIDT, K.K.BALDRIDGE, J.A.BOATZ, S.T.ELBERT, *
          *   M.S.GORDON, J.H.JENSEN, S.KOSEKI, N.MATSUNAGA,   *
          *          K.A.NGUYEN, S.J.SU, T.L.WINDUS,           *
          *       TOGETHER WITH M.DUPUIS, J.A.MONTGOMERY       *
          *         J.COMPUT.CHEM.  14, 1347-1363(1993)        *
          **************** 64 BIT LINUX VERSION ****************

  SINCE 1993, STUDENTS AND POSTDOCS WORKING AT IOWA STATE UNIVERSITY
  AND ALSO IN THEIR VARIOUS JOBS AFTER LEAVING ISU HAVE MADE IMPORTANT
  CONTRIBUTIONS TO THE CODE:
     IVANA ADAMOVIC, CHRISTINE AIKENS, YURI ALEXEEV, POOJA ARORA,
     ANDREY ASADCHEV, ROB BELL, PRADIPTA BANDYOPADHYAY, JONATHAN BENTZ,
     BRETT BODE, KURT BRORSEN, CALEB CARLIN, GALINA CHABAN, WEI CHEN,
     CHEOL HO CHOI, PAUL DAY, ALBERT DEFUSCO, NUWAN DESILVA, TIM DUDLEY,
     DMITRI FEDOROV, ALEX FINDLATER, GRAHAM FLETCHER, MARK FREITAG,
     KURT GLAESEMANN, ANASTASIA GUININA,
     DAN KEMP, GRANT MERRILL, NORIYUKI MINEZAWA, JONATHAN MULLIN,
     TAKESHI NAGATA, SEAN NEDD, HEATHER NETZLOFF, BOSILJKA NJEGIC, RYAN OLSON,
     MIKE PAK, BUU PHAM,
     SPENCER PRUITT, LUKE ROSKOP, JIM SHOEMAKER, LYUDMILA SLIPCHENKO,
     TONY SMITH, SAROM SOK LEANG, JIE SONG, TETSUYA TAKETSUGU, SIMON WEBB,
     PENG XU, SOOHAENG YOO, FEDERICO ZAHARIEV

  ADDITIONAL CODE HAS BEEN PROVIDED BY COLLABORATORS IN OTHER GROUPS:
     IOWA STATE UNIVERSITY:
          JOE IVANIC, AARON WEST, LAIMUTIS BYTAUTAS, KLAUS RUEDENBERG
     UNIVERSITY OF TOKYO: KIMIHIKO HIRAO, TAKAHITO NAKAJIMA,
          TAKAO TSUNEDA, MUNEAKI KAMIYA, SUSUMU YANAGISAWA,
          KIYOSHI YAGI, MAHITO CHIBA, SEIKEN TOKURA, NAOAKI KAWAKAMI
     UNIVERSITY OF AARHUS: FRANK JENSEN
     UNIVERSITY OF IOWA: VISVALDAS KAIRYS, HUI LI
     NATIONAL INST. OF STANDARDS AND TECHNOLOGY: WALT STEVENS, DAVID GARMER
     UNIVERSITY OF PISA: BENEDETTA MENNUCCI, JACOPO TOMASI
     UNIVERSITY OF MEMPHIS: HENRY KURTZ, PRAKASHAN KORAMBATH
     UNIVERSITY OF ALBERTA: TOBY ZENG, MARIUSZ KLOBUKOWSKI
     UNIVERSITY OF NEW ENGLAND: MARK SPACKMAN
     MIE UNIVERSITY: HIROAKI UMEDA
     NAT. INST. OF ADVANCED INDUSTRIAL SCIENCE AND TECHNOLOGY: KAZUO KITAURA
     MICHIGAN STATE UNIVERSITY:
          KAROL KOWALSKI, MARTA WLOCH, JEFFREY GOUR, JESSE LUTZ,
          WEI LI, JUN SHEN, J. EMILIANO DEUSTUA, PIOTR PIECUCH
     UNIVERSITY OF MINNESOTA:
          YINAN SHU
     UNIVERSITY OF SILESIA: MONIKA MUSIAL, STANISLAW KUCHARSKI
     FACULTES UNIVERSITAIRES NOTRE-DAME DE LA PAIX:
          OLIVIER QUINET, BENOIT CHAMPAGNE
     UNIVERSITY OF CALIFORNIA - SANTA BARBARA: BERNARD KIRTMAN
     INSTITUTE FOR MOLECULAR SCIENCE:
          KAZUYA ISHIMURA, MICHIO KATOUDA, AND SHIGERU NAGASE
     UNIVERSITY OF NOTRE DAME: ANNA POMOGAEVA, DAN CHIPMAN
     KYUSHU UNIVERSITY:
          HARUYUKI NAKANO,
          FENG LONG GU, JACEK KORCHOWIEC, MARCIN MAKOWSKI, AND YURIKO AOKI,
          HIROTOSHI MORI AND EISAKU MIYOSHI
     PENNSYLVANIA STATE UNIVERSITY:
          TZVETELIN IORDANOV, CHET SWALINA, JONATHAN SKONE,
          SHARON HAMMES-SCHIFFER
     WASEDA UNIVERSITY:
          MASATO KOBAYASHI, TOMOKO AKAMA, TSUGUKI TOUMA,
          TAKESHI YOSHIKAWA, YASUHIRO IKABATA, JUNJI SEINO,
          YUYA NAKAJIMA, HIROMI NAKAI
     NANJING UNIVERSITY: SHUHUA LI
     UNIVERSITY OF NEBRASKA:
          PEIFENG SU, DEJUN SI, NANDUN THELLAMUREGE, YALI WANG, HUI LI
     UNIVERSITY OF ZURICH: ROBERTO PEVERATI, KIM BALDRIDGE
     N. COPERNICUS UNIVERSITY AND JACKSON STATE UNIVERSITY:
          MARIA BARYSZ
     UNIVERSITY OF COPENHAGEN: Jimmy Kromann, CASPER STEINMANN
     TOKYO INSTITUTE OF TECHNOLOGY: HIROYA NAKATA
     NAGOYA UNIVERSITY: YOSHIO NISHIMOTO, STEPHAN IRLE
     MOSCOW STATE UNIVERSITY: VLADIMIR MIRONOV

 EXECUTION OF GAMESS BEGUN Wed Nov 16 20:28:54 2022

            ECHO OF THE FIRST FEW INPUT CARDS -
 INPUT CARD> $system kdiag=3 mwords=100 memddi=1000 parall=.t. $end                         
 INPUT CARD> $contrl runtyp=energy ispher=1 $end                                            
 INPUT CARD> $contrl icut=9 itol=20 inttyp=rysquad qmttol=1.0d-05 nosym=1 $end              
 INPUT CARD> $scf    npunch=2 conv=1.0d-06 dirscf=.t.      $end                             
 INPUT CARD> $contrl scftyp=mcscf  mult=2 maxit=200 icharg=1 mplevl=2 $end                  
 INPUT CARD> $guess  guess=moread norb=29 purify=.t. $end                                   
 INPUT CARD> $basis  gbasis=ccd $end                                                        
 INPUT CARD> $mcscf  cistep=gmcci fullnr=.t. finci=mos                                      
 INPUT CARD>         acurcy=1.d-6 maxit=100 $end                                            
 INPUT CARD> $trans  dirtrf=.t. $end                                                        
 INPUT CARD> $mrmp   mrpt=gmcpt rdvecs=.f. $end                                             
 INPUT CARD> $gmcpt  nmofzc=0 nmodoc=1 nmoact=7 nelact=7 stsym(1)=A                         
 INPUT CARD>         reftyp=ormas nspace=1 mstart(1)=2 mine(1)=7 maxe(1)=7                  
 INPUT CARD>         kstate(1)=1,1,1                                                        
 INPUT CARD>         wstate(1)=1,1,1                                                        
 INPUT CARD>         iwgt=0 thrwgt=-1.0 krot=.f. kszdoe=.f. knospn=.f.                      
 INPUT CARD>         thrde=-1.0 edshft=0.02 $end                                            
 INPUT CARD> $data                                                                          
 INPUT CARD> NH3+ 3 states calculation at NH3 structure.                                    
 INPUT CARD> c1                                                                             
 INPUT CARD>N 7.0 -0.043602426 -0.04983122400000001 -0.1693810622                           
 INPUT CARD>H 1.0 0.19676734100000004 1.1277659528 0.34695707310000007                      
 INPUT CARD>H 1.0 -0.41463520900000006 -1.0191501858 -0.018814740900000015                  
 INPUT CARD>H 1.0 0.823735246 0.583805966 0.4412441411                                      
 INPUT CARD>$end                                                                            
 INPUT CARD>--- OPTIMIZED RHF      MO-S --- GENERATED AT Mon Nov 14 16:47:08 2022           
 INPUT CARD>E=      -56.3825050291, E(NUC)=   11.8429239490                                 
 INPUT CARD> $VEC                                                                           
 INPUT CARD> 1  1-1.00134066E+00-2.25158504E-03 3.44925845E-03 0.00000000E+00 0.00000000E+00
 INPUT CARD> 1  2-2.13170927E-03 0.00000000E+00 0.00000000E+00 6.57129898E-04-6.87950443E-05
 INPUT CARD> 1  3-6.87950443E-05 1.37590089E-04 0.00000000E+00 0.00000000E+00 0.00000000E+00
 INPUT CARD> 1  4 3.25502815E-04-4.84772356E-04 3.62525460E-04-6.27912517E-04-3.45956485E-04
 INPUT CARD> 1  5 3.25502815E-04-4.84772356E-04 3.62525460E-04 6.27912517E-04-3.45956485E-04
 INPUT CARD> 1  6 3.25502815E-04-4.84772356E-04-7.25050921E-04 0.00000000E+00-3.45956485E-04
 INPUT CARD> 2  1 1.31286642E-02-4.05911371E-01-2.82090992E-01 0.00000000E+00 0.00000000E+00
 INPUT CARD> 2  2-7.71489043E-02 0.00000000E+00 0.00000000E+00 9.73717494E-03 6.62450916E-04
 INPUT CARD> 2  3 6.62450916E-04-1.32490183E-03 0.00000000E+00 0.00000000E+00 0.00000000E+00
 INPUT CARD> 2  4-1.96090317E-01-1.96656153E-02-1.74855877E-02 3.02859263E-02 8.68214399E-03
 INPUT CARD> 2  5-1.96090317E-01-1.96656153E-02-1.74855877E-02-3.02859263E-02 8.68214399E-03
 INPUT CARD> 2  6-1.96090317E-01-1.96656153E-02 3.49711754E-02 0.00000000E+00 8.68214399E-03
 INPUT CARD> 3  1 0.00000000E+00 0.00000000E+00 0.00000000E+00 4.48608762E-01 0.00000000E+00
 INPUT CARD> 3  2 0.00000000E+00 2.18692520E-01 0.00000000E+00 0.00000000E+00 1.30198027E-02
 INPUT CARD> 3  3-1.30198027E-02 0.00000000E+00 0.00000000E+00 2.71832968E-02 0.00000000E+00
 INPUT CARD> 3  4-1.85332726E-01-7.03958951E-02 8.47929477E-03 1.95242443E-02 8.32835058E-03
 INPUT CARD> 3  5-1.85332726E-01-7.03958951E-02 8.47929477E-03-1.95242443E-02 8.32835058E-03
 INPUT CARD> 3  6 3.70665453E-01 1.40791790E-01-2.53376884E-02 0.00000000E+00-1.66567012E-02
 INPUT CARD> 4  1 0.00000000E+00 0.00000000E+00 0.00000000E+00 0.00000000E+00 4.48608762E-01
 INPUT CARD> 4  2 0.00000000E+00 0.00000000E+00 2.18692520E-01 0.00000000E+00 0.00000000E+00
 INPUT CARD> 4  3 0.00000000E+00 0.00000000E+00-1.50339731E-02 0.00000000E+00 2.71832968E-02
 INPUT CARD> 4  4 3.21005698E-01 1.21929267E-01 1.95242443E-02-1.40653607E-02-1.44251263E-02
  100000000 WORDS OF MEMORY AVAILABLE

     BASIS OPTIONS
     -------------
     GBASIS=CCD          IGAUSS=       0      POLAR=NONE    
     NDFUNC=       0     NFFUNC=       0     DIFFSP=       F
     NPFUNC=       0      DIFFS=       F     BASNAM=        


     RUN TITLE
     ---------
  NH3+ 3 states calculation at NH3 structure.                                    

 THE POINT GROUP OF THE MOLECULE IS C1      
 THE ORDER OF THE PRINCIPAL AXIS IS     0

 ATOM      ATOMIC                      COORDINATES (BOHR)
           CHARGE         X                   Y                   Z
 N           7.0    -0.0823966375       -0.0941673590       -0.3200837951
 H           1.0     0.3718363578        2.1311686291        0.6556537977
 H           1.0    -0.7835469299       -1.9259145915       -0.0355547048
 H           1.0     1.5566339014        1.1032333057        0.8338305204

          INTERNUCLEAR DISTANCES (ANGS.)
          ------------------------------

                1 N          2 H          3 H          4 H     

   1 N       0.0000000    1.3080970 *  1.0487682 *  1.2355703 *
   2 H       1.3080970 *  0.0000000    2.2620458 *  0.8353869 *
   3 H       1.0487682 *  2.2620458 *  0.0000000    2.0771817 *
   4 H       1.2355703 *  0.8353869 *  2.0771817 *  0.0000000  

  * ... LESS THAN  3.000


     ATOMIC BASIS SET
     ----------------
 THE CONTRACTED PRIMITIVE FUNCTIONS HAVE BEEN UNNORMALIZED
 THE CONTRACTED BASIS FUNCTIONS ARE NOW NORMALIZED TO UNITY

  SHELL TYPE  PRIMITIVE        EXPONENT          CONTRACTION COEFFICIENT(S)

 N         

      1   S       1          9046.0000000    0.000699617413
      1   S       2          1357.0000000    0.005386054630
      1   S       3           309.3000000    0.027391021189
      1   S       4            87.7300000    0.103150591982
      1   S       5            28.5600000    0.278570663317
      1   S       6            10.2100000    0.448294849454
      1   S       7             3.8380000    0.278085928395
      1   S       8             0.7466000    0.015431561233

      2   S       9          9046.0000000   -0.000304990096
      2   S      10          1357.0000000   -0.002408026379
      2   S      11           309.3000000   -0.011944448725
      2   S      12            87.7300000   -0.048925992909
      2   S      13            28.5600000   -0.134472724725
      2   S      14            10.2100000   -0.315112577700
      2   S      15             3.8380000   -0.242857832550
      2   S      16             0.7466000    1.094382206854

      3   S      17             0.2248000    1.000000000000

      4   P      18            13.5500000    0.058905676772
      4   P      19             2.9170000    0.320461106714
      4   P      20             0.7973000    0.753042061792

      5   P      21             0.2185000    1.000000000000

      6   D      22             0.8170000    1.000000000000

 H         

      7   S      23            13.0100000    0.033498726390
      7   S      24             1.9620000    0.234800801174
      7   S      25             0.4446000    0.813682957883

      8   S      26             0.1220000    1.000000000000

      9   P      27             0.7270000    1.000000000000

 H         

     10   S      28            13.0100000    0.033498726390
     10   S      29             1.9620000    0.234800801174
     10   S      30             0.4446000    0.813682957883

     11   S      31             0.1220000    1.000000000000

     12   P      32             0.7270000    1.000000000000

 H         

     13   S      33            13.0100000    0.033498726390
     13   S      34             1.9620000    0.234800801174
     13   S      35             0.4446000    0.813682957883

     14   S      36             0.1220000    1.000000000000

     15   P      37             0.7270000    1.000000000000

 TOTAL NUMBER OF BASIS SET SHELLS             =   15
 NUMBER OF CARTESIAN GAUSSIAN BASIS FUNCTIONS =   30
 NOTE: THIS RUN WILL RESTRICT THE MO VARIATION SPACE TO SPHERICAL HARMONICS.
 THE NUMBER OF ORBITALS KEPT IN THE VARIATIONAL SPACE WILL BE PRINTED LATER.
 NUMBER OF ELECTRONS                          =    9
 CHARGE OF MOLECULE                           =    1
 SPIN MULTIPLICITY                            =    2
 NUMBER OF OCCUPIED ORBITALS (ALPHA)          =    5
 NUMBER OF OCCUPIED ORBITALS (BETA )          =    4
 TOTAL NUMBER OF ATOMS                        =    4
 THE NUCLEAR REPULSION ENERGY IS       10.4839174452

     $CONTRL OPTIONS
     ---------------
 SCFTYP=MCSCF        RUNTYP=ENERGY       EXETYP=RUN     
 MPLEVL=       2     CITYP =NONE         CCTYP =NONE         VBTYP =NONE    
 DFTTYP=NONE         TDDFT =NONE    
 MULT  =       2     ICHARG=       1     NZVAR =       0     COORD =UNIQUE  
 PP    =NONE         RELWFN=NONE         LOCAL =NONE         NUMGRD=       F
 ISPHER=       1     NOSYM =       1     MAXIT =     200     UNITS =ANGS    
 PLTORB=       F     MOLPLT=       F     AIMPAC=       F     FRIEND=        
 NPRINT=       7     IREST =       0     GEOM  =INPUT   
 NORMF =       0     NORMP =       0     ITOL  =      20     ICUT  =       9
 INTTYP=RYSQUAD      GRDTYP=BEST         QMTTOL= 1.0E-05

     $SYSTEM OPTIONS
     ---------------
  REPLICATED MEMORY=   100000000 WORDS (ON EVERY NODE).
 DISTRIBUTED MEMDDI=        1000 MILLION WORDS IN AGGREGATE,
 MEMDDI DISTRIBUTED OVER   1 PROCESSORS IS  1000000000 WORDS/PROCESSOR.
 TOTAL MEMORY REQUESTED ON EACH PROCESSOR=  1100000000 WORDS.
 TIMLIM=      525600.00 MINUTES, OR     365.0 DAYS.
 PARALL= T  BALTYP=  DLB     KDIAG=    3  COREFL= F
 MXSEQ2=     300 MXSEQ3=     150  mem10=         0

          ----------------
          PROPERTIES INPUT
          ----------------

     MOMENTS            FIELD           POTENTIAL          DENSITY
 IEMOM =       1   IEFLD =       0   IEPOT =       0   IEDEN =       0
 WHERE =COMASS     WHERE =NUCLEI     WHERE =NUCLEI     WHERE =NUCLEI  
 OUTPUT=BOTH       OUTPUT=BOTH       OUTPUT=BOTH       OUTPUT=BOTH    
 IEMINT=       0   IEFINT=       0                     IEDINT=       0
                                                       MORB  =       0

     -------------------------------
     INTEGRAL TRANSFORMATION OPTIONS
     -------------------------------
     NWORD  =            0
     CUTOFF = 1.0E-09     MPTRAN =       0
     DIRTRF =       T     AOINTS =DUP     

          ----------------------
          MCSCF INPUT PARAMETERS
          ----------------------
 CONVERGER SELECTION: FOCAS = F  SOSCF = F  FULLNR = T  QUD = F  JACOBI = F
 SECULAR EQUATION METHOD CISTEP = GMCCI   
 --- GENERAL INPUT OPTIONS:
 MAXIT =     100  MICIT =       1  ACURCY= 1.000E-06
 DAMP  =   0.000  CANONC=       T  ENGTOL= 1.000E-10
 EKT   =       F  NPUNCH=       2  NWORD =         0
 REGENERATE CI AFTER CONVERGENCE = NONE    
 DIABATIZATION AFTER CONVERGENCE =        F
 --- INPUT FOR FULLNR CONVERGER:
 METHOD=DM2       FORS  =       F  DROPC =       T
 LINSER=       F  FCORE =       F  NORB  =      30

          ----------------------
          INTEGRAL INPUT OPTIONS
          ----------------------
 NOPK  =       1 NORDER=       0 SCHWRZ=       T

 ------------------------------------------
 MULTIREFERENCE PERTURBATION THEORY CONTROL
 ------------------------------------------
 MRPT=GMCPT    READ CONVERGED MCSCF VECTORS= F


     ------------------------------------------
     THE POINT GROUP IS C1 , NAXIS= 1, ORDER= 1
     ------------------------------------------

 -- VARIATIONAL SPACE WILL BE RESTRICTED TO PURE SPHERICAL HARMONICS ONLY --
 AFTER EXCLUDING CONTAMINANT COMBINATIONS FROM THE CARTESIAN GAUSSIAN BASIS
 SET, THE NUMBER OF SPHERICAL HARMONICS KEPT IN THE VARIATION SPACE IS   29

     DIMENSIONS OF THE SYMMETRY SUBSPACES ARE
 A   =   29

 ..... DONE SETTING UP THE RUN .....
 CPU     0: STEP CPU TIME=     0.03 TOTAL CPU TIME=          0.0 (      0.0 MIN)
 TOTAL WALL CLOCK TIME=          0.0 SECONDS, CPU UTILIZATION IS    75.00%

          ********************
          1 ELECTRON INTEGRALS
          ********************
 TIME TO DO   DIPOLE INTEGRALS=      0.01
 ...... END OF ONE-ELECTRON INTEGRALS ......
 CPU     0: STEP CPU TIME=     0.01 TOTAL CPU TIME=          0.0 (      0.0 MIN)
 TOTAL WALL CLOCK TIME=          0.1 SECONDS, CPU UTILIZATION IS    80.00%

          -------------
          GUESS OPTIONS
          -------------
          GUESS =MOREAD            NORB  =      29          NORDER=       0
          MIX   =       F          PRTMO =       F          PUNMO =       F
          TOLZ  = 1.0E-08          TOLE  = 1.0E-05
          SYMDEN=       F          PURIFY=       T

 INITIAL GUESS ORBITALS GENERATED BY MOREAD   ROUTINE.

 STATISTICS FOR GENERATION OF SYMMETRY ORBITAL -Q- MATRIX
 NUMBER OF CARTESIAN ATOMIC ORBITALS=         30
 NUMBER OF SPHERICAL CONTAMINANTS DROPPED=     1
 NUMBER OF LINEARLY DEPENDENT MOS DROPPED=     0
 TOTAL NUMBER OF MOS IN VARIATION SPACE=      29
 ORBITAL PURIFICATION WILL OCCUR

 SYMMETRIES FOR INITIAL GUESS ORBITALS FOLLOW.   BOTH SET(S).
     5 ORBITALS ARE OCCUPIED (    1 CORE ORBITALS).
     1=A        2=A        3=A        4=A        5=A        6=A        7=A   
     8=A        9=A       10=A       11=A       12=A       13=A       14=A   
    15=A       16=A       17=A       18=A       19=A       20=A       21=A   
    22=A       23=A       24=A       25=A       26=A       27=A       28=A   
    29=A   
 ...... END OF INITIAL ORBITAL SELECTION ......
 CPU     0: STEP CPU TIME=     0.00 TOTAL CPU TIME=          0.0 (      0.0 MIN)
 TOTAL WALL CLOCK TIME=          0.1 SECONDS, CPU UTILIZATION IS    80.00%

                    ----------------------
                    AO INTEGRAL TECHNOLOGY
                    ----------------------
     S,P,L SHELL ROTATED AXIS INTEGRALS, REPROGRAMMED BY
        KAZUYA ISHIMURA (IMS) AND JOSE SIERRA (SYNSTAR).
     S,P,D,L SHELL ROTATED AXIS INTEGRALS PROGRAMMED BY
        KAZUYA ISHIMURA (INSTITUTE FOR MOLECULAR SCIENCE).
     S,P,D,F,G SHELL TO TOTAL QUARTET ANGULAR MOMENTUM SUM 5,
        ERIC PROGRAM BY GRAHAM FLETCHER (ELORET AND NASA ADVANCED
        SUPERCOMPUTING DIVISION, AMES RESEARCH CENTER).
     S,P,D,F,G,L SHELL GENERAL RYS QUADRATURE PROGRAMMED BY
        MICHEL DUPUIS (PACIFIC NORTHWEST NATIONAL LABORATORY).

          --------------------
          2 ELECTRON INTEGRALS
          --------------------

 DIRECT SCF METHOD SKIPS INTEGRAL STORAGE ON DISK.
 DIRECT TRANSFORMATION SKIPS AO INTEGRAL STORAGE ON DISK.
  ...... END OF TWO-ELECTRON INTEGRALS .....
 STEP CPU TIME =     0.02 TOTAL CPU TIME =          0.1 (      0.0 MIN)
 TOTAL WALL CLOCK TIME=          0.1 SECONDS, CPU UTILIZATION IS    85.71%
 DDI: Creating Array [0] - 900 x 36 = 32400 words.
 DDI: Creating Array [1] - 21 x 288 = 6048 words.
 DDI: Creating Array [2] - 36 x 36 = 1296 words.
 DDI: Creating Array [3] - 465 x 36 = 16740 words.

          -----------------
          MCSCF CALCULATION
          -----------------

 ----- NUCLEAR ENERGY ----- =        10.4839174452

     -------------------------------------------------
     GMC-PT/GMC-QDPT or general MCSCF input parameters
     -------------------------------------------------
 # of frozen core orbs. =         0 ->         0
 # of doubly occ. orbs. =         1
 # of active      orbs. =         7
 # of virtual     orbs. =        21
 # of active electrons  =         7
 # of states in CI      =         3
 Highest state in CI    =         3
 kstate =  1 1 1
 avecoe =  0.333 0.333 0.333
 State symmetry           = A           
 Assigned symmetry number = 1

 <<<Act. MO sym.: 1111111

 <<<Division of 1-ext.:  0
 <<<Division of 2-ext.:  0

 *** Reference space

 Reference type: ORMAS (= Occupation restricted multiple active space)
 # of orbitals          =  7
 # of minimum electrons =  7
 # of maximum electrons =  7
 State symmetry    =    1 (input)
 2*Sz              =    1 (input)
 Spin multiplicity =    2 (input)
 Dimension of reference space =      1225  (from      3432 walks)

 Dimension of reference space =      1225  (from      1225 walks)

 <<<Ionized spaces for Ref-CI:
      0:         1225 /   -1-0:         1960 /  0-1-0:         2891

 EVALUATING EXCHANGE INTEGRALS FOR DIRECT INTEGRAL TRANSFORMATION
 SCHWARZ INEQUALITY OVERHEAD:       465 INTEGRALS, T=        0.00

     --------------------------------------------
     PARTIAL TWO ELECTRON INTEGRAL TRANSFORMATION
     --------------------------------------------

 NUMBER OF CORE MOLECULAR ORBITALS     =    1
 NUMBER OF OCCUPIED MOLECULAR ORBITALS =    8
 TOTAL NUMBER OF MOLECULAR ORBITALS    =   29
 TOTAL NUMBER OF ATOMIC ORBITALS       =   30
 THRESHOLD FOR KEEPING TRANSFORMED 2E- INTEGRALS = 1.000E-09

 -------------------------------     ------------------------------
 DISTRIBUTED DATA TRANSFORMATION     PROGRAM WRITTEN BY G. FLETCHER
 -------------------------------     ------------------------------

 THE DISTRIBUTED MEMORY REQUIRED FOR THIS STEP IS MEMDDI=         1 MWORDS
 CREATING DISTRIBUTED STORAGE FOR [VIR OCC|VIR OCC] INTEGRALS
 CREATING DISTRIBUTED STORAGE FOR [VIR OCC|OCC OCC] INTEGRALS
 CREATING DISTRIBUTED STORAGE FOR [OCC OCC|OCC OCC] INTEGRALS
 CREATING DISTRIBUTED STORAGE FOR [VIR VIR|OCC OCC] INTEGRALS
 FOR    1 PROCESSORS, THE REPLICATED MEMORY NEEDED IS       73700 WORDS.
 SCHWARZ INEQUALITY OVERHEAD:       465 INTEGRALS, T=        0.01

      DIRECT 4-INDEX TRANSFORMATION 
      SCHWARZ INEQUALITY TEST SKIPPED          0 INTEGRAL BLOCKS
 ----- FROZEN CORE ENERGY =       -47.4065729675
 ... END OF INTEGRAL TRANSFORMATION ...
 CPU     0: STEP CPU TIME=     0.23 TOTAL CPU TIME=          0.3 (      0.0 MIN)
 TOTAL WALL CLOCK TIME=          0.3 SECONDS, CPU UTILIZATION IS   100.00%

     --------------------------------     -----------------------------
     MCHF NEWTON-RAPHSON OPTIMIZATION     CODE WRITTEN BY MICHEL DUPUIS
     --------------------------------     -----------------------------
     PARALLEL VERSION WRITTEN BY G. FLETCHER (ELORET)
     NASA ADVANCED SUPERCOMPUTING DIVISION, AMES RESEARCH CENTER

 NUMBER OF INDEPENDENT ORBITAL ROTATION PARAMETERS =   175
 ..... DONE SOLVING NEWTON-RAPHSON EQUATIONS .....
 CPU     0: STEP CPU TIME=     0.93 TOTAL CPU TIME=          1.2 (      0.0 MIN)
 TOTAL WALL CLOCK TIME=          1.2 SECONDS, CPU UTILIZATION IS   100.00%
 ..... DONE WITH NTN-RPH ORBITAL ROTATIONS ..... 
 CPU     0: STEP CPU TIME=     0.00 TOTAL CPU TIME=          1.2 (      0.0 MIN)
 TOTAL WALL CLOCK TIME=          1.2 SECONDS, CPU UTILIZATION IS   100.00%
 MAXIMUM MEMORY USED BY NTN-RPH CODE WAS     57645 WORDS.

 ITER     TOTAL ENERGY      DEL(E)  LAGRANGIAN ASYMMETRY   SQCDF  MICIT   DAMP
   1      -55.441926873 -0.441926873  0.132217    9    3 1.706E-01  1   0.0000
   2      -55.596896298 -0.154969425  0.037964   11    6 2.534E-01  1   0.0000
   3      -55.629337319 -0.032441021  0.012972   11    6 2.914E-01  1   0.0000
   4      -55.647402497 -0.018065177  0.006441   13    7 6.646E-02  1   0.0099
   5      -55.650688604 -0.003286107  0.001640   13    7 3.153E-03  1   0.0000
   6      -55.650873519 -0.000184915  0.000685   13    5 4.886E-04  1   0.0000
   7      -55.650906538 -0.000033020  0.000382   13    5 1.274E-04  1   0.0000
   8      -55.650915165 -0.000008627  0.000214   13    5 3.600E-05  1   0.0000
   9      -55.650917597 -0.000002432  0.000120   13    5 1.061E-05  1   0.0000
  10      -55.650918310 -0.000000713  0.000068   13    5 3.224E-06  1   0.0000
  11      -55.650918525 -0.000000215  0.000038   13    5 1.002E-06  1   0.0000
  12      -55.650918591 -0.000000066  0.000022   13    5 3.168E-07  1   0.0000
  13      -55.650918612 -0.000000021  0.000012   13    5 1.016E-07  1   0.0000
  14      -55.650918618 -0.000000007  0.000007   13    5 3.293E-08  1   0.0000
  15      -55.650918620 -0.000000002  0.000004   13    5 1.075E-08  1   0.0000
  16      -55.650918621 -0.000000001  0.000002   13    5 3.553E-09  1   0.0000
  17      -55.650918621 -0.000000000  0.000001   13    5 1.174E-09  1   0.0000
  18      -55.650918621 -0.000000000  0.000001   13    5 3.734E-10  1   0.0000

          --------------------
          LAGRANGIAN CONVERGED
          --------------------

 FINAL MCSCF ENERGY IS      -55.6509186215 AFTER  18 ITERATIONS

 -MCCI- BASED ON OPTIMIZED ORBITALS
 ----------------------------------

 PLEASE NOTE: IF THE ACTIVE ORBITALS ARE CANONICALIZED BELOW,
 THE FOLLOWING CI EXPANSION COEFFICIENTS AND THE DENSITY DO NOT
 CORRESPOND TO THE PRINTED ORBITALS.  THE PRINTED EXPANSIONS MATCH
 THE ORBITALS USED DURING THE LAST ITERATION.  IF YOU WISH TO SEE
 CI EXPANSIONS BASED ON THE CANONICAL (OR NATURAL) ORBITALS, YOU
 MUST RUN A CI CALCULATION WITH THAT ORBITAL CHOICE READ IN $VEC.

 Averaged energy =     -55.650918621

 State #    1  Energy =     -55.725874255  S =  0.500

      Det      Coef    Occupancy (Ignoring core)
      ---      ----    --------- --------- -----
        1    0.811075  11110001110000
        4   -0.069069  10111001110000
        5   -0.061294  01111001110000
        8   -0.137175  10110101110000
       17    0.117137  11010011110000
       36   -0.132937  11110001101000
       71   -0.422445  11110001011000
       76   -0.051058  11100101011000
       78    0.070930  10110101011000
       87   -0.057733  11010011011000
      176    0.110006  11110001010100
      386    0.086117  11110001010010
      393    0.051930  10110101010010
      701   -0.103729  11110001100001

 State #    2  Energy =     -55.690736973  S =  0.500

      Det      Coef    Occupancy (Ignoring core)
      ---      ----    --------- --------- -----
        1   -0.416302  11110001110000
        8    0.070457  10110101110000
       17   -0.060975  11010011110000
       36   -0.541085  11110001101000
       37    0.067500  11101001101000
       39    0.061614  10111001101000
       43    0.084145  10110101101000
       52   -0.076038  11010011101000
       71   -0.613806  11110001011000
       72    0.072903  11101001011000
       74    0.087945  10111001011000
       78    0.099811  10110101011000
       87   -0.085115  11010011011000
      141    0.081999  11110001100100
      246   -0.079680  11110001001100
      386   -0.098832  11110001010010
      456   -0.055365  11110001001010

 State #    3  Energy =     -55.536144636  S =  0.500

      Det      Coef    Occupancy (Ignoring core)
      ---      ----    --------- --------- -----
        1    0.063741  11110001110000
        2    0.112598  11101001110000
        3    0.284912  11011001110000
        4    0.381600  10111001110000
        8   -0.060439  10110101110000
       17   -0.072966  11010011110000
       18   -0.115761  10110011110000
       36   -0.095372  11110001101000
       37   -0.079911  11101001101000
       38   -0.085097  11011001101000
       71   -0.125802  11110001011000
       72   -0.128296  11101001011000
       73   -0.184011  11011001011000
       74   -0.153204  10111001011000
      141   -0.364823  11110001100100
      145    0.055819  01111001100100
      148    0.081535  10110101100100
      157   -0.095798  11010011100100
      158   -0.050752  10110011100100
      176   -0.509896  11110001010100
      179    0.060567  10111001010100
      180    0.072112  01111001010100
      183    0.127411  10110101010100
      192   -0.114262  11010011010100
      214    0.058000  10111000110100
      246   -0.136412  11110001001100
      386    0.055161  11110001010010
      388    0.053203  11011001010010
      389    0.083498  10111001010010
      701    0.105978  11110001100001
      703   -0.079128  11011001100001
      704   -0.085014  10111001100001
      717    0.052216  11010011100001
      736    0.154860  11110001010001
      911   -0.053660  11110001000101

 DENSITY MATRIX OVER ACTIVE MO-S

             1           2           3           4           5

    1    1.9718234
    2    0.0281141   1.4778514
    3   -0.0199444   0.3225781   1.6851919
    4    0.0084004   0.0759327   0.0721725   1.3547162
    5    0.1103457  -0.1186983  -0.0609050  -0.0769267   0.3613834
    6    0.0066407  -0.2217495   0.0282971   0.0565945  -0.0095866
    7   -0.0115969   0.0363666  -0.2060923   0.0249467  -0.1040184

             6           7

    6    0.0647913
    7   -0.0078953   0.0842424

 FORMING THE "STANDARD FOCK OPERATOR" IN DIRECT AO INTEGRAL MODE...
 ONLY THE    1 CORE AND   21 VIRTUAL ORBITALS WILL BE CANONICALIZED

          ----------------------
          MCSCF NATURAL ORBITALS
          ----------------------

                      1          2          3          4          5
                  -16.0093     1.9824     1.9614     1.3517     1.2921
                     A          A          A          A          A   
    1  N  1  S    1.000903   0.012967  -0.000326  -0.012453  -0.000076
    2  N  1  S   -0.002953   0.448590   0.016887  -0.197248   0.004312
    3  N  1  S   -0.007329   0.379291  -0.012412  -0.280837   0.011405
    4  N  1  X    0.000876  -0.021291   0.183386   0.051417   0.561483
    5  N  1  Y    0.001663  -0.104675   0.345753  -0.253110  -0.232929
    6  N  1  Z    0.000672   0.065095   0.084998   0.533456  -0.188553
    7  N  1  X    0.000007  -0.003193   0.061512   0.027182   0.359006
    8  N  1  Y    0.000345  -0.027340   0.114109  -0.156928  -0.150103
    9  N  1  Z   -0.000518   0.030692   0.031481   0.342039  -0.129422
   10  N  1 XX   -0.000082  -0.003136   0.000391  -0.007464   0.010566
   11  N  1 YY    0.000262   0.006146  -0.002686  -0.002812  -0.005493
   12  N  1 ZZ   -0.000180  -0.003009   0.002296   0.010277  -0.005073
   13  N  1 XY    0.000269   0.004781   0.002755   0.004750   0.002045
   14  N  1 XZ    0.000008   0.000725   0.006702   0.005755   0.008528
   15  N  1 YZ    0.000018  -0.000787   0.011599   0.000292  -0.005327
   16  H  2  S    0.000085   0.071663   0.303755   0.062966  -0.149016
   17  H  2  S    0.000339  -0.011396   0.042432   0.003568  -0.107766
   18  H  2  X    0.000005  -0.000923   0.006727   0.008554   0.017787
   19  H  2  Y    0.000245  -0.014576  -0.034554  -0.002174   0.015601
   20  H  2  Z    0.000133  -0.003124  -0.009424   0.017548   0.002685
   21  H  3  S   -0.003270   0.255356  -0.252713   0.151986  -0.016240
   22  H  3  S    0.000551   0.009474  -0.033474   0.027943  -0.006395
   23  H  3  X   -0.000324   0.014872  -0.008886   0.008954   0.017572
   24  H  3  Y   -0.000915   0.036559  -0.026931   0.011714  -0.008050
   25  H  3  Z    0.000220  -0.003599   0.007164   0.013969  -0.005916
   26  H  4  S   -0.000169   0.103771   0.319684   0.172159   0.127624
   27  H  4  S    0.000442  -0.000664   0.036948   0.075723   0.092382
   28  H  4  X    0.000384  -0.019177  -0.033162  -0.015150   0.000591
   29  H  4  Y    0.000170  -0.011109  -0.003306  -0.008746  -0.021891
   30  H  4  Z    0.000247  -0.009108  -0.017493   0.009144  -0.018583

                      6          7          8
                    0.3697     0.0226     0.0202
                     A          A          A   
    1  N  1  S    0.014687   0.042205  -0.183554
    2  N  1  S    0.234081   0.113504  -0.551907
    3  N  1  S    0.510105  -0.047844   0.038218
    4  N  1  X    0.151505  -0.665540   0.084082
    5  N  1  Y    0.283573  -0.038757   0.771374
    6  N  1  Z    0.359917  -0.112020  -0.144565
    7  N  1  X    0.110901   0.114295   0.087453
    8  N  1  Y    0.197887  -0.119889   0.060633
    9  N  1  Z    0.259478  -0.025288   0.044526
   10  N  1 XX    0.004530   0.079886   0.008711
   11  N  1 YY   -0.025322  -0.079357  -0.006312
   12  N  1 ZZ    0.020791  -0.000530  -0.002399
   13  N  1 XY   -0.002273   0.006772   0.022090
   14  N  1 XZ   -0.003421   0.079354   0.052662
   15  N  1 YZ   -0.003942  -0.047887   0.012011
   16  H  2  S   -0.483311  -0.460223  -0.296627
   17  H  2  S   -0.353934  -0.355150  -0.162428
   18  H  2  X   -0.033872   0.065602  -0.002332
   19  H  2  Y   -0.018392   0.027087   0.000531
   20  H  2  Z   -0.013476   0.023690  -0.008048
   21  H  3  S   -0.238523  -0.270925   0.840041
   22  H  3  S   -0.070603  -0.060310   0.131227
   23  H  3  X   -0.000729   0.008810   0.033733
   24  H  3  Y   -0.007538  -0.021073   0.071027
   25  H  3  Z    0.019555   0.003353  -0.007337
   26  H  4  S   -0.256951   0.719588   0.154755
   27  H  4  S   -0.115161   0.348449   0.096972
   28  H  4  X   -0.003265  -0.008522  -0.007724
   29  H  4  Y   -0.058713  -0.052823  -0.049277
   30  H  4  Z   -0.013809  -0.024107  -0.016577

          ------------------------
          MCSCF OPTIMIZED ORBITALS
          ------------------------

                      1          2          3          4          5
                  -16.0093     0.0000     0.0000     0.0000     0.0000
                     A          A          A          A          A   
    1  N  1  S    1.000903   0.008876   0.010886   0.016033  -0.016557
    2  N  1  S   -0.002953   0.411942  -0.014408   0.002684  -0.198371
    3  N  1  S   -0.007329   0.327591  -0.047170  -0.038250  -0.239500
    4  N  1  X    0.000876   0.008328   0.449879  -0.118950  -0.047018
    5  N  1  Y    0.001663  -0.000296  -0.007906   0.392804  -0.066204
    6  N  1  Z    0.000672   0.059300  -0.010417  -0.002270   0.596735
    7  N  1  X    0.000007  -0.004255   0.344112  -0.171404  -0.064523
    8  N  1  Y    0.000345   0.000997  -0.071528   0.215783  -0.060486
    9  N  1  Z   -0.000518   0.020645  -0.018865  -0.031452   0.385184
   10  N  1 XX   -0.000082  -0.003784   0.021289  -0.010473  -0.012547
   11  N  1 YY    0.000262   0.007443  -0.022554   0.008846  -0.000721
   12  N  1 ZZ   -0.000180  -0.003659   0.001265   0.001627   0.013267
   13  N  1 XY    0.000269   0.005624   0.003341  -0.004566   0.004107
   14  N  1 XZ    0.000008   0.002705   0.022291  -0.014151   0.001604
   15  N  1 YZ    0.000018   0.003426  -0.006145   0.014677   0.005618
   16  H  2  S    0.000085   0.191325  -0.057676   0.355884   0.122815
   17  H  2  S    0.000339   0.029012  -0.146048   0.149991   0.024737
   18  H  2  X    0.000005   0.002301   0.026595  -0.011249  -0.001527
   19  H  2  Y    0.000245  -0.023127  -0.003300  -0.031582  -0.014275
   20  H  2  Z    0.000133  -0.005297   0.002447  -0.013857   0.012005
   21  H  3  S   -0.003270   0.198947  -0.266908  -0.348182   0.104469
   22  H  3  S    0.000551   0.006213  -0.042872  -0.039070   0.021622
   23  H  3  X   -0.000324   0.011429   0.008035  -0.026566   0.001413
   24  H  3  Y   -0.000915   0.028870  -0.031526  -0.034001   0.009182
   25  H  3  Z    0.000220  -0.002854   0.004674   0.004938   0.017433
   26  H  4  S   -0.000169   0.199678   0.380699   0.020188   0.125236
   27  H  4  S    0.000442   0.013194   0.146733  -0.081859   0.028416
   28  H  4  X    0.000384  -0.027428  -0.019473  -0.014010  -0.019087
   29  H  4  Y    0.000170  -0.007017  -0.031528   0.026227  -0.005475
   30  H  4  Z    0.000247  -0.012349  -0.026701   0.000466   0.011060

                      6          7          8          9         10
                    0.0000     0.0000     0.0000     0.1300     0.2049
                     A          A          A          A          A   
    1  N  1  S    0.070565  -0.101238  -0.141618   0.040166   0.046019
    2  N  1  S    0.437790  -0.278553  -0.366345   0.063131   0.055402
    3  N  1  S    0.524780   0.098691   0.182956  -0.694165  -0.556162
    4  N  1  X    0.099392   0.754572  -0.163949   0.058310  -0.051886
    5  N  1  Y    0.036267   0.309090   0.818635   0.042188  -0.175042
    6  N  1  Z    0.356136   0.049009  -0.074966   0.058251   0.008405
    7  N  1  X    0.046879  -0.003051   0.110667  -0.129582   0.313315
    8  N  1  Y    0.184955   0.130284   0.107770   0.005302   0.737960
    9  N  1  Z    0.211815   0.036274   0.096466  -0.073916   0.015121
   10  N  1 XX   -0.002218  -0.068041   0.035866   0.018105   0.028577
   11  N  1 YY   -0.017159   0.067454  -0.039676  -0.056891  -0.072141
   12  N  1 ZZ    0.019377   0.000587   0.003810   0.038786   0.043565
   13  N  1 XY   -0.009471   0.001613   0.020576  -0.069810  -0.042347
   14  N  1 XZ   -0.024162  -0.053195   0.071504  -0.032003   0.024122
   15  N  1 YZ   -0.005715   0.047489  -0.005679  -0.031461   0.052999
   16  H  2  S   -0.349990   0.267994  -0.530070  -0.515832   0.240729
   17  H  2  S   -0.264694   0.224587  -0.354340   0.420839  -0.540260
   18  H  2  X   -0.036125  -0.060643   0.008245  -0.048824   0.025606
   19  H  2  Y   -0.018694  -0.025101   0.000615  -0.006476   0.035607
   20  H  2  Z   -0.012550  -0.025819  -0.005197  -0.005492   0.047475
   21  H  3  S   -0.446694   0.499924   0.544035  -0.371378  -0.508390
   22  H  3  S   -0.103370   0.091859   0.069861   0.599409   1.879216
   23  H  3  X   -0.011389   0.005729   0.028978   0.031228   0.049885
   24  H  3  Y   -0.023945   0.040064   0.050630   0.050379   0.137800
   25  H  3  Z    0.018998  -0.004724   0.000578   0.027733  -0.038268
   26  H  4  S   -0.350294  -0.594617   0.299170  -0.533633   0.198428
   27  H  4  S   -0.166696  -0.279471   0.156880   1.062742  -0.582512
   28  H  4  X    0.001036   0.003763  -0.011529  -0.019475   0.007522
   29  H  4  Y   -0.036559   0.022971  -0.075701  -0.057402   0.032041
   30  H  4  Z   -0.006360   0.011318  -0.026608  -0.010802   0.040272

                     11         12         13         14         15
                    0.3256     0.5658     0.5942     0.6988     0.8930
                     A          A          A          A          A   
    1  N  1  S   -0.010922   0.045177  -0.018408   0.021126  -0.678834
    2  N  1  S   -0.021010   0.059901   0.022086   0.057185  -1.518274
    3  N  1  S    0.056525  -0.442445   0.321557  -0.179554   2.436375
    4  N  1  X   -0.080445  -0.472637  -0.544112   0.101110  -0.084048
    5  N  1  Y    0.060230  -0.040517   0.251324  -0.430036  -0.273715
    6  N  1  Z   -0.001302   0.612058  -0.485841  -0.455732   0.079552
    7  N  1  X    0.440415   0.862853   1.012082   0.253211   0.188731
    8  N  1  Y   -0.337887   0.536239  -0.287059   1.501105   0.372150
    9  N  1  Z    0.085082  -0.612239   0.738216   0.692894   0.062878
   10  N  1 XX    0.061204   0.009602  -0.039437   0.051625  -0.025480
   11  N  1 YY   -0.071925   0.020077   0.033614  -0.001576  -0.013459
   12  N  1 ZZ    0.010721  -0.029679   0.005823  -0.050050   0.038939
   13  N  1 XY    0.023043  -0.000657  -0.044815   0.045342  -0.062500
   14  N  1 XZ    0.051460  -0.022953  -0.009965  -0.031890   0.006346
   15  N  1 YZ   -0.020907  -0.044667   0.002188  -0.109333  -0.028668
   16  H  2  S   -0.592385  -0.007384   0.200686  -0.411988  -0.069593
   17  H  2  S    2.657041   0.174670   0.388248  -0.377904  -0.378206
   18  H  2  X    0.157832   0.030341  -0.102529   0.127867  -0.118140
   19  H  2  Y   -0.125625   0.056736   0.064998   0.172749   0.098943
   20  H  2  Z    0.025719  -0.177092   0.035414  -0.119616   0.135441
   21  H  3  S   -0.120741   0.437707  -0.120629   0.560636  -0.103531
   22  H  3  S    0.136881   0.378669   0.058295   0.501529  -0.505760
   23  H  3  X   -0.021681   0.049455   0.077641   0.004681   0.054737
   24  H  3  Y    0.001215   0.103479  -0.049533   0.134051  -0.117594
   25  H  3  Z   -0.002424   0.061214   0.026459   0.157605   0.133232
   26  H  4  S    0.481844  -0.237034  -0.470793  -0.120885  -0.073657
   27  H  4  S   -2.597441  -0.202818  -0.655628  -0.098485  -0.362871
   28  H  4  X    0.164449   0.055209   0.002566   0.216973   0.115050
   29  H  4  Y   -0.145743   0.082282   0.116326   0.095028  -0.030813
   30  H  4  Z    0.027789  -0.131282   0.103069  -0.103889   0.215642

                     16         17         18         19         20
                    1.0459     1.1663     1.1904     1.4029     1.4691
                     A          A          A          A          A   
    1  N  1  S    0.258440   0.083078   0.006209  -0.116892   0.203834
    2  N  1  S    0.532683   0.229590   0.036655  -0.243994   0.505426
    3  N  1  S   -1.216853  -0.098619   0.123119   0.422201  -0.273105
    4  N  1  X   -0.075430   0.067996   0.177487  -0.007331   0.106721
    5  N  1  Y   -0.298649   0.139864   0.138233  -0.032121   0.154138
    6  N  1  Z    0.034812   0.134536   0.044155   0.000220   0.203676
    7  N  1  X    0.377617   0.108174  -0.641040   0.173255  -0.115104
    8  N  1  Y    1.309732   0.076464  -0.371573   0.137018   0.113508
    9  N  1  Z   -0.200487  -0.380358  -0.022283   0.198268  -0.190691
   10  N  1 XX   -0.156352  -0.119989  -0.125635   0.032543   0.292221
   11  N  1 YY    0.068534  -0.109458   0.163728   0.001199  -0.053347
   12  N  1 ZZ    0.087818   0.229446  -0.038094  -0.033743  -0.238874
   13  N  1 XY   -0.070172   0.092192  -0.176018   0.025774  -0.212103
   14  N  1 XZ    0.067569  -0.068112   0.108369  -0.431691  -0.014300
   15  N  1 YZ    0.048517  -0.149755  -0.076439   0.250192  -0.018574
   16  H  2  S   -0.366561  -0.074702  -0.049163  -0.393582   0.349786
   17  H  2  S   -0.100315  -0.005155  -0.009763   0.194281  -0.346940
   18  H  2  X   -0.218197   0.287028   0.189398  -0.060285  -0.280998
   19  H  2  Y   -0.244559   0.066898  -0.030333  -0.446940   0.368682
   20  H  2  Z    0.240779   0.357810  -0.276490   0.395733   0.521291
   21  H  3  S    0.791785   0.137887  -0.282328  -0.009876   0.187977
   22  H  3  S    0.585809   0.036827  -0.156353  -0.001934   0.030375
   23  H  3  X    0.263584  -0.083937   0.715262   0.040021   0.045489
   24  H  3  Y   -0.025571   0.069475  -0.256420  -0.013829  -0.209282
   25  H  3  Z   -0.206536   0.575361   0.129540  -0.146343   0.093279
   26  H  4  S    0.004404  -0.059729   0.239014  -0.107002   0.286645
   27  H  4  S    0.100869  -0.030672   0.098574  -0.203781  -0.046379
   28  H  4  X   -0.094816  -0.170736   0.126716   0.257880   0.503415
   29  H  4  Y   -0.127964   0.229109   0.238201   0.569888  -0.056930
   30  H  4  Z    0.428042   0.301895   0.017582  -0.322372  -0.130254

                     21         22         23         24         25
                    1.5800     1.6219     1.8473     1.8743     2.0492
                     A          A          A          A          A   
    1  N  1  S   -0.151881   0.067056   0.101652  -0.137347  -0.033640
    2  N  1  S   -0.226952   0.177425   0.237399  -0.288164  -0.037140
    3  N  1  S    0.991636   0.005286   0.078136  -0.062002   0.459058
    4  N  1  X    0.031593   0.142281  -0.074005   0.177430   0.009116
    5  N  1  Y    0.018920   0.192038  -0.178610   0.456323  -0.103546
    6  N  1  Z    0.111578   0.090806   0.010164   0.013153   0.033790
    7  N  1  X    0.381140   0.158153  -0.219424   0.078008   0.369140
    8  N  1  Y    0.756160  -0.485403  -0.099188   0.242994  -0.163221
    9  N  1  Z    0.570084  -0.065755   0.087701   0.126699   0.227540
   10  N  1 XX    0.039026  -0.171352  -0.505216  -0.316392  -0.327342
   11  N  1 YY   -0.065458   0.143587  -0.276866   0.052223   0.199030
   12  N  1 ZZ    0.026432   0.027766   0.782082   0.264169   0.128312
   13  N  1 XY   -0.026938  -0.088699   0.232450   0.321286  -0.324979
   14  N  1 XZ   -0.062598  -0.254632  -0.085145   0.077480   0.679937
   15  N  1 YZ   -0.045946   0.101612   0.174147  -0.236326  -0.278592
   16  H  2  S   -0.317778   0.119854   0.085082   0.023353  -0.073409
   17  H  2  S   -0.331361   0.308843  -0.143278  -0.156294   0.271930
   18  H  2  X    0.574312  -0.252972  -0.135599  -0.145822  -0.129845
   19  H  2  Y    0.512927  -0.065102   0.192370   0.233846  -0.326059
   20  H  2  Z    0.025137  -0.575303  -0.099007   0.322235   0.136792
   21  H  3  S    0.181814  -0.188429  -0.035036   0.050347  -0.126651
   22  H  3  S    0.025250  -0.014279  -0.225835   0.391228  -0.118596
   23  H  3  X   -0.137704  -0.366990  -0.007110   0.372890  -0.638272
   24  H  3  Y   -0.234936   0.206164  -0.550130   0.780542  -0.056799
   25  H  3  Z   -0.742590   0.073471   0.006815  -0.398309  -0.109665
   26  H  4  S   -0.446040   0.378125   0.183233   0.069815  -0.253027
   27  H  4  S   -0.193754  -0.509011   0.106855  -0.161010  -0.317370
   28  H  4  X    0.020338   0.446814   0.201008   0.287735   0.315598
   29  H  4  Y    0.235475   0.186837  -0.075121   0.045752   0.503995
   30  H  4  Z    0.371893   0.660799  -0.315372  -0.105852  -0.198950

                     26         27         28         29
                    2.4050     2.5285     2.7946     2.9545
                     A          A          A          A   
    1  N  1  S   -0.068118  -0.128170   0.067468  -0.113170
    2  N  1  S   -0.154841  -0.211249   0.047388  -0.102164
    3  N  1  S   -0.276677   0.407845  -1.081960   1.645424
    4  N  1  X    0.053121   0.115892  -0.043924  -0.192478
    5  N  1  Y    0.191462   0.180314   0.157320  -0.326195
    6  N  1  Z   -0.060694   0.035000  -0.118548   0.095302
    7  N  1  X    0.199750   0.559634  -0.180750  -0.210806
    8  N  1  Y    0.847919   0.779068   0.056987  -0.413566
    9  N  1  Z   -0.002695   0.229517  -0.208154   0.186720
   10  N  1 XX   -0.390637   0.423529  -0.098755  -0.591441
   11  N  1 YY    0.263054  -0.441105  -0.196298   1.212570
   12  N  1 ZZ    0.127583   0.017576   0.295053  -0.621129
   13  N  1 XY   -0.553699   0.313174  -0.761226   0.564180
   14  N  1 XZ    0.097413   0.608299  -0.344994  -0.047508
   15  N  1 YZ    0.787173   0.695309  -0.228216   0.119716
   16  H  2  S    0.032731  -0.971786  -1.261242  -1.094370
   17  H  2  S   -0.234197  -0.202318  -0.211819  -0.207665
   18  H  2  X    0.692628  -0.613426  -0.959341  -0.371882
   19  H  2  Y    0.277978   0.565393   0.798192   0.985650
   20  H  2  Z    0.308484  -0.160279  -0.187893   0.256480
   21  H  3  S    0.633652   0.501092   0.544324  -1.256399
   22  H  3  S    0.343784   0.229328   0.134358  -0.381597
   23  H  3  X   -0.031337   0.267971   0.016172  -0.452654
   24  H  3  Y    0.676928   0.320490   0.495333  -0.917493
   25  H  3  Z    0.231754   0.180401  -0.206419   0.275235
   26  H  4  S   -0.391678   0.155600   1.770306   0.774487
   27  H  4  S    0.033609  -0.155340   0.443138   0.037062
   28  H  4  X    0.184660  -0.154953  -1.381896  -0.535700
   29  H  4  Y   -0.515082   1.050437   0.527451   0.369343
   30  H  4  Z   -0.175725   0.323239  -0.487281  -0.098596
 .....DONE WITH MCSCF ITERATIONS.....
 CPU     0: STEP CPU TIME=    11.99 TOTAL CPU TIME=         13.2 (      0.2 MIN)
 TOTAL WALL CLOCK TIME=         13.2 SECONDS, CPU UTILIZATION IS    99.92%

     ----------------------------------------------------------------
     PROPERTY VALUES FOR THE MCSCF SELF-CONSISTENT FIELD WAVEFUNCTION
     ----------------------------------------------------------------

          -----------------
          ENERGY COMPONENTS
          -----------------

         WAVEFUNCTION NORMALIZATION =       1.0000000000

                ONE ELECTRON ENERGY =     -92.4086608820
                TWO ELECTRON ENERGY =      26.2738248154
           NUCLEAR REPULSION ENERGY =      10.4839174452
                                      ------------------
                       TOTAL ENERGY =     -55.6509186215

 ELECTRON-ELECTRON POTENTIAL ENERGY =      26.2738248154
  NUCLEUS-ELECTRON POTENTIAL ENERGY =    -148.1039374425
   NUCLEUS-NUCLEUS POTENTIAL ENERGY =      10.4839174452
                                      ------------------
             TOTAL POTENTIAL ENERGY =    -111.3461951819
               TOTAL KINETIC ENERGY =      55.6952765605
                 VIRIAL RATIO (V/T) =       1.9992035601

          ---------------------------------------
          MULLIKEN AND LOWDIN POPULATION ANALYSES
          ---------------------------------------

     ATOMIC MULLIKEN POPULATION IN EACH MOLECULAR ORBITAL

                      1          2          3          4          5

                  2.000000   1.982394   1.961360   1.351714   1.292077

    1             2.000353   1.500415   0.784248   1.221462   1.169332
    2             0.000026   0.038818   0.457201   0.012568   0.066917
    3            -0.000385   0.357632   0.244295   0.049316   0.007793
    4             0.000006   0.085529   0.475616   0.068367   0.048034

                      6          7          8

                  0.369710   0.022558   0.020187

    1             0.141150   0.008479   0.009767
    2             0.148407   0.004441   0.001217
    3             0.027630   0.001114   0.008641
    4             0.052524   0.008525   0.000561
 WARNING! MCSCF POPULATIONS SHOWN ABOVE ARE FOR THE NATURAL ORBITALS.
 IGNORE THE ABOVE DATA FOR MCSCF FUNCTIONS WHICH ARE NOT OF -FORS- TYPE.
 THE FOLLOWING POPULATIONS ARE CORRECT FOR ANY MCSCF WAVEFUNCTION.

               ----- POPULATIONS IN EACH AO -----
                             MULLIKEN      LOWDIN
              1  N  1  S      2.00198     1.90729
              2  N  1  S      0.84691     0.61405
              3  N  1  S      0.75039     0.43497
              4  N  1  X      0.70777     0.65797
              5  N  1  Y      0.70717     0.62493
              6  N  1  Z      0.70340     0.66457
              7  N  1  X      0.39312     0.44298
              8  N  1  Y      0.29987     0.43002
              9  N  1  Z      0.41391     0.44517
             10  N  1 XX      0.00089     0.16205
             11  N  1 YY      0.00300     0.18924
             12  N  1 ZZ      0.00162     0.15612
             13  N  1 XY      0.00216     0.00761
             14  N  1 XZ      0.00302     0.00499
             15  N  1 YZ      0.00000     0.00852
             16  H  2  S      0.57401     0.43155
             17  H  2  S      0.10876     0.18778
             18  H  2  X      0.01143     0.03758
             19  H  2  Y      0.02830     0.05948
             20  H  2  Z      0.00710     0.01722
             21  H  3  S      0.60989     0.47837
             22  H  3  S      0.03354     0.16499
             23  H  3  X      0.01121     0.02929
             24  H  3  Y      0.03416     0.06729
             25  H  3  Z      0.00724     0.02220
             26  H  4  S      0.60700     0.44814
             27  H  4  S      0.07411     0.17537
             28  H  4  X      0.02662     0.05122
             29  H  4  Y      0.01936     0.05452
             30  H  4  Z      0.01206     0.02452

          ----- MULLIKEN ATOMIC OVERLAP POPULATIONS -----
          (OFF-DIAGONAL ELEMENTS NEED TO BE MULTIPLIED BY 2)

             1           2           3           4

    1    6.4146243
    2    0.0034497   0.5459169
    3    0.3111186   0.0015236   0.3844014
    4    0.1060126   0.1787053  -0.0010066   0.4554511

          TOTAL MULLIKEN AND LOWDIN ATOMIC POPULATIONS
       ATOM         MULL.POP.    CHARGE          LOW.POP.     CHARGE
    1 N             6.835205    0.164795         6.750476    0.249524
    2 H             0.729595    0.270405         0.733607    0.266393
    3 H             0.696037    0.303963         0.762142    0.237858
    4 H             0.739162    0.260838         0.753776    0.246224

          MULLIKEN SPHERICAL HARMONIC POPULATIONS
       ATOM           S       P       D      F      G      H      I    TOTAL
    1 N             3.60    3.23    0.01   0.00   0.00   0.00   0.00    6.84
    2 H             0.68    0.05    0.00   0.00   0.00   0.00   0.00    0.73
    3 H             0.64    0.05    0.00   0.00   0.00   0.00   0.00    0.70
    4 H             0.68    0.06    0.00   0.00   0.00   0.00   0.00    0.74

          ---------------------
          ELECTROSTATIC MOMENTS
          ---------------------

 POINT   1           X           Y           Z (BOHR)    CHARGE
                 0.000004    0.000006   -0.177185        1.00 (A.U.)
         DX          DY          DZ         /D/  (DEBYE)
     0.723960    0.575617    1.573825    1.825480
 ...... END OF PROPERTY EVALUATION ......
 CPU     0: STEP CPU TIME=     0.00 TOTAL CPU TIME=         13.2 (      0.2 MIN)
 TOTAL WALL CLOCK TIME=         13.2 SECONDS, CPU UTILIZATION IS    99.92%

     -------------------------------------------------
     GMC-PT/GMC-QDPT or general MCSCF input parameters
     -------------------------------------------------
 # of frozen core orbs. =         0 ->         0
 # of doubly occ. orbs. =         1
 # of active      orbs. =         7
 # of virtual     orbs. =        21
 # of active electrons  =         7
 # of states in CI      =         3
 Highest state in CI    =         3
 kstate =  1 1 1
 avecoe =  0.333 0.333 0.333
 State symmetry           = A           
 Assigned symmetry number = 1

 <<<Act. MO sym.: 1111111

 <<<Division of 1-ext.:  0
 <<<Division of 2-ext.:  0

     ------------------------
     Orbital canonicalization
     ------------------------

 MOs are canonicalized for core, virtual, and invariant-active orbital spaces.
 This is a part of the GMC-QDPT calculation.
 SCHWARZ INEQUALITY OVERHEAD:       465 INTEGRALS, T=        0.00
 DIRECT TRANSFORMATION SKIPS AO INTEGRAL STORAGE ON DISK.

 Averaged energy =     -55.650918621

 State #    1  Energy =     -55.725874255  S =  0.500
 State #    2  Energy =     -55.690736973  S =  0.500
 State #    3  Energy =     -55.536144636  S =  0.500

 Orbital energies for filled orbital space
  -16.009277
 Orbital energies for active orbital space
   -1.468453  -0.641378  -1.097138  -0.679202  -0.269317
    0.222779   0.390217
 Orbital energies for external orbital space
    0.130028   0.204928   0.325565   0.565848   0.594164
    0.698820   0.893022   1.045915   1.166339   1.190374
    1.402922   1.469105   1.580020   1.621864   1.847253
    1.874259   2.049192   2.405008   2.528524   2.794572
    2.954483

 Zero values mean non-canonical orbitals.
 ... done with orbital canonicalization ...
 CPU     0: STEP CPU TIME=     0.58 TOTAL CPU TIME=         13.8 (      0.2 MIN)
 TOTAL WALL CLOCK TIME=         13.8 SECONDS, CPU UTILIZATION IS   100.00%

     --------------------------------------------
     PARTIAL TWO ELECTRON INTEGRAL TRANSFORMATION
     --------------------------------------------

 NUMBER OF CORE MOLECULAR ORBITALS     =    0
 NUMBER OF OCCUPIED MOLECULAR ORBITALS =    8
 TOTAL NUMBER OF MOLECULAR ORBITALS    =   29
 TOTAL NUMBER OF ATOMIC ORBITALS       =   30
 THRESHOLD FOR KEEPING TRANSFORMED 2E- INTEGRALS = 1.000E-09
 AO INTEGRALS WILL BE CALCULATED IN DIRECT MODE...
 DIRECT TRANSFORMATION SKIPS AO INTEGRAL STORAGE ON DISK.
 SCHWARZ INEQUALITY OVERHEAD:       465 INTEGRALS, T=        0.00

 PLAN A: REQUIREMENTS FOR FULLY IN-MEMORY TRANSFORMATION:
 # OF WORDS AVAILABLE =            100000000
 # OF WORDS NEEDED    =               221798

 PARALLEL ONLY WORKS WITH THE SEGMENTED ALGORITHM.
 ADJUSTING MEMORY TO USE SEGMENTED ALGORITHM.


 PLAN B: REQUIREMENTS FOR THE SEGMENTED TRANSFORMATION:
       MINIMUM=         124148 WORDS FOR 1 MOLECULAR ORBITAL PER PASS
       MAXIMUM=         221798 WORDS FOR ALL MOLECULAR ORBITALS IN 1 PASS
              (          13950 EXTRA WORDS INCLUDES 1 EXTRA ORBITAL/PASS)
 THIS RUN USES=         221798 WORDS,
 DISTRIBUTING   1 PASSES EACH CONTAINING     8 ORBITALS OVER   1 PROCESSORS.

 CHOOSING SEGMENTED PARTIAL TRANSFORMATION...
 DIRECT TRANSFORMATION SKIPS AO INTEGRAL STORAGE ON DISK.
 PASS #   1 TOOK        0.04 SECONDS.
 TOTAL NUMBER OF TRANSFORMED 2E- INTEGRALS KEPT =        29226
 ... END OF INTEGRAL TRANSFORMATION ...
 CPU     0: STEP CPU TIME=     0.04 TOTAL CPU TIME=         13.8 (      0.2 MIN)
 TOTAL WALL CLOCK TIME=         13.8 SECONDS, CPU UTILIZATION IS    99.93%

     --------     ------------------------------------------
     GMC-QDPT     Program written by H.Nakano (Kyushu Univ.)
     --------     ------------------------------------------

 *** Reference space

 Reference type: ORMAS (= Occupation restricted multiple active space)
 # of orbitals          =  7
 # of minimum electrons =  7
 # of maximum electrons =  7
 State symmetry    =    1 (input)
 2*Sz              =    1 (input)
 Spin multiplicity =    2 (input)
 Dimension of reference space =      1225  (from      3432 walks)

 Dimension of reference space =      1225  (from      1225 walks)

 <<<Ionized spaces for Ref-CI:
      0:         1225 /   -1-0:         1960 /  0-1-0:         2891

 ***                    ***
 *** Reference space CI ***
 ***                    ***

 Converged after   25 iterations

 Reference wavefunctions:

 State #    1  Energy =     -55.725874255  S =  0.500

      Det      Coef    Occupancy (Ignoring core)
      ---      ----    --------- --------- -----
        1   -0.492064  11110001110000
       71    0.840017  11110001011000
      106   -0.051568  11110000111000
      248   -0.063458  11011001001100
      391   -0.051118  11100101010010

 State #    2  Energy =     -55.690736973  S =  0.500

      Det      Coef    Occupancy (Ignoring core)
      ---      ----    --------- --------- -----
        1    0.836094  11110001110000
       71    0.494940  11110001011000
      143    0.061724  11011001100100
      176   -0.052942  11110001010100
      179    0.064956  10111001010100

 State #    3  Energy =     -55.536144636  S =  0.500

      Det      Coef    Occupancy (Ignoring core)
      ---      ----    --------- --------- -----
        1    0.082517  11110001110000
        2   -0.169103  11101001110000
        4   -0.254662  10111001110000
       72    0.465791  11101001011000
       74    0.318222  10111001011000
      176    0.720453  11110001010100
      177    0.055004  11101001010100
      178   -0.068418  11011001010100
      183   -0.069992  10110101010100

 Davidson method: CPU/Wall time =           0.38 /           0.39 sec.

 Oscillator strength (invalid if E(1)/=E(GS)):
 -----------------------------------------
   State                        f
 -----------------------------------------
     2     F(REF-CI)=        0.0005631407
     3     F(REF-CI)=        0.0015598641
 -----------------------------------------

 Dipole moment matrix elements, x, y, z, in A.U.

 Dimension of ionized spaces for PT:
 (N-2) space:         1715 /  (N-1) space:         2842 /  N space:         2891
 (N+1) space:         2842 /  (N+2) space:         1715

 <<<Ionized spaces for internal:
         0:         1225 /      -1-0:         1960 /     0-1-0:         2891
  -1-0-1-0:         2842 / 0-1-0-1-0:         3381

 Diagonal elements of averaged one-particle density matrix:
       2       3       4       5       6       7       8
  0.9923  0.9302  0.9817  0.9037  0.1667  0.0145  0.0110
  0.9872  0.3651  0.9809  0.4448  0.2028  0.0092  0.0099

 Orbital energies:
 -------- Doubly-occupied orbitals (highest several orbs.) -------
             1
 -1.600928D+01
 -------- Active orbitals ----------------------------------------
             2            3            4            5            6
 -1.468453D+00-6.413779D-01-1.097138D+00-6.792020D-01-2.693168D-01
             7            8
  2.227792D-01 3.902169D-01
 -------- External orbitals (lowest several orbs.) ---------------
             9           10           11           12           13
  1.300277D-01 2.049278D-01 3.255648D-01 5.658478D-01 5.941640D-01
            14           15           16           17           18
  6.988195D-01 8.930221D-01 1.045915D+00 1.166339D+00 1.190374D+00

 *** Quasi-degeneracy checking

 === Det (|Ci| > 1.0D-01 and dE < 5.0D-03)

 # of small denominators (single excitations)
 State       dEmin  dE < 5.0D-03  dE < 5.0D-04  dE < 5.0D-05  dE < 5.0D-06
 ----- ----------- ------------- ------------- ------------- -------------
     1    5.00D-03             0             0             0             0
     2    5.00D-03             0             0             0             0
     3    5.00D-03             0             0             0             0

 # of small denominators (double excitations)
 State       dEmin  dE < 5.0D-03  dE < 5.0D-04  dE < 5.0D-05  dE < 5.0D-06
 ----- ----------- ------------- ------------- ------------- -------------
     1    5.00D-03             0             0             0             0
     2    5.00D-03             0             0             0             0
     3    5.00D-03             0             0             0             0

 *** Zeroth-Order Setup (Granovsky's zeroth-order vectors)
 Zeroth-order effective Hamiltonian
  (= Sum_i e(i)*<I|a+(i)a(i)|J> ):
                   1            2            3
     1 -7.024354D+00
     2 -2.051365D-02-7.010230D+00
     3  1.648405D-02-3.566352D-02-6.643812D+00

 Zeroth-order vectors:
 State #    1
       MC st            1           2           3
       Coeff    8.034D-01   5.951D-01   2.018D-02
 State #    2
       MC st            2           1           3
       Coeff   -7.976D-01   5.935D-01  -1.074D-01
 State #    3
       MC st            3           2           1
       Coeff    9.940D-01  -9.827D-02   4.781D-02

 *** GMC-QDPT computation

 (Integral reading:  CPU/Wall time =           0.00 /           0.01 sec.)

 One-external:
   0 -ionized terms: CPU/Wall time =           0.03 /           0.02 sec.
 (-1)-ionized terms: CPU/Wall time =           0.09 /           0.09 sec.
 (+1)-ionized terms: CPU/Wall time =           0.02 /           0.03 sec.
 (+1)-ionized terms: CPU/Wall time =           0.01 /           0.00 sec.
 (+2)-ionized terms: CPU/Wall time =           0.00 /           0.00 sec.

 Internal:
 # of macro loops for internal contribution =         1 (input)
 Loop:    1
 Dimension of internal CISD space     =         0  (after screening)
 Space construction: CPU/Wall time =           0.02 /           0.02 sec.
 Internal terms:     CPU/Wall time =           0.00 /           0.00 sec.

 Two-external:
   0 -ionized terms: CPU/Wall time =           0.06 /           0.06 sec.
 (-1)-ionized terms: CPU/Wall time =           1.00 /           1.00 sec.
 (-2)-ionized terms: CPU/Wall time =           0.17 /           0.17 sec.

 Total time:         CPU/Wall time =           1.40 /           1.39 sec.

 ***                  ***
 *** GMC-QDPT Results ***
 ***                  ***

 Diagonal elements of effective Hamiltonian:
 Heff(  1) =   -55.82538479
 Heff(  2) =   -55.81076323
 Heff(  3) =   -55.65864585

 Off-diagonal elements of effective Hamiltonian:
                   1            2
     2 -1.297608D-02
     3  9.103792D-04-1.281061D-02

 ******** GMC-QDPT energies ********
 ----------------------------------------------------------------------------
   State                        1st order                           2nd order
 ----------------------------------------------------------------------------
     1     E(REF-CI)=      -55.7258742552   E(GMC-QDPT2)=      -55.8331573633
     2     E(REF-CI)=      -55.6907369735   E(GMC-QDPT2)=      -55.8040856720
     3     E(REF-CI)=      -55.5361446357   E(GMC-QDPT2)=      -55.6575508352
 ----------------------------------------------------------------------------

 Excitation energies (invalid if E(1)/=E(GS)):
 ----------------------------------------------------------------------------
   State                        1st order                           2nd order
 ----------------------------------------------------------------------------

     TZ Sorted GMC-PT ENERGIES:
         1      -55.8331573633
         2      -55.8040856720
         3      -55.6575508352
     2     E(REF-CI)=        0.9561346 eV   E(GMC-QDPT2)=        0.7910814 eV
     3     E(REF-CI)=        5.1628086 eV   E(GMC-QDPT2)=        4.7784995 eV
 ----------------------------------------------------------------------------

 Main characters of perturbed GMC-QDPT states:

 State #    1  Energy =     -55.833157363  S =  0.500

      Det      Coef    Occupancy (Ignoring core)
      ---      ----    --------- --------- -----
        1   -0.410527  11110001110000
       71    0.883326  11110001011000
      248   -0.066592  11011001001100
      391   -0.050578  11100101010010

 State #    2  Energy =     -55.804085672  S =  0.500

      Det      Coef    Occupancy (Ignoring core)
      ---      ----    --------- --------- -----
        1    0.880877  11110001110000
       71    0.412762  11110001011000
      143    0.065205  11011001100100
      179    0.065683  10111001010100

 State #    3  Energy =     -55.657550835  S =  0.500

      Det      Coef    Occupancy (Ignoring core)
      ---      ----    --------- --------- -----
        1    0.059265  11110001110000
        2   -0.169108  11101001110000
        4   -0.255013  10111001110000
       72    0.466630  11101001011000
       74    0.318448  10111001011000
      176    0.721643  11110001010100
      177    0.055784  11101001010100
      178   -0.069271  11011001010100
      183   -0.070407  10110101010100

 <<<Max |V/de| = 6.414D-02  Thresh = 1.000D+00

 Oscillator strength (invalid if E(1)/=E(GS)):
 ----------------------------------------------------------------------------
   State                        1st order                           2nd order
 ----------------------------------------------------------------------------
     2     F(REF-CI)=        0.0005631407     F(GMC-PT2)=        0.0005503393
     3     F(REF-CI)=        0.0015598641     F(GMC-PT2)=        0.0016055118
 ----------------------------------------------------------------------------

 Dipole moment matrix elements, x, y, z, in A.U.
States    1    1        0.2934889414        0.5135272751        0.5371852373
States    1    2        0.0032979694        0.0023738712       -0.1684610281
States    1    3       -0.0846274374        0.0212766301       -0.0780993016
States    2    1        0.0032979694        0.0023738712       -0.1684610281
States    2    2        0.4976718663        0.4042946224        0.4274424284
States    2    3       -0.0754269047       -0.1578534866       -0.0750214064
States    3    1       -0.0846274374        0.0212766301       -0.0780993016
States    3    2       -0.0754269047       -0.1578534866       -0.0750214064
States    3    3        0.5520969895        0.9136107489        0.9902170939

 Oscillator strength (valid only when positive): 
 ----------------------------------------------------------------------------
  States                        1st order                           2nd order
 ----------------------------------------------------------------------------
  1  1     F(REF-CI)=        0.0000000000     F(GMC-PT2)=        0.0000000000
  1  2     F(REF-CI)=       -0.0005631407     F(GMC-PT2)=       -0.0005503393
  1  3     F(REF-CI)=       -0.0015598641     F(GMC-PT2)=       -0.0016055118
  2  1     F(REF-CI)=        0.0005631407     F(GMC-PT2)=        0.0005503393
  2  2     F(REF-CI)=        0.0000000000     F(GMC-PT2)=        0.0000000000
  2  3     F(REF-CI)=       -0.0045337199     F(GMC-PT2)=       -0.0035398081
  3  1     F(REF-CI)=        0.0015598641     F(GMC-PT2)=        0.0016055118
  3  2     F(REF-CI)=        0.0045337199     F(GMC-PT2)=        0.0035398081
  3  3     F(REF-CI)=        0.0000000000     F(GMC-PT2)=        0.0000000000
 CPU     0: STEP CPU TIME=     1.84 TOTAL CPU TIME=         15.7 (      0.3 MIN)
 TOTAL WALL CLOCK TIME=         15.7 SECONDS, CPU UTILIZATION IS    99.87%

     !!! DIABATIZATION FOR REF CI STATES !!!

 *******************************************************
          $DMO GROUP FOUND IN THE INPUT.
        DIABATIZATION OF ADIABATIC STATES BEGINS.
     PROGRAMMED BY TAO ZENG (CARLETON UNIVERSITY).
               Email: toby.zeng@carleton.ca
     See T. Zeng, J. Chem. Phys. 2017, 146, 144103
 *******************************************************

 *************************************************************************
     STEP 1: TRANSFORMATION OF ADIABATIC STATES TO THE DMO REPRESENTATION
         See Atchity and Ruedenberg, J. Chem. Phys. 1999, 111, 2910
 *************************************************************************

Read in Diabatic Molecualr Orbitals:

                      1          2          3          4          5

    1  N  1  S    0.008609   0.000000   0.000000  -0.013219   0.279491
    2  N  1  S    0.442914  -0.000000   0.000000  -0.184329   0.867803
    3  N  1  S    0.276913   0.000000  -0.000000  -0.288315   0.144236
    4  N  1  X   -0.000000   0.493155  -0.024636  -0.000000  -0.000000
    5  N  1  Y    0.000000   0.024636   0.493155  -0.000000   0.000000
    6  N  1  Z    0.090197   0.000000   0.000000   0.593421   0.705309
    7  N  1  X   -0.000000   0.210628  -0.010522   0.000000   0.000000
    8  N  1  Y    0.000000   0.010522   0.210628  -0.000000  -0.000000
    9  N  1  Z   -0.004381   0.000000   0.000000   0.381592  -0.106092
   10  N  1 XX   -0.000457   0.010719  -0.000535  -0.012387   0.006153
   11  N  1 YY   -0.000457  -0.010719   0.000535  -0.012387   0.006153
   12  N  1 ZZ    0.000914  -0.000000   0.000000   0.024773  -0.012306
   13  N  1 XY    0.000000  -0.000618  -0.012377  -0.000000   0.000000
   14  N  1 XZ   -0.000000   0.026529  -0.001325  -0.000000   0.000000
   15  N  1 YZ    0.000000   0.001325   0.026529  -0.000000   0.000000
   16  H  2  S    0.194462  -0.176074   0.343485   0.112865  -0.523343
   17  H  2  S    0.003574  -0.023812   0.046452   0.024014  -0.054445
   18  H  2  X    0.018760   0.009101   0.022834   0.009336  -0.039151
   19  H  2  Y   -0.032493   0.022287  -0.020044  -0.016171   0.067811
   20  H  2  Z   -0.009251   0.008464  -0.016511   0.018769  -0.010566
   21  H  3  S    0.194462  -0.209430  -0.324227   0.112865  -0.523343
   22  H  3  S    0.003574  -0.028322  -0.043847   0.024014  -0.054445
   23  H  3  X    0.018760   0.006781  -0.023627   0.009336  -0.039151
   24  H  3  Y    0.032493  -0.024174  -0.017723   0.016171  -0.067811
   25  H  3  Z   -0.009251   0.010067   0.015585   0.018769  -0.010566
   26  H  4  S    0.194462   0.385503  -0.019258   0.112865  -0.523343
   27  H  4  S    0.003574   0.052134  -0.002604   0.024014  -0.054445
   28  H  4  X   -0.037519  -0.032295   0.001613  -0.018672   0.078302
   29  H  4  Y    0.000000   0.001067   0.021353  -0.000000   0.000000
   30  H  4  Z   -0.009251  -0.018530   0.000926   0.018769  -0.010566

                      6          7

    1  N  1  S    0.000000  -0.000000
    2  N  1  S    0.000000  -0.000000
    3  N  1  S   -0.000000   0.000000
    4  N  1  X   -0.930415  -0.002083
    5  N  1  Y   -0.002083   0.930415
    6  N  1  Z   -0.000000   0.000000
    7  N  1  X   -0.046866  -0.000105
    8  N  1  Y   -0.000105   0.046866
    9  N  1  Z   -0.000000   0.000000
   10  N  1 XX    0.001538   0.000003
   11  N  1 YY   -0.001538  -0.000003
   12  N  1 ZZ   -0.000000   0.000000
   13  N  1 XY   -0.000004   0.001776
   14  N  1 XZ    0.039985   0.000090
   15  N  1 YZ    0.000090  -0.039985
   16  H  2  S   -0.362630  -0.631354
   17  H  2  S   -0.065964  -0.114846
   18  H  2  X    0.002763  -0.037520
   19  H  2  Y    0.037435   0.040736
   20  H  2  Z    0.001882   0.003276
   21  H  3  S   -0.365454   0.629724
   22  H  3  S   -0.066477   0.114549
   23  H  3  X    0.002595   0.037532
   24  H  3  Y   -0.037617   0.040567
   25  H  3  Z    0.001896  -0.003268
   26  H  4  S    0.728084   0.001630
   27  H  4  S    0.132441   0.000297
   28  H  4  X   -0.062317  -0.000140
   29  H  4  Y    0.000055  -0.024345
   30  H  4  Z   -0.003778  -0.000008

NUMBER OF SUB ACTIVE SPACES:   1
ROTATE ACTIVE MOS TO DMOS IN EACH SUB-SPACE

SPACE  1:

OVERLAP BETWEEN ORTHONORMAL AND PRE-ORTHONORMAL REF. DMOS

             1           2           3           4           5

    1    0.9587161   0.0222662   0.0047894  -0.0157421  -0.0104341
    2    0.0222662   0.8451676   0.1223456   0.0407669  -0.0660016
    3    0.0047894   0.1223456   0.9780336   0.0340610  -0.0794928
    4   -0.0157421   0.0407669   0.0340610   0.9871465  -0.0163457
    5   -0.0104341  -0.0660016  -0.0794928  -0.0163457   1.2818667
    6    0.0059497  -0.1136674   0.1277717   0.0530855  -0.0456378
    7   -0.0030992  -0.0951443  -0.0209204  -0.0715332   0.1404027

             6           7

    1    0.0059497  -0.0030992
    2   -0.1136674  -0.0951443
    3    0.1277717  -0.0209204
    4    0.0530855  -0.0715332
    5   -0.0456378   0.1404027
    6    1.0558238  -0.0296579
    7   -0.0296579   1.0758284
REFERENCE DMOS AFTER ORTHONORMALIZATION:

                      1          2          3          4          5

    1  N  1  S    0.010651   0.013641   0.015033  -0.013143   0.223001
    2  N  1  S    0.464986   0.036950   0.049655  -0.179722   0.695128
    3  N  1  S    0.284788   0.012263   0.013778  -0.289788   0.116716
    4  N  1  X   -0.005394   0.468328   0.024333   0.025932  -0.005937
    5  N  1  Y   -0.000372   0.041860   0.516441   0.045953  -0.064022
    6  N  1  Z    0.109989   0.003174   0.024326   0.609488   0.563722
    7  N  1  X   -0.005668   0.256984  -0.040167  -0.007166   0.008035
    8  N  1  Y   -0.000345  -0.017797   0.222751  -0.002146   0.007020
    9  N  1  Z    0.001772  -0.022726  -0.013870   0.390319  -0.084354
   10  N  1 XX   -0.000991   0.014599  -0.002017  -0.013248   0.005423
   11  N  1 YY   -0.000338  -0.012832   0.003203  -0.012110   0.004368
   12  N  1 ZZ    0.001329  -0.001768  -0.001187   0.025357  -0.009791
   13  N  1 XY    0.000023   0.001507  -0.013118   0.000408  -0.000857
   14  N  1 XZ   -0.001154   0.039825  -0.011678  -0.003291   0.002396
   15  N  1 YZ   -0.000068  -0.006912   0.028341  -0.003121   0.005383
   16  H  2  S    0.209745  -0.437024   0.422785   0.099230  -0.355457
   17  H  2  S    0.005058  -0.063830   0.060488   0.021022  -0.032819
   18  H  2  X    0.019177   0.001262   0.020403   0.006479  -0.025699
   19  H  2  Y   -0.034745   0.046362  -0.026898  -0.017129   0.051006
   20  H  2  Z   -0.009641   0.012890  -0.020313   0.019095  -0.009210
   21  H  3  S    0.211586  -0.237132  -0.292119   0.193598  -0.515908
   22  H  3  S    0.005338  -0.030807  -0.036558   0.037440  -0.060288
   23  H  3  X    0.019299   0.013879  -0.029263   0.012257  -0.035618
   24  H  3  Y    0.034855  -0.034040  -0.013599   0.023086  -0.061059
   25  H  3  Z   -0.009701   0.008785   0.013716   0.017917  -0.006799
   26  H  4  S    0.183389   0.566828  -0.221034   0.063208  -0.376807
   27  H  4  S    0.001020   0.083205  -0.034114   0.015326  -0.037054
   28  H  4  X   -0.037453  -0.045017   0.020732  -0.015024   0.058863
   29  H  4  Y   -0.000050  -0.004766   0.022763  -0.002025   0.003564
   30  H  4  Z   -0.008810  -0.025002   0.003712   0.020068  -0.009422

                      6          7

    1  N  1  S    0.009097  -0.028197
    2  N  1  S    0.031729  -0.096221
    3  N  1  S    0.016768  -0.031865
    4  N  1  X   -0.834732   0.019427
    5  N  1  Y   -0.040072   0.888886
    6  N  1  Z   -0.010406  -0.032260
    7  N  1  X   -0.010559   0.020016
    8  N  1  Y   -0.027308   0.044508
    9  N  1  Z   -0.023093   0.034050
   10  N  1 XX    0.004172  -0.000221
   11  N  1 YY   -0.002497  -0.002521
   12  N  1 ZZ   -0.001675   0.002742
   13  N  1 XY    0.001736   0.001716
   14  N  1 XZ    0.043961   0.004055
   15  N  1 YZ   -0.004774  -0.038269
   16  H  2  S   -0.479410  -0.576907
   17  H  2  S   -0.082200  -0.107790
   18  H  2  X   -0.002120  -0.030585
   19  H  2  Y    0.047943   0.034867
   20  H  2  Z    0.004503   0.006358
   21  H  3  S   -0.351845   0.629799
   22  H  3  S   -0.063237   0.111669
   23  H  3  X    0.006387   0.041240
   24  H  3  Y   -0.040437   0.042923
   25  H  3  Z   -0.000056   0.000055
   26  H  4  S    0.760295   0.122213
   27  H  4  S    0.136613   0.016595
   28  H  4  X   -0.063267  -0.014241
   29  H  4  Y   -0.003615  -0.023307
   30  H  4  Z   -0.008081   0.000169

 -------------------------------------------
       MAXIMIZING MORMO OVERLAP TERM        
 -------------------------------------------
   SWEEP    VALUE       PROGRESS
     0     5.01850
     1     6.75524     1.73674322
     2     6.78519     0.02995286
     3     6.78520     0.00000212
     4     6.78520     0.00000000
     5     6.78520    -0.00000000
     6     6.78520     0.00000000
 THE ROTATION IS DONE
FLIPPING SIGN FOR ORBITAL   7
ACTIVE ORBITALS AFTER MORMO:

                      1          2          3          4          5

    1  N  1  S    0.012861   0.003351   0.003874  -0.031795   0.097007
    2  N  1  S    0.430980   0.016045   0.007132  -0.236518   0.493894
    3  N  1  S    0.344284   0.054662   0.058487  -0.200010   0.472185
    4  N  1  X   -0.000356   0.384169   0.067136   0.035391   0.001843
    5  N  1  Y   -0.012425   0.066200   0.465881   0.031257  -0.144692
    6  N  1  Z    0.087819  -0.014980   0.015369   0.605598   0.338123
    7  N  1  X   -0.011970   0.376303  -0.125962  -0.042932   0.011523
    8  N  1  Y    0.006090  -0.059289   0.254686  -0.029404   0.140660
    9  N  1  Z    0.037514   0.000691  -0.017771   0.399637   0.184559
   10  N  1 XX   -0.004667   0.032283  -0.019179  -0.015717  -0.000576
   11  N  1 YY    0.007293  -0.035254   0.015708   0.001170  -0.017323
   12  N  1 ZZ   -0.002625   0.002972   0.003471   0.014546   0.017899
   13  N  1 XY    0.005046   0.005590  -0.004593   0.005126  -0.012572
   14  N  1 XZ    0.000771   0.035037  -0.022327   0.000966  -0.028928
   15  N  1 YZ    0.003184  -0.012388   0.021116   0.009409  -0.010878
   16  H  2  S    0.180586  -0.228703   0.328087   0.095780  -0.332224
   17  H  2  S    0.022909  -0.255270   0.131432   0.005168  -0.232558
   18  H  2  X    0.000270   0.028695  -0.023438  -0.007524  -0.031522
   19  H  2  Y   -0.023726  -0.000243  -0.037079  -0.017792  -0.011099
   20  H  2  Z   -0.005369   0.002615  -0.020147   0.008374  -0.007719
   21  H  3  S    0.184611  -0.229344  -0.313553   0.143219  -0.519777
   22  H  3  S    0.002648  -0.046123  -0.036601   0.027109  -0.113431
   23  H  3  X    0.010689   0.013243  -0.024642   0.002908  -0.014866
   24  H  3  Y    0.028485  -0.025087  -0.030258   0.012468  -0.030157
   25  H  3  Z   -0.001820   0.005634   0.005688   0.018142   0.017805
   26  H  4  S    0.176179   0.416652  -0.092318   0.085308  -0.370538
   27  H  4  S    0.003089   0.174932  -0.133739   0.008986  -0.162841
   28  H  4  X   -0.027005  -0.019224  -0.014017  -0.019948   0.007093
   29  H  4  Y   -0.007499  -0.050134   0.020751  -0.010864  -0.026108
   30  H  4  Z   -0.011477  -0.032421  -0.001940   0.008949  -0.000658

                      6          7

    1  N  1  S    0.053700  -0.150053
    2  N  1  S    0.124612  -0.333571
    3  N  1  S   -0.094626   0.300190
[...]
       16   -0.041491    0.041491  222000+
       46   -0.040283    0.040283  2-+-++0
      752    0.040097    0.040097  2+-+002
      708   -0.038454    0.038454  2-++0+-
       99   -0.038119    0.038119  20-20++
      822    0.036674   -0.036674  2+02002
      718   -0.036262    0.036262  2-++002
      704   -0.035236    0.035236  2-+++0-
       75   -0.034968   -0.034968  -+22+00
      147   -0.034697    0.034697  220+-+0
       62    0.034327   -0.034327  2-+-0++
      463   -0.033804    0.033804  20+2020
      707    0.032946    0.032946  220+0+-
      188    0.032401    0.032401  20-+2+0
      459   -0.032167    0.032167  20+2+-0
       38   -0.031298    0.031298  2202+00
        8   -0.031109    0.031109  2-2+0+0
      320    0.030481    0.030481  0+22200
      158    0.030407    0.030407  2-++-0+
      741    0.030071   -0.030071  2+200+-
      317    0.029772   -0.029772  ++2-200
       41   -0.029196    0.029196  22+-0+0
      181   -0.028598   -0.028598  2+20-+0
       48    0.028534   -0.028534  2-02++0
      253   -0.028493   -0.028493  20+2-+0
       27   -0.028037    0.028037  2-200++
      145    0.027815    0.027815  -2++200
      561    0.027720    0.027720  2+++--0
      813    0.027539   -0.027539  20+20+-
      252   -0.027431   -0.027431  2+02-+0
      143   -0.027334   -0.027334  220+200
      106    0.026654    0.026654  +222000
     1051   -0.026411   -0.026411  2+++0--
        6    0.025533   -0.025533  22200+0
      157   -0.024908    0.024908  220+-0+
      388    0.024792    0.024792  2+-++-0
      806    0.024765    0.024765  2++200-
      391    0.024531   -0.024531  2+20020
      738    0.024299    0.024299  2+-++0-
      248    0.024246   -0.024246  2+02200
       10   -0.023715   -0.023715  22-0++0
       93    0.023348   -0.023348  20-2+0+
      214    0.023131    0.023131  +-2+200
      911    0.022955    0.022955  2+++-0-
      740   -0.022881    0.022881  -+2++0-
      263   -0.022874   -0.022874  20+2-0+
      810   -0.022467   -0.022467  -++2+0-
       13    0.021644    0.021644  2--+++0
      564   -0.021566   -0.021566  20++2-0
      913   -0.021229   -0.021229  2+0+20-
       61   -0.021138   -0.021138  220-0++
       52    0.021050   -0.021050  220200+
      191    0.020650    0.020650  2+20-0+

 State #    3  Energy =     -55.723136489

      Det      Coef        Coefp    Occupancy (Ignoring core)
      ---      ----        ----    --------- --------- -----
       71    0.424318   -0.424318  2+22000
      176    0.335924   -0.335924  2+2+-00
       36   -0.323391   -0.323391  22+2000
        4   -0.300358    0.300358  2-2++00
      246   -0.236619   -0.236619  2++2-00
        1    0.217561   -0.217561  222+000
       73    0.194129   -0.194129  2+-2+00
       18   -0.167183    0.167183  2-2+00+
      736    0.140808   -0.140808  2+2+00-
        3    0.126504    0.126504  22-++00
      141   -0.123298   -0.123298  22++-00
      183   -0.116574    0.116574  202+-+0
      806   -0.107984   -0.107984  2++200-
       78   -0.105714    0.105714  20220+0
       77   -0.101469    0.101469  2+-20+0
      389    0.098608    0.098608  202++-0
      179    0.094743    0.094743  202+200
        2   -0.093842    0.093842  2220+00
      182   -0.091903    0.091903  2+-+-+0
       38    0.086136   -0.086136  2202+00
      354   -0.084106    0.084106  2-+++-0
      386    0.084067   -0.084067  2+2+0-0
      253    0.083520    0.083520  20+2-+0
       17    0.082966    0.082966  22-+00+
      739    0.079595    0.079595  202++0-
       43    0.078574    0.078574  2-+20+0
      193   -0.076568    0.076568  202+-0+
       16   -0.074544    0.074544  222000+
      561    0.071454    0.071454  2+++--0
      351   -0.071234   -0.071234  22++0-0
       11    0.070238   -0.070238  2-20++0
      252    0.069251    0.069251  2+02-+0
       87    0.061970   -0.061970  2+-200+
       42   -0.060472    0.060472  22020+0
       83   -0.055968    0.055968  20-2++0
      813   -0.055466    0.055466  20+20+-
      177   -0.051424    0.051424  2+20200
      368    0.050497    0.050497  2-++0-+
       76   -0.050213   -0.050213  2+2-0+0
      403   -0.049787    0.049787  202+0-+
      753    0.047934    0.047934  202+002
       53    0.046014    0.046014  2-+200+
      191    0.045939    0.045939  2+20-0+
      743    0.043828    0.043828  202+0+-
      701   -0.043811   -0.043811  22++00-
       48   -0.042885    0.042885  2-02++0
      148    0.042679    0.042679  2-++-+0
       39    0.042490    0.042490  2-+2+00
      263    0.041767    0.041767  20+2-0+
       27   -0.041591    0.041591  2-200++
      181   -0.040754   -0.040754  2+20-+0
       10   -0.040037   -0.040037  22-0++0
      192   -0.039158    0.039158  2+-+-0+
       51   -0.039155    0.039155  22+-00+
      143   -0.038965   -0.038965  220+200
       74    0.038828   -0.038828  2022+00
        7    0.038746    0.038746  22-+0+0
      186    0.038560   -0.038560  20202+0
      738    0.037927    0.037927  2+-++0-
       99    0.037317   -0.037317  20-20++
      752    0.036747    0.036747  2+-+002
      704   -0.036411    0.036411  2-+++0-
      822   -0.036170    0.036170  2+02002
      742    0.036012    0.036012  2+-+0+-
      568    0.035708   -0.035708  20++-20
       72   -0.035566   -0.035566  2+2-+00
     1051   -0.035512   -0.035512  2+++0--
      463    0.035230   -0.035230  20+2020
      564   -0.034801   -0.034801  20++2-0
        8   -0.033853    0.033853  2-2+0+0
      812   -0.033649    0.033649  2+020+-
       41    0.032488   -0.032488  22+-0+0
       13    0.031401    0.031401  2--+++0
       64    0.030798   -0.030798  2-020++
      388    0.030474    0.030474  2+-++-0
       80    0.030027    0.030027  2+--++0
      323    0.029943   -0.029943  +022-+0
      202    0.029759    0.029759  2020-++
      387   -0.029484    0.029484  2+20+-0
      214    0.029032    0.029032  +-2+200
      188    0.028670    0.028670  20-+2+0
       26    0.027752    0.027752  22-00++
      332    0.027737   -0.027737  ++-2-0+
      459   -0.027552    0.027552  20+2+-0
      751   -0.027414    0.027414  2+20002
      737   -0.026682    0.026682  2+20+0-
       52    0.026603   -0.026603  220200+
      810    0.026394    0.026394  -++2+0-
       86    0.026375    0.026375  2+2-00+
      458   -0.026365    0.026365  2+02+-0
      718   -0.026145    0.026145  2-++002
      398   -0.025129    0.025129  20-++20
      366   -0.024762    0.024762  22+00-+
     1054    0.024703    0.024703  20+++--
      158    0.024530    0.024530  2-++-0+
      746   -0.024480   -0.024480  2020++-
      352    0.024150    0.024150  22+0+-0
      156   -0.023864    0.023864  22+0-0+
      147   -0.023707    0.023707  220+-+0
      809   -0.023445    0.023445  20+2+0-
      456    0.022895    0.022895  2++20-0
      702    0.022893    0.022893  22+0+0-
      251   -0.022230   -0.022230  2++--+0
      401    0.022169    0.022169  2+200-+
      201    0.021845    0.021845  2+-0-++
      264   -0.021687    0.021687  -++2-0+
      353    0.021431    0.021431  220++-0
      396   -0.021390   -0.021390  2020+20
      367   -0.021272    0.021272  220+0-+
       29   -0.020723   -0.020723  2--+0++
      142    0.020703    0.020703  22+0200
      261    0.020637    0.020637  2++--0+
      823   -0.020533    0.020533  20+2002

 ---------------------------------------
      - DIABATIC STATES IN CMO -        
 ---------------------------------------

 State #    1  Energy =     -55.783387206

      Det      Coef        Coefp    Occupancy (Ignoring core)
      ---      ----        ----    --------- --------- -----
        1    0.701346   -0.701346  222+000
       71   -0.427292    0.427292  2+22000
      176   -0.383947    0.383947  2+2+-00
       72    0.253613    0.253613  2+2-+00
       74   -0.164201    0.164201  2022+00
        4    0.130334   -0.130334  2-2++00
        2    0.093168   -0.093168  2220+00
      106   -0.062616   -0.062616  +222000
      179   -0.061962   -0.061962  202+200
      393   -0.046947   -0.046947  202+020
      178   -0.046222   -0.046222  2+-+200
      143   -0.045234   -0.045234  220+200
      248    0.043844   -0.043844  2+02200
      388   -0.041391   -0.041391  2+-++-0
      183    0.039860   -0.039860  202+-+0
      389   -0.037722   -0.037722  202++-0
      316   -0.037235   -0.037235  ++22-00
      391    0.036902   -0.036902  2+20020
      717   -0.034949   -0.034949  220+002
      561    0.032595    0.032595  2+++--0
      214   -0.031694   -0.031694  +-2+200
      390    0.030972   -0.030972  -+2++-0
      215   -0.030539   -0.030539  022+200
      144    0.030313   -0.030313  2-++200
        6   -0.028854    0.028854  22200+0
      180    0.028171   -0.028171  -+2+200
      402   -0.027168    0.027168  2+-+0-+
       76    0.025104    0.025104  2+2-0+0
       75    0.022075    0.022075  -+22+00
      249    0.022018   -0.022018  20+2200
      738    0.021372    0.021372  2+-++0-
      158    0.021266    0.021266  2-++-0+
      181   -0.021051   -0.021051  2+20-+0
      927    0.020816   -0.020816  2+0+-02
      357   -0.020722   -0.020722  220+020
       11    0.020276   -0.020276  2-20++0
       38   -0.020257    0.020257  2202+00
      177   -0.020173    0.020173  2+20200
       13    0.020111    0.020111  2--+++0
      318    0.020081    0.020081  ++-2200

 State #    2  Energy =     -55.788270176

      Det      Coef        Coefp    Occupancy (Ignoring core)
      ---      ----        ----    --------- --------- -----
       71   -0.845078    0.845078  2+22000
      176    0.337458   -0.337458  2+2+-00
       72   -0.214623   -0.214623  2+2-+00
        1   -0.176757    0.176757  222+000
       74    0.140778   -0.140778  2022+00
        4   -0.122835    0.122835  2-2++00
      177    0.073142   -0.073142  2+20200
        2   -0.061091    0.061091  2220+00
      178    0.057116    0.057116  2+-+200
      248    0.053078   -0.053078  2+02200
      183   -0.044775    0.044775  202+-+0
      179    0.044525    0.044525  202+200
      180   -0.042722    0.042722  -+2+200
      822    0.042569   -0.042569  2+02002
      181    0.040724    0.040724  2+20-+0
      247   -0.039969    0.039969  2++-200
      320    0.036158    0.036158  0+22200
      391    0.033723   -0.033723  2+20020
      387   -0.033020    0.033020  2+20+-0
      109    0.030149   -0.030149  +-22+00
       78    0.029252   -0.029252  20220+0
       81    0.029234    0.029234  202-++0
      752   -0.028797   -0.028797  2+-+002
      192    0.028410   -0.028410  2+-+-0+
      738   -0.028406   -0.028406  2+-++0-
      751    0.026905   -0.026905  2+20002
       75   -0.026667   -0.026667  -+22+00
      821    0.025947   -0.025947  2++-002
      462    0.025548   -0.025548  2+02020
      392    0.025190    0.025190  2+-+020
      317    0.024315   -0.024315  ++2-200
      246    0.023392    0.023392  2++2-00
      123    0.023051   -0.023051  +-2200+
      461   -0.023015    0.023015  2++-020
       53    0.022817    0.022817  2-+200+
       83    0.022592   -0.022592  20-2++0
      892   -0.022405   -0.022405  ++-2002
      253   -0.022377   -0.022377  20+2-+0
      740   -0.021964    0.021964  -+2++0-
      824    0.021259    0.021259  -++2002
      927   -0.021097    0.021097  2+0+-02
      251   -0.020368   -0.020368  2++--+0
      261   -0.020203   -0.020203  2++--0+

 State #    3  Energy =     -55.723136489

      Det      Coef        Coefp    Occupancy (Ignoring core)
      ---      ----        ----    --------- --------- -----
        1    0.651813   -0.651813  222+000
      176    0.510948   -0.510948  2+2+-00
       72   -0.329029   -0.329029  2+2-+00
       74    0.233882   -0.233882  2022+00
       71    0.232171   -0.232171  2+22000
        4   -0.181919    0.181919  2-2++00
        2   -0.128555    0.128555  2220+00
      143   -0.056998   -0.056998  220+200
        3   -0.043983   -0.043983  22-++00
      183   -0.041056    0.041056  202+-+0
      316    0.038710    0.038710  ++22-00
       73    0.037244   -0.037244  2+-2+00
      141    0.036521    0.036521  22++-00
      248   -0.035677    0.035677  2+02200
      387   -0.034291    0.034291  2+20+-0
      389    0.030782    0.030782  202++-0
      211    0.029917    0.029917  +22+-00
      717   -0.029566   -0.029566  220+002
      178    0.027809    0.027809  2+-+200
      246   -0.027529   -0.027529  2++2-00
      247   -0.027256    0.027256  2++-200
      215   -0.027026   -0.027026  022+200
      148   -0.026776   -0.026776  2-++-+0
      249   -0.026681    0.026681  20+2200
      927   -0.026109    0.026109  2+0+-02
      142    0.025943    0.025943  22+0200
       75   -0.022291   -0.022291  -+22+00
      227    0.021839    0.021839  +2-+-0+
      181    0.021387    0.021387  2+20-+0
      357   -0.020558   -0.020558  220+020
       13    0.020183    0.020183  2--+++0
      213    0.020127   -0.020127  +2-+200
      112   -0.020109   -0.020109  +2-20+0

 ---------------------------------------
    -DIABATIC STATES IN PROTOTYPES-     
 ---------------------------------------

     STATE:    1
 Group Ref#    Coefficients
     1    1    0.746513
     2    2    0.137785
     3    3    0.112699

WEIGHT OF LISTED PROTOTYPES:   58.90%

     STATE:    2
 Group Ref#    Coefficients
     1    1    0.147688
     2    2    0.571965
     3    3   -0.249795

WEIGHT OF LISTED PROTOTYPES:   41.14%

     STATE:    3
 Group Ref#    Coefficients
     1    1    0.215327
     2    2   -0.445265
     3    3    0.310216

WEIGHT OF LISTED PROTOTYPES:   34.09%

     DIRECT MAX. DIABATIZATION FINISHED    
 CPU     0: STEP CPU TIME=     0.26 TOTAL CPU TIME=         15.9 (      0.3 MIN)
 TOTAL WALL CLOCK TIME=         15.9 SECONDS, CPU UTILIZATION IS    99.94%

DIABATS FOR SPIN-ORBIT CALCULATION ARE READY

TRANSITION DIPOLES BETWEEN ADIABATS (in A.U.):

STATE PAIR      X         Y         Z
    1    1  0.293489  0.513527  0.537185
    2    1  0.003298  0.002374 -0.168461
    2    2  0.497672  0.404295  0.427442
    3    1 -0.084627  0.021277 -0.078099
    3    2 -0.075427 -0.157853 -0.075021
    3    3  0.552097  0.913611  0.990217


TRANSITION DIPOLES BETWEEN DIABATS (in A.U.):

STATE PAIR      X         Y         Z
    1    1  0.377631  0.614712  0.695729
    2    1 -0.141621 -0.061467 -0.061360
    2    2  0.471014  0.541677  0.414801
    3    1 -0.010353 -0.227942 -0.091161
    3    2  0.086369  0.192562  0.263535
    3    3  0.494612  0.675044  0.844315

TRANSITION DIPOLES BETWEEN DIRECT MAX. DIABATS (in A.U.):

STATE PAIR      X         Y         Z
    1    1  0.381418  0.674191  0.721278
    2    1 -0.153058 -0.137069 -0.118281
    2    2  0.503347  0.629333  0.552170
    3    1  0.011039 -0.201050 -0.081210
    3    2  0.064021  0.180142  0.317342
    3    3  0.458492  0.527909  0.681397
 No $TRANST Group Found.
 Quit without doing spin-orbit coupling
 ..... DONE WITH MP2 ENERGY .....
 CPU     0: STEP CPU TIME=     0.00 TOTAL CPU TIME=         15.9 (      0.3 MIN)
 TOTAL WALL CLOCK TIME=         15.9 SECONDS, CPU UTILIZATION IS    99.94%
            100000000  WORDS OF DYNAMIC MEMORY USED
 EXECUTION OF GAMESS TERMINATED NORMALLY Wed Nov 16 20:29:09 2022
 DDI: 715512 bytes (0.7 MB / 0 MWords) used by master data server.

 ----------------------------------------
 CPU timing information for all processes
 ========================================
 0: 15.636 + 0.304 = 15.940
 ----------------------------------------
Note: The following floating-point exceptions are signalling: IEEE_DENORMAL
 ddikick.x: exited gracefully.
unset echo
----- accounting info -----
Files used on the master node io002 were:
-rw-r--r-- 1 bsonghao nooijen   20719 Nov 16 20:28 /scratch/bsonghao/nh3_diabatization_2d_at_mode_7_8_dist0.8_0.7.F05
-rw-r--r-- 1 bsonghao nooijen  363520 Nov 16 20:29 /scratch/bsonghao/nh3_diabatization_2d_at_mode_7_8_dist0.8_0.7.F09
-rw-r--r-- 1 bsonghao nooijen 1995920 Nov 16 20:29 /scratch/bsonghao/nh3_diabatization_2d_at_mode_7_8_dist0.8_0.7.F10
-rw-r--r-- 1 bsonghao nooijen  131264 Nov 16 20:29 /scratch/bsonghao/nh3_diabatization_2d_at_mode_7_8_dist0.8_0.7.F13
-rw-r--r-- 1 bsonghao nooijen  180312 Nov 16 20:29 /scratch/bsonghao/nh3_diabatization_2d_at_mode_7_8_dist0.8_0.7.F15
-rw-r--r-- 1 bsonghao nooijen       0 Nov 16 20:28 /scratch/bsonghao/nh3_diabatization_2d_at_mode_7_8_dist0.8_0.7.F16
-rw-r--r-- 1 bsonghao nooijen    9808 Nov 16 20:29 /scratch/bsonghao/nh3_diabatization_2d_at_mode_7_8_dist0.8_0.7.F70
-rw-r--r-- 1 bsonghao nooijen    9808 Nov 16 20:29 /scratch/bsonghao/nh3_diabatization_2d_at_mode_7_8_dist0.8_0.7.F71
-rw-r--r-- 1 bsonghao nooijen   19608 Nov 16 20:29 /scratch/bsonghao/nh3_diabatization_2d_at_mode_7_8_dist0.8_0.7.F72
-rw-r--r-- 1 bsonghao nooijen   19608 Nov 16 20:29 /scratch/bsonghao/nh3_diabatization_2d_at_mode_7_8_dist0.8_0.7.F73
-rw-r--r-- 1 bsonghao nooijen 1920824 Nov 16 20:29 /scratch/bsonghao/nh3_diabatization_2d_at_mode_7_8_dist0.8_0.7.F74
-rw-r--r-- 1 bsonghao nooijen       0 Nov 16 20:28 /scratch/bsonghao/nh3_diabatization_2d_at_mode_7_8_dist0.8_0.7.F75
-rw-r--r-- 1 bsonghao nooijen   58848 Nov 16 20:29 /scratch/bsonghao/nh3_diabatization_2d_at_mode_7_8_dist0.8_0.7.F76
-rw-r--r-- 1 bsonghao nooijen       0 Nov 16 20:28 /scratch/bsonghao/nh3_diabatization_2d_at_mode_7_8_dist0.8_0.7.F77
-rw-r--r-- 1 bsonghao nooijen    1864 Nov 16 20:29 /scratch/bsonghao/nh3_diabatization_2d_at_mode_7_8_dist0.8_0.7.F78
-rw-r--r-- 1 bsonghao nooijen   39208 Nov 16 20:29 /scratch/bsonghao/nh3_diabatization_2d_at_mode_7_8_dist0.8_0.7.F79
-rw-r--r-- 1 bsonghao nooijen     104 Nov 16 20:29 /scratch/bsonghao/nh3_diabatization_2d_at_mode_7_8_dist0.8_0.7.F80
-rw-r--r-- 1 bsonghao nooijen   13472 Nov 16 20:29 /scratch/bsonghao/nh3_diabatization_2d_at_mode_7_8_dist0.8_0.7.F81
-rw-r--r-- 1 bsonghao nooijen      16 Nov 16 20:29 /scratch/bsonghao/nh3_diabatization_2d_at_mode_7_8_dist0.8_0.7.F82
-rw-r--r-- 1 bsonghao nooijen   19216 Nov 16 20:29 /scratch/bsonghao/nh3_diabatization_2d_at_mode_7_8_dist0.8_0.7.F83
-rw-r--r-- 1 bsonghao nooijen   29712 Nov 16 20:29 /scratch/bsonghao/nh3_diabatization_2d_at_mode_7_8_dist0.8_0.7.F84
-rw-r--r-- 1 bsonghao nooijen  401576 Nov 16 20:29 /scratch/bsonghao/nh3_diabatization_2d_at_mode_7_8_dist0.8_0.7.F85
-rw-r--r-- 1 bsonghao nooijen  903672 Nov 16 20:29 /scratch/bsonghao/nh3_diabatization_2d_at_mode_7_8_dist0.8_0.7.F86
-rw-r--r-- 1 bsonghao nooijen     656 Nov 16 20:29 /scratch/bsonghao/nh3_diabatization_2d_at_mode_7_8_dist0.8_0.7.F87
-rw-r--r-- 1 bsonghao nooijen   48592 Nov 16 20:29 /scratch/bsonghao/nh3_diabatization_2d_at_mode_7_8_dist0.8_0.7.F88
-rw-r--r-- 1 bsonghao nooijen     240 Nov 16 20:29 /scratch/bsonghao/nh3_diabatization_2d_at_mode_7_8_dist0.8_0.7.F89
-rw-r--r-- 1 bsonghao nooijen       0 Nov 16 20:28 /scratch/bsonghao/nh3_diabatization_2d_at_mode_7_8_dist0.8_0.7.F90
-rw-r--r-- 1 bsonghao nooijen   13760 Nov 16 20:29 /scratch/bsonghao/nh3_diabatization_2d_at_mode_7_8_dist0.8_0.7.F91
-rw-r--r-- 1 bsonghao nooijen   22776 Nov 16 20:29 /scratch/bsonghao/nh3_diabatization_2d_at_mode_7_8_dist0.8_0.7.F92
-rw-r--r-- 1 bsonghao nooijen   23168 Nov 16 20:29 /scratch/bsonghao/nh3_diabatization_2d_at_mode_7_8_dist0.8_0.7.F93
-rw-r--r-- 1 bsonghao nooijen   22776 Nov 16 20:29 /scratch/bsonghao/nh3_diabatization_2d_at_mode_7_8_dist0.8_0.7.F94
-rw-r--r-- 1 bsonghao nooijen   13760 Nov 16 20:29 /scratch/bsonghao/nh3_diabatization_2d_at_mode_7_8_dist0.8_0.7.F95
-rw-r--r-- 1 bsonghao nooijen   29440 Nov 16 20:29 /scratch/bsonghao/nh3_diabatization_2d_at_mode_7_8_dist0.8_0.7.F96
-rw-r--r-- 1 bsonghao nooijen    1184 Nov 16 20:29 /scratch/bsonghao/nh3_diabatization_2d_at_mode_7_8_dist0.8_0.7.F97
-rw-r--r-- 1 bsonghao nooijen    9808 Nov 16 20:29 /scratch/bsonghao/nh3_diabatization_2d_at_mode_7_8_dist0.8_0.7.F98
-rw-r--r-- 1 bsonghao nooijen   30264 Nov 16 20:29 /scratch/bsonghao/nh3_diabatization_2d_at_mode_7_8_dist0.8_0.7.F99
ls: No match.
ls: No match.
ls: No match.
Wed 16 Nov 2022 08:29:13 PM EST
0.295u 0.033s 0:19.31 1.6%	0+0k 48+224io 0pf+0w
