----- GAMESS execution script 'rungms' -----
This job is running on host io002
under operating system Linux at Wed 16 Nov 2022 07:20:18 PM EST
Available scratch disk space (Kbyte units) at beginning of the job is
Filesystem       1K-blocks       Used   Available Use% Mounted on
/dev/sdc1      15378471580 3278917120 11318349060  23% /scratch
GAMESS temporary binary files will be written to /scratch/bsonghao
GAMESS supplementary output files will be written to /home/bsonghao/.gamess_ascii_files/267638
Copying input file nh3_diabatization_2d_at_mode_7_8_dist0.0_-0.7.inp to your run's scratch directory...
cp nh3_diabatization_2d_at_mode_7_8_dist0.0_-0.7.inp /scratch/bsonghao/nh3_diabatization_2d_at_mode_7_8_dist0.0_-0.7.F05
unset echo
/home/bjb2chen/gamess/ddikick.x /home/bjb2chen/gamess/gamess.00.x nh3_diabatization_2d_at_mode_7_8_dist0.0_-0.7 -ddi 1 1 io002 -scr /scratch/bsonghao

 Distributed Data Interface kickoff program.
 Initiating 1 compute processes on 1 nodes to run the following command:
 /home/bjb2chen/gamess/gamess.00.x nh3_diabatization_2d_at_mode_7_8_dist0.0_-0.7 

          ******************************************************
          *         GAMESS VERSION = 02 AUG 2018 (R2)         *
          *             FROM IOWA STATE UNIVERSITY             *
          * M.W.SCHMIDT, K.K.BALDRIDGE, J.A.BOATZ, S.T.ELBERT, *
          *   M.S.GORDON, J.H.JENSEN, S.KOSEKI, N.MATSUNAGA,   *
          *          K.A.NGUYEN, S.J.SU, T.L.WINDUS,           *
          *       TOGETHER WITH M.DUPUIS, J.A.MONTGOMERY       *
          *         J.COMPUT.CHEM.  14, 1347-1363(1993)        *
          **************** 64 BIT LINUX VERSION ****************

  SINCE 1993, STUDENTS AND POSTDOCS WORKING AT IOWA STATE UNIVERSITY
  AND ALSO IN THEIR VARIOUS JOBS AFTER LEAVING ISU HAVE MADE IMPORTANT
  CONTRIBUTIONS TO THE CODE:
     IVANA ADAMOVIC, CHRISTINE AIKENS, YURI ALEXEEV, POOJA ARORA,
     ANDREY ASADCHEV, ROB BELL, PRADIPTA BANDYOPADHYAY, JONATHAN BENTZ,
     BRETT BODE, KURT BRORSEN, CALEB CARLIN, GALINA CHABAN, WEI CHEN,
     CHEOL HO CHOI, PAUL DAY, ALBERT DEFUSCO, NUWAN DESILVA, TIM DUDLEY,
     DMITRI FEDOROV, ALEX FINDLATER, GRAHAM FLETCHER, MARK FREITAG,
     KURT GLAESEMANN, ANASTASIA GUININA,
     DAN KEMP, GRANT MERRILL, NORIYUKI MINEZAWA, JONATHAN MULLIN,
     TAKESHI NAGATA, SEAN NEDD, HEATHER NETZLOFF, BOSILJKA NJEGIC, RYAN OLSON,
     MIKE PAK, BUU PHAM,
     SPENCER PRUITT, LUKE ROSKOP, JIM SHOEMAKER, LYUDMILA SLIPCHENKO,
     TONY SMITH, SAROM SOK LEANG, JIE SONG, TETSUYA TAKETSUGU, SIMON WEBB,
     PENG XU, SOOHAENG YOO, FEDERICO ZAHARIEV

  ADDITIONAL CODE HAS BEEN PROVIDED BY COLLABORATORS IN OTHER GROUPS:
     IOWA STATE UNIVERSITY:
          JOE IVANIC, AARON WEST, LAIMUTIS BYTAUTAS, KLAUS RUEDENBERG
     UNIVERSITY OF TOKYO: KIMIHIKO HIRAO, TAKAHITO NAKAJIMA,
          TAKAO TSUNEDA, MUNEAKI KAMIYA, SUSUMU YANAGISAWA,
          KIYOSHI YAGI, MAHITO CHIBA, SEIKEN TOKURA, NAOAKI KAWAKAMI
     UNIVERSITY OF AARHUS: FRANK JENSEN
     UNIVERSITY OF IOWA: VISVALDAS KAIRYS, HUI LI
     NATIONAL INST. OF STANDARDS AND TECHNOLOGY: WALT STEVENS, DAVID GARMER
     UNIVERSITY OF PISA: BENEDETTA MENNUCCI, JACOPO TOMASI
     UNIVERSITY OF MEMPHIS: HENRY KURTZ, PRAKASHAN KORAMBATH
     UNIVERSITY OF ALBERTA: TOBY ZENG, MARIUSZ KLOBUKOWSKI
     UNIVERSITY OF NEW ENGLAND: MARK SPACKMAN
     MIE UNIVERSITY: HIROAKI UMEDA
     NAT. INST. OF ADVANCED INDUSTRIAL SCIENCE AND TECHNOLOGY: KAZUO KITAURA
     MICHIGAN STATE UNIVERSITY:
          KAROL KOWALSKI, MARTA WLOCH, JEFFREY GOUR, JESSE LUTZ,
          WEI LI, JUN SHEN, J. EMILIANO DEUSTUA, PIOTR PIECUCH
     UNIVERSITY OF MINNESOTA:
          YINAN SHU
     UNIVERSITY OF SILESIA: MONIKA MUSIAL, STANISLAW KUCHARSKI
     FACULTES UNIVERSITAIRES NOTRE-DAME DE LA PAIX:
          OLIVIER QUINET, BENOIT CHAMPAGNE
     UNIVERSITY OF CALIFORNIA - SANTA BARBARA: BERNARD KIRTMAN
     INSTITUTE FOR MOLECULAR SCIENCE:
          KAZUYA ISHIMURA, MICHIO KATOUDA, AND SHIGERU NAGASE
     UNIVERSITY OF NOTRE DAME: ANNA POMOGAEVA, DAN CHIPMAN
     KYUSHU UNIVERSITY:
          HARUYUKI NAKANO,
          FENG LONG GU, JACEK KORCHOWIEC, MARCIN MAKOWSKI, AND YURIKO AOKI,
          HIROTOSHI MORI AND EISAKU MIYOSHI
     PENNSYLVANIA STATE UNIVERSITY:
          TZVETELIN IORDANOV, CHET SWALINA, JONATHAN SKONE,
          SHARON HAMMES-SCHIFFER
     WASEDA UNIVERSITY:
          MASATO KOBAYASHI, TOMOKO AKAMA, TSUGUKI TOUMA,
          TAKESHI YOSHIKAWA, YASUHIRO IKABATA, JUNJI SEINO,
          YUYA NAKAJIMA, HIROMI NAKAI
     NANJING UNIVERSITY: SHUHUA LI
     UNIVERSITY OF NEBRASKA:
          PEIFENG SU, DEJUN SI, NANDUN THELLAMUREGE, YALI WANG, HUI LI
     UNIVERSITY OF ZURICH: ROBERTO PEVERATI, KIM BALDRIDGE
     N. COPERNICUS UNIVERSITY AND JACKSON STATE UNIVERSITY:
          MARIA BARYSZ
     UNIVERSITY OF COPENHAGEN: Jimmy Kromann, CASPER STEINMANN
     TOKYO INSTITUTE OF TECHNOLOGY: HIROYA NAKATA
     NAGOYA UNIVERSITY: YOSHIO NISHIMOTO, STEPHAN IRLE
     MOSCOW STATE UNIVERSITY: VLADIMIR MIRONOV

 EXECUTION OF GAMESS BEGUN Wed Nov 16 19:20:18 2022

            ECHO OF THE FIRST FEW INPUT CARDS -
 INPUT CARD> $system kdiag=3 mwords=100 memddi=1000 parall=.t. $end                         
 INPUT CARD> $contrl runtyp=energy ispher=1 $end                                            
 INPUT CARD> $contrl icut=9 itol=20 inttyp=rysquad qmttol=1.0d-05 nosym=1 $end              
 INPUT CARD> $scf    npunch=2 conv=1.0d-06 dirscf=.t.      $end                             
 INPUT CARD> $contrl scftyp=mcscf  mult=2 maxit=200 icharg=1 mplevl=2 $end                  
 INPUT CARD> $guess  guess=moread norb=29 purify=.t. $end                                   
 INPUT CARD> $basis  gbasis=ccd $end                                                        
 INPUT CARD> $mcscf  cistep=gmcci fullnr=.t. finci=mos                                      
 INPUT CARD>         acurcy=1.d-6 maxit=100 $end                                            
 INPUT CARD> $trans  dirtrf=.t. $end                                                        
 INPUT CARD> $mrmp   mrpt=gmcpt rdvecs=.f. $end                                             
 INPUT CARD> $gmcpt  nmofzc=0 nmodoc=1 nmoact=7 nelact=7 stsym(1)=A                         
 INPUT CARD>         reftyp=ormas nspace=1 mstart(1)=2 mine(1)=7 maxe(1)=7                  
 INPUT CARD>         kstate(1)=1,1,1                                                        
 INPUT CARD>         wstate(1)=1,1,1                                                        
 INPUT CARD>         iwgt=0 thrwgt=-1.0 krot=.f. kszdoe=.f. knospn=.f.                      
 INPUT CARD>         thrde=-1.0 edshft=0.02 $end                                            
 INPUT CARD> $data                                                                          
 INPUT CARD> NH3+ 3 states calculation at NH3 structure.                                    
 INPUT CARD> c1                                                                             
 INPUT CARD>N 7.0 0.04360242600000001 0.0 -0.1693803062                                     
 INPUT CARD>H 1.0 -0.8217196250000001 0.5384811348 0.3488492871                             
 INPUT CARD>H 1.0 -0.821719611 -0.5384811418 0.3488493011                                   
 INPUT CARD>H 1.0 1.037571834 -1.4000000000000001e-08 0.0716763071                          
 INPUT CARD>$end                                                                            
 INPUT CARD>--- OPTIMIZED RHF      MO-S --- GENERATED AT Mon Nov 14 16:47:08 2022           
 INPUT CARD>E=      -56.3825050291, E(NUC)=   11.8429239490                                 
 INPUT CARD> $VEC                                                                           
 INPUT CARD> 1  1-1.00134066E+00-2.25158504E-03 3.44925845E-03 0.00000000E+00 0.00000000E+00
 INPUT CARD> 1  2-2.13170927E-03 0.00000000E+00 0.00000000E+00 6.57129898E-04-6.87950443E-05
 INPUT CARD> 1  3-6.87950443E-05 1.37590089E-04 0.00000000E+00 0.00000000E+00 0.00000000E+00
 INPUT CARD> 1  4 3.25502815E-04-4.84772356E-04 3.62525460E-04-6.27912517E-04-3.45956485E-04
 INPUT CARD> 1  5 3.25502815E-04-4.84772356E-04 3.62525460E-04 6.27912517E-04-3.45956485E-04
 INPUT CARD> 1  6 3.25502815E-04-4.84772356E-04-7.25050921E-04 0.00000000E+00-3.45956485E-04
 INPUT CARD> 2  1 1.31286642E-02-4.05911371E-01-2.82090992E-01 0.00000000E+00 0.00000000E+00
 INPUT CARD> 2  2-7.71489043E-02 0.00000000E+00 0.00000000E+00 9.73717494E-03 6.62450916E-04
 INPUT CARD> 2  3 6.62450916E-04-1.32490183E-03 0.00000000E+00 0.00000000E+00 0.00000000E+00
 INPUT CARD> 2  4-1.96090317E-01-1.96656153E-02-1.74855877E-02 3.02859263E-02 8.68214399E-03
 INPUT CARD> 2  5-1.96090317E-01-1.96656153E-02-1.74855877E-02-3.02859263E-02 8.68214399E-03
 INPUT CARD> 2  6-1.96090317E-01-1.96656153E-02 3.49711754E-02 0.00000000E+00 8.68214399E-03
 INPUT CARD> 3  1 0.00000000E+00 0.00000000E+00 0.00000000E+00 4.48608762E-01 0.00000000E+00
 INPUT CARD> 3  2 0.00000000E+00 2.18692520E-01 0.00000000E+00 0.00000000E+00 1.30198027E-02
 INPUT CARD> 3  3-1.30198027E-02 0.00000000E+00 0.00000000E+00 2.71832968E-02 0.00000000E+00
 INPUT CARD> 3  4-1.85332726E-01-7.03958951E-02 8.47929477E-03 1.95242443E-02 8.32835058E-03
 INPUT CARD> 3  5-1.85332726E-01-7.03958951E-02 8.47929477E-03-1.95242443E-02 8.32835058E-03
 INPUT CARD> 3  6 3.70665453E-01 1.40791790E-01-2.53376884E-02 0.00000000E+00-1.66567012E-02
 INPUT CARD> 4  1 0.00000000E+00 0.00000000E+00 0.00000000E+00 0.00000000E+00 4.48608762E-01
 INPUT CARD> 4  2 0.00000000E+00 0.00000000E+00 2.18692520E-01 0.00000000E+00 0.00000000E+00
 INPUT CARD> 4  3 0.00000000E+00 0.00000000E+00-1.50339731E-02 0.00000000E+00 2.71832968E-02
 INPUT CARD> 4  4 3.21005698E-01 1.21929267E-01 1.95242443E-02-1.40653607E-02-1.44251263E-02
  100000000 WORDS OF MEMORY AVAILABLE

     BASIS OPTIONS
     -------------
     GBASIS=CCD          IGAUSS=       0      POLAR=NONE    
     NDFUNC=       0     NFFUNC=       0     DIFFSP=       F
     NPFUNC=       0      DIFFS=       F     BASNAM=        


     RUN TITLE
     ---------
  NH3+ 3 states calculation at NH3 structure.                                    

 THE POINT GROUP OF THE MOLECULE IS C1      
 THE ORDER OF THE PRINCIPAL AXIS IS     0

 ATOM      ATOMIC                      COORDINATES (BOHR)
           CHARGE         X                   Y                   Z
 N           7.0     0.0823966375        0.0000000000       -0.3200823664
 H           1.0    -1.5528249300        1.0175817943        0.6592295636
 H           1.0    -1.5528249035       -1.0175818076        0.6592295901
 H           1.0     1.9607264588       -0.0000000265        0.1354485802

          INTERNUCLEAR DISTANCES (ANGS.)
          ------------------------------

                1 N          2 H          3 H          4 H     

   1 N       0.0000000    1.1433749 *  1.1433749 *  1.0227822 *
   2 H       1.1433749 *  0.0000000    1.0769623 *  1.9554415 *
   3 H       1.1433749 *  1.0769623 *  0.0000000    1.9554415 *
   4 H       1.0227822 *  1.9554415 *  1.9554415 *  0.0000000  

  * ... LESS THAN  3.000


     ATOMIC BASIS SET
     ----------------
 THE CONTRACTED PRIMITIVE FUNCTIONS HAVE BEEN UNNORMALIZED
 THE CONTRACTED BASIS FUNCTIONS ARE NOW NORMALIZED TO UNITY

  SHELL TYPE  PRIMITIVE        EXPONENT          CONTRACTION COEFFICIENT(S)

 N         

      1   S       1          9046.0000000    0.000699617413
      1   S       2          1357.0000000    0.005386054630
      1   S       3           309.3000000    0.027391021189
      1   S       4            87.7300000    0.103150591982
      1   S       5            28.5600000    0.278570663317
      1   S       6            10.2100000    0.448294849454
      1   S       7             3.8380000    0.278085928395
      1   S       8             0.7466000    0.015431561233

      2   S       9          9046.0000000   -0.000304990096
      2   S      10          1357.0000000   -0.002408026379
      2   S      11           309.3000000   -0.011944448725
      2   S      12            87.7300000   -0.048925992909
      2   S      13            28.5600000   -0.134472724725
      2   S      14            10.2100000   -0.315112577700
      2   S      15             3.8380000   -0.242857832550
      2   S      16             0.7466000    1.094382206854

      3   S      17             0.2248000    1.000000000000

      4   P      18            13.5500000    0.058905676772
      4   P      19             2.9170000    0.320461106714
      4   P      20             0.7973000    0.753042061792

      5   P      21             0.2185000    1.000000000000

      6   D      22             0.8170000    1.000000000000

 H         

      7   S      23            13.0100000    0.033498726390
      7   S      24             1.9620000    0.234800801174
      7   S      25             0.4446000    0.813682957883

      8   S      26             0.1220000    1.000000000000

      9   P      27             0.7270000    1.000000000000

 H         

     10   S      28            13.0100000    0.033498726390
     10   S      29             1.9620000    0.234800801174
     10   S      30             0.4446000    0.813682957883

     11   S      31             0.1220000    1.000000000000

     12   P      32             0.7270000    1.000000000000

 H         

     13   S      33            13.0100000    0.033498726390
     13   S      34             1.9620000    0.234800801174
     13   S      35             0.4446000    0.813682957883

     14   S      36             0.1220000    1.000000000000

     15   P      37             0.7270000    1.000000000000

 TOTAL NUMBER OF BASIS SET SHELLS             =   15
 NUMBER OF CARTESIAN GAUSSIAN BASIS FUNCTIONS =   30
 NOTE: THIS RUN WILL RESTRICT THE MO VARIATION SPACE TO SPHERICAL HARMONICS.
 THE NUMBER OF ORBITALS KEPT IN THE VARIATIONAL SPACE WILL BE PRINTED LATER.
 NUMBER OF ELECTRONS                          =    9
 CHARGE OF MOLECULE                           =    1
 SPIN MULTIPLICITY                            =    2
 NUMBER OF OCCUPIED ORBITALS (ALPHA)          =    5
 NUMBER OF OCCUPIED ORBITALS (BETA )          =    4
 TOTAL NUMBER OF ATOMS                        =    4
 THE NUCLEAR REPULSION ENERGY IS       11.1338122699

     $CONTRL OPTIONS
     ---------------
 SCFTYP=MCSCF        RUNTYP=ENERGY       EXETYP=RUN     
 MPLEVL=       2     CITYP =NONE         CCTYP =NONE         VBTYP =NONE    
 DFTTYP=NONE         TDDFT =NONE    
 MULT  =       2     ICHARG=       1     NZVAR =       0     COORD =UNIQUE  
 PP    =NONE         RELWFN=NONE         LOCAL =NONE         NUMGRD=       F
 ISPHER=       1     NOSYM =       1     MAXIT =     200     UNITS =ANGS    
 PLTORB=       F     MOLPLT=       F     AIMPAC=       F     FRIEND=        
 NPRINT=       7     IREST =       0     GEOM  =INPUT   
 NORMF =       0     NORMP =       0     ITOL  =      20     ICUT  =       9
 INTTYP=RYSQUAD      GRDTYP=BEST         QMTTOL= 1.0E-05

     $SYSTEM OPTIONS
     ---------------
  REPLICATED MEMORY=   100000000 WORDS (ON EVERY NODE).
 DISTRIBUTED MEMDDI=        1000 MILLION WORDS IN AGGREGATE,
 MEMDDI DISTRIBUTED OVER   1 PROCESSORS IS  1000000000 WORDS/PROCESSOR.
 TOTAL MEMORY REQUESTED ON EACH PROCESSOR=  1100000000 WORDS.
 TIMLIM=      525600.00 MINUTES, OR     365.0 DAYS.
 PARALL= T  BALTYP=  DLB     KDIAG=    3  COREFL= F
 MXSEQ2=     300 MXSEQ3=     150  mem10=         0

          ----------------
          PROPERTIES INPUT
          ----------------

     MOMENTS            FIELD           POTENTIAL          DENSITY
 IEMOM =       1   IEFLD =       0   IEPOT =       0   IEDEN =       0
 WHERE =COMASS     WHERE =NUCLEI     WHERE =NUCLEI     WHERE =NUCLEI  
 OUTPUT=BOTH       OUTPUT=BOTH       OUTPUT=BOTH       OUTPUT=BOTH    
 IEMINT=       0   IEFINT=       0                     IEDINT=       0
                                                       MORB  =       0

     -------------------------------
     INTEGRAL TRANSFORMATION OPTIONS
     -------------------------------
     NWORD  =            0
     CUTOFF = 1.0E-09     MPTRAN =       0
     DIRTRF =       T     AOINTS =DUP     

          ----------------------
          MCSCF INPUT PARAMETERS
          ----------------------
 CONVERGER SELECTION: FOCAS = F  SOSCF = F  FULLNR = T  QUD = F  JACOBI = F
 SECULAR EQUATION METHOD CISTEP = GMCCI   
 --- GENERAL INPUT OPTIONS:
 MAXIT =     100  MICIT =       1  ACURCY= 1.000E-06
 DAMP  =   0.000  CANONC=       T  ENGTOL= 1.000E-10
 EKT   =       F  NPUNCH=       2  NWORD =         0
 REGENERATE CI AFTER CONVERGENCE = NONE    
 DIABATIZATION AFTER CONVERGENCE =        F
 --- INPUT FOR FULLNR CONVERGER:
 METHOD=DM2       FORS  =       F  DROPC =       T
 LINSER=       F  FCORE =       F  NORB  =      30

          ----------------------
          INTEGRAL INPUT OPTIONS
          ----------------------
 NOPK  =       1 NORDER=       0 SCHWRZ=       T

 ------------------------------------------
 MULTIREFERENCE PERTURBATION THEORY CONTROL
 ------------------------------------------
 MRPT=GMCPT    READ CONVERGED MCSCF VECTORS= F


     ------------------------------------------
     THE POINT GROUP IS C1 , NAXIS= 1, ORDER= 1
     ------------------------------------------

 -- VARIATIONAL SPACE WILL BE RESTRICTED TO PURE SPHERICAL HARMONICS ONLY --
 AFTER EXCLUDING CONTAMINANT COMBINATIONS FROM THE CARTESIAN GAUSSIAN BASIS
 SET, THE NUMBER OF SPHERICAL HARMONICS KEPT IN THE VARIATION SPACE IS   29

     DIMENSIONS OF THE SYMMETRY SUBSPACES ARE
 A   =   29

 ..... DONE SETTING UP THE RUN .....
 CPU     0: STEP CPU TIME=     0.03 TOTAL CPU TIME=          0.0 (      0.0 MIN)
 TOTAL WALL CLOCK TIME=          0.0 SECONDS, CPU UTILIZATION IS    60.00%

          ********************
          1 ELECTRON INTEGRALS
          ********************
 TIME TO DO   DIPOLE INTEGRALS=      0.00
 ...... END OF ONE-ELECTRON INTEGRALS ......
 CPU     0: STEP CPU TIME=     0.00 TOTAL CPU TIME=          0.0 (      0.0 MIN)
 TOTAL WALL CLOCK TIME=          0.0 SECONDS, CPU UTILIZATION IS    60.00%

          -------------
          GUESS OPTIONS
          -------------
          GUESS =MOREAD            NORB  =      29          NORDER=       0
          MIX   =       F          PRTMO =       F          PUNMO =       F
          TOLZ  = 1.0E-08          TOLE  = 1.0E-05
          SYMDEN=       F          PURIFY=       T

 INITIAL GUESS ORBITALS GENERATED BY MOREAD   ROUTINE.

 STATISTICS FOR GENERATION OF SYMMETRY ORBITAL -Q- MATRIX
 NUMBER OF CARTESIAN ATOMIC ORBITALS=         30
 NUMBER OF SPHERICAL CONTAMINANTS DROPPED=     1
 NUMBER OF LINEARLY DEPENDENT MOS DROPPED=     0
 TOTAL NUMBER OF MOS IN VARIATION SPACE=      29
 ORBITAL PURIFICATION WILL OCCUR

 SYMMETRIES FOR INITIAL GUESS ORBITALS FOLLOW.   BOTH SET(S).
     5 ORBITALS ARE OCCUPIED (    1 CORE ORBITALS).
     1=A        2=A        3=A        4=A        5=A        6=A        7=A   
     8=A        9=A       10=A       11=A       12=A       13=A       14=A   
    15=A       16=A       17=A       18=A       19=A       20=A       21=A   
    22=A       23=A       24=A       25=A       26=A       27=A       28=A   
    29=A   
 ...... END OF INITIAL ORBITAL SELECTION ......
 CPU     0: STEP CPU TIME=     0.01 TOTAL CPU TIME=          0.0 (      0.0 MIN)
 TOTAL WALL CLOCK TIME=          0.1 SECONDS, CPU UTILIZATION IS    66.67%

                    ----------------------
                    AO INTEGRAL TECHNOLOGY
                    ----------------------
     S,P,L SHELL ROTATED AXIS INTEGRALS, REPROGRAMMED BY
        KAZUYA ISHIMURA (IMS) AND JOSE SIERRA (SYNSTAR).
     S,P,D,L SHELL ROTATED AXIS INTEGRALS PROGRAMMED BY
        KAZUYA ISHIMURA (INSTITUTE FOR MOLECULAR SCIENCE).
     S,P,D,F,G SHELL TO TOTAL QUARTET ANGULAR MOMENTUM SUM 5,
        ERIC PROGRAM BY GRAHAM FLETCHER (ELORET AND NASA ADVANCED
        SUPERCOMPUTING DIVISION, AMES RESEARCH CENTER).
     S,P,D,F,G,L SHELL GENERAL RYS QUADRATURE PROGRAMMED BY
        MICHEL DUPUIS (PACIFIC NORTHWEST NATIONAL LABORATORY).

          --------------------
          2 ELECTRON INTEGRALS
          --------------------

 DIRECT SCF METHOD SKIPS INTEGRAL STORAGE ON DISK.
 DIRECT TRANSFORMATION SKIPS AO INTEGRAL STORAGE ON DISK.
  ...... END OF TWO-ELECTRON INTEGRALS .....
 STEP CPU TIME =     0.02 TOTAL CPU TIME =          0.1 (      0.0 MIN)
 TOTAL WALL CLOCK TIME=          0.1 SECONDS, CPU UTILIZATION IS    75.00%
 DDI: Creating Array [0] - 900 x 36 = 32400 words.
 DDI: Creating Array [1] - 21 x 288 = 6048 words.
 DDI: Creating Array [2] - 36 x 36 = 1296 words.
 DDI: Creating Array [3] - 465 x 36 = 16740 words.

          -----------------
          MCSCF CALCULATION
          -----------------

 ----- NUCLEAR ENERGY ----- =        11.1338122699

     -------------------------------------------------
     GMC-PT/GMC-QDPT or general MCSCF input parameters
     -------------------------------------------------
 # of frozen core orbs. =         0 ->         0
 # of doubly occ. orbs. =         1
 # of active      orbs. =         7
 # of virtual     orbs. =        21
 # of active electrons  =         7
 # of states in CI      =         3
 Highest state in CI    =         3
 kstate =  1 1 1
 avecoe =  0.333 0.333 0.333
 State symmetry           = A           
 Assigned symmetry number = 1

 <<<Act. MO sym.: 1111111

 <<<Division of 1-ext.:  0
 <<<Division of 2-ext.:  0

 *** Reference space

 Reference type: ORMAS (= Occupation restricted multiple active space)
 # of orbitals          =  7
 # of minimum electrons =  7
 # of maximum electrons =  7
 State symmetry    =    1 (input)
 2*Sz              =    1 (input)
 Spin multiplicity =    2 (input)
 Dimension of reference space =      1225  (from      3432 walks)

 Dimension of reference space =      1225  (from      1225 walks)

 <<<Ionized spaces for Ref-CI:
      0:         1225 /   -1-0:         1960 /  0-1-0:         2891

 EVALUATING EXCHANGE INTEGRALS FOR DIRECT INTEGRAL TRANSFORMATION
 SCHWARZ INEQUALITY OVERHEAD:       465 INTEGRALS, T=        0.01

     --------------------------------------------
     PARTIAL TWO ELECTRON INTEGRAL TRANSFORMATION
     --------------------------------------------

 NUMBER OF CORE MOLECULAR ORBITALS     =    1
 NUMBER OF OCCUPIED MOLECULAR ORBITALS =    8
 TOTAL NUMBER OF MOLECULAR ORBITALS    =   29
 TOTAL NUMBER OF ATOMIC ORBITALS       =   30
 THRESHOLD FOR KEEPING TRANSFORMED 2E- INTEGRALS = 1.000E-09

 -------------------------------     ------------------------------
 DISTRIBUTED DATA TRANSFORMATION     PROGRAM WRITTEN BY G. FLETCHER
 -------------------------------     ------------------------------

 THE DISTRIBUTED MEMORY REQUIRED FOR THIS STEP IS MEMDDI=         1 MWORDS
 CREATING DISTRIBUTED STORAGE FOR [VIR OCC|VIR OCC] INTEGRALS
 CREATING DISTRIBUTED STORAGE FOR [VIR OCC|OCC OCC] INTEGRALS
 CREATING DISTRIBUTED STORAGE FOR [OCC OCC|OCC OCC] INTEGRALS
 CREATING DISTRIBUTED STORAGE FOR [VIR VIR|OCC OCC] INTEGRALS
 FOR    1 PROCESSORS, THE REPLICATED MEMORY NEEDED IS       73700 WORDS.
 SCHWARZ INEQUALITY OVERHEAD:       465 INTEGRALS, T=        0.00

      DIRECT 4-INDEX TRANSFORMATION 
      SCHWARZ INEQUALITY TEST SKIPPED          0 INTEGRAL BLOCKS
 ----- FROZEN CORE ENERGY =       -47.6180189042
 ... END OF INTEGRAL TRANSFORMATION ...
 CPU     0: STEP CPU TIME=     0.22 TOTAL CPU TIME=          0.3 (      0.0 MIN)
 TOTAL WALL CLOCK TIME=          0.3 SECONDS, CPU UTILIZATION IS    93.33%

     --------------------------------     -----------------------------
     MCHF NEWTON-RAPHSON OPTIMIZATION     CODE WRITTEN BY MICHEL DUPUIS
     --------------------------------     -----------------------------
     PARALLEL VERSION WRITTEN BY G. FLETCHER (ELORET)
     NASA ADVANCED SUPERCOMPUTING DIVISION, AMES RESEARCH CENTER

 NUMBER OF INDEPENDENT ORBITAL ROTATION PARAMETERS =   116
 ..... DONE SOLVING NEWTON-RAPHSON EQUATIONS .....
 CPU     0: STEP CPU TIME=     0.65 TOTAL CPU TIME=          0.9 (      0.0 MIN)
 TOTAL WALL CLOCK TIME=          0.9 SECONDS, CPU UTILIZATION IS    98.94%
 ..... DONE WITH NTN-RPH ORBITAL ROTATIONS ..... 
 CPU     0: STEP CPU TIME=     0.00 TOTAL CPU TIME=          0.9 (      0.0 MIN)
 TOTAL WALL CLOCK TIME=          0.9 SECONDS, CPU UTILIZATION IS    98.94%
 MAXIMUM MEMORY USED BY NTN-RPH CODE WAS     57645 WORDS.

 ITER     TOTAL ENERGY      DEL(E)  LAGRANGIAN ASYMMETRY   SQCDF  MICIT   DAMP
   1      -55.581243130 -0.581243130  0.150644   10    4 1.043E-01  1   0.0000
   2      -55.638390629 -0.057147499  0.020541   12    5 4.573E-01  1   0.0000
   3      -55.674823672 -0.036433044  0.013897   11    6 2.435E-01  1   0.0194
   4      -55.691623577 -0.016799905  0.005145    9    7 5.540E-02  1   0.0061
   5      -55.694159254 -0.002535677  0.000892   12    5 1.842E-03  1   0.0000
   6      -55.694242166 -0.000082912  0.000337   22    5 1.738E-04  1   0.0000
   7      -55.694251373 -0.000009206  0.000162   22    5 3.272E-05  1   0.0000
   8      -55.694253196 -0.000001824  0.000084   22    5 7.502E-06  1   0.0000
   9      -55.694253626 -0.000000430  0.000045   22    5 2.024E-06  1   0.0000
  10      -55.694253744 -0.000000118  0.000025   22    5 6.302E-07  1   0.0000
  11      -55.694253781 -0.000000037  0.000014   22    5 2.181E-07  1   0.0000
  12      -55.694253794 -0.000000013  0.000008   22    5 8.051E-08  1   0.0000
  13      -55.694253798 -0.000000005  0.000005   22    5 3.080E-08  1   0.0000
  14      -55.694253800 -0.000000002  0.000003   22    5 1.203E-08  1   0.0000
  15      -55.694253801 -0.000000001  0.000002   12    7 4.737E-09  1   0.0000
  16      -55.694253801 -0.000000000  0.000001   22    5 1.869E-09  1   0.0000
  17      -55.694253801 -0.000000000  0.000001   12    7 7.467E-10  1   0.0000

          --------------------
          LAGRANGIAN CONVERGED
          --------------------

 FINAL MCSCF ENERGY IS      -55.6942538011 AFTER  17 ITERATIONS

 -MCCI- BASED ON OPTIMIZED ORBITALS
 ----------------------------------

 PLEASE NOTE: IF THE ACTIVE ORBITALS ARE CANONICALIZED BELOW,
 THE FOLLOWING CI EXPANSION COEFFICIENTS AND THE DENSITY DO NOT
 CORRESPOND TO THE PRINTED ORBITALS.  THE PRINTED EXPANSIONS MATCH
 THE ORBITALS USED DURING THE LAST ITERATION.  IF YOU WISH TO SEE
 CI EXPANSIONS BASED ON THE CANONICAL (OR NATURAL) ORBITALS, YOU
 MUST RUN A CI CALCULATION WITH THAT ORBITAL CHOICE READ IN $VEC.

 Averaged energy =     -55.694253801

 State #    1  Energy =     -55.825809795  S =  0.500

      Det      Coef    Occupancy (Ignoring core)
      ---      ----    --------- --------- -----
        1    0.939553  11110001110000
        5   -0.069811  01111001110000
        8   -0.135094  10110101110000
       17   -0.133345  11010011110000
       71    0.121463  11110001011000
      211    0.052814  11110000110100
      386    0.112157  11110001010010
      701    0.096612  11110001100001
      717    0.075029  11010011100001

 State #    2  Energy =     -55.746835698  S =  0.500

      Det      Coef    Occupancy (Ignoring core)
      ---      ----    --------- --------- -----
       36   -0.959738  11110001101000
       39   -0.051928  10111001101000
       40    0.072500  01111001101000
       43    0.108437  10110101101000
       52    0.104561  11010011101000
      281   -0.053062  11110000101100
      456   -0.100075  11110001001010

 State #    3  Energy =     -55.510115911  S =  0.500

      Det      Coef    Occupancy (Ignoring core)
      ---      ----    --------- --------- -----
        1   -0.120773  11110001110000
       38    0.050591  11011001101000
       71    0.953294  11110001011000
       78   -0.066792  10110101011000
       87   -0.075300  11010011011000
      122    0.056078  11010010111000
      316    0.080180  11110000011100
      806   -0.095386  11110001001001
      822   -0.083672  11010011001001

 DENSITY MATRIX OVER ACTIVE MO-S

             1           2           3           4           5

    1    1.9733332
    2   -0.0092956   1.6347810
    3   -0.0000000  -0.0000000   1.6235261
    4    0.0021449   0.0002239  -0.0000000   1.6517641
    5    0.1068581   0.0431558   0.0000000  -0.0248875   0.0367089
    6    0.0109522  -0.1575971  -0.0000000  -0.0368108  -0.0000226
    7    0.0000000   0.0000000   0.1504534   0.0000000   0.0000000

             6           7

    6    0.0352040
    7   -0.0000000   0.0446827

 FORMING THE "STANDARD FOCK OPERATOR" IN DIRECT AO INTEGRAL MODE...
 ONLY THE    1 CORE AND   21 VIRTUAL ORBITALS WILL BE CANONICALIZED

          ----------------------
          MCSCF NATURAL ORBITALS
          ----------------------

                      1          2          3          4          5
                  -15.9867     1.9795     1.6553     1.6488     1.6377
                     A          A          A          A          A   
    1  N  1  S    1.001112   0.008333  -0.008529  -0.005109   0.000000
    2  N  1  S   -0.001845   0.433798  -0.108018  -0.163905   0.000000
    3  N  1  S   -0.006236   0.332545  -0.195848  -0.225774   0.000000
    4  N  1  X    0.000243  -0.023781   0.331992  -0.321230   0.000000
    5  N  1  Y   -0.000000  -0.000000   0.000000   0.000000   0.557667
    6  N  1  Z    0.001201   0.084193   0.475788   0.333334  -0.000000
    7  N  1  X    0.000107  -0.006620   0.142982  -0.076265   0.000000
    8  N  1  Y   -0.000000  -0.000000   0.000000   0.000000   0.327775
    9  N  1  Z   -0.000604   0.018656   0.326780   0.202079   0.000000
   10  N  1 XX    0.000553   0.004544  -0.006306  -0.008904   0.000000
   11  N  1 YY   -0.000308  -0.004211  -0.011831  -0.005431  -0.000000
   12  N  1 ZZ   -0.000246  -0.000332   0.018137   0.014335  -0.000000
   13  N  1 XY   -0.000000  -0.000000  -0.000000   0.000000  -0.011489
   14  N  1 XZ   -0.000028  -0.003090   0.011879  -0.016281   0.000000
   15  N  1 YZ   -0.000000  -0.000000   0.000000   0.000000   0.024520
   16  H  2  S   -0.001470   0.185249  -0.033220   0.266966   0.267743
   17  H  2  S    0.000281   0.003414   0.013113   0.041983   0.111888
   18  H  2  X   -0.000612   0.025764   0.004277   0.013992   0.026786
   19  H  2  Y    0.000452  -0.018773   0.001746  -0.027859  -0.001405
   20  H  2  Z    0.000434  -0.011038   0.023861   0.000862  -0.014231
   21  H  3  S   -0.001470   0.185249  -0.033220   0.266966  -0.267743
   22  H  3  S    0.000281   0.003414   0.013113   0.041983  -0.111888
   23  H  3  X   -0.000612   0.025764   0.004277   0.013992  -0.026786
   24  H  3  Y   -0.000452   0.018773  -0.001746   0.027859  -0.001405
   25  H  3  Z    0.000434  -0.011038   0.023861   0.000862   0.014231
   26  H  4  S   -0.002054   0.171457   0.304439  -0.233409  -0.000000
   27  H  4  S    0.000704  -0.002136   0.044233  -0.016400   0.000000
   28  H  4  X    0.001100  -0.033427  -0.032949   0.025852   0.000000
   29  H  4  Y   -0.000000   0.000000   0.000000  -0.000000   0.019932
   30  H  4  Z    0.000341  -0.002540   0.009288   0.020630  -0.000000

                      6          7          8
                    0.0305     0.0301     0.0181
                     A          A          A   
    1  N  1  S    0.000000   0.149583  -0.158191
    2  N  1  S    0.000000   0.560251  -0.459598
    3  N  1  S    0.000000   0.227076   0.047341
    4  N  1  X   -0.000000  -0.354761  -0.857329
    5  N  1  Y    0.779061  -0.000000   0.000000
    6  N  1  Z    0.000000   0.591703  -0.158113
    7  N  1  X   -0.000000  -0.112173  -0.116433
    8  N  1  Y   -0.072721   0.000000   0.000000
    9  N  1  Z   -0.000000  -0.011659   0.086698
   10  N  1 XX   -0.000000  -0.045746   0.021483
   11  N  1 YY    0.000000   0.046059   0.001712
   12  N  1 ZZ   -0.000000  -0.000314  -0.023195
   13  N  1 XY    0.051301  -0.000000   0.000000
   14  N  1 XZ    0.000000   0.042042   0.036964
   15  N  1 YZ   -0.018177   0.000000   0.000000
   16  H  2  S   -0.618471  -0.499699  -0.166609
   17  H  2  S   -0.240369  -0.072238  -0.042385
   18  H  2  X   -0.051488  -0.018286   0.015455
   19  H  2  Y    0.007536   0.053628   0.020191
   20  H  2  Z    0.018858  -0.020062  -0.006236
   21  H  3  S    0.618471  -0.499700  -0.166609
   22  H  3  S    0.240369  -0.072238  -0.042385
   23  H  3  X    0.051488  -0.018286   0.015455
   24  H  3  Y    0.007536  -0.053628  -0.020191
   25  H  3  Z   -0.018858  -0.020062  -0.006236
   26  H  4  S   -0.000000  -0.285406   0.862487
   27  H  4  S   -0.000000  -0.013598   0.151837
   28  H  4  X    0.000000   0.039224  -0.085426
   29  H  4  Y   -0.008378   0.000000   0.000000
   30  H  4  Z    0.000000   0.000443   0.024494

          ------------------------
          MCSCF OPTIMIZED ORBITALS
          ------------------------

                      1          2          3          4          5
                  -15.9867     0.0000     0.0000     0.0000     0.0000
                     A          A          A          A          A   
    1  N  1  S    1.001112  -0.001343  -0.017145  -0.000000  -0.009535
    2  N  1  S   -0.001845   0.399775   0.009839   0.000000  -0.180365
    3  N  1  S   -0.006236   0.321638   0.060382   0.000000  -0.285904
    4  N  1  X    0.000243  -0.002251   0.367961   0.000000   0.050682
    5  N  1  Y   -0.000000  -0.000000  -0.000000   0.481945   0.000000
    6  N  1  Z    0.001201   0.050407  -0.000781  -0.000000   0.590114
    7  N  1  X    0.000107   0.001682   0.134314   0.000000   0.064320
    8  N  1  Y   -0.000000   0.000000   0.000000   0.333161   0.000000
    9  N  1  Z   -0.000604   0.020631   0.041546   0.000000   0.383865
   10  N  1 XX    0.000553   0.007312   0.005413   0.000000  -0.010950
   11  N  1 YY   -0.000308  -0.006750  -0.002447  -0.000000  -0.011737
   12  N  1 ZZ   -0.000246  -0.000561  -0.002966   0.000000   0.022687
   13  N  1 XY   -0.000000  -0.000000  -0.000000  -0.016261  -0.000000
   14  N  1 XZ   -0.000028  -0.004567   0.023826  -0.000000   0.001272
   15  N  1 YZ   -0.000000   0.000000   0.000000   0.026121   0.000000
   16  H  2  S   -0.001470   0.205179  -0.253588   0.324709   0.120312
   17  H  2  S    0.000281   0.006336  -0.029997   0.133993   0.033401
   18  H  2  X   -0.000612   0.026657  -0.007658   0.031509   0.011736
   19  H  2  Y    0.000452  -0.020931   0.025708  -0.002107  -0.013851
   20  H  2  Z    0.000434  -0.009687   0.013142  -0.015941   0.019065
   21  H  3  S   -0.001470   0.205179  -0.253588  -0.324709   0.120312
   22  H  3  S    0.000281   0.006336  -0.029997  -0.133993   0.033401
   23  H  3  X   -0.000612   0.026657  -0.007658  -0.031509   0.011736
   24  H  3  Y   -0.000452   0.020931  -0.025708  -0.002107   0.013851
   25  H  3  Z    0.000434  -0.009687   0.013142   0.015941   0.019065
   26  H  4  S   -0.002054   0.203169   0.449945  -0.000000   0.113232
   27  H  4  S    0.000704   0.000930   0.054710   0.000000   0.027950
   28  H  4  X    0.001100  -0.037222  -0.048023   0.000000  -0.011611
   29  H  4  Y   -0.000000   0.000000   0.000000   0.020632   0.000000
   30  H  4  Z    0.000341  -0.002587  -0.008399  -0.000000   0.020228

                      6          7          8          9         10
                    0.0000     0.0000     0.0000     0.1090     0.1941
                     A          A          A          A          A   
    1  N  1  S    0.186220   0.111818   0.000000  -0.087843   0.029579
    2  N  1  S    0.688641   0.291804   0.000000  -0.120852   0.032728
    3  N  1  S    0.230529  -0.108348   0.000000   1.042624  -0.441132
    4  N  1  X   -0.105420   0.962163  -0.000000   0.035776   0.137672
    5  N  1  Y   -0.000000  -0.000000   0.828044   0.000000  -0.000000
    6  N  1  Z    0.607307   0.009391  -0.000000  -0.111275   0.024729
    7  N  1  X   -0.074634   0.157140   0.000000  -0.228500  -0.764673
    8  N  1  Y   -0.000000  -0.000000  -0.041580  -0.000000   0.000000
    9  N  1  Z   -0.038018  -0.068352  -0.000000   0.284653  -0.008363
   10  N  1 XX   -0.049191  -0.008457   0.000000   0.088688  -0.080171
   11  N  1 YY    0.043780  -0.014338  -0.000000  -0.051768   0.040714
   12  N  1 ZZ    0.005410   0.022795  -0.000000  -0.036920   0.039457
   13  N  1 XY   -0.000000  -0.000000   0.049994   0.000000  -0.000000
   14  N  1 XZ    0.031144  -0.044604   0.000000  -0.057159  -0.092492
   15  N  1 YZ   -0.000000  -0.000000  -0.015791  -0.000000   0.000000
   16  H  2  S   -0.435749   0.270909  -0.590556   0.392624   0.170863
   17  H  2  S   -0.059474   0.058036  -0.228784  -0.881897  -0.605728
   18  H  2  X   -0.020697  -0.010756  -0.048742  -0.086106  -0.016410
   19  H  2  Y    0.046184  -0.031488   0.007371  -0.023844   0.003371
   20  H  2  Z   -0.018193   0.013125   0.017436   0.041064   0.062471
   21  H  3  S   -0.435749   0.270909   0.590556   0.392624   0.170863
   22  H  3  S   -0.059474   0.058036   0.228784  -0.881897  -0.605728
   23  H  3  X   -0.020697  -0.010756   0.048742  -0.086106  -0.016410
   24  H  3  Y   -0.046184   0.031488   0.007371   0.023844  -0.003371
   25  H  3  Z   -0.018193   0.013125  -0.017436   0.041064   0.062471
   26  H  4  S   -0.483709  -0.715106  -0.000000   0.293438  -0.545312
   27  H  4  S   -0.052461  -0.137630  -0.000000  -0.501639   1.942108
   28  H  4  X    0.057462   0.067668   0.000000   0.065364  -0.134084
   29  H  4  Y   -0.000000  -0.000000  -0.006467  -0.000000   0.000000
   30  H  4  Z   -0.006775  -0.024211   0.000000  -0.025799  -0.070342

                     11         12         13         14         15
                    0.2587     0.5250     0.5708     0.6417     0.8699
                     A          A          A          A          A   
    1  N  1  S    0.000000  -0.115074   0.000000   0.025805  -0.609405
    2  N  1  S    0.000000  -0.132168   0.000000  -0.000208  -1.359894
    3  N  1  S   -0.000000   0.979313  -0.000000  -0.204271   2.381191
    4  N  1  X    0.000000  -0.202372   0.000000  -0.409475   0.122734
    5  N  1  Y   -0.030244  -0.000000  -0.709919  -0.000000  -0.000000
    6  N  1  Z    0.000000  -0.684722  -0.000000   0.294239   0.288532
    7  N  1  X   -0.000000   0.575870  -0.000000   1.875229  -0.148352
    8  N  1  Y    0.456808   0.000000   1.470512   0.000000   0.000000
    9  N  1  Z   -0.000000   1.008638  -0.000000  -0.689829  -0.101316
   10  N  1 XX    0.000000  -0.028938   0.000000  -0.004499  -0.045526
   11  N  1 YY   -0.000000   0.005329  -0.000000  -0.012605   0.050765
   12  N  1 ZZ   -0.000000   0.023608  -0.000000   0.017104  -0.005240
   13  N  1 XY   -0.090309  -0.000000   0.033936   0.000000  -0.000000
   14  N  1 XZ    0.000000  -0.007889   0.000000  -0.058679   0.018750
   15  N  1 YZ    0.055899   0.000000  -0.005134   0.000000  -0.000000
   16  H  2  S    0.612250  -0.182794  -0.368805   0.506607  -0.027987
   17  H  2  S   -2.135823  -0.030763  -0.862201   0.357633  -0.363868
   18  H  2  X   -0.021630   0.060182  -0.079773   0.186342   0.034814
   19  H  2  Y    0.104809   0.065887  -0.008010  -0.135418   0.265344
   20  H  2  Z    0.014133   0.121536   0.055056   0.071461   0.102073
   21  H  3  S   -0.612250  -0.182794   0.368805   0.506607  -0.027987
   22  H  3  S    2.135823  -0.030763   0.862201   0.357633  -0.363868
   23  H  3  X    0.021630   0.060182   0.079773   0.186342   0.034814
   24  H  3  Y    0.104809  -0.065887  -0.008010   0.135418  -0.265344
   25  H  3  Z   -0.014133   0.121536  -0.055056   0.071461   0.102073
   26  H  4  S    0.000000  -0.622863   0.000000  -0.470897  -0.191963
   27  H  4  S   -0.000000  -0.398516  -0.000000  -0.722686  -0.531680
   28  H  4  X   -0.000000   0.100877  -0.000000   0.179501   0.101266
   29  H  4  Y   -0.042145  -0.000000   0.092344  -0.000000  -0.000000
   30  H  4  Z    0.000000   0.034183   0.000000  -0.146212   0.169654

                     16         17         18         19         20
                    1.0566     1.1317     1.2113     1.3245     1.4722
                     A          A          A          A          A   
    1  N  1  S   -0.154069  -0.000000  -0.240709   0.000000  -0.461589
    2  N  1  S   -0.303915  -0.000000  -0.500189   0.000000  -0.987325
    3  N  1  S    0.665552   0.000000   1.045091  -0.000000   1.461610
    4  N  1  X    0.053437  -0.000000  -0.231714  -0.000000   0.201804
    5  N  1  Y    0.000000   0.104479  -0.000000   0.110879  -0.000000
    6  N  1  Z    0.066988   0.000000  -0.013557  -0.000000  -0.091209
    7  N  1  X   -0.535363   0.000000   1.343795   0.000000  -0.647241
    8  N  1  Y   -0.000000  -0.455172   0.000000  -0.224431  -0.000000
    9  N  1  Z   -0.196620   0.000000   0.208632  -0.000000   0.754657
   10  N  1 XX   -0.032483   0.000000   0.029815   0.000000   0.119513
   11  N  1 YY   -0.241278  -0.000000   0.042916  -0.000000  -0.044482
   12  N  1 ZZ    0.273761  -0.000000  -0.072731   0.000000  -0.075031
   13  N  1 XY   -0.000000   0.232539  -0.000000   0.006506  -0.000000
   14  N  1 XZ    0.047408   0.000000   0.043632   0.000000  -0.031367
   15  N  1 YZ    0.000000   0.272412  -0.000000  -0.243552   0.000000
   16  H  2  S   -0.368763   0.195304   0.125174   0.193396  -0.666452
   17  H  2  S   -0.069496   0.089692   0.049549  -0.042801  -0.061944
   18  H  2  X   -0.069532   0.035465  -0.378807  -0.540366   0.015119
   19  H  2  Y   -0.338606  -0.008537  -0.189142  -0.011380  -0.251642
   20  H  2  Z    0.390553   0.351135  -0.371984  -0.353608  -0.147708
   21  H  3  S   -0.368763  -0.195304   0.125174  -0.193396  -0.666452
   22  H  3  S   -0.069496  -0.089692   0.049549   0.042801  -0.061944
   23  H  3  X   -0.069532  -0.035465  -0.378807   0.540366   0.015119
   24  H  3  Y    0.338606  -0.008537   0.189142  -0.011380   0.251642
   25  H  3  Z    0.390553  -0.351135  -0.371984   0.353608  -0.147708
   26  H  4  S    0.129404  -0.000000  -0.830520  -0.000000  -0.134000
   27  H  4  S    0.016110  -0.000000  -0.486867  -0.000000  -0.055366
   28  H  4  X   -0.061107   0.000000  -0.125958  -0.000000   0.073229
   29  H  4  Y   -0.000000   0.690556  -0.000000   0.468082   0.000000
   30  H  4  Z    0.295618   0.000000   0.364569   0.000000  -0.765539

                     21         22         23         24         25
                    1.6060     1.7812     1.8802     1.9632     2.1447
                     A          A          A          A          A   
    1  N  1  S    0.000000  -0.014445   0.087207   0.046438   0.000000
    2  N  1  S    0.000000   0.092053   0.177277   0.143786   0.000000
    3  N  1  S   -0.000000   1.183878   0.171389   0.638175  -0.000000
    4  N  1  X   -0.000000  -0.309002   0.558177   0.211030  -0.000000
    5  N  1  Y   -0.179282  -0.000000  -0.000000  -0.000000   0.091791
    6  N  1  Z    0.000000   0.248129  -0.013775   0.075303  -0.000000
    7  N  1  X    0.000000  -0.436398   0.043457   0.204965  -0.000000
    8  N  1  Y   -0.465159   0.000000  -0.000000   0.000000   0.378714
    9  N  1  Z   -0.000000   0.457918  -0.034016   0.404322  -0.000000
   10  N  1 XX    0.000000  -0.128000  -0.249774  -0.139236   0.000000
   11  N  1 YY   -0.000000   0.275865   0.579811  -0.626411  -0.000000
   12  N  1 ZZ    0.000000  -0.147864  -0.330037   0.765647  -0.000000
   13  N  1 XY   -0.111739   0.000000   0.000000  -0.000000   0.509732
   14  N  1 XZ    0.000000   0.169046  -0.105196  -0.169717   0.000000
   15  N  1 YZ    0.317015   0.000000   0.000000   0.000000   0.745331
   16  H  2  S   -0.085705  -0.265343  -0.094957  -0.072169  -0.285670
   17  H  2  S    0.417699  -0.358544   0.122582  -0.028483  -0.366640
   18  H  2  X    0.388853  -0.663719   0.097212  -0.212973  -0.356384
   19  H  2  Y   -0.003415   0.140961  -0.269469   0.157098   0.484669
   20  H  2  Z   -0.583046   0.371835  -0.082975  -0.290798  -0.206803
   21  H  3  S    0.085705  -0.265343  -0.094957  -0.072169   0.285670
   22  H  3  S   -0.417699  -0.358544   0.122582  -0.028483   0.366640
   23  H  3  X   -0.388853  -0.663719   0.097212  -0.212973   0.356384
   24  H  3  Y   -0.003415  -0.140961   0.269469  -0.157098   0.484669
   25  H  3  Z    0.583046   0.371835  -0.082975  -0.290798   0.206803
   26  H  4  S   -0.000000  -0.052750   0.016787  -0.232892   0.000000
   27  H  4  S   -0.000000  -0.013444  -0.359729  -0.348934   0.000000
   28  H  4  X   -0.000000   0.313470   0.829953   0.732146  -0.000000
   29  H  4  Y    0.480155  -0.000000   0.000000  -0.000000  -0.589988
   30  H  4  Z    0.000000  -0.499975   0.380056  -0.085618   0.000000

                     26         27         28         29
                    2.1570     2.6343     2.7731     2.8327
                     A          A          A          A   
    1  N  1  S   -0.000000   0.153458  -0.000000  -0.024248
    2  N  1  S   -0.000000   0.233340   0.000000   0.109555
    3  N  1  S    0.000000  -0.836951   0.000000   2.042362
    4  N  1  X   -0.000000   0.448036   0.000000   0.376653
    5  N  1  Y    0.076968  -0.000000  -0.261898   0.000000
    6  N  1  Z   -0.000000  -0.099253   0.000000   0.261236
    7  N  1  X   -0.000000   1.422108   0.000000   0.489561
    8  N  1  Y   -0.373694  -0.000000  -0.488280   0.000000
    9  N  1  Z    0.000000  -0.332769   0.000000   0.318367
   10  N  1 XX   -0.000000  -0.018052   0.000000   1.446321
   11  N  1 YY    0.000000  -0.096512  -0.000000  -0.694813
   12  N  1 ZZ    0.000000   0.114564  -0.000000  -0.751509
   13  N  1 XY    0.101663   0.000000   1.217255  -0.000000
   14  N  1 XZ   -0.000000   1.336083  -0.000000  -0.001286
   15  N  1 YZ   -0.458196  -0.000000  -0.529366   0.000000
   16  H  2  S   -0.322962   0.792451   0.880074  -0.360033
   17  H  2  S   -0.179350   0.281767   0.353525  -0.097942
   18  H  2  X    0.313607   0.483175   0.641810  -0.204875
   19  H  2  Y    1.076142  -0.253112  -0.574362   0.208901
   20  H  2  Z   -0.027697  -0.254419  -0.438229   0.285390
   21  H  3  S    0.322962   0.792451  -0.880074  -0.360032
   22  H  3  S    0.179350   0.281767  -0.353525  -0.097942
   23  H  3  X   -0.313607   0.483175  -0.641810  -0.204874
   24  H  3  Y    1.076142   0.253112  -0.574362  -0.208901
   25  H  3  Z    0.027697  -0.254419   0.438229   0.285389
   26  H  4  S   -0.000000  -0.743271  -0.000000  -1.513529
   27  H  4  S   -0.000000  -0.341566  -0.000000  -0.452445
   28  H  4  X    0.000000   0.558060   0.000000   1.171829
   29  H  4  Y    0.222083  -0.000000  -0.293921   0.000000
   30  H  4  Z   -0.000000  -0.188024   0.000000   0.479448
 .....DONE WITH MCSCF ITERATIONS.....
 CPU     0: STEP CPU TIME=     9.53 TOTAL CPU TIME=         10.5 (      0.2 MIN)
 TOTAL WALL CLOCK TIME=         10.5 SECONDS, CPU UTILIZATION IS    99.90%

     ----------------------------------------------------------------
     PROPERTY VALUES FOR THE MCSCF SELF-CONSISTENT FIELD WAVEFUNCTION
     ----------------------------------------------------------------

          -----------------
          ENERGY COMPONENTS
          -----------------

         WAVEFUNCTION NORMALIZATION =       1.0000000000

                ONE ELECTRON ENERGY =     -93.7396122669
                TWO ELECTRON ENERGY =      26.9115461960
           NUCLEAR REPULSION ENERGY =      11.1338122699
                                      ------------------
                       TOTAL ENERGY =     -55.6942538011

 ELECTRON-ELECTRON POTENTIAL ENERGY =      26.9115461960
  NUCLEUS-ELECTRON POTENTIAL ENERGY =    -149.4472024744
   NUCLEUS-NUCLEUS POTENTIAL ENERGY =      11.1338122699
                                      ------------------
             TOTAL POTENTIAL ENERGY =    -111.4018440086
               TOTAL KINETIC ENERGY =      55.7075902075
                 VIRIAL RATIO (V/T) =       1.9997605998

          ---------------------------------------
          MULLIKEN AND LOWDIN POPULATION ANALYSES
          ---------------------------------------

     ATOMIC MULLIKEN POPULATION IN EACH MOLECULAR ORBITAL

                      1          2          3          4          5

                  2.000000   1.979457   1.655322   1.648785   1.637735

    1             2.000673   1.360604   1.355594   0.979390   1.210746
    2            -0.000168   0.219726   0.013627   0.233713   0.209243
    3            -0.000168   0.219726   0.013627   0.233713   0.209243
    4            -0.000338   0.179402   0.272474   0.201970   0.008504

                      6          7          8

                  0.030473   0.030109   0.018118

    1             0.013425   0.015631   0.009504
    2             0.008538   0.006342   0.000298
    3             0.008538   0.006342   0.000298
    4            -0.000028   0.001794   0.008017
 WARNING! MCSCF POPULATIONS SHOWN ABOVE ARE FOR THE NATURAL ORBITALS.
 IGNORE THE ABOVE DATA FOR MCSCF FUNCTIONS WHICH ARE NOT OF -FORS- TYPE.
 THE FOLLOWING POPULATIONS ARE CORRECT FOR ANY MCSCF WAVEFUNCTION.

               ----- POPULATIONS IN EACH AO -----
                             MULLIKEN      LOWDIN
              1  N  1  S      2.00231     1.90243
              2  N  1  S      0.81728     0.57900
              3  N  1  S      0.70179     0.41023
              4  N  1  X      0.61681     0.53320
              5  N  1  Y      0.76886     0.71325
              6  N  1  Z      0.84180     0.79294
              7  N  1  X      0.21402     0.36398
              8  N  1  Y      0.44878     0.49463
              9  N  1  Z      0.51925     0.55651
             10  N  1 XX      0.00037     0.19282
             11  N  1 YY      0.00177     0.14852
             12  N  1 ZZ      0.00266     0.14291
             13  N  1 XY      0.00599     0.00802
             14  N  1 XZ      0.00388     0.01370
             15  N  1 YZ      0.00000     0.00487
             16  H  2  S      0.57782     0.43589
             17  H  2  S      0.05856     0.15134
             18  H  2  X      0.02179     0.03673
             19  H  2  Y      0.01851     0.05246
             20  H  2  Z      0.01463     0.03164
             21  H  3  S      0.57782     0.43589
             22  H  3  S      0.05856     0.15134
             23  H  3  X      0.02179     0.03673
             24  H  3  Y      0.01851     0.05246
             25  H  3  Z      0.01463     0.03164
             26  H  4  S      0.59134     0.45879
             27  H  4  S      0.02406     0.14508
             28  H  4  X      0.03726     0.06678
             29  H  4  Y      0.00848     0.02507
             30  H  4  Z      0.01066     0.03115

          ----- MULLIKEN ATOMIC OVERLAP POPULATIONS -----
          (OFF-DIAGONAL ELEMENTS NEED TO BE MULTIPLIED BY 2)

             1           2           3           4

    1    6.1423994
    2    0.2455512   0.4576866
    3    0.2455512  -0.0068376   0.4576866
    4    0.3120653  -0.0050816  -0.0050816   0.3698939

          TOTAL MULLIKEN AND LOWDIN ATOMIC POPULATIONS
       ATOM         MULL.POP.    CHARGE          LOW.POP.     CHARGE
    1 N             6.945567    0.054433         6.856999    0.143001
    2 H             0.691319    0.308681         0.708066    0.291934
    3 H             0.691319    0.308681         0.708066    0.291934
    4 H             0.671796    0.328204         0.726868    0.273132

          MULLIKEN SPHERICAL HARMONIC POPULATIONS
       ATOM           S       P       D      F      G      H      I    TOTAL
    1 N             3.52    3.41    0.01   0.00   0.00   0.00   0.00    6.95
    2 H             0.64    0.05    0.00   0.00   0.00   0.00   0.00    0.69
    3 H             0.64    0.05    0.00   0.00   0.00   0.00   0.00    0.69
    4 H             0.62    0.06    0.00   0.00   0.00   0.00   0.00    0.67

          ---------------------
          ELECTROSTATIC MOMENTS
          ---------------------

 POINT   1           X           Y           Z (BOHR)    CHARGE
                -0.000004   -0.000000   -0.177185        1.00 (A.U.)
         DX          DY          DZ         /D/  (DEBYE)
    -0.836701   -0.000000    2.194016    2.348143
 ...... END OF PROPERTY EVALUATION ......
 CPU     0: STEP CPU TIME=     0.00 TOTAL CPU TIME=         10.5 (      0.2 MIN)
 TOTAL WALL CLOCK TIME=         10.5 SECONDS, CPU UTILIZATION IS    99.81%

     -------------------------------------------------
     GMC-PT/GMC-QDPT or general MCSCF input parameters
     -------------------------------------------------
 # of frozen core orbs. =         0 ->         0
 # of doubly occ. orbs. =         1
 # of active      orbs. =         7
 # of virtual     orbs. =        21
 # of active electrons  =         7
 # of states in CI      =         3
 Highest state in CI    =         3
 kstate =  1 1 1
 avecoe =  0.333 0.333 0.333
 State symmetry           = A           
 Assigned symmetry number = 1

 <<<Act. MO sym.: 1111111

 <<<Division of 1-ext.:  0
 <<<Division of 2-ext.:  0

     ------------------------
     Orbital canonicalization
     ------------------------

 MOs are canonicalized for core, virtual, and invariant-active orbital spaces.
 This is a part of the GMC-QDPT calculation.
 SCHWARZ INEQUALITY OVERHEAD:       465 INTEGRALS, T=        0.00
 DIRECT TRANSFORMATION SKIPS AO INTEGRAL STORAGE ON DISK.

 Averaged energy =     -55.694253801

 State #    1  Energy =     -55.825809795  S =  0.500
 State #    2  Energy =     -55.746835698  S =  0.500
 State #    3  Energy =     -55.510115911  S =  0.500

 Orbital energies for filled orbital space
  -15.986734
 Orbital energies for active orbital space
   -1.499735  -1.024459  -0.778226  -0.738672   0.159185
    0.417592   0.217100
 Orbital energies for external orbital space
    0.109039   0.194069   0.258659   0.525005   0.570838
    0.641681   0.869947   1.056635   1.131684   1.211332
    1.324524   1.472229   1.605976   1.781200   1.880240
    1.963176   2.144698   2.157002   2.634302   2.773117
    2.832746

 Zero values mean non-canonical orbitals.
 ... done with orbital canonicalization ...
 CPU     0: STEP CPU TIME=     0.56 TOTAL CPU TIME=         11.0 (      0.2 MIN)
 TOTAL WALL CLOCK TIME=         11.0 SECONDS, CPU UTILIZATION IS    99.91%

     --------------------------------------------
     PARTIAL TWO ELECTRON INTEGRAL TRANSFORMATION
     --------------------------------------------

 NUMBER OF CORE MOLECULAR ORBITALS     =    0
 NUMBER OF OCCUPIED MOLECULAR ORBITALS =    8
 TOTAL NUMBER OF MOLECULAR ORBITALS    =   29
 TOTAL NUMBER OF ATOMIC ORBITALS       =   30
 THRESHOLD FOR KEEPING TRANSFORMED 2E- INTEGRALS = 1.000E-09
 AO INTEGRALS WILL BE CALCULATED IN DIRECT MODE...
 DIRECT TRANSFORMATION SKIPS AO INTEGRAL STORAGE ON DISK.
 SCHWARZ INEQUALITY OVERHEAD:       465 INTEGRALS, T=        0.00

 PLAN A: REQUIREMENTS FOR FULLY IN-MEMORY TRANSFORMATION:
 # OF WORDS AVAILABLE =            100000000
 # OF WORDS NEEDED    =               221798

 PARALLEL ONLY WORKS WITH THE SEGMENTED ALGORITHM.
 ADJUSTING MEMORY TO USE SEGMENTED ALGORITHM.


 PLAN B: REQUIREMENTS FOR THE SEGMENTED TRANSFORMATION:
       MINIMUM=         124148 WORDS FOR 1 MOLECULAR ORBITAL PER PASS
       MAXIMUM=         221798 WORDS FOR ALL MOLECULAR ORBITALS IN 1 PASS
              (          13950 EXTRA WORDS INCLUDES 1 EXTRA ORBITAL/PASS)
 THIS RUN USES=         221798 WORDS,
 DISTRIBUTING   1 PASSES EACH CONTAINING     8 ORBITALS OVER   1 PROCESSORS.

 CHOOSING SEGMENTED PARTIAL TRANSFORMATION...
 DIRECT TRANSFORMATION SKIPS AO INTEGRAL STORAGE ON DISK.
 PASS #   1 TOOK        0.04 SECONDS.
 TOTAL NUMBER OF TRANSFORMED 2E- INTEGRALS KEPT =        18120
 ... END OF INTEGRAL TRANSFORMATION ...
 CPU     0: STEP CPU TIME=     0.04 TOTAL CPU TIME=         11.1 (      0.2 MIN)
 TOTAL WALL CLOCK TIME=         11.1 SECONDS, CPU UTILIZATION IS    99.82%

     --------     ------------------------------------------
     GMC-QDPT     Program written by H.Nakano (Kyushu Univ.)
     --------     ------------------------------------------

 *** Reference space

 Reference type: ORMAS (= Occupation restricted multiple active space)
 # of orbitals          =  7
 # of minimum electrons =  7
 # of maximum electrons =  7
 State symmetry    =    1 (input)
 2*Sz              =    1 (input)
 Spin multiplicity =    2 (input)
 Dimension of reference space =      1225  (from      3432 walks)

 Dimension of reference space =      1225  (from      1225 walks)

 <<<Ionized spaces for Ref-CI:
      0:         1225 /   -1-0:         1960 /  0-1-0:         2891

 ***                    ***
 *** Reference space CI ***
 ***                    ***

 Converged after   29 iterations

 Reference wavefunctions:

 State #    1  Energy =     -55.825809795  S =  0.500

      Det      Coef    Occupancy (Ignoring core)
      ---      ----    --------- --------- -----
        1   -0.975374  11110001110000
      393   -0.057052  10110101010010
      717   -0.089675  11010011100001

 State #    2  Energy =     -55.746835698  S =  0.500

      Det      Coef    Occupancy (Ignoring core)
      ---      ----    --------- --------- -----
       36    0.982027  11110001101000
      463    0.056828  10110101001010

 State #    3  Energy =     -55.510115911  S =  0.500

      Det      Coef    Occupancy (Ignoring core)
      ---      ----    --------- --------- -----
       38    0.050952  11011001101000
       71    0.973224  11110001011000
      122    0.055075  11010010111000
      822   -0.092133  11010011001001

 Davidson method: CPU/Wall time =           0.48 /           0.48 sec.

 Oscillator strength (invalid if E(1)/=E(GS)):
 -----------------------------------------
   State                        f
 -----------------------------------------
     2     F(REF-CI)=        0.0002426851
     3     F(REF-CI)=        0.0053569897
 -----------------------------------------

 Dipole moment matrix elements, x, y, z, in A.U.

 Dimension of ionized spaces for PT:
 (N-2) space:         1715 /  (N-1) space:         2842 /  N space:         2891
 (N+1) space:         2842 /  (N+2) space:         1715

 <<<Ionized spaces for internal:
         0:         1225 /      -1-0:         1960 /     0-1-0:         2891
  -1-0-1-0:         2842 / 0-1-0-1-0:         3381

 Diagonal elements of averaged one-particle density matrix:
       2       3       4       5       6       7       8
  0.9925  0.9871  0.9830  0.9913  0.0172  0.0106  0.0182
  0.9868  0.6632  0.6546  0.6624  0.0130  0.0076  0.0124

 Orbital energies:
 -------- Doubly-occupied orbitals (highest several orbs.) -------
             1
 -1.598673D+01
 -------- Active orbitals ----------------------------------------
             2            3            4            5            6
 -1.499735D+00-1.024459D+00-7.782256D-01-7.386725D-01 1.591854D-01
             7            8
  4.175922D-01 2.171000D-01
 -------- External orbitals (lowest several orbs.) ---------------
             9           10           11           12           13
  1.090387D-01 1.940688D-01 2.586585D-01 5.250048D-01 5.708377D-01
            14           15           16           17           18
  6.416809D-01 8.699470D-01 1.056635D+00 1.131684D+00 1.211332D+00

 *** Quasi-degeneracy checking

 === Det (|Ci| > 1.0D-01 and dE < 5.0D-03)

 # of small denominators (single excitations)
 State       dEmin  dE < 5.0D-03  dE < 5.0D-04  dE < 5.0D-05  dE < 5.0D-06
 ----- ----------- ------------- ------------- ------------- -------------
     1    5.00D-03             0             0             0             0
     2    5.00D-03             0             0             0             0
     3    5.00D-03             0             0             0             0

 # of small denominators (double excitations)
 State       dEmin  dE < 5.0D-03  dE < 5.0D-04  dE < 5.0D-05  dE < 5.0D-06
 ----- ----------- ------------- ------------- ------------- -------------
     1    5.00D-03             0             0             0             0
     2    5.00D-03             0             0             0             0
     3    5.00D-03             0             0             0             0

 *** Zeroth-Order Setup (Granovsky's zeroth-order vectors)
 Zeroth-order effective Hamiltonian
  (= Sum_i e(i)*<I|a+(i)a(i)|J> ):
                   1            2            3
     1 -7.235298D+00
     2 -1.540924D-09-7.218731D+00
     3 -1.806711D-04-2.778672D-09-6.954093D+00

 Zeroth-order vectors:
 State #    1
       MC st            1           3           2
       Coeff   -1.000D+00  -6.425D-04  -9.312D-08
 State #    2
       MC st            2           1           3
       Coeff   -1.000D+00   9.313D-08  -1.044D-08
 State #    3
       MC st            3           1           2
       Coeff    1.000D+00  -6.425D-04  -1.050D-08

 *** GMC-QDPT computation

 (Integral reading:  CPU/Wall time =           0.00 /           0.00 sec.)

 One-external:
   0 -ionized terms: CPU/Wall time =           0.03 /           0.02 sec.
 (-1)-ionized terms: CPU/Wall time =           0.10 /           0.11 sec.
 (+1)-ionized terms: CPU/Wall time =           0.02 /           0.02 sec.
 (+1)-ionized terms: CPU/Wall time =           0.01 /           0.01 sec.
 (+2)-ionized terms: CPU/Wall time =           0.00 /           0.00 sec.

 Internal:
 # of macro loops for internal contribution =         1 (input)
 Loop:    1
 Dimension of internal CISD space     =         0  (after screening)
 Space construction: CPU/Wall time =           0.01 /           0.02 sec.
 Internal terms:     CPU/Wall time =           0.00 /           0.00 sec.

 Two-external:
   0 -ionized terms: CPU/Wall time =           0.03 /           0.02 sec.
 (-1)-ionized terms: CPU/Wall time =           0.31 /           0.31 sec.
 (-2)-ionized terms: CPU/Wall time =           0.17 /           0.17 sec.

 Total time:         CPU/Wall time =           0.68 /           0.68 sec.

 ***                  ***
 *** GMC-QDPT Results ***
 ***                  ***

 Diagonal elements of effective Hamiltonian:
 Heff(  1) =   -55.92497078
 Heff(  2) =   -55.85386735
 Heff(  3) =   -55.62176377

 Off-diagonal elements of effective Hamiltonian:
                   1            2
     2  6.292283D-09
     3 -7.169583D-04-2.681768D-09

 ******** GMC-QDPT energies ********
 ----------------------------------------------------------------------------
   State                        1st order                           2nd order
 ----------------------------------------------------------------------------
     1     E(REF-CI)=      -55.8258097945   E(GMC-QDPT2)=      -55.9249724783
     2     E(REF-CI)=      -55.7468356975   E(GMC-QDPT2)=      -55.8538673495
     3     E(REF-CI)=      -55.5101159113   E(GMC-QDPT2)=      -55.6217620728
 ----------------------------------------------------------------------------

 Excitation energies (invalid if E(1)/=E(GS)):
 ----------------------------------------------------------------------------
   State                        1st order                           2nd order
 ----------------------------------------------------------------------------

     TZ Sorted GMC-PT ENERGIES:
         1      -55.9249724783
         2      -55.8538673495
         3      -55.6217620728
     2     E(REF-CI)=        2.1489957 eV   E(GMC-QDPT2)=        1.9348701 eV
     3     E(REF-CI)=        8.5904725 eV   E(GMC-QDPT2)=        8.2507796 eV
 ----------------------------------------------------------------------------

 Main characters of perturbed GMC-QDPT states:

 State #    1  Energy =     -55.924972478  S =  0.500

      Det      Coef    Occupancy (Ignoring core)
      ---      ----    --------- --------- -----
        1   -0.975359  11110001110000
      393   -0.057016  10110101010010
      717   -0.089669  11010011100001

 State #    2  Energy =     -55.853867349  S =  0.500

      Det      Coef    Occupancy (Ignoring core)
      ---      ----    --------- --------- -----
       36    0.982027  11110001101000
      463    0.056828  10110101001010

 State #    3  Energy =     -55.621762073  S =  0.500

      Det      Coef    Occupancy (Ignoring core)
      ---      ----    --------- --------- -----
       38    0.050975  11011001101000
       71    0.973209  11110001011000
      122    0.055112  11010010111000
      822   -0.092135  11010011001001

 <<<Max |V/de| = 3.096D-02  Thresh = 1.000D+00

 Oscillator strength (invalid if E(1)/=E(GS)):
 ----------------------------------------------------------------------------
   State                        1st order                           2nd order
 ----------------------------------------------------------------------------
     2     F(REF-CI)=        0.0002426851     F(GMC-PT2)=        0.0002196549
     3     F(REF-CI)=        0.0053569897     F(GMC-PT2)=        0.0051992640
 ----------------------------------------------------------------------------

 Dipole moment matrix elements, x, y, z, in A.U.
States    1    1       -0.3694939531       -0.0000000017        0.7168602366
States    1    2        0.0000000022        0.0680715494       -0.0000000192
States    1    3        0.1387444331       -0.0000000055        0.0804428485
States    2    1        0.0000000022        0.0680715494       -0.0000000192
States    2    2       -0.1916637673       -0.0000000189        0.2729276410
States    2    3        0.0000000086       -0.1036353939       -0.0000000001
States    3    1        0.1387444331       -0.0000000055        0.0804428485
States    3    2        0.0000000086       -0.1036353939       -0.0000000001
States    3    3       -0.6501919914       -0.0000000113        0.2326430354

 Oscillator strength (valid only when positive): 
 ----------------------------------------------------------------------------
  States                        1st order                           2nd order
 ----------------------------------------------------------------------------
  1  1     F(REF-CI)=        0.0000000000     F(GMC-PT2)=        0.0000000000
  1  2     F(REF-CI)=       -0.0002426851     F(GMC-PT2)=       -0.0002196549
  1  3     F(REF-CI)=       -0.0053569897     F(GMC-PT2)=       -0.0051992640
  2  1     F(REF-CI)=        0.0002426851     F(GMC-PT2)=        0.0002196549
  2  2     F(REF-CI)=        0.0000000000     F(GMC-PT2)=        0.0000000000
  2  3     F(REF-CI)=       -0.0016987918     F(GMC-PT2)=       -0.0016619194
  3  1     F(REF-CI)=        0.0053569897     F(GMC-PT2)=        0.0051992640
  3  2     F(REF-CI)=        0.0016987918     F(GMC-PT2)=        0.0016619194
  3  3     F(REF-CI)=        0.0000000000     F(GMC-PT2)=        0.0000000000
 CPU     0: STEP CPU TIME=     1.23 TOTAL CPU TIME=         12.3 (      0.2 MIN)
 TOTAL WALL CLOCK TIME=         12.3 SECONDS, CPU UTILIZATION IS    99.92%

     !!! DIABATIZATION FOR REF CI STATES !!!

 *******************************************************
          $DMO GROUP FOUND IN THE INPUT.
        DIABATIZATION OF ADIABATIC STATES BEGINS.
     PROGRAMMED BY TAO ZENG (CARLETON UNIVERSITY).
               Email: toby.zeng@carleton.ca
     See T. Zeng, J. Chem. Phys. 2017, 146, 144103
 *******************************************************

 *************************************************************************
     STEP 1: TRANSFORMATION OF ADIABATIC STATES TO THE DMO REPRESENTATION
         See Atchity and Ruedenberg, J. Chem. Phys. 1999, 111, 2910
 *************************************************************************

Read in Diabatic Molecualr Orbitals:

                      1          2          3          4          5

    1  N  1  S    0.008609   0.000000   0.000000  -0.013219   0.279491
    2  N  1  S    0.442914  -0.000000   0.000000  -0.184329   0.867803
    3  N  1  S    0.276913   0.000000  -0.000000  -0.288315   0.144236
    4  N  1  X   -0.000000   0.493155  -0.024636  -0.000000  -0.000000
    5  N  1  Y    0.000000   0.024636   0.493155  -0.000000   0.000000
    6  N  1  Z    0.090197   0.000000   0.000000   0.593421   0.705309
    7  N  1  X   -0.000000   0.210628  -0.010522   0.000000   0.000000
    8  N  1  Y    0.000000   0.010522   0.210628  -0.000000  -0.000000
    9  N  1  Z   -0.004381   0.000000   0.000000   0.381592  -0.106092
   10  N  1 XX   -0.000457   0.010719  -0.000535  -0.012387   0.006153
   11  N  1 YY   -0.000457  -0.010719   0.000535  -0.012387   0.006153
   12  N  1 ZZ    0.000914  -0.000000   0.000000   0.024773  -0.012306
   13  N  1 XY    0.000000  -0.000618  -0.012377  -0.000000   0.000000
   14  N  1 XZ   -0.000000   0.026529  -0.001325  -0.000000   0.000000
   15  N  1 YZ    0.000000   0.001325   0.026529  -0.000000   0.000000
   16  H  2  S    0.194462  -0.176074   0.343485   0.112865  -0.523343
   17  H  2  S    0.003574  -0.023812   0.046452   0.024014  -0.054445
   18  H  2  X    0.018760   0.009101   0.022834   0.009336  -0.039151
   19  H  2  Y   -0.032493   0.022287  -0.020044  -0.016171   0.067811
   20  H  2  Z   -0.009251   0.008464  -0.016511   0.018769  -0.010566
   21  H  3  S    0.194462  -0.209430  -0.324227   0.112865  -0.523343
   22  H  3  S    0.003574  -0.028322  -0.043847   0.024014  -0.054445
   23  H  3  X    0.018760   0.006781  -0.023627   0.009336  -0.039151
   24  H  3  Y    0.032493  -0.024174  -0.017723   0.016171  -0.067811
   25  H  3  Z   -0.009251   0.010067   0.015585   0.018769  -0.010566
   26  H  4  S    0.194462   0.385503  -0.019258   0.112865  -0.523343
   27  H  4  S    0.003574   0.052134  -0.002604   0.024014  -0.054445
   28  H  4  X   -0.037519  -0.032295   0.001613  -0.018672   0.078302
   29  H  4  Y    0.000000   0.001067   0.021353  -0.000000   0.000000
   30  H  4  Z   -0.009251  -0.018530   0.000926   0.018769  -0.010566

                      6          7

    1  N  1  S    0.000000  -0.000000
    2  N  1  S    0.000000  -0.000000
    3  N  1  S   -0.000000   0.000000
    4  N  1  X   -0.930415  -0.002083
    5  N  1  Y   -0.002083   0.930415
    6  N  1  Z   -0.000000   0.000000
    7  N  1  X   -0.046866  -0.000105
    8  N  1  Y   -0.000105   0.046866
    9  N  1  Z   -0.000000   0.000000
   10  N  1 XX    0.001538   0.000003
   11  N  1 YY   -0.001538  -0.000003
   12  N  1 ZZ   -0.000000   0.000000
   13  N  1 XY   -0.000004   0.001776
   14  N  1 XZ    0.039985   0.000090
   15  N  1 YZ    0.000090  -0.039985
   16  H  2  S   -0.362630  -0.631354
   17  H  2  S   -0.065964  -0.114846
   18  H  2  X    0.002763  -0.037520
   19  H  2  Y    0.037435   0.040736
   20  H  2  Z    0.001882   0.003276
   21  H  3  S   -0.365454   0.629724
   22  H  3  S   -0.066477   0.114549
   23  H  3  X    0.002595   0.037532
   24  H  3  Y   -0.037617   0.040567
   25  H  3  Z    0.001896  -0.003268
   26  H  4  S    0.728084   0.001630
   27  H  4  S    0.132441   0.000297
   28  H  4  X   -0.062317  -0.000140
   29  H  4  Y    0.000055  -0.024345
   30  H  4  Z   -0.003778  -0.000008

NUMBER OF SUB ACTIVE SPACES:   1
ROTATE ACTIVE MOS TO DMOS IN EACH SUB-SPACE

SPACE  1:

OVERLAP BETWEEN ORTHONORMAL AND PRE-ORTHONORMAL REF. DMOS

             1           2           3           4           5

    1    0.9798813  -0.0174218   0.0008703  -0.0075580  -0.0056774
    2   -0.0174218   1.0505733  -0.0092984  -0.0389062   0.0839219
    3    0.0008703  -0.0092984   0.8649046   0.0019436  -0.0041924
    4   -0.0075580  -0.0389062   0.0019436   0.9936631  -0.0087158
    5   -0.0056774   0.0839219  -0.0041924  -0.0087158   1.1495859
    6    0.0023599   0.0646075  -0.0034631  -0.0604510   0.0804417
    7    0.0000053   0.0053883   0.1049589  -0.0001354   0.0001801

             6           7

    1    0.0023599   0.0000053
    2    0.0646075   0.0053883
    3   -0.0034631   0.1049589
    4   -0.0604510  -0.0001354
    5    0.0804417   0.0001801
    6    1.0326854  -0.0000308
    7   -0.0000308   1.0464570
REFERENCE DMOS AFTER ORTHONORMALIZATION:

                      1          2          3          4          5

    1  N  1  S    0.009820  -0.018787   0.000939  -0.012951   0.245761
    2  N  1  S    0.454200  -0.056083   0.002802  -0.181665   0.764592
    3  N  1  S    0.280911  -0.014598   0.000729  -0.289089   0.127592
    4  N  1  X    0.011469   0.523567  -0.026155  -0.036193   0.027106
    5  N  1  Y    0.000000   0.023391   0.468246  -0.000000  -0.000000
    6  N  1  Z    0.099874  -0.024947   0.001246   0.601716   0.621242
    7  N  1  X    0.003763   0.205016  -0.010242   0.004504  -0.010953
    8  N  1  Y    0.000000   0.012047   0.241164   0.000000  -0.000000
    9  N  1  Z   -0.001748   0.019905  -0.000994   0.385717  -0.092827
   10  N  1 XX   -0.000365   0.009390  -0.000469  -0.012069   0.004583
   11  N  1 YY   -0.000723  -0.011061   0.000553  -0.012975   0.006203
   12  N  1 ZZ    0.001087   0.001671  -0.000083   0.025044  -0.010786
   13  N  1 XY   -0.000000  -0.000735  -0.014704  -0.000000   0.000000
   14  N  1 XZ    0.000325   0.023387  -0.001168   0.003181  -0.004329
   15  N  1 YZ    0.000000   0.001787   0.035766   0.000000   0.000000
   16  H  2  S    0.195206  -0.101016   0.471261   0.087800  -0.423034
   17  H  2  S    0.003393  -0.013758   0.067202   0.019587  -0.041841
   18  H  2  X    0.019197   0.012300   0.031078   0.009971  -0.035034
   19  H  2  Y   -0.032753   0.013413  -0.027627  -0.013609   0.055518
   20  H  2  Z   -0.009180   0.009029  -0.019677   0.019314  -0.010041
   21  H  3  S    0.195206  -0.147480  -0.458848   0.087800  -0.423034
   22  H  3  S    0.003393  -0.020387  -0.065496   0.019587  -0.041841
   23  H  3  X    0.019197   0.009142  -0.032149   0.009971  -0.035034
   24  H  3  Y    0.032753  -0.016099  -0.026153   0.013609  -0.055518
   25  H  3  Z   -0.009180   0.010945   0.018679   0.019314  -0.010041
   26  H  4  S    0.201582   0.373817  -0.018674   0.169690  -0.531574
   27  H  4  S    0.004091   0.047579  -0.002377   0.033564  -0.059796
   28  H  4  X   -0.038492  -0.034201   0.001709  -0.023745   0.074817
   29  H  4  Y    0.000000   0.001392   0.027867   0.000000  -0.000000
   30  H  4  Z   -0.009638  -0.016439   0.000821   0.018045  -0.007833

                      6          7

    1  N  1  S   -0.018746  -0.000042
    2  N  1  S   -0.067712  -0.000152
    3  N  1  S   -0.026588  -0.000060
    4  N  1  X   -0.938067  -0.002101
    5  N  1  Y   -0.001886   0.842025
    6  N  1  Z   -0.011832  -0.000026
    7  N  1  X   -0.057135  -0.000128
    8  N  1  Y   -0.000046   0.020535
    9  N  1  Z    0.028565   0.000064
   10  N  1 XX   -0.000163  -0.000000
   11  N  1 YY   -0.002036  -0.000005
   12  N  1 ZZ    0.002199   0.000005
   13  N  1 XY   -0.000007   0.003176
   14  N  1 XZ    0.037775   0.000085
   15  N  1 YZ    0.000094  -0.041807
   16  H  2  S   -0.305626  -0.649998
   17  H  2  S   -0.058395  -0.116409
   18  H  2  X    0.005278  -0.039027
   19  H  2  Y    0.030273   0.041619
   20  H  2  Z    0.003125   0.005062
   21  H  3  S   -0.308534   0.648623
   22  H  3  S   -0.058916   0.116146
   23  H  3  X    0.005103   0.039050
   24  H  3  Y   -0.030459   0.041483
   25  H  3  Z    0.003148  -0.005048
   26  H  4  S    0.732470   0.001640
   27  H  4  S    0.131878   0.000295
   28  H  4  X   -0.065329  -0.000146
   29  H  4  Y    0.000058  -0.026066
   30  H  4  Z   -0.000939  -0.000002

 -------------------------------------------
       MAXIMIZING MORMO OVERLAP TERM        
 -------------------------------------------
   SWEEP    VALUE       PROGRESS
     0     6.51762
     1     6.95174     0.43411608
     2     6.95232     0.00057658
     3     6.95232     0.00000000
     4     6.95232     0.00000000
 THE ROTATION IS DONE
ACTIVE ORBITALS AFTER MORMO:

                      1          2          3          4          5

    1  N  1  S    0.008418  -0.022137   0.001106  -0.012216   0.195106
    2  N  1  S    0.433258  -0.042246   0.002110  -0.188150   0.697003
    3  N  1  S    0.328041  -0.002815   0.000141  -0.276230   0.209785
    4  N  1  X    0.013854   0.516189  -0.025786  -0.039271   0.040711
    5  N  1  Y    0.000000   0.020691   0.414185  -0.000000   0.000000
    6  N  1  Z    0.086894  -0.040702   0.002033   0.603443   0.588463
    7  N  1  X    0.003905   0.166311  -0.008308   0.045134  -0.043772
    8  N  1  Y    0.000000   0.016734   0.334992  -0.000000   0.000000
    9  N  1  Z    0.023887   0.053530  -0.002674   0.384747  -0.048500
   10  N  1 XX    0.004840   0.009019  -0.000451  -0.011924  -0.049182
   11  N  1 YY   -0.005075  -0.009960   0.000498  -0.009187   0.041880
   12  N  1 ZZ    0.000235   0.000941  -0.000047   0.021112   0.007303
   13  N  1 XY   -0.000000  -0.001007  -0.020153   0.000000  -0.000000
   14  N  1 XZ   -0.003166   0.013393  -0.000669   0.004777   0.028218
   15  N  1 YZ    0.000000   0.001362   0.027258  -0.000000  -0.000000
   16  H  2  S    0.184213  -0.138224   0.377925   0.093154  -0.436450
   17  H  2  S    0.004108  -0.004991   0.152168   0.028126  -0.055917
   18  H  2  X    0.025496  -0.004852   0.035564   0.011861  -0.023929
   19  H  2  Y   -0.018786   0.014854  -0.003431  -0.010724   0.045805
   20  H  2  Z   -0.009828   0.017128  -0.018152   0.017129  -0.015006
   21  H  3  S    0.184213  -0.175199  -0.362268   0.093154  -0.436450
   22  H  3  S    0.004108  -0.020131  -0.150913   0.028126  -0.055917
   23  H  3  X    0.025496  -0.008372  -0.034904   0.011861  -0.023929
   24  H  3  Y    0.018786  -0.015122  -0.001933   0.010724  -0.045805
   25  H  3  Z   -0.009828   0.018852   0.016355   0.017129  -0.015006
   26  H  4  S    0.181582   0.393323  -0.019648   0.135478  -0.526739
   27  H  4  S   -0.001839   0.040789  -0.002038   0.034968  -0.062582
   28  H  4  X   -0.034728  -0.043617   0.002179  -0.012960   0.061764
   29  H  4  Y    0.000000   0.001052   0.021054  -0.000000   0.000000
   30  H  4  Z   -0.003128  -0.009965   0.000498   0.022143  -0.010465

                      6          7

    1  N  1  S   -0.093754  -0.000210
    2  N  1  S   -0.202754  -0.000454
    3  N  1  S    0.160588   0.000360
    4  N  1  X   -0.896844  -0.002009
    5  N  1  Y   -0.001934   0.863682
    6  N  1  Z    0.006556   0.000015
    7  N  1  X   -0.144036  -0.000323
    8  N  1  Y    0.000034  -0.015005
    9  N  1  Z    0.042381   0.000095
   10  N  1 XX    0.005275   0.000012
   11  N  1 YY    0.018657   0.000042
   12  N  1 ZZ   -0.023931  -0.000054
   13  N  1 XY   -0.000109   0.048545
   14  N  1 XZ    0.050405   0.000113
   15  N  1 YZ    0.000031  -0.013667
   16  H  2  S   -0.354307  -0.563715
   17  H  2  S   -0.069285  -0.217583
   18  H  2  X    0.006728  -0.046072
   19  H  2  Y    0.040283   0.007270
   20  H  2  Z   -0.013952   0.016085
   21  H  3  S   -0.356828   0.562123
   22  H  3  S   -0.070259   0.217270
   23  H  3  X    0.006522   0.046102
   24  H  3  Y   -0.040315   0.007090
   25  H  3  Z   -0.013880  -0.016147
   26  H  4  S    0.719742   0.001611
   27  H  4  S    0.136597   0.000306
   28  H  4  X   -0.067908  -0.000152
   29  H  4  Y    0.000011  -0.004809
   30  H  4  Z    0.020231   0.000045

Actually Used Diabatic Molecualr Orbitals:

                      1          2          3          4          5

    1  N  1  S    0.008418  -0.022137   0.001106  -0.012216   0.195106
    2  N  1  S    0.433258  -0.042246   0.002110  -0.188150   0.697003
    3  N  1  S    0.328041  -0.002815   0.000141  -0.276230   0.209785
    4  N  1  X    0.013854   0.516189  -0.025786  -0.039271   0.040711
    5  N  1  Y    0.000000   0.020691   0.414185  -0.000000   0.000000
    6  N  1  Z    0.086894  -0.040702   0.002033   0.603443   0.588463
    7  N  1  X    0.003905   0.166311  -0.008308   0.045134  -0.043772
    8  N  1  Y    0.000000   0.016734   0.334992  -0.000000   0.000000
    9  N  1  Z    0.023887   0.053530  -0.002674   0.384747  -0.048500
   10  N  1 XX    0.004840   0.009019  -0.000451  -0.011924  -0.049182
   11  N  1 YY   -0.005075  -0.009960   0.000498  -0.009187   0.041880
   12  N  1 ZZ    0.000235   0.000941  -0.000047   0.021112   0.007303
   13  N  1 XY   -0.000000  -0.001007  -0.020153   0.000000  -0.000000
   14  N  1 XZ   -0.003166   0.013393  -0.000669   0.004777   0.028218
   15  N  1 YZ    0.000000   0.001362   0.027258  -0.000000  -0.000000
   16  H  2  S    0.184213  -0.138224   0.377925   0.093154  -0.436450
   17  H  2  S    0.004108  -0.004991   0.152168   0.028126  -0.055917
   18  H  2  X    0.025496  -0.004852   0.035564   0.011861  -0.023929
[...]
 Group Ref#    Coefficients
     1    1    0.943579
     2    2    0.004095
     3    3   -0.000095

WEIGHT OF LISTED PROTOTYPES:   89.04%

     STATE:    2
 Group Ref#    Coefficients
     1    1    0.004095
     2    2    0.941569
     3    3   -0.000369

WEIGHT OF LISTED PROTOTYPES:   88.66%

     STATE:    3
 Group Ref#    Coefficients
     1    1   -0.000095
     2    2   -0.000369
     3    3    0.943824

WEIGHT OF LISTED PROTOTYPES:   89.08%

 --------------------------------------------------
 IN DIRECT MAX. DIABATIZATION FOR GMC-QDPT

 DIRECT MAXIMIZATION (DM) WITHOUT TRUNCATING ADIABATS
 EXPANSIONS INTO THE REFERENCE CONFIGURATION SPACE
 --------------------------------------------------

 -------------------------------------------
 - DM DIABT PT HAMILTONIAN MATRIX ELEMENTS -
 -------------------------------------------
                                            
 --- DIABATIC ENERGIES (DIAGONAL ELEMENT) ---       HARTREE            EV
 STATE #  1'S GMC-PT-LEVEL DIABATIC ENERGY=     -55.915575752       0.000000000
 STATE #  2'S GMC-PT-LEVEL DIABATIC ENERGY=     -55.631159542       7.739359269
 STATE #  3'S GMC-PT-LEVEL DIABATIC ENERGY=     -55.853866607       1.679191362

 --- DIABATIC COUPLINGS (OFF DIAGONAL ELEMENTS)---  HATREE            EV
 STATE #  1 &  2'S GMC-PT-LEVEL COUPLING  =       0.052544029       1.429795848
 STATE #  1 &  3'S GMC-PT-LEVEL COUPLING  =      -0.000107139      -0.002915413
 STATE #  2 &  3'S GMC-PT-LEVEL COUPLING  =      -0.000407139      -0.011078828

 ---------------------------------------
     - ROTATION TO DIABATIC STATES -    
 ---------------------------------------
 ROWS=ADIABATIC, COLUMNS=DIABATIC STATES

             1           2           3

    1    0.9843827  -0.1760414   0.0004752
    2    0.0001495  -0.0018634  -0.9999983
    3    0.1760420   0.9843810  -0.0018080

 ---------------------------------------
          - DIABATIC STATES -           
 ---------------------------------------

 State #    1  Energy =     -55.915575752

      Det      Coef        Coefp    Occupancy (Ignoring core)
      ---      ----        ----    --------- --------- -----
        1    0.923852   -0.923852  222+000
       17    0.191814    0.191814  22-+00+
      701   -0.159049   -0.159049  22++00-
        4    0.122471   -0.122471  2-2++00
      176   -0.117987    0.117987  2+2+-00
        6   -0.079836    0.079836  22200+0
      717   -0.059584   -0.059584  220+002
      393   -0.058134   -0.058134  202+020
      402    0.050250   -0.050250  2+-+0-+
      708    0.044966   -0.044966  2-++0+-
      192    0.044682   -0.044682  2+-+-0+
      704    0.042883   -0.042883  2-+++0-
      386   -0.042743    0.042743  2+2+0-0
       23   -0.039223   -0.039223  2--++0+
      215   -0.039137   -0.039137  022+200
      227   -0.036116   -0.036116  +2-+-0+
      705   -0.034872   -0.034872  -2+++0-
      390    0.034293   -0.034293  -+2++-0
      911   -0.034112   -0.034112  2+++-0-
      218    0.033791   -0.033791  +-2+-+0
       51   -0.032765    0.032765  22+-00+
      706    0.032029    0.032029  22+00+-
      212    0.031083    0.031083  +220200
      702    0.030282    0.030282  22+0+0-
     1051   -0.029836   -0.029836  2+++0--
      122    0.029545    0.029545  +2-200+
      143   -0.029528   -0.029528  220+200
       26   -0.027505   -0.027505  22-00++
       29   -0.026643   -0.026643  2--+0++
      773    0.025847   -0.025847  +2-++0-
      159    0.025386   -0.025386  -2++-0+
      424   -0.025085   -0.025085  +-2++-0
      184   -0.023305   -0.023305  -+2+-+0
       20   -0.022533   -0.022533  22-0+0+
      387   -0.022123    0.022123  2+20+-0
      113   -0.022091    0.022091  +-220+0
       76    0.021502    0.021502  2+2-0+0
        8    0.021241   -0.021241  2-2+0+0
      421   -0.020492   -0.020492  +22+0-0
      179   -0.020061   -0.020061  202+200

 State #    2  Energy =     -55.631159542

      Det      Coef        Coefp    Occupancy (Ignoring core)
      ---      ----        ----    --------- --------- -----
       71   -0.928854    0.928854  2+22000
      806   -0.161834   -0.161834  2++200-
       87    0.147224   -0.147224  2+-200+
       74   -0.092545    0.092545  2022+00
      386    0.083536   -0.083536  2+2+0-0
       76   -0.082233   -0.082233  2+2-0+0
       78   -0.079820    0.079820  20220+0
      822    0.066588   -0.066588  2+02002
      813    0.055650   -0.055650  20+20+-
      122    0.053085    0.053085  +2-200+
      106   -0.052251   -0.052251  +222000
       72   -0.048456   -0.048456  2+2-+00
       36    0.044672    0.044672  22+2000
       38   -0.042918    0.042918  2202+00
      111    0.042818   -0.042818  +22-0+0
      320    0.040408    0.040408  0+22200
      332   -0.040120    0.040120  ++-2-0+
      807   -0.039815    0.039815  2++-+0-
       99   -0.039096    0.039096  20-20++
      810   -0.039075   -0.039075  -++2+0-
      809    0.036863   -0.036863  20+2+0-
      248    0.036782   -0.036782  2+02200
      192   -0.036522    0.036522  2+-+-0+
      317    0.036202   -0.036202  ++2-200
      180   -0.034115    0.034115  -+2+200
      177    0.033265   -0.033265  2+20200
      811   -0.033212    0.033212  2++-0+-
       90    0.032292    0.032292  2+--+0+
      323   -0.031370    0.031370  +022-+0
      841   -0.031161    0.031161  +2+200-
      402   -0.030546    0.030546  2+-+0-+
       51    0.029148   -0.029148  22+-00+
      264    0.028305   -0.028305  -++2-0+
      109   -0.027113    0.027113  +-22+00
        4    0.026975   -0.026975  2-2++00
      878    0.026620    0.026620  ++-2+0-
        6    0.026508   -0.026508  22200+0
       93   -0.025747    0.025747  20-2+0+
      911    0.025565    0.025565  2+++-0-
     1051    0.024569    0.024569  2+++0--
       17   -0.023311   -0.023311  22-+00+
      316    0.023214    0.023214  ++22-00
       54   -0.021924    0.021924  -2+200+
        9   -0.021889   -0.021889  -22+0+0
      176    0.021481   -0.021481  2+2+-00
       96    0.021339    0.021339  2+--0++
      183   -0.020999    0.020999  202+-+0
      421   -0.020929   -0.020929  +22+0-0
      529    0.020546    0.020546  +022+-0

 State #    3  Energy =     -55.853866607

      Det      Coef        Coefp    Occupancy (Ignoring core)
      ---      ----        ----    --------- --------- -----
       36   -0.925347   -0.925347  22+2000
       39   -0.153429   -0.153429  2-+2+00
       52   -0.153342    0.153342  220200+
      246    0.136554    0.136554  2++2-00
       41   -0.114514    0.114514  22+-0+0
      351    0.108115    0.108115  22++0-0
      456    0.061384    0.061384  2++20-0
       43   -0.056177   -0.056177  2-+20+0
      472   -0.054943   -0.054943  2+020-+
      463    0.054221   -0.054221  20+2020
      262   -0.046831   -0.046831  2+02-0+
       37   -0.046315    0.046315  22+-+00
       71   -0.044491    0.044491  2+22000
       58    0.043483   -0.043483  2-02+0+
      157    0.040777   -0.040777  220+-0+
      367    0.040178   -0.040178  220+0-+
      285    0.039099   -0.039099  02+2200
       64    0.038972   -0.038972  2-020++
      297    0.036676   -0.036676  +202-0+
       55   -0.036212   -0.036212  220-+0+
      141    0.035438    0.035438  22++-00
       61   -0.034277   -0.034277  220-0++
      460   -0.034005   -0.034005  -++2+-0
      145   -0.033696   -0.033696  -2++200
      142    0.033466    0.033466  22+0200
      282    0.032560    0.032560  +2+-200
      288   -0.032533   -0.032533  +-+2-+0
      121   -0.029516    0.029516  +22-00+
      123    0.028043   -0.028043  +-2200+
      843   -0.025238   -0.025238  +202+0-
      716    0.023993    0.023993  22+0002
      494    0.023748   -0.023748  +-+2+-0
      254    0.022023   -0.022023  -++2-+0
      491    0.021683   -0.021683  +2+20-0
      148   -0.021534   -0.021534  2-++-+0
      457   -0.021510    0.021510  2++-+-0
      859    0.020175   -0.020175  02+2002
       46    0.020134   -0.020134  2-+-++0

 ---------------------------------------
      - DIABATIC STATES IN CMO -        
 ---------------------------------------

 State #    1  Energy =     -55.915575752

      Det      Coef        Coefp    Occupancy (Ignoring core)
      ---      ----        ----    --------- --------- -----
        1    0.961746   -0.961746  222+000
       71   -0.161671    0.161671  2+22000
      717   -0.088884   -0.088884  220+002
      393   -0.059845   -0.059845  202+020
      215   -0.039524   -0.039524  022+200
      704    0.039069   -0.039069  2-+++0-
      106   -0.037975   -0.037975  +222000
        8   -0.037093    0.037093  2-2+0+0
      705   -0.036989   -0.036989  -2+++0-
       17    0.036621    0.036621  22-+00+
      227   -0.035176   -0.035176  +2-+-0+
      179   -0.035061   -0.035061  202+200
        2    0.033247   -0.033247  2220+00
       51   -0.032864    0.032864  22+-00+
      708    0.032002   -0.032002  2-++0+-
      122    0.031202    0.031202  +2-200+
      143   -0.031128   -0.031128  220+200
      192    0.030754   -0.030754  2+-+-0+
      402    0.030441   -0.030441  2+-+0-+
      702    0.030211    0.030211  22+0+0-
      212    0.025908    0.025908  +220200
      773    0.025501   -0.025501  +2-++0-
      390    0.025202   -0.025202  -+2++-0
      391    0.024244   -0.024244  2+20020
      159    0.024057   -0.024057  -2++-0+
      109   -0.023571    0.023571  +-22+00
        4   -0.023212    0.023212  2-2++00
      218    0.023136   -0.023136  +-2+-+0
       23   -0.022960   -0.022960  2--++0+
      428    0.022938    0.022938  +-2+020
      394   -0.022065    0.022065  -+2+020
       38   -0.022012    0.022012  2202+00
       76    0.021542    0.021542  2+2-0+0
       20   -0.020741   -0.020741  22-0+0+
      214   -0.020622   -0.020622  +-2+200
      113   -0.020471    0.020471  +-220+0
      911   -0.020384   -0.020384  2+++-0-

 State #    2  Energy =     -55.631159542

      Det      Coef        Coefp    Occupancy (Ignoring core)
      ---      ----        ----    --------- --------- -----
       71   -0.959735    0.959735  2+22000
        1   -0.162649    0.162649  222+000
      822    0.090525   -0.090525  2+02002
      122    0.050406    0.050406  +2-200+
       38   -0.047847    0.047847  2202+00
      320    0.040687    0.040687  0+22200
      111    0.039888   -0.039888  +22-0+0
      177    0.039335   -0.039335  2+20200
      809    0.037376   -0.037376  20+2+0-
      810   -0.037064   -0.037064  -++2+0-
      107    0.036712   -0.036712  +22-+00
      109   -0.036694    0.036694  +-22+00
      332   -0.035513    0.035513  ++-2-0+
      192   -0.034860    0.034860  2+-+-0+
      813    0.031833   -0.031833  20+20+-
      248    0.031583   -0.031583  2+02200
        4    0.030137   -0.030137  2-2++00
      807   -0.029946    0.029946  2++-+0-
      180   -0.029138    0.029138  -+2+200
       17   -0.029085   -0.029085  22-+00+
       51    0.028440   -0.028440  22+-00+
       54   -0.026380    0.026380  -2+200+
       76    0.026250    0.026250  2+2-0+0
       78   -0.026164    0.026164  20220+0
      391    0.025975   -0.025975  2+20020
      878    0.025211    0.025211  ++-2+0-
      911    0.025173    0.025173  2+++-0-
      317    0.024978   -0.024978  ++2-200
      264    0.024642   -0.024642  -++2-0+
      421   -0.024027   -0.024027  +22+0-0
      841   -0.024026    0.024026  +2+200-
       93   -0.023191    0.023191  20-2+0+
       90    0.022400    0.022400  2+--+0+
        5   -0.021959   -0.021959  -22++00
      323   -0.021584    0.021584  +022-+0
       53    0.021386    0.021386  2-+200+
      179    0.020418    0.020418  202+200

 State #    3  Energy =     -55.853866607

      Det      Coef        Coefp    Occupancy (Ignoring core)
      ---      ----        ----    --------- --------- -----
       36   -0.982025   -0.982025  22+2000
      463    0.056828   -0.056828  20+2020
      262   -0.043255   -0.043255  2+02-0+
      249    0.042165   -0.042165  20+2200
      142    0.040031    0.040031  22+0200
      285    0.038654   -0.038654  02+2200
      297    0.036585   -0.036585  +202-0+
      472   -0.034678   -0.034678  2+020-+
      157    0.034520   -0.034520  220+-0+
      123    0.033363   -0.033363  +-2200+
       58    0.031659   -0.031659  2-02+0+
       55   -0.027382   -0.027382  220-+0+
      145   -0.026154   -0.026154  -2++200
      121   -0.025885    0.025885  +22-00+
      282    0.025442    0.025442  +2+-200
      356    0.025241    0.025241  22+0020
      823    0.024281   -0.024281  20+2002
       16   -0.023716    0.023716  222000+
      288   -0.022831   -0.022831  +-+2-+0
      843   -0.022580   -0.022580  +202+0-
      460   -0.022514   -0.022514  -++2+-0
      498   -0.022454    0.022454  +-+2020
      464    0.022004    0.022004  -++2020
       64    0.021810   -0.021810  2-020++
       39   -0.020610   -0.020610  2-+2+00
      461    0.020406   -0.020406  2++-020
      457   -0.020367    0.020367  2++-+-0

 ---------------------------------------
    -DIABATIC STATES IN PROTOTYPES-     
 ---------------------------------------

     STATE:    1
 Group Ref#    Coefficients
     1    1    0.943579
     2    2    0.004091
     3    3   -0.000095

WEIGHT OF LISTED PROTOTYPES:   89.04%

     STATE:    2
 Group Ref#    Coefficients
     1    1    0.004100
     2    2    0.941569
     3    3   -0.000370

WEIGHT OF LISTED PROTOTYPES:   88.66%

     STATE:    3
 Group Ref#    Coefficients
     1    1   -0.000095
     2    2   -0.000369
     3    3    0.943824

WEIGHT OF LISTED PROTOTYPES:   89.08%

     DIRECT MAX. DIABATIZATION FINISHED    
 CPU     0: STEP CPU TIME=     0.25 TOTAL CPU TIME=         12.5 (      0.2 MIN)
 TOTAL WALL CLOCK TIME=         12.5 SECONDS, CPU UTILIZATION IS    99.92%

DIABATS FOR SPIN-ORBIT CALCULATION ARE READY

TRANSITION DIPOLES BETWEEN ADIABATS (in A.U.):

STATE PAIR      X         Y         Z
    1    1 -0.369494 -0.000000  0.716860
    2    1  0.000000  0.068072 -0.000000
    2    2 -0.191664 -0.000000  0.272928
    3    1  0.138744 -0.000000  0.080443
    3    2  0.000000 -0.103635 -0.000000
    3    3 -0.650192 -0.000000  0.232643


TRANSITION DIPOLES BETWEEN DIABATS (in A.U.):

STATE PAIR      X         Y         Z
    1    1 -0.330105  0.000015  0.729734
    2    1  0.081500 -0.000108 -0.008457
    2    2 -0.689579  0.000425  0.219769
    3    1 -0.000173 -0.048764  0.000084
    3    2  0.000940  0.114000  0.000098
    3    3 -0.191666 -0.000440  0.272927

TRANSITION DIPOLES BETWEEN DIRECT MAX. DIABATS (in A.U.):

STATE PAIR      X         Y         Z
    1    1 -0.330106  0.000015  0.729734
    2    1  0.081502 -0.000108 -0.008454
    2    2 -0.689578  0.000425  0.219769
    3    1 -0.000173 -0.048764  0.000084
    3    2  0.000940  0.114000  0.000098
    3    3 -0.191666 -0.000439  0.272927
 No $TRANST Group Found.
 Quit without doing spin-orbit coupling
 ..... DONE WITH MP2 ENERGY .....
 CPU     0: STEP CPU TIME=     0.00 TOTAL CPU TIME=         12.5 (      0.2 MIN)
 TOTAL WALL CLOCK TIME=         12.5 SECONDS, CPU UTILIZATION IS    99.92%
            100000000  WORDS OF DYNAMIC MEMORY USED
 EXECUTION OF GAMESS TERMINATED NORMALLY Wed Nov 16 19:20:31 2022
 DDI: 715512 bytes (0.7 MB / 0 MWords) used by master data server.

 ----------------------------------------
 CPU timing information for all processes
 ========================================
 0: 12.226 + 0.320 = 12.546
 ----------------------------------------
Note: The following floating-point exceptions are signalling: IEEE_DENORMAL
 ddikick.x: exited gracefully.
unset echo
----- accounting info -----
Files used on the master node io002 were:
-rw-r--r-- 1 bsonghao nooijen   20697 Nov 16 19:20 /scratch/bsonghao/nh3_diabatization_2d_at_mode_7_8_dist0.0_-0.7.F05
-rw-r--r-- 1 bsonghao nooijen  363520 Nov 16 19:20 /scratch/bsonghao/nh3_diabatization_2d_at_mode_7_8_dist0.0_-0.7.F09
-rw-r--r-- 1 bsonghao nooijen 1995920 Nov 16 19:20 /scratch/bsonghao/nh3_diabatization_2d_at_mode_7_8_dist0.0_-0.7.F10
-rw-r--r-- 1 bsonghao nooijen  105656 Nov 16 19:20 /scratch/bsonghao/nh3_diabatization_2d_at_mode_7_8_dist0.0_-0.7.F13
-rw-r--r-- 1 bsonghao nooijen  180312 Nov 16 19:20 /scratch/bsonghao/nh3_diabatization_2d_at_mode_7_8_dist0.0_-0.7.F15
-rw-r--r-- 1 bsonghao nooijen       0 Nov 16 19:20 /scratch/bsonghao/nh3_diabatization_2d_at_mode_7_8_dist0.0_-0.7.F16
-rw-r--r-- 1 bsonghao nooijen    9808 Nov 16 19:20 /scratch/bsonghao/nh3_diabatization_2d_at_mode_7_8_dist0.0_-0.7.F70
-rw-r--r-- 1 bsonghao nooijen    9808 Nov 16 19:20 /scratch/bsonghao/nh3_diabatization_2d_at_mode_7_8_dist0.0_-0.7.F71
-rw-r--r-- 1 bsonghao nooijen   19608 Nov 16 19:20 /scratch/bsonghao/nh3_diabatization_2d_at_mode_7_8_dist0.0_-0.7.F72
-rw-r--r-- 1 bsonghao nooijen   19608 Nov 16 19:20 /scratch/bsonghao/nh3_diabatization_2d_at_mode_7_8_dist0.0_-0.7.F73
-rw-r--r-- 1 bsonghao nooijen 1920824 Nov 16 19:20 /scratch/bsonghao/nh3_diabatization_2d_at_mode_7_8_dist0.0_-0.7.F74
-rw-r--r-- 1 bsonghao nooijen       0 Nov 16 19:20 /scratch/bsonghao/nh3_diabatization_2d_at_mode_7_8_dist0.0_-0.7.F75
-rw-r--r-- 1 bsonghao nooijen   58848 Nov 16 19:20 /scratch/bsonghao/nh3_diabatization_2d_at_mode_7_8_dist0.0_-0.7.F76
-rw-r--r-- 1 bsonghao nooijen       0 Nov 16 19:20 /scratch/bsonghao/nh3_diabatization_2d_at_mode_7_8_dist0.0_-0.7.F77
-rw-r--r-- 1 bsonghao nooijen    1864 Nov 16 19:20 /scratch/bsonghao/nh3_diabatization_2d_at_mode_7_8_dist0.0_-0.7.F78
-rw-r--r-- 1 bsonghao nooijen   39208 Nov 16 19:20 /scratch/bsonghao/nh3_diabatization_2d_at_mode_7_8_dist0.0_-0.7.F79
-rw-r--r-- 1 bsonghao nooijen     104 Nov 16 19:20 /scratch/bsonghao/nh3_diabatization_2d_at_mode_7_8_dist0.0_-0.7.F80
-rw-r--r-- 1 bsonghao nooijen   13472 Nov 16 19:20 /scratch/bsonghao/nh3_diabatization_2d_at_mode_7_8_dist0.0_-0.7.F81
-rw-r--r-- 1 bsonghao nooijen      16 Nov 16 19:20 /scratch/bsonghao/nh3_diabatization_2d_at_mode_7_8_dist0.0_-0.7.F82
-rw-r--r-- 1 bsonghao nooijen   19216 Nov 16 19:20 /scratch/bsonghao/nh3_diabatization_2d_at_mode_7_8_dist0.0_-0.7.F83
-rw-r--r-- 1 bsonghao nooijen   29712 Nov 16 19:20 /scratch/bsonghao/nh3_diabatization_2d_at_mode_7_8_dist0.0_-0.7.F84
-rw-r--r-- 1 bsonghao nooijen  256136 Nov 16 19:20 /scratch/bsonghao/nh3_diabatization_2d_at_mode_7_8_dist0.0_-0.7.F85
-rw-r--r-- 1 bsonghao nooijen  524920 Nov 16 19:20 /scratch/bsonghao/nh3_diabatization_2d_at_mode_7_8_dist0.0_-0.7.F86
-rw-r--r-- 1 bsonghao nooijen     656 Nov 16 19:20 /scratch/bsonghao/nh3_diabatization_2d_at_mode_7_8_dist0.0_-0.7.F87
-rw-r--r-- 1 bsonghao nooijen   23984 Nov 16 19:20 /scratch/bsonghao/nh3_diabatization_2d_at_mode_7_8_dist0.0_-0.7.F88
-rw-r--r-- 1 bsonghao nooijen     240 Nov 16 19:20 /scratch/bsonghao/nh3_diabatization_2d_at_mode_7_8_dist0.0_-0.7.F89
-rw-r--r-- 1 bsonghao nooijen       0 Nov 16 19:20 /scratch/bsonghao/nh3_diabatization_2d_at_mode_7_8_dist0.0_-0.7.F90
-rw-r--r-- 1 bsonghao nooijen   13760 Nov 16 19:20 /scratch/bsonghao/nh3_diabatization_2d_at_mode_7_8_dist0.0_-0.7.F91
-rw-r--r-- 1 bsonghao nooijen   22776 Nov 16 19:20 /scratch/bsonghao/nh3_diabatization_2d_at_mode_7_8_dist0.0_-0.7.F92
-rw-r--r-- 1 bsonghao nooijen   23168 Nov 16 19:20 /scratch/bsonghao/nh3_diabatization_2d_at_mode_7_8_dist0.0_-0.7.F93
-rw-r--r-- 1 bsonghao nooijen   22776 Nov 16 19:20 /scratch/bsonghao/nh3_diabatization_2d_at_mode_7_8_dist0.0_-0.7.F94
-rw-r--r-- 1 bsonghao nooijen   13760 Nov 16 19:20 /scratch/bsonghao/nh3_diabatization_2d_at_mode_7_8_dist0.0_-0.7.F95
-rw-r--r-- 1 bsonghao nooijen   29440 Nov 16 19:20 /scratch/bsonghao/nh3_diabatization_2d_at_mode_7_8_dist0.0_-0.7.F96
-rw-r--r-- 1 bsonghao nooijen    1184 Nov 16 19:20 /scratch/bsonghao/nh3_diabatization_2d_at_mode_7_8_dist0.0_-0.7.F97
-rw-r--r-- 1 bsonghao nooijen    9808 Nov 16 19:20 /scratch/bsonghao/nh3_diabatization_2d_at_mode_7_8_dist0.0_-0.7.F98
-rw-r--r-- 1 bsonghao nooijen   30264 Nov 16 19:20 /scratch/bsonghao/nh3_diabatization_2d_at_mode_7_8_dist0.0_-0.7.F99
ls: No match.
ls: No match.
ls: No match.
Wed 16 Nov 2022 07:20:34 PM EST
0.275u 0.056s 0:15.92 2.0%	0+0k 48+224io 0pf+0w
