----- GAMESS execution script 'rungms' -----
This job is running on host io002
under operating system Linux at Wed 16 Nov 2022 07:24:46 PM EST
Available scratch disk space (Kbyte units) at beginning of the job is
Filesystem       1K-blocks       Used   Available Use% Mounted on
/dev/sdc1      15378471580 3278917120 11318349060  23% /scratch
GAMESS temporary binary files will be written to /scratch/bsonghao
GAMESS supplementary output files will be written to /home/bsonghao/.gamess_ascii_files/267638
Copying input file nh3_diabatization_2d_at_mode_7_8_dist0.0_0.4.inp to your run's scratch directory...
cp nh3_diabatization_2d_at_mode_7_8_dist0.0_0.4.inp /scratch/bsonghao/nh3_diabatization_2d_at_mode_7_8_dist0.0_0.4.F05
unset echo
/home/bjb2chen/gamess/ddikick.x /home/bjb2chen/gamess/gamess.00.x nh3_diabatization_2d_at_mode_7_8_dist0.0_0.4 -ddi 1 1 io002 -scr /scratch/bsonghao

 Distributed Data Interface kickoff program.
 Initiating 1 compute processes on 1 nodes to run the following command:
 /home/bjb2chen/gamess/gamess.00.x nh3_diabatization_2d_at_mode_7_8_dist0.0_0.4 

          ******************************************************
          *         GAMESS VERSION = 02 AUG 2018 (R2)         *
          *             FROM IOWA STATE UNIVERSITY             *
          * M.W.SCHMIDT, K.K.BALDRIDGE, J.A.BOATZ, S.T.ELBERT, *
          *   M.S.GORDON, J.H.JENSEN, S.KOSEKI, N.MATSUNAGA,   *
          *          K.A.NGUYEN, S.J.SU, T.L.WINDUS,           *
          *       TOGETHER WITH M.DUPUIS, J.A.MONTGOMERY       *
          *         J.COMPUT.CHEM.  14, 1347-1363(1993)        *
          **************** 64 BIT LINUX VERSION ****************

  SINCE 1993, STUDENTS AND POSTDOCS WORKING AT IOWA STATE UNIVERSITY
  AND ALSO IN THEIR VARIOUS JOBS AFTER LEAVING ISU HAVE MADE IMPORTANT
  CONTRIBUTIONS TO THE CODE:
     IVANA ADAMOVIC, CHRISTINE AIKENS, YURI ALEXEEV, POOJA ARORA,
     ANDREY ASADCHEV, ROB BELL, PRADIPTA BANDYOPADHYAY, JONATHAN BENTZ,
     BRETT BODE, KURT BRORSEN, CALEB CARLIN, GALINA CHABAN, WEI CHEN,
     CHEOL HO CHOI, PAUL DAY, ALBERT DEFUSCO, NUWAN DESILVA, TIM DUDLEY,
     DMITRI FEDOROV, ALEX FINDLATER, GRAHAM FLETCHER, MARK FREITAG,
     KURT GLAESEMANN, ANASTASIA GUININA,
     DAN KEMP, GRANT MERRILL, NORIYUKI MINEZAWA, JONATHAN MULLIN,
     TAKESHI NAGATA, SEAN NEDD, HEATHER NETZLOFF, BOSILJKA NJEGIC, RYAN OLSON,
     MIKE PAK, BUU PHAM,
     SPENCER PRUITT, LUKE ROSKOP, JIM SHOEMAKER, LYUDMILA SLIPCHENKO,
     TONY SMITH, SAROM SOK LEANG, JIE SONG, TETSUYA TAKETSUGU, SIMON WEBB,
     PENG XU, SOOHAENG YOO, FEDERICO ZAHARIEV

  ADDITIONAL CODE HAS BEEN PROVIDED BY COLLABORATORS IN OTHER GROUPS:
     IOWA STATE UNIVERSITY:
          JOE IVANIC, AARON WEST, LAIMUTIS BYTAUTAS, KLAUS RUEDENBERG
     UNIVERSITY OF TOKYO: KIMIHIKO HIRAO, TAKAHITO NAKAJIMA,
          TAKAO TSUNEDA, MUNEAKI KAMIYA, SUSUMU YANAGISAWA,
          KIYOSHI YAGI, MAHITO CHIBA, SEIKEN TOKURA, NAOAKI KAWAKAMI
     UNIVERSITY OF AARHUS: FRANK JENSEN
     UNIVERSITY OF IOWA: VISVALDAS KAIRYS, HUI LI
     NATIONAL INST. OF STANDARDS AND TECHNOLOGY: WALT STEVENS, DAVID GARMER
     UNIVERSITY OF PISA: BENEDETTA MENNUCCI, JACOPO TOMASI
     UNIVERSITY OF MEMPHIS: HENRY KURTZ, PRAKASHAN KORAMBATH
     UNIVERSITY OF ALBERTA: TOBY ZENG, MARIUSZ KLOBUKOWSKI
     UNIVERSITY OF NEW ENGLAND: MARK SPACKMAN
     MIE UNIVERSITY: HIROAKI UMEDA
     NAT. INST. OF ADVANCED INDUSTRIAL SCIENCE AND TECHNOLOGY: KAZUO KITAURA
     MICHIGAN STATE UNIVERSITY:
          KAROL KOWALSKI, MARTA WLOCH, JEFFREY GOUR, JESSE LUTZ,
          WEI LI, JUN SHEN, J. EMILIANO DEUSTUA, PIOTR PIECUCH
     UNIVERSITY OF MINNESOTA:
          YINAN SHU
     UNIVERSITY OF SILESIA: MONIKA MUSIAL, STANISLAW KUCHARSKI
     FACULTES UNIVERSITAIRES NOTRE-DAME DE LA PAIX:
          OLIVIER QUINET, BENOIT CHAMPAGNE
     UNIVERSITY OF CALIFORNIA - SANTA BARBARA: BERNARD KIRTMAN
     INSTITUTE FOR MOLECULAR SCIENCE:
          KAZUYA ISHIMURA, MICHIO KATOUDA, AND SHIGERU NAGASE
     UNIVERSITY OF NOTRE DAME: ANNA POMOGAEVA, DAN CHIPMAN
     KYUSHU UNIVERSITY:
          HARUYUKI NAKANO,
          FENG LONG GU, JACEK KORCHOWIEC, MARCIN MAKOWSKI, AND YURIKO AOKI,
          HIROTOSHI MORI AND EISAKU MIYOSHI
     PENNSYLVANIA STATE UNIVERSITY:
          TZVETELIN IORDANOV, CHET SWALINA, JONATHAN SKONE,
          SHARON HAMMES-SCHIFFER
     WASEDA UNIVERSITY:
          MASATO KOBAYASHI, TOMOKO AKAMA, TSUGUKI TOUMA,
          TAKESHI YOSHIKAWA, YASUHIRO IKABATA, JUNJI SEINO,
          YUYA NAKAJIMA, HIROMI NAKAI
     NANJING UNIVERSITY: SHUHUA LI
     UNIVERSITY OF NEBRASKA:
          PEIFENG SU, DEJUN SI, NANDUN THELLAMUREGE, YALI WANG, HUI LI
     UNIVERSITY OF ZURICH: ROBERTO PEVERATI, KIM BALDRIDGE
     N. COPERNICUS UNIVERSITY AND JACKSON STATE UNIVERSITY:
          MARIA BARYSZ
     UNIVERSITY OF COPENHAGEN: Jimmy Kromann, CASPER STEINMANN
     TOKYO INSTITUTE OF TECHNOLOGY: HIROYA NAKATA
     NAGOYA UNIVERSITY: YOSHIO NISHIMOTO, STEPHAN IRLE
     MOSCOW STATE UNIVERSITY: VLADIMIR MIRONOV

 EXECUTION OF GAMESS BEGUN Wed Nov 16 19:24:46 2022

            ECHO OF THE FIRST FEW INPUT CARDS -
 INPUT CARD> $system kdiag=3 mwords=100 memddi=1000 parall=.t. $end                         
 INPUT CARD> $contrl runtyp=energy ispher=1 $end                                            
 INPUT CARD> $contrl icut=9 itol=20 inttyp=rysquad qmttol=1.0d-05 nosym=1 $end              
 INPUT CARD> $scf    npunch=2 conv=1.0d-06 dirscf=.t.      $end                             
 INPUT CARD> $contrl scftyp=mcscf  mult=2 maxit=200 icharg=1 mplevl=2 $end                  
 INPUT CARD> $guess  guess=moread norb=29 purify=.t. $end                                   
 INPUT CARD> $basis  gbasis=ccd $end                                                        
 INPUT CARD> $mcscf  cistep=gmcci fullnr=.t. finci=mos                                      
 INPUT CARD>         acurcy=1.d-6 maxit=100 $end                                            
 INPUT CARD> $trans  dirtrf=.t. $end                                                        
 INPUT CARD> $mrmp   mrpt=gmcpt rdvecs=.f. $end                                             
 INPUT CARD> $gmcpt  nmofzc=0 nmodoc=1 nmoact=7 nelact=7 stsym(1)=A                         
 INPUT CARD>         reftyp=ormas nspace=1 mstart(1)=2 mine(1)=7 maxe(1)=7                  
 INPUT CARD>         kstate(1)=1,1,1                                                        
 INPUT CARD>         wstate(1)=1,1,1                                                        
 INPUT CARD>         iwgt=0 thrwgt=-1.0 krot=.f. kszdoe=.f. knospn=.f.                      
 INPUT CARD>         thrde=-1.0 edshft=0.02 $end                                            
 INPUT CARD> $data                                                                          
 INPUT CARD> NH3+ 3 states calculation at NH3 structure.                                    
 INPUT CARD> c1                                                                             
 INPUT CARD>N 7.0 -0.024915672000000007 -0.0 -0.1693809002                                  
 INPUT CARD>H 1.0 -0.26167370999999995 0.9588201638000001 0.2036664801                      
 INPUT CARD>H 1.0 -0.26167371799999994 -0.9588201598000001 0.2036664721                     
 INPUT CARD>H 1.0 0.8695573719999999 8.000000000000002e-09 0.36205104010000005              
 INPUT CARD>$end                                                                            
 INPUT CARD>--- OPTIMIZED RHF      MO-S --- GENERATED AT Mon Nov 14 16:47:08 2022           
 INPUT CARD>E=      -56.3825050291, E(NUC)=   11.8429239490                                 
 INPUT CARD> $VEC                                                                           
 INPUT CARD> 1  1-1.00134066E+00-2.25158504E-03 3.44925845E-03 0.00000000E+00 0.00000000E+00
 INPUT CARD> 1  2-2.13170927E-03 0.00000000E+00 0.00000000E+00 6.57129898E-04-6.87950443E-05
 INPUT CARD> 1  3-6.87950443E-05 1.37590089E-04 0.00000000E+00 0.00000000E+00 0.00000000E+00
 INPUT CARD> 1  4 3.25502815E-04-4.84772356E-04 3.62525460E-04-6.27912517E-04-3.45956485E-04
 INPUT CARD> 1  5 3.25502815E-04-4.84772356E-04 3.62525460E-04 6.27912517E-04-3.45956485E-04
 INPUT CARD> 1  6 3.25502815E-04-4.84772356E-04-7.25050921E-04 0.00000000E+00-3.45956485E-04
 INPUT CARD> 2  1 1.31286642E-02-4.05911371E-01-2.82090992E-01 0.00000000E+00 0.00000000E+00
 INPUT CARD> 2  2-7.71489043E-02 0.00000000E+00 0.00000000E+00 9.73717494E-03 6.62450916E-04
 INPUT CARD> 2  3 6.62450916E-04-1.32490183E-03 0.00000000E+00 0.00000000E+00 0.00000000E+00
 INPUT CARD> 2  4-1.96090317E-01-1.96656153E-02-1.74855877E-02 3.02859263E-02 8.68214399E-03
 INPUT CARD> 2  5-1.96090317E-01-1.96656153E-02-1.74855877E-02-3.02859263E-02 8.68214399E-03
 INPUT CARD> 2  6-1.96090317E-01-1.96656153E-02 3.49711754E-02 0.00000000E+00 8.68214399E-03
 INPUT CARD> 3  1 0.00000000E+00 0.00000000E+00 0.00000000E+00 4.48608762E-01 0.00000000E+00
 INPUT CARD> 3  2 0.00000000E+00 2.18692520E-01 0.00000000E+00 0.00000000E+00 1.30198027E-02
 INPUT CARD> 3  3-1.30198027E-02 0.00000000E+00 0.00000000E+00 2.71832968E-02 0.00000000E+00
 INPUT CARD> 3  4-1.85332726E-01-7.03958951E-02 8.47929477E-03 1.95242443E-02 8.32835058E-03
 INPUT CARD> 3  5-1.85332726E-01-7.03958951E-02 8.47929477E-03-1.95242443E-02 8.32835058E-03
 INPUT CARD> 3  6 3.70665453E-01 1.40791790E-01-2.53376884E-02 0.00000000E+00-1.66567012E-02
 INPUT CARD> 4  1 0.00000000E+00 0.00000000E+00 0.00000000E+00 0.00000000E+00 4.48608762E-01
 INPUT CARD> 4  2 0.00000000E+00 0.00000000E+00 2.18692520E-01 0.00000000E+00 0.00000000E+00
 INPUT CARD> 4  3 0.00000000E+00 0.00000000E+00-1.50339731E-02 0.00000000E+00 2.71832968E-02
 INPUT CARD> 4  4 3.21005698E-01 1.21929267E-01 1.95242443E-02-1.40653607E-02-1.44251263E-02
  100000000 WORDS OF MEMORY AVAILABLE

     BASIS OPTIONS
     -------------
     GBASIS=CCD          IGAUSS=       0      POLAR=NONE    
     NDFUNC=       0     NFFUNC=       0     DIFFSP=       F
     NPFUNC=       0      DIFFS=       F     BASNAM=        


     RUN TITLE
     ---------
  NH3+ 3 states calculation at NH3 structure.                                    

 THE POINT GROUP OF THE MOLECULE IS C1      
 THE ORDER OF THE PRINCIPAL AXIS IS     0

 ATOM      ATOMIC                      COORDINATES (BOHR)
           CHARGE         X                   Y                   Z
 N           7.0    -0.0470837929       -0.0000000000       -0.3200834889
 H           1.0    -0.4944916101        1.8119073811        0.3848738403
 H           1.0    -0.4944916252       -1.8119073735        0.3848738252
 H           1.0     1.6432251637        0.0000000151        0.6841772594

          INTERNUCLEAR DISTANCES (ANGS.)
          ------------------------------

                1 N          2 H          3 H          4 H     

   1 N       0.0000000    1.0557248 *  1.0557248 *  1.0404335 *
   2 H       1.0557248 *  0.0000000    1.9176403 *  1.4913435 *
   3 H       1.0557248 *  1.9176403 *  0.0000000    1.4913435 *
   4 H       1.0404335 *  1.4913435 *  1.4913435 *  0.0000000  

  * ... LESS THAN  3.000


     ATOMIC BASIS SET
     ----------------
 THE CONTRACTED PRIMITIVE FUNCTIONS HAVE BEEN UNNORMALIZED
 THE CONTRACTED BASIS FUNCTIONS ARE NOW NORMALIZED TO UNITY

  SHELL TYPE  PRIMITIVE        EXPONENT          CONTRACTION COEFFICIENT(S)

 N         

      1   S       1          9046.0000000    0.000699617413
      1   S       2          1357.0000000    0.005386054630
      1   S       3           309.3000000    0.027391021189
      1   S       4            87.7300000    0.103150591982
      1   S       5            28.5600000    0.278570663317
      1   S       6            10.2100000    0.448294849454
      1   S       7             3.8380000    0.278085928395
      1   S       8             0.7466000    0.015431561233

      2   S       9          9046.0000000   -0.000304990096
      2   S      10          1357.0000000   -0.002408026379
      2   S      11           309.3000000   -0.011944448725
      2   S      12            87.7300000   -0.048925992909
      2   S      13            28.5600000   -0.134472724725
      2   S      14            10.2100000   -0.315112577700
      2   S      15             3.8380000   -0.242857832550
      2   S      16             0.7466000    1.094382206854

      3   S      17             0.2248000    1.000000000000

      4   P      18            13.5500000    0.058905676772
      4   P      19             2.9170000    0.320461106714
      4   P      20             0.7973000    0.753042061792

      5   P      21             0.2185000    1.000000000000

      6   D      22             0.8170000    1.000000000000

 H         

      7   S      23            13.0100000    0.033498726390
      7   S      24             1.9620000    0.234800801174
      7   S      25             0.4446000    0.813682957883

      8   S      26             0.1220000    1.000000000000

      9   P      27             0.7270000    1.000000000000

 H         

     10   S      28            13.0100000    0.033498726390
     10   S      29             1.9620000    0.234800801174
     10   S      30             0.4446000    0.813682957883

     11   S      31             0.1220000    1.000000000000

     12   P      32             0.7270000    1.000000000000

 H         

     13   S      33            13.0100000    0.033498726390
     13   S      34             1.9620000    0.234800801174
     13   S      35             0.4446000    0.813682957883

     14   S      36             0.1220000    1.000000000000

     15   P      37             0.7270000    1.000000000000

 TOTAL NUMBER OF BASIS SET SHELLS             =   15
 NUMBER OF CARTESIAN GAUSSIAN BASIS FUNCTIONS =   30
 NOTE: THIS RUN WILL RESTRICT THE MO VARIATION SPACE TO SPHERICAL HARMONICS.
 THE NUMBER OF ORBITALS KEPT IN THE VARIATIONAL SPACE WILL BE PRINTED LATER.
 NUMBER OF ELECTRONS                          =    9
 CHARGE OF MOLECULE                           =    1
 SPIN MULTIPLICITY                            =    2
 NUMBER OF OCCUPIED ORBITALS (ALPHA)          =    5
 NUMBER OF OCCUPIED ORBITALS (BETA )          =    4
 TOTAL NUMBER OF ATOMS                        =    4
 THE NUCLEAR REPULSION ENERGY IS       11.5633396056

     $CONTRL OPTIONS
     ---------------
 SCFTYP=MCSCF        RUNTYP=ENERGY       EXETYP=RUN     
 MPLEVL=       2     CITYP =NONE         CCTYP =NONE         VBTYP =NONE    
 DFTTYP=NONE         TDDFT =NONE    
 MULT  =       2     ICHARG=       1     NZVAR =       0     COORD =UNIQUE  
 PP    =NONE         RELWFN=NONE         LOCAL =NONE         NUMGRD=       F
 ISPHER=       1     NOSYM =       1     MAXIT =     200     UNITS =ANGS    
 PLTORB=       F     MOLPLT=       F     AIMPAC=       F     FRIEND=        
 NPRINT=       7     IREST =       0     GEOM  =INPUT   
 NORMF =       0     NORMP =       0     ITOL  =      20     ICUT  =       9
 INTTYP=RYSQUAD      GRDTYP=BEST         QMTTOL= 1.0E-05

     $SYSTEM OPTIONS
     ---------------
  REPLICATED MEMORY=   100000000 WORDS (ON EVERY NODE).
 DISTRIBUTED MEMDDI=        1000 MILLION WORDS IN AGGREGATE,
 MEMDDI DISTRIBUTED OVER   1 PROCESSORS IS  1000000000 WORDS/PROCESSOR.
 TOTAL MEMORY REQUESTED ON EACH PROCESSOR=  1100000000 WORDS.
 TIMLIM=      525600.00 MINUTES, OR     365.0 DAYS.
 PARALL= T  BALTYP=  DLB     KDIAG=    3  COREFL= F
 MXSEQ2=     300 MXSEQ3=     150  mem10=         0

          ----------------
          PROPERTIES INPUT
          ----------------

     MOMENTS            FIELD           POTENTIAL          DENSITY
 IEMOM =       1   IEFLD =       0   IEPOT =       0   IEDEN =       0
 WHERE =COMASS     WHERE =NUCLEI     WHERE =NUCLEI     WHERE =NUCLEI  
 OUTPUT=BOTH       OUTPUT=BOTH       OUTPUT=BOTH       OUTPUT=BOTH    
 IEMINT=       0   IEFINT=       0                     IEDINT=       0
                                                       MORB  =       0

     -------------------------------
     INTEGRAL TRANSFORMATION OPTIONS
     -------------------------------
     NWORD  =            0
     CUTOFF = 1.0E-09     MPTRAN =       0
     DIRTRF =       T     AOINTS =DUP     

          ----------------------
          MCSCF INPUT PARAMETERS
          ----------------------
 CONVERGER SELECTION: FOCAS = F  SOSCF = F  FULLNR = T  QUD = F  JACOBI = F
 SECULAR EQUATION METHOD CISTEP = GMCCI   
 --- GENERAL INPUT OPTIONS:
 MAXIT =     100  MICIT =       1  ACURCY= 1.000E-06
 DAMP  =   0.000  CANONC=       T  ENGTOL= 1.000E-10
 EKT   =       F  NPUNCH=       2  NWORD =         0
 REGENERATE CI AFTER CONVERGENCE = NONE    
 DIABATIZATION AFTER CONVERGENCE =        F
 --- INPUT FOR FULLNR CONVERGER:
 METHOD=DM2       FORS  =       F  DROPC =       T
 LINSER=       F  FCORE =       F  NORB  =      30

          ----------------------
          INTEGRAL INPUT OPTIONS
          ----------------------
 NOPK  =       1 NORDER=       0 SCHWRZ=       T

 ------------------------------------------
 MULTIREFERENCE PERTURBATION THEORY CONTROL
 ------------------------------------------
 MRPT=GMCPT    READ CONVERGED MCSCF VECTORS= F


     ------------------------------------------
     THE POINT GROUP IS C1 , NAXIS= 1, ORDER= 1
     ------------------------------------------

 -- VARIATIONAL SPACE WILL BE RESTRICTED TO PURE SPHERICAL HARMONICS ONLY --
 AFTER EXCLUDING CONTAMINANT COMBINATIONS FROM THE CARTESIAN GAUSSIAN BASIS
 SET, THE NUMBER OF SPHERICAL HARMONICS KEPT IN THE VARIATION SPACE IS   29

     DIMENSIONS OF THE SYMMETRY SUBSPACES ARE
 A   =   29

 ..... DONE SETTING UP THE RUN .....
 CPU     0: STEP CPU TIME=     0.04 TOTAL CPU TIME=          0.0 (      0.0 MIN)
 TOTAL WALL CLOCK TIME=          0.0 SECONDS, CPU UTILIZATION IS    80.00%

          ********************
          1 ELECTRON INTEGRALS
          ********************
 TIME TO DO   DIPOLE INTEGRALS=      0.00
 ...... END OF ONE-ELECTRON INTEGRALS ......
 CPU     0: STEP CPU TIME=     0.00 TOTAL CPU TIME=          0.0 (      0.0 MIN)
 TOTAL WALL CLOCK TIME=          0.0 SECONDS, CPU UTILIZATION IS    80.00%

          -------------
          GUESS OPTIONS
          -------------
          GUESS =MOREAD            NORB  =      29          NORDER=       0
          MIX   =       F          PRTMO =       F          PUNMO =       F
          TOLZ  = 1.0E-08          TOLE  = 1.0E-05
          SYMDEN=       F          PURIFY=       T

 INITIAL GUESS ORBITALS GENERATED BY MOREAD   ROUTINE.

 STATISTICS FOR GENERATION OF SYMMETRY ORBITAL -Q- MATRIX
 NUMBER OF CARTESIAN ATOMIC ORBITALS=         30
 NUMBER OF SPHERICAL CONTAMINANTS DROPPED=     1
 NUMBER OF LINEARLY DEPENDENT MOS DROPPED=     0
 TOTAL NUMBER OF MOS IN VARIATION SPACE=      29
 ORBITAL PURIFICATION WILL OCCUR

 SYMMETRIES FOR INITIAL GUESS ORBITALS FOLLOW.   BOTH SET(S).
     5 ORBITALS ARE OCCUPIED (    1 CORE ORBITALS).
     1=A        2=A        3=A        4=A        5=A        6=A        7=A   
     8=A        9=A       10=A       11=A       12=A       13=A       14=A   
    15=A       16=A       17=A       18=A       19=A       20=A       21=A   
    22=A       23=A       24=A       25=A       26=A       27=A       28=A   
    29=A   
 ...... END OF INITIAL ORBITAL SELECTION ......
 CPU     0: STEP CPU TIME=     0.01 TOTAL CPU TIME=          0.0 (      0.0 MIN)
 TOTAL WALL CLOCK TIME=          0.1 SECONDS, CPU UTILIZATION IS    83.33%

                    ----------------------
                    AO INTEGRAL TECHNOLOGY
                    ----------------------
     S,P,L SHELL ROTATED AXIS INTEGRALS, REPROGRAMMED BY
        KAZUYA ISHIMURA (IMS) AND JOSE SIERRA (SYNSTAR).
     S,P,D,L SHELL ROTATED AXIS INTEGRALS PROGRAMMED BY
        KAZUYA ISHIMURA (INSTITUTE FOR MOLECULAR SCIENCE).
     S,P,D,F,G SHELL TO TOTAL QUARTET ANGULAR MOMENTUM SUM 5,
        ERIC PROGRAM BY GRAHAM FLETCHER (ELORET AND NASA ADVANCED
        SUPERCOMPUTING DIVISION, AMES RESEARCH CENTER).
     S,P,D,F,G,L SHELL GENERAL RYS QUADRATURE PROGRAMMED BY
        MICHEL DUPUIS (PACIFIC NORTHWEST NATIONAL LABORATORY).

          --------------------
          2 ELECTRON INTEGRALS
          --------------------

 DIRECT SCF METHOD SKIPS INTEGRAL STORAGE ON DISK.
 DIRECT TRANSFORMATION SKIPS AO INTEGRAL STORAGE ON DISK.
  ...... END OF TWO-ELECTRON INTEGRALS .....
 STEP CPU TIME =     0.02 TOTAL CPU TIME =          0.1 (      0.0 MIN)
 TOTAL WALL CLOCK TIME=          0.1 SECONDS, CPU UTILIZATION IS    87.50%
 DDI: Creating Array [0] - 900 x 36 = 32400 words.
 DDI: Creating Array [1] - 21 x 288 = 6048 words.
 DDI: Creating Array [2] - 36 x 36 = 1296 words.
 DDI: Creating Array [3] - 465 x 36 = 16740 words.

          -----------------
          MCSCF CALCULATION
          -----------------

 ----- NUCLEAR ENERGY ----- =        11.5633396056

     -------------------------------------------------
     GMC-PT/GMC-QDPT or general MCSCF input parameters
     -------------------------------------------------
 # of frozen core orbs. =         0 ->         0
 # of doubly occ. orbs. =         1
 # of active      orbs. =         7
 # of virtual     orbs. =        21
 # of active electrons  =         7
 # of states in CI      =         3
 Highest state in CI    =         3
 kstate =  1 1 1
 avecoe =  0.333 0.333 0.333
 State symmetry           = A           
 Assigned symmetry number = 1

 <<<Act. MO sym.: 1111111

 <<<Division of 1-ext.:  0
 <<<Division of 2-ext.:  0

 *** Reference space

 Reference type: ORMAS (= Occupation restricted multiple active space)
 # of orbitals          =  7
 # of minimum electrons =  7
 # of maximum electrons =  7
 State symmetry    =    1 (input)
 2*Sz              =    1 (input)
 Spin multiplicity =    2 (input)
 Dimension of reference space =      1225  (from      3432 walks)

 Dimension of reference space =      1225  (from      1225 walks)

 <<<Ionized spaces for Ref-CI:
      0:         1225 /   -1-0:         1960 /  0-1-0:         2891

 EVALUATING EXCHANGE INTEGRALS FOR DIRECT INTEGRAL TRANSFORMATION
 SCHWARZ INEQUALITY OVERHEAD:       465 INTEGRALS, T=        0.01

     --------------------------------------------
     PARTIAL TWO ELECTRON INTEGRAL TRANSFORMATION
     --------------------------------------------

 NUMBER OF CORE MOLECULAR ORBITALS     =    1
 NUMBER OF OCCUPIED MOLECULAR ORBITALS =    8
 TOTAL NUMBER OF MOLECULAR ORBITALS    =   29
 TOTAL NUMBER OF ATOMIC ORBITALS       =   30
 THRESHOLD FOR KEEPING TRANSFORMED 2E- INTEGRALS = 1.000E-09

 -------------------------------     ------------------------------
 DISTRIBUTED DATA TRANSFORMATION     PROGRAM WRITTEN BY G. FLETCHER
 -------------------------------     ------------------------------

 THE DISTRIBUTED MEMORY REQUIRED FOR THIS STEP IS MEMDDI=         1 MWORDS
 CREATING DISTRIBUTED STORAGE FOR [VIR OCC|VIR OCC] INTEGRALS
 CREATING DISTRIBUTED STORAGE FOR [VIR OCC|OCC OCC] INTEGRALS
 CREATING DISTRIBUTED STORAGE FOR [OCC OCC|OCC OCC] INTEGRALS
 CREATING DISTRIBUTED STORAGE FOR [VIR VIR|OCC OCC] INTEGRALS
 FOR    1 PROCESSORS, THE REPLICATED MEMORY NEEDED IS       73700 WORDS.
 SCHWARZ INEQUALITY OVERHEAD:       465 INTEGRALS, T=        0.00

      DIRECT 4-INDEX TRANSFORMATION 
      SCHWARZ INEQUALITY TEST SKIPPED          0 INTEGRAL BLOCKS
 ----- FROZEN CORE ENERGY =       -47.7542941222
 ... END OF INTEGRAL TRANSFORMATION ...
 CPU     0: STEP CPU TIME=     0.22 TOTAL CPU TIME=          0.3 (      0.0 MIN)
 TOTAL WALL CLOCK TIME=          0.3 SECONDS, CPU UTILIZATION IS    96.67%

     --------------------------------     -----------------------------
     MCHF NEWTON-RAPHSON OPTIMIZATION     CODE WRITTEN BY MICHEL DUPUIS
     --------------------------------     -----------------------------
     PARALLEL VERSION WRITTEN BY G. FLETCHER (ELORET)
     NASA ADVANCED SUPERCOMPUTING DIVISION, AMES RESEARCH CENTER

 NUMBER OF INDEPENDENT ORBITAL ROTATION PARAMETERS =   104
 ..... DONE SOLVING NEWTON-RAPHSON EQUATIONS .....
 CPU     0: STEP CPU TIME=     0.79 TOTAL CPU TIME=          1.1 (      0.0 MIN)
 TOTAL WALL CLOCK TIME=          1.1 SECONDS, CPU UTILIZATION IS    98.18%
 ..... DONE WITH NTN-RPH ORBITAL ROTATIONS ..... 
 CPU     0: STEP CPU TIME=     0.00 TOTAL CPU TIME=          1.1 (      0.0 MIN)
 TOTAL WALL CLOCK TIME=          1.1 SECONDS, CPU UTILIZATION IS    98.18%
 MAXIMUM MEMORY USED BY NTN-RPH CODE WAS     57645 WORDS.

 ITER     TOTAL ENERGY      DEL(E)  LAGRANGIAN ASYMMETRY   SQCDF  MICIT   DAMP
   1      -55.663117622 -0.663117622  0.131491   14    4 1.514E-01  1   0.0000
   2      -55.703356714 -0.040239091  0.022970   12    5 4.535E-01  1   0.0000
   3      -55.736448944 -0.033092230  0.012351   11    6 2.126E-01  1   0.0250
   4      -55.750301263 -0.013852318  0.004234   11    6 3.750E-02  1   0.0044
   5      -55.751970543 -0.001669281  0.000688   12    5 9.514E-04  1   0.0000
   6      -55.752014622 -0.000044078  0.000222   22    5 6.655E-05  1   0.0000
   7      -55.752018559 -0.000003938  0.000098   12    5 9.414E-06  1   0.0000
   8      -55.752019171 -0.000000612  0.000043   22    5 1.604E-06  1   0.0000
   9      -55.752019281 -0.000000110  0.000021   22    5 3.137E-07  1   0.0000
  10      -55.752019304 -0.000000022  0.000011   22    5 7.051E-08  1   0.0000
  11      -55.752019309 -0.000000005  0.000005   22    5 1.796E-08  1   0.0000
  12      -55.752019310 -0.000000001  0.000003   22    5 4.996E-09  1   0.0000
  13      -55.752019311 -0.000000000  0.000002   22    5 1.447E-09  1   0.0000
  14      -55.752019311 -0.000000000  0.000001   29    4 4.561E-10  1   0.0000
  15      -55.752019311 -0.000000000  0.000000   22    5 1.438E-10  1   0.0000

          --------------------
          LAGRANGIAN CONVERGED
          --------------------

 FINAL MCSCF ENERGY IS      -55.7520193108 AFTER  15 ITERATIONS

 -MCCI- BASED ON OPTIMIZED ORBITALS
 ----------------------------------

 PLEASE NOTE: IF THE ACTIVE ORBITALS ARE CANONICALIZED BELOW,
 THE FOLLOWING CI EXPANSION COEFFICIENTS AND THE DENSITY DO NOT
 CORRESPOND TO THE PRINTED ORBITALS.  THE PRINTED EXPANSIONS MATCH
 THE ORBITALS USED DURING THE LAST ITERATION.  IF YOU WISH TO SEE
 CI EXPANSIONS BASED ON THE CANONICAL (OR NATURAL) ORBITALS, YOU
 MUST RUN A CI CALCULATION WITH THAT ORBITAL CHOICE READ IN $VEC.

 Averaged energy =     -55.752019311

 State #    1  Energy =     -55.893300516  S =  0.500

      Det      Coef    Occupancy (Ignoring core)
      ---      ----    --------- --------- -----
        1    0.937431  11110001110000
        2    0.055364  11101001110000
        5   -0.062945  01111001110000
        8   -0.126166  10110101110000
       17    0.131845  11010011110000
       71   -0.168422  11110001011000
      386    0.090095  11110001010010
      393    0.072322  10110101010010
      701   -0.110233  11110001100001

 State #    2  Energy =     -55.729491364  S =  0.500

      Det      Coef    Occupancy (Ignoring core)
      ---      ----    --------- --------- -----
        1    0.163761  11110001110000
       71    0.951898  11110001011000
       75   -0.058143  01111001011000
       78   -0.070651  10110101011000
       87    0.099567  11010011011000
      316    0.055812  11110000011100
      806    0.097854  11110001001001
      822   -0.053222  11010011001001

 State #    3  Energy =     -55.633266052  S =  0.500

      Det      Coef    Occupancy (Ignoring core)
      ---      ----    --------- --------- -----
       36   -0.969043  11110001101000
       43    0.078667  10110101101000
       52   -0.068403  11010011101000
      281   -0.068916  11110000101100
      456   -0.098263  11110001001010
      463   -0.075908  10110101001010

 DENSITY MATRIX OVER ACTIVE MO-S

             1           2           3           4           5

    1    1.9782818
    2    0.0144366   1.6345318
    3   -0.0000000   0.0000000   1.6355852
    4    0.0022776   0.0025197   0.0000000   1.6547100
    5    0.0981503  -0.0215610  -0.0000000   0.0418798   0.0260413
    6    0.0001289  -0.1363908  -0.0000000   0.0296118   0.0046906
    7   -0.0000000  -0.0000000  -0.1513776   0.0000000  -0.0000000

             6           7

    6    0.0378136
    7   -0.0000000   0.0330363

 FORMING THE "STANDARD FOCK OPERATOR" IN DIRECT AO INTEGRAL MODE...
 ONLY THE    1 CORE AND   21 VIRTUAL ORBITALS WILL BE CANONICALIZED

          ----------------------
          MCSCF NATURAL ORBITALS
          ----------------------

                      1          2          3          4          5
                  -15.9854     1.9838     1.6563     1.6498     1.6458
                     A          A          A          A          A   
    1  N  1  S    1.001258   0.009010  -0.010560   0.000000  -0.002360
    2  N  1  S   -0.001852   0.438293  -0.177894  -0.000000  -0.065155
    3  N  1  S   -0.006341   0.295341  -0.280425  -0.000000  -0.096867
    4  N  1  X    0.000012   0.033474  -0.078482   0.000000   0.516433
    5  N  1  Y    0.000000  -0.000000  -0.000000   0.486333  -0.000000
    6  N  1  Z    0.001138   0.095426   0.592170   0.000000   0.036869
    7  N  1  X    0.000063  -0.003942  -0.064690   0.000000   0.253487
    8  N  1  Y    0.000000  -0.000000  -0.000000   0.182517  -0.000000
    9  N  1  Z   -0.000447   0.007641   0.385292   0.000000  -0.002346
   10  N  1 XX   -0.000173  -0.001433  -0.012970   0.000000   0.013835
   11  N  1 YY    0.000357   0.000450  -0.011146  -0.000000  -0.015818
   12  N  1 ZZ   -0.000184   0.000983   0.024115   0.000000   0.001982
   13  N  1 XY    0.000000   0.000000   0.000000  -0.004404   0.000000
   14  N  1 XZ    0.000142   0.001358   0.000237   0.000000   0.025682
   15  N  1 YZ    0.000000   0.000000  -0.000000   0.022122  -0.000000
   16  H  2  S   -0.001942   0.178864   0.112272   0.335070  -0.151924
   17  H  2  S    0.000523   0.000085   0.028525   0.043815  -0.033749
   18  H  2  X   -0.000314   0.010667   0.003915   0.015495   0.015738
   19  H  2  Y    0.000955  -0.033270  -0.015477  -0.030760   0.016323
   20  H  2  Z    0.000409  -0.006218   0.019434  -0.014215   0.007784
   21  H  3  S   -0.001942   0.178864   0.112272  -0.335070  -0.151924
   22  H  3  S    0.000523   0.000085   0.028525  -0.043815  -0.033749
   23  H  3  X   -0.000314   0.010667   0.003915  -0.015495   0.015738
   24  H  3  Y   -0.000955   0.033270   0.015477  -0.030760  -0.016323
   25  H  3  Z    0.000409  -0.006218   0.019434   0.014215   0.007784
   26  H  4  S   -0.001984   0.210648   0.095488   0.000000   0.382256
   27  H  4  S    0.000318   0.007882   0.020801   0.000000   0.075834
   28  H  4  X    0.000924  -0.035033  -0.019206  -0.000000  -0.027885
   29  H  4  Y    0.000000  -0.000000  -0.000000   0.023171  -0.000000
   30  H  4  Z    0.000498  -0.014791   0.019588  -0.000000  -0.020779

                      6          7          8
                    0.0263     0.0191     0.0189
                     A          A          A   
    1  N  1  S   -0.100986   0.227717  -0.000000
    2  N  1  S   -0.317983   0.738925  -0.000000
    3  N  1  S    0.017781   0.170570  -0.000000
    4  N  1  X    0.779551   0.321386  -0.000000
    5  N  1  Y   -0.000000   0.000000   0.951167
    6  N  1  Z   -0.114252   0.673844  -0.000000
    7  N  1  X   -0.004842   0.060187  -0.000000
    8  N  1  Y   -0.000000   0.000000   0.077353
    9  N  1  Z    0.034488  -0.097972   0.000000
   10  N  1 XX   -0.041638   0.021389  -0.000000
   11  N  1 YY    0.043575  -0.014260   0.000000
   12  N  1 ZZ   -0.001937  -0.007129   0.000000
   13  N  1 XY    0.000000  -0.000000  -0.037802
   14  N  1 XZ   -0.016551  -0.040475   0.000000
   15  N  1 YZ    0.000000  -0.000000  -0.054539
   16  H  2  S    0.483997  -0.373452  -0.615140
   17  H  2  S    0.089421  -0.034047  -0.125109
   18  H  2  X   -0.003008  -0.026095  -0.027076
   19  H  2  Y   -0.050644   0.051501   0.053288
   20  H  2  Z   -0.004867  -0.016545  -0.011616
   21  H  3  S    0.483997  -0.373451   0.615140
   22  H  3  S    0.089421  -0.034047   0.125109
   23  H  3  X   -0.003008  -0.026095   0.027076
   24  H  3  Y    0.050644  -0.051501   0.053288
   25  H  3  Z   -0.004867  -0.016545   0.011616
   26  H  4  S   -0.539072  -0.685940   0.000000
   27  H  4  S   -0.135058  -0.099924   0.000000
   28  H  4  X    0.028137   0.081603  -0.000000
   29  H  4  Y    0.000000  -0.000000  -0.040981
   30  H  4  Z    0.016709  -0.005791   0.000000

          ------------------------
          MCSCF OPTIMIZED ORBITALS
          ------------------------

                      1          2          3          4          5
                  -15.9854     0.0000     0.0000     0.0000     0.0000
                     A          A          A          A          A   
    1  N  1  S    1.001258  -0.003203   0.004670   0.000000  -0.017430
    2  N  1  S   -0.001852   0.401917  -0.016760   0.000000  -0.198128
    3  N  1  S   -0.006341   0.293999  -0.068628   0.000000  -0.285305
    4  N  1  X    0.000012   0.010620   0.449787  -0.000000  -0.027725
    5  N  1  Y    0.000000   0.000000   0.000000   0.395543  -0.000000
    6  N  1  Z    0.001138   0.052869   0.001085  -0.000000   0.578541
    7  N  1  X    0.000063  -0.016112   0.255799  -0.000000  -0.047775
    8  N  1  Y    0.000000  -0.000000  -0.000000   0.174511  -0.000000
    9  N  1  Z   -0.000447   0.008359  -0.030595   0.000000   0.386752
   10  N  1 XX   -0.000173  -0.003482   0.017870   0.000000  -0.013410
   11  N  1 YY    0.000357   0.002555  -0.018448  -0.000000  -0.010872
   12  N  1 ZZ   -0.000184   0.000928   0.000579  -0.000000   0.024282
   13  N  1 XY    0.000000   0.000000  -0.000000  -0.000861  -0.000000
   14  N  1 XZ    0.000142   0.002015   0.027416  -0.000000   0.002439
   15  N  1 YZ    0.000000  -0.000000  -0.000000   0.027110  -0.000000
   16  H  2  S   -0.001942   0.208403  -0.188404   0.390957   0.122687
   17  H  2  S    0.000523   0.004077  -0.042687   0.055288   0.028916
   18  H  2  X   -0.000314   0.011175   0.016334   0.017952   0.005587
   19  H  2  Y    0.000955  -0.036896   0.019682  -0.035594  -0.016956
   20  H  2  Z    0.000409  -0.006028   0.006741  -0.013070   0.020038
   21  H  3  S   -0.001942   0.208403  -0.188404  -0.390957   0.122687
   22  H  3  S    0.000523   0.004077  -0.042687  -0.055288   0.028916
   23  H  3  X   -0.000314   0.011175   0.016334  -0.017952   0.005587
   24  H  3  Y   -0.000955   0.036896  -0.019682  -0.035594   0.016956
   25  H  3  Z    0.000409  -0.006028   0.006741   0.013070   0.020038
   26  H  4  S   -0.001984   0.218420   0.434936  -0.000000   0.124805
   27  H  4  S    0.000318   0.007317   0.086793  -0.000000   0.024769
   28  H  4  X    0.000924  -0.037091  -0.031065   0.000000  -0.022449
   29  H  4  Y    0.000000  -0.000000  -0.000000   0.026891  -0.000000
   30  H  4  Z    0.000498  -0.013639  -0.023927   0.000000   0.018378

                      6          7          8          9         10
                    0.0000     0.0000     0.0000     0.1543     0.2034
                     A          A          A          A          A   
    1  N  1  S    0.247110  -0.029196  -0.000000  -0.153148  -0.000000
    2  N  1  S    0.816502  -0.085833  -0.000000  -0.235419  -0.000000
    3  N  1  S    0.166430   0.066447  -0.000000   1.514429   0.000000
    4  N  1  X    0.071041   0.881326   0.000000  -0.039214   0.000000
    5  N  1  Y   -0.000000   0.000000   0.992363  -0.000000   0.138920
    6  N  1  Z    0.696169   0.078056   0.000000  -0.231001  -0.000000
    7  N  1  X    0.053441   0.035649  -0.000000   0.141340   0.000000
    8  N  1  Y    0.000000   0.000000   0.094032   0.000000  -0.816452
    9  N  1  Z   -0.093216  -0.005422  -0.000000   0.523852   0.000000
   10  N  1 XX    0.031998  -0.031902  -0.000000  -0.026462   0.000000
   11  N  1 YY   -0.026406   0.036255  -0.000000   0.073158  -0.000000
   12  N  1 ZZ   -0.005592  -0.004353   0.000000  -0.046695   0.000000
   13  N  1 XY    0.000000   0.000000  -0.038048   0.000000   0.046643
   14  N  1 XZ   -0.034075  -0.025512   0.000000   0.047901   0.000000
   15  N  1 YZ    0.000000   0.000000  -0.052239  -0.000000  -0.109401
   16  H  2  S   -0.484122   0.336218  -0.581225   0.322623  -0.436090
   17  H  2  S   -0.057448   0.071644  -0.120480  -0.924776   1.608605
   18  H  2  X   -0.023613  -0.009290  -0.025514  -0.017177   0.033038
   19  H  2  Y    0.061687  -0.031442   0.050189   0.100740  -0.082247
   20  H  2  Z   -0.014284  -0.009330  -0.012891   0.014615  -0.076906
   21  H  3  S   -0.484122   0.336218   0.581225   0.322623   0.436090
   22  H  3  S   -0.057448   0.071644   0.120480  -0.924776  -1.608604
   23  H  3  X   -0.023613  -0.009290   0.025514  -0.017177  -0.033038
   24  H  3  Y   -0.061687   0.031442   0.050189  -0.100740  -0.082247
   25  H  3  Z   -0.014284  -0.009330   0.012891   0.014615   0.076906
   26  H  4  S   -0.489342  -0.684699   0.000000   0.157540   0.000000
   27  H  4  S   -0.055984  -0.152108   0.000000  -0.673693  -0.000001
   28  H  4  X    0.067801   0.048815  -0.000000   0.092290   0.000000
   29  H  4  Y    0.000000   0.000000  -0.038642   0.000000   0.023054
   30  H  4  Z   -0.010357   0.011974  -0.000000   0.057710   0.000000

                     11         12         13         14         15
                    0.2085     0.5382     0.6210     0.6286     0.7791
                     A          A          A          A          A   
    1  N  1  S    0.035226   0.059325  -0.000000   0.105523  -0.000000
    2  N  1  S    0.069069   0.070167  -0.000000   0.374748  -0.000000
    3  N  1  S   -0.222742  -0.413231  -0.000000   0.135526   0.000000
    4  N  1  X    0.000547  -0.607710   0.000000  -0.198977   0.000000
    5  N  1  Y    0.000000  -0.000000  -0.471043  -0.000000  -0.105188
    6  N  1  Z    0.060326   0.343193   0.000000  -0.612510   0.000000
    7  N  1  X   -0.449490   1.444873  -0.000000   0.877965  -0.000000
    8  N  1  Y   -0.000000   0.000000   1.929379   0.000000   0.637849
    9  N  1  Z   -0.172703  -0.421156  -0.000000   1.070521  -0.000000
   10  N  1 XX   -0.078689   0.025807   0.000000  -0.008428   0.000000
   11  N  1 YY    0.086803  -0.011260   0.000000  -0.055349   0.000000
   12  N  1 ZZ   -0.008113  -0.014548  -0.000000   0.063777  -0.000000
   13  N  1 XY    0.000000   0.000000   0.075801   0.000000  -0.170685
   14  N  1 XZ   -0.084202   0.038313   0.000000  -0.040018  -0.000000
   15  N  1 YZ   -0.000000  -0.000000  -0.022918  -0.000000  -0.118525
   16  H  2  S    0.324508   0.351956  -0.683599  -0.343464  -0.119815
   17  H  2  S   -0.986663   0.520341  -0.682759   0.368799  -0.204985
   18  H  2  X    0.015109   0.036218   0.099197   0.006790  -0.348032
   19  H  2  Y    0.030672  -0.045860   0.189103  -0.048066   0.113206
   20  H  2  Z    0.008468  -0.070557  -0.024066   0.043063  -0.242259
   21  H  3  S    0.324508   0.351956   0.683599  -0.343464   0.119815
   22  H  3  S   -0.986664   0.520341   0.682759   0.368799   0.204985
   23  H  3  X    0.015109   0.036218  -0.099197   0.006790   0.348032
   24  H  3  Y   -0.030672   0.045860   0.189103   0.048066   0.113206
   25  H  3  Z    0.008468  -0.070557   0.024066   0.043063   0.242259
   26  H  4  S   -0.606889  -0.209289   0.000000  -0.814406   0.000000
   27  H  4  S    2.136372  -0.901363   0.000000  -0.395225  -0.000000
   28  H  4  X   -0.097655   0.107267  -0.000000   0.042608   0.000000
   29  H  4  Y   -0.000000   0.000000   0.088357  -0.000000  -0.509577
   30  H  4  Z   -0.068972   0.075342  -0.000000   0.049479  -0.000000

                     16         17         18         19         20
                    0.9681     0.9968     1.2797     1.4550     1.4994
                     A          A          A          A          A   
    1  N  1  S   -0.565244  -0.198018  -0.000000  -0.543551  -0.129779
    2  N  1  S   -1.200765  -0.418987  -0.000000  -1.128916  -0.256545
    3  N  1  S    2.425039   1.041064   0.000000   2.073248   0.677404
    4  N  1  X   -0.070261  -0.041716   0.000000  -0.012989   0.172334
    5  N  1  Y   -0.000000   0.000000  -0.245839  -0.000000  -0.000000
    6  N  1  Z    0.174492   0.071543  -0.000000  -0.034141   0.025301
    7  N  1  X    0.349075   0.373557   0.000000  -0.070836   0.664097
    8  N  1  Y   -0.000000  -0.000000   0.947085  -0.000000   0.000000
    9  N  1  Z   -0.007827   0.363101   0.000000   0.880294   0.353649
   10  N  1 XX   -0.116992   0.191362  -0.000000   0.125457  -0.078756
   11  N  1 YY   -0.089973  -0.074233   0.000000   0.127237   0.011850
   12  N  1 ZZ    0.206965  -0.117128  -0.000000  -0.252694   0.066906
   13  N  1 XY    0.000000   0.000000  -0.102267  -0.000000   0.000000
   14  N  1 XZ   -0.054304  -0.216764  -0.000000  -0.005244  -0.143650
   15  N  1 YZ   -0.000000   0.000000   0.033624  -0.000000   0.000000
   16  H  2  S   -0.316784  -0.113677  -0.438721  -0.570392  -0.151729
   17  H  2  S   -0.312946  -0.103547  -0.184258  -0.160044   0.083050
   18  H  2  X    0.010197  -0.359031  -0.436407   0.364803  -0.459017
   19  H  2  Y   -0.008989  -0.006734  -0.373507   0.095645  -0.096856
   20  H  2  Z    0.326915   0.081696   0.348364  -0.415128  -0.466134
   21  H  3  S   -0.316784  -0.113677   0.438721  -0.570392  -0.151729
   22  H  3  S   -0.312946  -0.103547   0.184258  -0.160044   0.083050
   23  H  3  X    0.010197  -0.359031   0.436407   0.364803  -0.459017
   24  H  3  Y    0.008989   0.006734  -0.373507  -0.095645   0.096856
   25  H  3  Z    0.326915   0.081696  -0.348364  -0.415128  -0.466134
   26  H  4  S   -0.468128  -0.261272  -0.000000  -0.559637  -0.319040
   27  H  4  S   -0.358576  -0.240625   0.000000  -0.202409  -0.341379
   28  H  4  X   -0.087398   0.430659   0.000000   0.123453   0.070263
   29  H  4  Y    0.000000   0.000000   0.210294   0.000000  -0.000000
   30  H  4  Z    0.288498  -0.471713  -0.000000  -0.226693   0.635551

                     21         22         23         24         25
                    1.6216     1.8264     1.9002     1.9741     2.1928
                     A          A          A          A          A   
    1  N  1  S   -0.000000  -0.106599  -0.000000   0.157535  -0.120756
    2  N  1  S   -0.000000  -0.185088  -0.000000   0.436532  -0.237186
    3  N  1  S    0.000000   0.831972   0.000000   1.197474   0.462460
    4  N  1  X   -0.000000  -0.354103   0.000000   0.196837  -0.086326
    5  N  1  Y    0.063096  -0.000000   0.614316  -0.000000  -0.000000
    6  N  1  Z   -0.000000  -0.000924   0.000000   0.333301  -0.009687
    7  N  1  X    0.000000   0.189722   0.000000  -0.259496   0.074311
    8  N  1  Y    0.968163  -0.000000   0.115134   0.000000  -0.000000
    9  N  1  Z    0.000000   0.329214   0.000000   0.467447   0.512097
   10  N  1 XX    0.000000   0.254767  -0.000000  -0.064679  -0.808645
   11  N  1 YY   -0.000000  -0.161938   0.000000  -0.184264  -0.000599
   12  N  1 ZZ   -0.000000  -0.092829   0.000000   0.248943   0.809243
   13  N  1 XY    0.037364   0.000000   0.269636  -0.000000   0.000000
   14  N  1 XZ    0.000000   0.082077  -0.000000  -0.241134   0.484427
   15  N  1 YZ   -0.098235   0.000000  -0.192085   0.000000   0.000000
   16  H  2  S   -0.326513  -0.136330  -0.006839  -0.303189  -0.163081
   17  H  2  S   -0.223878  -0.360896  -0.357238  -0.258409  -0.059298
   18  H  2  X    0.218471  -0.281893  -0.415895   0.185454  -0.210211
   19  H  2  Y   -0.005554   0.574343   0.603061   0.744056   0.075754
   20  H  2  Z    0.554953  -0.085585   0.375806  -0.030166  -0.254824
   21  H  3  S    0.326513  -0.136330   0.006839  -0.303189  -0.163081
   22  H  3  S    0.223878  -0.360896   0.357238  -0.258409  -0.059298
   23  H  3  X   -0.218471  -0.281893   0.415895   0.185454  -0.210211
   24  H  3  Y   -0.005554  -0.574343   0.603061  -0.744056  -0.075754
   25  H  3  Z   -0.554953  -0.085585  -0.375806  -0.030166  -0.254824
   26  H  4  S   -0.000000  -0.363321  -0.000000  -0.222860  -0.186327
   27  H  4  S    0.000000   0.384734  -0.000000  -0.196922   0.031735
   28  H  4  X   -0.000000  -0.737108   0.000000   0.734529   0.201290
   29  H  4  Y   -0.864256   0.000000   0.243832   0.000000  -0.000000
   30  H  4  Z   -0.000000  -0.125185   0.000000   0.286205  -0.690002

                     26         27         28         29
                    2.3274     2.5651     2.6897     3.0375
                     A          A          A          A   
    1  N  1  S    0.000000  -0.085074  -0.000000   0.005319
    2  N  1  S    0.000000  -0.013589  -0.000000   0.070305
    3  N  1  S   -0.000000   2.378871   0.000000   0.644869
    4  N  1  X   -0.000000   0.259851   0.000000  -0.512642
    5  N  1  Y   -0.131481  -0.000000   0.571851  -0.000000
    6  N  1  Z   -0.000000   0.342388   0.000000   0.045697
    7  N  1  X   -0.000000   0.784972   0.000000  -0.793757
    8  N  1  Y    0.160781  -0.000000   1.474941  -0.000000
    9  N  1  Z   -0.000000   0.640931   0.000000  -0.024468
   10  N  1 XX    0.000000   0.095586  -0.000000  -1.028906
   11  N  1 YY   -0.000000   0.547135   0.000000   1.451194
   12  N  1 ZZ   -0.000000  -0.642721  -0.000000  -0.422288
   13  N  1 XY    1.075384   0.000000  -0.531268   0.000000
   14  N  1 XZ   -0.000000   0.934391   0.000000  -0.709711
   15  N  1 YZ    0.477638  -0.000000   1.249584  -0.000000
   16  H  2  S    0.009438  -0.640904  -1.089248  -0.880743
   17  H  2  S    0.054233  -0.102685  -0.446920  -0.266256
   18  H  2  X   -0.334845  -0.343418  -0.141815  -0.211866
   19  H  2  Y   -0.219396   0.296562   0.804688   0.703116
   20  H  2  Z   -0.252719   0.339170   0.151737   0.421005
   21  H  3  S   -0.009438  -0.640904   1.089248  -0.880743
   22  H  3  S   -0.054233  -0.102685   0.446920  -0.266256
   23  H  3  X    0.334845  -0.343418   0.141815  -0.211866
   24  H  3  Y   -0.219396  -0.296562   0.804688  -0.703116
   25  H  3  Z    0.252719   0.339170  -0.151737   0.421005
   26  H  4  S    0.000000  -1.309659  -0.000000   1.037158
   27  H  4  S    0.000000  -0.526817  -0.000000   0.336449
   28  H  4  X   -0.000000   0.833990   0.000000  -0.789296
   29  H  4  Y   -0.535430   0.000000  -0.206832  -0.000000
   30  H  4  Z    0.000000   0.512517   0.000000  -0.469831
 .....DONE WITH MCSCF ITERATIONS.....
 CPU     0: STEP CPU TIME=     7.88 TOTAL CPU TIME=          9.0 (      0.1 MIN)
 TOTAL WALL CLOCK TIME=          9.0 SECONDS, CPU UTILIZATION IS    99.89%

     ----------------------------------------------------------------
     PROPERTY VALUES FOR THE MCSCF SELF-CONSISTENT FIELD WAVEFUNCTION
     ----------------------------------------------------------------

          -----------------
          ENERGY COMPONENTS
          -----------------

         WAVEFUNCTION NORMALIZATION =       1.0000000000

                ONE ELECTRON ENERGY =     -94.5786960143
                TWO ELECTRON ENERGY =      27.2633370980
           NUCLEAR REPULSION ENERGY =      11.5633396056
                                      ------------------
                       TOTAL ENERGY =     -55.7520193108

 ELECTRON-ELECTRON POTENTIAL ENERGY =      27.2633370980
  NUCLEUS-ELECTRON POTENTIAL ENERGY =    -150.4353362932
   NUCLEUS-NUCLEUS POTENTIAL ENERGY =      11.5633396056
                                      ------------------
             TOTAL POTENTIAL ENERGY =    -111.6086595896
               TOTAL KINETIC ENERGY =      55.8566402789
                 VIRIAL RATIO (V/T) =       1.9981269735

          ---------------------------------------
          MULLIKEN AND LOWDIN POPULATION ANALYSES
          ---------------------------------------

     ATOMIC MULLIKEN POPULATION IN EACH MOLECULAR ORBITAL

                      1          2          3          4          5

                  2.000000   1.983785   1.656313   1.649759   1.645838

    1             2.000925   1.314875   1.544235   0.916588   1.068007
    2            -0.000293   0.197907   0.038297   0.361356   0.079006
    3            -0.000293   0.197907   0.038297   0.361356   0.079006
    4            -0.000339   0.273096   0.035484   0.010460   0.419820

                      6          7          8

                  0.026323   0.019121   0.018862

    1             0.012538   0.010279   0.010194
    2             0.004413   0.001687   0.004321
    3             0.004413   0.001687   0.004321
    4             0.004958   0.005467   0.000026
 WARNING! MCSCF POPULATIONS SHOWN ABOVE ARE FOR THE NATURAL ORBITALS.
 IGNORE THE ABOVE DATA FOR MCSCF FUNCTIONS WHICH ARE NOT OF -FORS- TYPE.
 THE FOLLOWING POPULATIONS ARE CORRECT FOR ANY MCSCF WAVEFUNCTION.

               ----- POPULATIONS IN EACH AO -----
                             MULLIKEN      LOWDIN
              1  N  1  S      2.00261     1.89685
              2  N  1  S      0.82602     0.57639
              3  N  1  S      0.64088     0.39573
              4  N  1  X      0.71587     0.65223
              5  N  1  Y      0.66242     0.57995
              6  N  1  Z      0.88348     0.82647
              7  N  1  X      0.34970     0.42301
              8  N  1  Y      0.25806     0.38023
              9  N  1  Z      0.52014     0.55753
             10  N  1 XX      0.00057     0.15598
             11  N  1 YY      0.00524     0.18712
             12  N  1 ZZ      0.00046     0.14242
             13  N  1 XY      0.00634     0.00269
             14  N  1 XZ      0.00584     0.01184
             15  N  1 YZ      0.00000     0.01148
             16  H  2  S      0.59491     0.46300
             17  H  2  S      0.03459     0.14429
             18  H  2  X      0.01053     0.02280
             19  H  2  Y      0.03367     0.05650
             20  H  2  Z      0.01299     0.03407
             21  H  3  S      0.59491     0.46300
             22  H  3  S      0.03459     0.14429
             23  H  3  X      0.01053     0.02280
             24  H  3  Y      0.03367     0.05650
             25  H  3  Z      0.01299     0.03407
             26  H  4  S      0.64141     0.49703
             27  H  4  S      0.04720     0.14235
             28  H  4  X      0.03155     0.05479
             29  H  4  Y      0.01049     0.02063
             30  H  4  Z      0.01833     0.04397

          ----- MULLIKEN ATOMIC OVERLAP POPULATIONS -----
          (OFF-DIAGONAL ELEMENTS NEED TO BE MULTIPLIED BY 2)

             1           2           3           4

    1    5.9624078
    2    0.3056045   0.3933605
    3    0.3056045  -0.0061376   0.3933605
    4    0.3040251  -0.0061336  -0.0061336   0.4572127

          TOTAL MULLIKEN AND LOWDIN ATOMIC POPULATIONS
       ATOM         MULL.POP.    CHARGE          LOW.POP.     CHARGE
    1 N             6.877642    0.122358         6.799938    0.200062
    2 H             0.686694    0.313306         0.720645    0.279355
    3 H             0.686694    0.313306         0.720645    0.279355
    4 H             0.748971    0.251029         0.758772    0.241228

          MULLIKEN SPHERICAL HARMONIC POPULATIONS
       ATOM           S       P       D      F      G      H      I    TOTAL
    1 N             3.47    3.39    0.02   0.00   0.00   0.00   0.00    6.88
    2 H             0.63    0.06    0.00   0.00   0.00   0.00   0.00    0.69
    3 H             0.63    0.06    0.00   0.00   0.00   0.00   0.00    0.69
    4 H             0.69    0.06    0.00   0.00   0.00   0.00   0.00    0.75

          ---------------------
          ELECTROSTATIC MOMENTS
          ---------------------

 POINT   1           X           Y           Z (BOHR)    CHARGE
                 0.000003    0.000000   -0.177185        1.00 (A.U.)
         DX          DY          DZ         /D/  (DEBYE)
     0.425986    0.000000    2.139584    2.181578
 ...... END OF PROPERTY EVALUATION ......
 CPU     0: STEP CPU TIME=     0.00 TOTAL CPU TIME=          9.0 (      0.1 MIN)
 TOTAL WALL CLOCK TIME=          9.0 SECONDS, CPU UTILIZATION IS    99.78%

     -------------------------------------------------
     GMC-PT/GMC-QDPT or general MCSCF input parameters
     -------------------------------------------------
 # of frozen core orbs. =         0 ->         0
 # of doubly occ. orbs. =         1
 # of active      orbs. =         7
 # of virtual     orbs. =        21
 # of active electrons  =         7
 # of states in CI      =         3
 Highest state in CI    =         3
 kstate =  1 1 1
 avecoe =  0.333 0.333 0.333
 State symmetry           = A           
 Assigned symmetry number = 1

 <<<Act. MO sym.: 1111111

 <<<Division of 1-ext.:  0
 <<<Division of 2-ext.:  0

     ------------------------
     Orbital canonicalization
     ------------------------

 MOs are canonicalized for core, virtual, and invariant-active orbital spaces.
 This is a part of the GMC-QDPT calculation.
 SCHWARZ INEQUALITY OVERHEAD:       465 INTEGRALS, T=        0.00
 DIRECT TRANSFORMATION SKIPS AO INTEGRAL STORAGE ON DISK.

 Averaged energy =     -55.752019311

 State #    1  Energy =     -55.893300516  S =  0.500
 State #    2  Energy =     -55.729491364  S =  0.500
 State #    3  Energy =     -55.633266052  S =  0.500

 Orbital energies for filled orbital space
  -15.985362
 Orbital energies for active orbital space
   -1.525276  -0.878394  -0.976166  -0.749952   0.404249
    0.249973   0.414172
 Orbital energies for external orbital space
    0.154269   0.203408   0.208480   0.538208   0.621028
    0.628629   0.779083   0.968086   0.996847   1.279716
    1.454960   1.499433   1.621602   1.826449   1.900161
    1.974149   2.192779   2.327373   2.565144   2.689694
    3.037527

 Zero values mean non-canonical orbitals.
 ... done with orbital canonicalization ...
 CPU     0: STEP CPU TIME=     0.51 TOTAL CPU TIME=          9.5 (      0.2 MIN)
 TOTAL WALL CLOCK TIME=          9.5 SECONDS, CPU UTILIZATION IS    99.79%

     --------------------------------------------
     PARTIAL TWO ELECTRON INTEGRAL TRANSFORMATION
     --------------------------------------------

 NUMBER OF CORE MOLECULAR ORBITALS     =    0
 NUMBER OF OCCUPIED MOLECULAR ORBITALS =    8
 TOTAL NUMBER OF MOLECULAR ORBITALS    =   29
 TOTAL NUMBER OF ATOMIC ORBITALS       =   30
 THRESHOLD FOR KEEPING TRANSFORMED 2E- INTEGRALS = 1.000E-09
 AO INTEGRALS WILL BE CALCULATED IN DIRECT MODE...
 DIRECT TRANSFORMATION SKIPS AO INTEGRAL STORAGE ON DISK.
 SCHWARZ INEQUALITY OVERHEAD:       465 INTEGRALS, T=        0.00

 PLAN A: REQUIREMENTS FOR FULLY IN-MEMORY TRANSFORMATION:
 # OF WORDS AVAILABLE =            100000000
 # OF WORDS NEEDED    =               221798

 PARALLEL ONLY WORKS WITH THE SEGMENTED ALGORITHM.
 ADJUSTING MEMORY TO USE SEGMENTED ALGORITHM.


 PLAN B: REQUIREMENTS FOR THE SEGMENTED TRANSFORMATION:
       MINIMUM=         124148 WORDS FOR 1 MOLECULAR ORBITAL PER PASS
       MAXIMUM=         221798 WORDS FOR ALL MOLECULAR ORBITALS IN 1 PASS
              (          13950 EXTRA WORDS INCLUDES 1 EXTRA ORBITAL/PASS)
 THIS RUN USES=         221798 WORDS,
 DISTRIBUTING   1 PASSES EACH CONTAINING     8 ORBITALS OVER   1 PROCESSORS.

 CHOOSING SEGMENTED PARTIAL TRANSFORMATION...
 DIRECT TRANSFORMATION SKIPS AO INTEGRAL STORAGE ON DISK.
 PASS #   1 TOOK        0.05 SECONDS.
 TOTAL NUMBER OF TRANSFORMED 2E- INTEGRALS KEPT =        19670
 ... END OF INTEGRAL TRANSFORMATION ...
 CPU     0: STEP CPU TIME=     0.05 TOTAL CPU TIME=          9.5 (      0.2 MIN)
 TOTAL WALL CLOCK TIME=          9.5 SECONDS, CPU UTILIZATION IS    99.79%

     --------     ------------------------------------------
     GMC-QDPT     Program written by H.Nakano (Kyushu Univ.)
     --------     ------------------------------------------

 *** Reference space

 Reference type: ORMAS (= Occupation restricted multiple active space)
 # of orbitals          =  7
 # of minimum electrons =  7
 # of maximum electrons =  7
 State symmetry    =    1 (input)
 2*Sz              =    1 (input)
 Spin multiplicity =    2 (input)
 Dimension of reference space =      1225  (from      3432 walks)

 Dimension of reference space =      1225  (from      1225 walks)

 <<<Ionized spaces for Ref-CI:
      0:         1225 /   -1-0:         1960 /  0-1-0:         2891

 ***                    ***
 *** Reference space CI ***
 ***                    ***

 Converged after   22 iterations

 Reference wavefunctions:

 State #    1  Energy =     -55.893300516  S =  0.500

      Det      Coef    Occupancy (Ignoring core)
      ---      ----    --------- --------- -----
        1    0.978077  11110001110000
      393    0.066532  10110101010010
      717    0.063806  11010011100001

 State #    2  Energy =     -55.729491364  S =  0.500

      Det      Coef    Occupancy (Ignoring core)
      ---      ----    --------- --------- -----
       71    0.982470  11110001011000
      822   -0.064258  11010011001001

 State #    3  Energy =     -55.633266052  S =  0.500

      Det      Coef    Occupancy (Ignoring core)
      ---      ----    --------- --------- -----
       36   -0.981147  11110001101000
      463   -0.067114  10110101001010

 Davidson method: CPU/Wall time =           0.39 /           0.39 sec.

 Oscillator strength (invalid if E(1)/=E(GS)):
 -----------------------------------------
   State                        f
 -----------------------------------------
     2     F(REF-CI)=        0.0013854301
     3     F(REF-CI)=        0.0012163533
 -----------------------------------------

 Dipole moment matrix elements, x, y, z, in A.U.

 Dimension of ionized spaces for PT:
 (N-2) space:         1715 /  (N-1) space:         2842 /  N space:         2891
 (N+1) space:         2842 /  (N+2) space:         1715

 <<<Ionized spaces for internal:
         0:         1225 /      -1-0:         1960 /     0-1-0:         2891
  -1-0-1-0:         2842 / 0-1-0-1-0:         3381

 Diagonal elements of averaged one-particle density matrix:
       2       3       4       5       6       7       8
  0.9940  0.9873  0.9886  0.9929  0.0106  0.0155  0.0112
  0.9897  0.6586  0.6610  0.6632  0.0087  0.0109  0.0079

 Orbital energies:
 -------- Doubly-occupied orbitals (highest several orbs.) -------
             1
 -1.598536D+01
 -------- Active orbitals ----------------------------------------
             2            3            4            5            6
 -1.525276D+00-8.783945D-01-9.761656D-01-7.499521D-01 4.042494D-01
             7            8
  2.499726D-01 4.141724D-01
 -------- External orbitals (lowest several orbs.) ---------------
             9           10           11           12           13
  1.542695D-01 2.034080D-01 2.084804D-01 5.382084D-01 6.210279D-01
            14           15           16           17           18
  6.286289D-01 7.790830D-01 9.680858D-01 9.968465D-01 1.279716D+00

 *** Quasi-degeneracy checking

 === Det (|Ci| > 1.0D-01 and dE < 5.0D-03)

 # of small denominators (single excitations)
 State       dEmin  dE < 5.0D-03  dE < 5.0D-04  dE < 5.0D-05  dE < 5.0D-06
 ----- ----------- ------------- ------------- ------------- -------------
     1    5.00D-03             0             0             0             0
     2    5.00D-03             0             0             0             0
     3    5.00D-03             0             0             0             0

 # of small denominators (double excitations)
 State       dEmin  dE < 5.0D-03  dE < 5.0D-04  dE < 5.0D-05  dE < 5.0D-06
 ----- ----------- ------------- ------------- ------------- -------------
     1    5.00D-03             0             0             0             0
     2    5.00D-03             0             0             0             0
     3    5.00D-03             0             0             0             0

 *** Zeroth-Order Setup (Granovsky's zeroth-order vectors)
 Zeroth-order effective Hamiltonian
  (= Sum_i e(i)*<I|a+(i)a(i)|J> ):
                   1            2            3
     1 -7.407704D+00
     2  9.876359D-03-7.299764D+00
     3  3.853507D-10-1.587380D-09-7.196565D+00

 Zeroth-order vectors:
 State #    1
       MC st            1           2           3
       Coeff    9.959D-01  -9.037D-02  -2.487D-09
 State #    2
       MC st            2           1           3
       Coeff   -9.959D-01  -9.037D-02  -1.511D-08
 State #    3
       MC st            3           2           1
       Coeff    1.000D+00  -1.528D-08   1.111D-09

 *** GMC-QDPT computation

 (Integral reading:  CPU/Wall time =           0.00 /           0.00 sec.)

 One-external:
   0 -ionized terms: CPU/Wall time =           0.03 /           0.03 sec.
 (-1)-ionized terms: CPU/Wall time =           0.11 /           0.10 sec.
 (+1)-ionized terms: CPU/Wall time =           0.02 /           0.03 sec.
 (+1)-ionized terms: CPU/Wall time =           0.01 /           0.00 sec.
 (+2)-ionized terms: CPU/Wall time =           0.00 /           0.00 sec.

 Internal:
 # of macro loops for internal contribution =         1 (input)
 Loop:    1
 Dimension of internal CISD space     =         0  (after screening)
 Space construction: CPU/Wall time =           0.02 /           0.02 sec.
 Internal terms:     CPU/Wall time =           0.00 /           0.00 sec.

 Two-external:
   0 -ionized terms: CPU/Wall time =           0.02 /           0.03 sec.
 (-1)-ionized terms: CPU/Wall time =           0.31 /           0.31 sec.
 (-2)-ionized terms: CPU/Wall time =           0.19 /           0.18 sec.

 Total time:         CPU/Wall time =           0.71 /           0.70 sec.

 ***                  ***
 *** GMC-QDPT Results ***
 ***                  ***

 Diagonal elements of effective Hamiltonian:
 Heff(  1) =   -55.98995161
 Heff(  2) =   -55.83937574
 Heff(  3) =   -55.74417327

 Off-diagonal elements of effective Hamiltonian:
                   1            2
     2  1.311257D-02
     3 -2.748371D-10-1.512154D-09

 ******** GMC-QDPT energies ********
 ----------------------------------------------------------------------------
   State                        1st order                           2nd order
 ----------------------------------------------------------------------------
     1     E(REF-CI)=      -55.8933005164   E(GMC-QDPT2)=      -55.9910849575
     2     E(REF-CI)=      -55.7294913637   E(GMC-QDPT2)=      -55.8382423864
     3     E(REF-CI)=      -55.6332660522   E(GMC-QDPT2)=      -55.7441732695
 ----------------------------------------------------------------------------

 Excitation energies (invalid if E(1)/=E(GS)):
 ----------------------------------------------------------------------------
   State                        1st order                           2nd order
 ----------------------------------------------------------------------------

     TZ Sorted GMC-PT ENERGIES:
         1      -55.9910849575
         2      -55.8382423864
         3      -55.7441732695
     2     E(REF-CI)=        4.4574764 eV   E(GMC-QDPT2)=        4.1590603 eV
     3     E(REF-CI)=        7.0759018 eV   E(GMC-QDPT2)=        6.7188127 eV
 ----------------------------------------------------------------------------

 Main characters of perturbed GMC-QDPT states:

 State #    1  Energy =     -55.991084958  S =  0.500

      Det      Coef    Occupancy (Ignoring core)
      ---      ----    --------- --------- -----
        1    0.978255  11110001110000
      393    0.066495  10110101010010
      717    0.063808  11010011100001

 State #    2  Energy =     -55.838242386  S =  0.500

      Det      Coef    Occupancy (Ignoring core)
      ---      ----    --------- --------- -----
       71    0.982637  11110001011000
      822   -0.064271  11010011001001

 State #    3  Energy =     -55.744173269  S =  0.500

      Det      Coef    Occupancy (Ignoring core)
      ---      ----    --------- --------- -----
       36   -0.981147  11110001101000
      463   -0.067114  10110101001010

 <<<Max |V/de| = 2.812D-02  Thresh = 1.000D+00

 Oscillator strength (invalid if E(1)/=E(GS)):
 ----------------------------------------------------------------------------
   State                        1st order                           2nd order
 ----------------------------------------------------------------------------
     2     F(REF-CI)=        0.0013854301     F(GMC-PT2)=        0.0013403561
     3     F(REF-CI)=        0.0012163533     F(GMC-PT2)=        0.0011879073
 ----------------------------------------------------------------------------

 Dipole moment matrix elements, x, y, z, in A.U.
States    1    1        0.2044479829        0.0000000003        0.7454112384
States    1    2        0.0248347851        0.0000000055        0.1119710444
States    1    3       -0.0000000020       -0.0849505270        0.0000000070
States    2    1        0.0248347851        0.0000000055        0.1119710444
States    2    2        0.1107805189       -0.0000000329        0.2744988886
States    2    3       -0.0000000150        0.2769771910        0.0000000011
States    3    1       -0.0000000020       -0.0849505270        0.0000000070
States    3    2       -0.0000000150        0.2769771910        0.0000000011
States    3    3        0.4385101134        0.0000000327        0.2669808496

 Oscillator strength (valid only when positive): 
 ----------------------------------------------------------------------------
  States                        1st order                           2nd order
 ----------------------------------------------------------------------------
  1  1     F(REF-CI)=        0.0000000000     F(GMC-PT2)=        0.0000000000
  1  2     F(REF-CI)=       -0.0013854301     F(GMC-PT2)=       -0.0013403561
  1  3     F(REF-CI)=       -0.0012163533     F(GMC-PT2)=       -0.0011879073
  2  1     F(REF-CI)=        0.0013854301     F(GMC-PT2)=        0.0013403561
  2  2     F(REF-CI)=        0.0000000000     F(GMC-PT2)=        0.0000000000
  2  3     F(REF-CI)=       -0.0049342071     F(GMC-PT2)=       -0.0048110938
  3  1     F(REF-CI)=        0.0012163533     F(GMC-PT2)=        0.0011879073
  3  2     F(REF-CI)=        0.0049342071     F(GMC-PT2)=        0.0048110938
  3  3     F(REF-CI)=        0.0000000000     F(GMC-PT2)=        0.0000000000
 CPU     0: STEP CPU TIME=     1.15 TOTAL CPU TIME=         10.7 (      0.2 MIN)
 TOTAL WALL CLOCK TIME=         10.7 SECONDS, CPU UTILIZATION IS    99.81%

     !!! DIABATIZATION FOR REF CI STATES !!!

 *******************************************************
          $DMO GROUP FOUND IN THE INPUT.
        DIABATIZATION OF ADIABATIC STATES BEGINS.
     PROGRAMMED BY TAO ZENG (CARLETON UNIVERSITY).
               Email: toby.zeng@carleton.ca
     See T. Zeng, J. Chem. Phys. 2017, 146, 144103
 *******************************************************

 *************************************************************************
     STEP 1: TRANSFORMATION OF ADIABATIC STATES TO THE DMO REPRESENTATION
         See Atchity and Ruedenberg, J. Chem. Phys. 1999, 111, 2910
 *************************************************************************

Read in Diabatic Molecualr Orbitals:

                      1          2          3          4          5

    1  N  1  S    0.008609   0.000000   0.000000  -0.013219   0.279491
    2  N  1  S    0.442914  -0.000000   0.000000  -0.184329   0.867803
    3  N  1  S    0.276913   0.000000  -0.000000  -0.288315   0.144236
    4  N  1  X   -0.000000   0.493155  -0.024636  -0.000000  -0.000000
    5  N  1  Y    0.000000   0.024636   0.493155  -0.000000   0.000000
    6  N  1  Z    0.090197   0.000000   0.000000   0.593421   0.705309
    7  N  1  X   -0.000000   0.210628  -0.010522   0.000000   0.000000
    8  N  1  Y    0.000000   0.010522   0.210628  -0.000000  -0.000000
    9  N  1  Z   -0.004381   0.000000   0.000000   0.381592  -0.106092
   10  N  1 XX   -0.000457   0.010719  -0.000535  -0.012387   0.006153
   11  N  1 YY   -0.000457  -0.010719   0.000535  -0.012387   0.006153
   12  N  1 ZZ    0.000914  -0.000000   0.000000   0.024773  -0.012306
   13  N  1 XY    0.000000  -0.000618  -0.012377  -0.000000   0.000000
   14  N  1 XZ   -0.000000   0.026529  -0.001325  -0.000000   0.000000
   15  N  1 YZ    0.000000   0.001325   0.026529  -0.000000   0.000000
   16  H  2  S    0.194462  -0.176074   0.343485   0.112865  -0.523343
   17  H  2  S    0.003574  -0.023812   0.046452   0.024014  -0.054445
   18  H  2  X    0.018760   0.009101   0.022834   0.009336  -0.039151
   19  H  2  Y   -0.032493   0.022287  -0.020044  -0.016171   0.067811
   20  H  2  Z   -0.009251   0.008464  -0.016511   0.018769  -0.010566
   21  H  3  S    0.194462  -0.209430  -0.324227   0.112865  -0.523343
   22  H  3  S    0.003574  -0.028322  -0.043847   0.024014  -0.054445
   23  H  3  X    0.018760   0.006781  -0.023627   0.009336  -0.039151
   24  H  3  Y    0.032493  -0.024174  -0.017723   0.016171  -0.067811
   25  H  3  Z   -0.009251   0.010067   0.015585   0.018769  -0.010566
   26  H  4  S    0.194462   0.385503  -0.019258   0.112865  -0.523343
   27  H  4  S    0.003574   0.052134  -0.002604   0.024014  -0.054445
   28  H  4  X   -0.037519  -0.032295   0.001613  -0.018672   0.078302
   29  H  4  Y    0.000000   0.001067   0.021353  -0.000000   0.000000
   30  H  4  Z   -0.009251  -0.018530   0.000926   0.018769  -0.010566

                      6          7

    1  N  1  S    0.000000  -0.000000
    2  N  1  S    0.000000  -0.000000
    3  N  1  S   -0.000000   0.000000
    4  N  1  X   -0.930415  -0.002083
    5  N  1  Y   -0.002083   0.930415
    6  N  1  Z   -0.000000   0.000000
    7  N  1  X   -0.046866  -0.000105
    8  N  1  Y   -0.000105   0.046866
    9  N  1  Z   -0.000000   0.000000
   10  N  1 XX    0.001538   0.000003
   11  N  1 YY   -0.001538  -0.000003
   12  N  1 ZZ   -0.000000   0.000000
   13  N  1 XY   -0.000004   0.001776
   14  N  1 XZ    0.039985   0.000090
   15  N  1 YZ    0.000090  -0.039985
   16  H  2  S   -0.362630  -0.631354
   17  H  2  S   -0.065964  -0.114846
   18  H  2  X    0.002763  -0.037520
   19  H  2  Y    0.037435   0.040736
   20  H  2  Z    0.001882   0.003276
   21  H  3  S   -0.365454   0.629724
   22  H  3  S   -0.066477   0.114549
   23  H  3  X    0.002595   0.037532
   24  H  3  Y   -0.037617   0.040567
   25  H  3  Z    0.001896  -0.003268
   26  H  4  S    0.728084   0.001630
   27  H  4  S    0.132441   0.000297
   28  H  4  X   -0.062317  -0.000140
   29  H  4  Y    0.000055  -0.024345
   30  H  4  Z   -0.003778  -0.000008

NUMBER OF SUB ACTIVE SPACES:   1
ROTATE ACTIVE MOS TO DMOS IN EACH SUB-SPACE

SPACE  1:

OVERLAP BETWEEN ORTHONORMAL AND PRE-ORTHONORMAL REF. DMOS

             1           2           3           4           5

    1    0.9914942   0.0224432  -0.0011212  -0.0028663   0.0018616
    2    0.0224432   0.9451871   0.0041842   0.0281098  -0.0472224
    3   -0.0011212   0.0041842   1.0287372  -0.0014042   0.0023590
    4   -0.0028663   0.0281098  -0.0014042   0.9981452  -0.0040979
    5    0.0018616  -0.0472224   0.0023590  -0.0040979   1.0466844
    6   -0.0027398  -0.0374501   0.0019402   0.0281547   0.0215518
    7   -0.0000061  -0.0016271  -0.0308885   0.0000630   0.0000483

             6           7

    1   -0.0027398  -0.0000061
    2   -0.0374501  -0.0016271
    3    0.0019402  -0.0308885
    4    0.0281547   0.0000630
    5    0.0215518   0.0000483
    6    1.0420012   0.0000914
    7    0.0000914   1.0011974
REFERENCE DMOS AFTER ORTHONORMALIZATION:

                      1          2          3          4          5

    1  N  1  S    0.007828   0.013371  -0.000668  -0.012367   0.267665
    2  N  1  S    0.443792   0.035895  -0.001793  -0.180729   0.829426
    3  N  1  S    0.278012   0.009020  -0.000451  -0.287917   0.136465
    4  N  1  X   -0.013565   0.489136  -0.024435   0.011039   0.040237
    5  N  1  Y   -0.000000   0.025360   0.507654   0.000000  -0.000000
    6  N  1  Z    0.091058   0.012721  -0.000636   0.598038   0.677212
    7  N  1  X   -0.005181   0.222240  -0.011102  -0.005199   0.010804
    8  N  1  Y   -0.000000   0.010306   0.206299  -0.000000   0.000000
    9  N  1  Z   -0.002770  -0.016685   0.000834   0.382602  -0.100429
   10  N  1 XX   -0.000779   0.012143  -0.000607  -0.012789   0.006335
   11  N  1 YY   -0.000266  -0.010775   0.000538  -0.012037   0.005379
   12  N  1 ZZ    0.001045  -0.001368   0.000068   0.024826  -0.011714
   13  N  1 XY    0.000000  -0.000599  -0.011987   0.000000  -0.000000
   14  N  1 XZ   -0.000572   0.029737  -0.001486  -0.001953   0.000525
   15  N  1 YZ    0.000000   0.001229   0.024607  -0.000000   0.000000
   16  H  2  S    0.202190  -0.236420   0.318413   0.128592  -0.504014
   17  H  2  S    0.004365  -0.031615   0.042158   0.026623  -0.052115
   18  H  2  X    0.018890   0.007034   0.021174   0.008992  -0.037203
   19  H  2  Y   -0.033541   0.029758  -0.018678  -0.017913   0.065417
   20  H  2  Z   -0.009460   0.008297  -0.015966   0.018430  -0.009633
   21  H  3  S    0.202190  -0.266977  -0.293266   0.128592  -0.504014
   22  H  3  S    0.004365  -0.035659  -0.038797   0.026623  -0.052115
   23  H  3  X    0.018890   0.004889  -0.021769   0.008992  -0.037203
   24  H  3  Y    0.033541  -0.031471  -0.015619   0.017913  -0.065417
   25  H  3  Z   -0.009460   0.009847   0.015060   0.018430  -0.009633
   26  H  4  S    0.190101   0.404860  -0.020225   0.079788  -0.496580
   27  H  4  S    0.002819   0.057092  -0.002852   0.018582  -0.052038
   28  H  4  X   -0.037483  -0.031546   0.001576  -0.015864   0.074667
   29  H  4  Y    0.000000   0.001001   0.020041  -0.000000   0.000000
   30  H  4  Z   -0.008797  -0.020707   0.001034   0.019451  -0.010843

                      6          7

    1  N  1  S   -0.004700  -0.000011
    2  N  1  S   -0.009811  -0.000022
    3  N  1  S    0.006013   0.000013
    4  N  1  X   -0.876452  -0.001963
    5  N  1  Y   -0.002116   0.945006
    6  N  1  Z   -0.029468  -0.000066
    7  N  1  X   -0.037065  -0.000083
    8  N  1  Y   -0.000119   0.053191
    9  N  1  Z   -0.008869  -0.000020
   10  N  1 XX    0.002126   0.000005
   11  N  1 YY   -0.001651  -0.000004
   12  N  1 ZZ   -0.000475  -0.000001
   13  N  1 XY   -0.000003   0.001403
   14  N  1 XZ    0.039486   0.000088
   15  N  1 YZ    0.000088  -0.039176
   16  H  2  S   -0.349567  -0.621111
   17  H  2  S   -0.064140  -0.113452
   18  H  2  X    0.003445  -0.036809
   19  H  2  Y    0.036069   0.040153
   20  H  2  Z    0.001810   0.002792
   21  H  3  S   -0.352345   0.619539
   22  H  3  S   -0.064647   0.113164
   23  H  3  X    0.003280   0.036824
   24  H  3  Y   -0.036249   0.039991
   25  H  3  Z    0.001822  -0.002784
   26  H  4  S    0.721939   0.001617
   27  H  4  S    0.129741   0.000291
   28  H  4  X   -0.062156  -0.000139
   29  H  4  Y    0.000053  -0.023696
   30  H  4  Z   -0.004696  -0.000011

 -------------------------------------------
       MAXIMIZING MORMO OVERLAP TERM        
 -------------------------------------------
   SWEEP    VALUE       PROGRESS
     0     6.46951
     1     6.98338     0.51386788
     2     6.98428     0.00090064
     3     6.98428     0.00000002
     4     6.98428     0.00000000
     5     6.98428     0.00000000
 THE ROTATION IS DONE
FLIPPING SIGN FOR ORBITAL   7
ACTIVE ORBITALS AFTER MORMO:

                      1          2          3          4          5

    1  N  1  S    0.007416   0.019465  -0.000972  -0.012407   0.247218
    2  N  1  S    0.436042   0.045924  -0.002294  -0.185202   0.803254
    3  N  1  S    0.299725  -0.041668   0.002082  -0.282472   0.161641
    4  N  1  X   -0.002840   0.467058  -0.023332   0.025020   0.024382
    5  N  1  Y    0.000000   0.025267   0.505788   0.000000  -0.000000
    6  N  1  Z    0.087059   0.025978  -0.001298   0.597491   0.676986
    7  N  1  X   -0.020486   0.259763  -0.012977  -0.036817   0.039090
    8  N  1  Y    0.000000   0.009186   0.183889   0.000000  -0.000000
    9  N  1  Z    0.008212  -0.048672   0.002431   0.382566  -0.099868
   10  N  1 XX   -0.002427   0.019583  -0.000978  -0.013363   0.032009
   11  N  1 YY    0.001532  -0.018979   0.000948  -0.010567  -0.025924
   12  N  1 ZZ    0.000895  -0.000604   0.000030   0.023931  -0.006085
   13  N  1 XY    0.000000  -0.000260  -0.005199  -0.000000   0.000000
   14  N  1 XZ    0.000068   0.024841  -0.001241   0.001361  -0.035153
   15  N  1 YZ    0.000000   0.001046   0.020933   0.000000   0.000000
   16  H  2  S    0.190562  -0.194860   0.332070   0.117228  -0.490987
   17  H  2  S    0.002386  -0.043652   0.043381   0.029117  -0.057174
   18  H  2  X    0.009855   0.015516   0.014160   0.005024  -0.024914
   19  H  2  Y   -0.034589   0.021088  -0.030712  -0.015828   0.063049
   20  H  2  Z   -0.006577   0.004206  -0.014686   0.019520  -0.014598
   21  H  3  S    0.190562  -0.226985  -0.310996   0.117228  -0.490987
   22  H  3  S    0.002386  -0.047758  -0.038814   0.029117  -0.057174
   23  H  3  X    0.009855   0.014028  -0.015636   0.005024  -0.024914
   24  H  3  Y    0.034589  -0.024043  -0.028457   0.015828  -0.063049
   25  H  3  Z   -0.006577   0.005649   0.014194   0.019520  -0.014598
   26  H  4  S    0.191972   0.393986  -0.019682   0.095514  -0.510475
   27  H  4  S    0.003983   0.080094  -0.004001   0.019588  -0.058368
   28  H  4  X   -0.033864  -0.026196   0.001309  -0.019358   0.070460
   29  H  4  Y    0.000000   0.001112   0.022268   0.000000   0.000000
   30  H  4  Z   -0.013427  -0.025165   0.001257   0.017966  -0.008975

                      6          7

    1  N  1  S    0.023365   0.000052
    2  N  1  S    0.057889   0.000130
    3  N  1  S   -0.084644  -0.000190
    4  N  1  X   -0.874673  -0.001959
    5  N  1  Y   -0.002106   0.940624
    6  N  1  Z   -0.068468  -0.000153
    7  N  1  X   -0.033962  -0.000076
    8  N  1  Y   -0.000165   0.073461
    9  N  1  Z    0.023003   0.000052
   10  N  1 XX    0.030974   0.000069
   11  N  1 YY   -0.036464  -0.000082
   12  N  1 ZZ    0.005490   0.000012
   13  N  1 XY    0.000084  -0.037700
   14  N  1 XZ    0.026785   0.000060
   15  N  1 YZ    0.000123  -0.054996
   16  H  2  S   -0.323680  -0.622842
   17  H  2  S   -0.069657  -0.126167
   18  H  2  X    0.010306  -0.027376
   19  H  2  Y    0.029836   0.053996
   20  H  2  Z    0.010639  -0.011288
   21  H  3  S   -0.326466   0.621386
   22  H  3  S   -0.070221   0.125854
   23  H  3  X    0.010184   0.027422
   24  H  3  Y   -0.030077   0.053862
   25  H  3  Z    0.010588   0.011335
   26  H  4  S    0.706078   0.001581
   27  H  4  S    0.155671   0.000349
   28  H  4  X   -0.051482  -0.000115
   29  H  4  Y    0.000093  -0.041464
   30  H  4  Z   -0.011336  -0.000025

Actually Used Diabatic Molecualr Orbitals:

                      1          2          3          4          5

    1  N  1  S    0.007416   0.019465  -0.000972  -0.012407   0.247218
    2  N  1  S    0.436042   0.045924  -0.002294  -0.185202   0.803254
    3  N  1  S    0.299725  -0.041668   0.002082  -0.282472   0.161641
    4  N  1  X   -0.002840   0.467058  -0.023332   0.025020   0.024382
    5  N  1  Y    0.000000   0.025267   0.505788   0.000000  -0.000000
    6  N  1  Z    0.087059   0.025978  -0.001298   0.597491   0.676986
    7  N  1  X   -0.020486   0.259763  -0.012977  -0.036817   0.039090
    8  N  1  Y    0.000000   0.009186   0.183889   0.000000  -0.000000
    9  N  1  Z    0.008212  -0.048672   0.002431   0.382566  -0.099868
   10  N  1 XX   -0.002427   0.019583  -0.000978  -0.013363   0.032009
   11  N  1 YY    0.001532  -0.018979   0.000948  -0.010567  -0.025924
   12  N  1 ZZ    0.000895  -0.000604   0.000030   0.023931  -0.006085
   13  N  1 XY    0.000000  -0.000260  -0.005199  -0.000000   0.000000
   14  N  1 XZ    0.000068   0.024841  -0.001241   0.001361  -0.035153
   15  N  1 YZ    0.000000   0.001046   0.020933   0.000000   0.000000
   16  H  2  S    0.190562  -0.194860   0.332070   0.117228  -0.490987
   17  H  2  S    0.002386  -0.043652   0.043381   0.029117  -0.057174
   18  H  2  X    0.009855   0.015516   0.014160   0.005024  -0.024914
   19  H  2  Y   -0.034589   0.021088  -0.030712  -0.015828   0.063049
   20  H  2  Z   -0.006577   0.004206  -0.014686   0.019520  -0.014598
   21  H  3  S    0.190562  -0.226985  -0.310996   0.117228  -0.490987
   22  H  3  S    0.002386  -0.047758  -0.038814   0.029117  -0.057174
[...]

 State #    3  Energy =     -55.744173609

      Det      Coef        Coefp    Occupancy (Ignoring core)
      ---      ----        ----    --------- --------- -----
       36   -0.981145   -0.981145  22+2000
      463    0.067113   -0.067113  20+2020
      121    0.044130   -0.044130  +22-00+
      249    0.042841   -0.042841  20+2200
      112   -0.041828   -0.041828  +2-20+0
      472    0.036851    0.036851  2+020-+
      253    0.033424    0.033424  20+2-+0
      285    0.031879   -0.031879  02+2200
      459   -0.030888    0.030888  20+2+-0
       86   -0.030296   -0.030296  2+2-00+
        7    0.028289    0.028289  22-+0+0
       41   -0.027658    0.027658  22+-0+0
      297   -0.026375    0.026375  +202-0+
      716    0.025862    0.025862  22+0002
      771   -0.025153   -0.025153  +22+00-
       77    0.024911   -0.024911  2+-20+0
      284   -0.024885    0.024885  +-+2200
      356    0.024793    0.024793  22+0020
      250    0.024147    0.024147  -++2200
      460   -0.023555   -0.023555  -++2+-0
      142    0.023428    0.023428  22+0200
      367   -0.022963    0.022963  220+0-+
      288   -0.022489   -0.022489  +-+2-+0
      491    0.021907   -0.021907  +2+20-0
      499    0.021746   -0.021746  02+2020
       39   -0.021081   -0.021081  2-+2+00
      148   -0.020391   -0.020391  2-++-+0
       64   -0.020348    0.020348  2-020++
      457   -0.020238    0.020238  2++-+-0
      498    0.020213   -0.020213  +-+2020

 ---------------------------------------
    -DIABATIC STATES IN PROTOTYPES-     
 ---------------------------------------

     STATE:    1
 Group Ref#    Coefficients
     1    1    0.985149
     2    2    0.002495
     3    3    0.000054

WEIGHT OF LISTED PROTOTYPES:   97.05%

     STATE:    2
 Group Ref#    Coefficients
     1    1    0.002495
     2    2    0.985419
     3    3    0.000222

WEIGHT OF LISTED PROTOTYPES:   97.11%

     STATE:    3
 Group Ref#    Coefficients
     1    1    0.000054
     2    2    0.000222
     3    3    0.981116

WEIGHT OF LISTED PROTOTYPES:   96.26%

 --------------------------------------------------
 IN DIRECT MAX. DIABATIZATION FOR GMC-QDPT

 DIRECT MAXIMIZATION (DM) WITHOUT TRUNCATING ADIABATS
 EXPANSIONS INTO THE REFERENCE CONFIGURATION SPACE
 --------------------------------------------------

 -------------------------------------------
 - DM DIABT PT HAMILTONIAN MATRIX ELEMENTS -
 -------------------------------------------
                                            
 --- DIABATIC ENERGIES (DIAGONAL ELEMENT) ---       HARTREE            EV
 STATE #  1'S GMC-PT-LEVEL DIABATIC ENERGY=     -55.984333446       0.000000000
 STATE #  2'S GMC-PT-LEVEL DIABATIC ENERGY=     -55.844993558       3.791631481
 STATE #  3'S GMC-PT-LEVEL DIABATIC ENERGY=     -55.744173609       6.535082035

 --- DIABATIC COUPLINGS (OFF DIAGONAL ELEMENTS)---  HATREE            EV
 STATE #  1 &  2'S GMC-PT-LEVEL COUPLING  =      -0.031405888      -0.854597751
 STATE #  1 &  3'S GMC-PT-LEVEL COUPLING  =       0.000075900       0.002065345
 STATE #  2 &  3'S GMC-PT-LEVEL COUPLING  =       0.000184603       0.005023314

 ---------------------------------------
     - ROTATION TO DIABATIC STATES -    
 ---------------------------------------
 ROWS=ADIABATIC, COLUMNS=DIABATIC STATES

             1           2           3

    1   -0.9776641  -0.2101732   0.0004577
    2   -0.2101737   0.9776625  -0.0017490
    3    0.0000798   0.0018061   0.9999984

 ---------------------------------------
          - DIABATIC STATES -           
 ---------------------------------------

 State #    1  Energy =     -55.984333446

      Det      Coef        Coefp    Occupancy (Ignoring core)
      ---      ----        ----    --------- --------- -----
        1    0.967298   -0.967298  222+000
        8   -0.100753    0.100753  2-2+0+0
      393   -0.076344   -0.076344  202+020
        4   -0.071195    0.071195  2-2++00
      386    0.070494   -0.070494  2+2+0-0
      176    0.068681   -0.068681  2+2+-00
      717   -0.064703   -0.064703  220+002
        6    0.049461   -0.049461  22200+0
      708    0.040828   -0.040828  2-++0+-
      402    0.038557   -0.038557  2+-+0-+
      215   -0.035184   -0.035184  022+200
      218    0.033310   -0.033310  +-2+-+0
      390    0.033128   -0.033128  -+2++-0
      705   -0.032890   -0.032890  -2+++0-
      227   -0.032859   -0.032859  +2-+-0+
       76    0.030259    0.030259  2+2-0+0
      212    0.028563    0.028563  +220200
      113   -0.028298    0.028298  +-220+0
        2    0.027978   -0.027978  2220+00
       51   -0.026454    0.026454  22+-00+
      143   -0.026006   -0.026006  220+200
      424   -0.024763   -0.024763  +-2++-0
      184   -0.023300   -0.023300  -+2+-+0
      122    0.023145    0.023145  +2-200+
      387   -0.023074    0.023074  2+20+-0
      702    0.022000    0.022000  22+0+0-
      742   -0.021120   -0.021120  2+-+0+-
      773    0.020783   -0.020783  +2-++0-
      368   -0.020604   -0.020604  2-++0-+
      159    0.020526   -0.020526  -2++-0+
     1051   -0.020005   -0.020005  2+++0--
      106   -0.020001   -0.020001  +222000

 State #    2  Energy =     -55.844993558

      Det      Coef        Coefp    Occupancy (Ignoring core)
      ---      ----        ----    --------- --------- -----
       71   -0.969465    0.969465  2+22000
       74    0.098109   -0.098109  2022+00
       76    0.079432    0.079432  2+2-0+0
      386   -0.067874    0.067874  2+2+0-0
      822    0.062652   -0.062652  2+02002
      106    0.054260    0.054260  +222000
       36    0.046675    0.046675  22+2000
       78    0.045073   -0.045073  20220+0
      813    0.043290   -0.043290  20+20+-
      323   -0.036227    0.036227  +022-+0
      113    0.035139   -0.035139  +-220+0
      320    0.034310    0.034310  0+22200
      810   -0.033202   -0.033202  -++2+0-
      111    0.031987   -0.031987  +22-0+0
      332   -0.031106    0.031106  ++-2-0+
      180   -0.029480    0.029480  -+2+200
      317    0.029108   -0.029108  ++2-200
       38   -0.027926    0.027926  2202+00
      183   -0.027911    0.027911  202+-+0
      177    0.027517   -0.027517  2+20200
       81    0.026831    0.026831  202-++0
      248    0.026558   -0.026558  2+02200
       99   -0.026500    0.026500  20-20++
        6    0.024372   -0.024372  22200+0
      529    0.023023    0.023023  +022+-0
      526   -0.022996   -0.022996  ++220-0
      807   -0.022746    0.022746  2++-+0-
       42   -0.022185    0.022185  22020+0
       87   -0.022043    0.022043  2+-200+
      192   -0.021986    0.021986  2+-+-0+
      751    0.021508   -0.021508  2+20002
      806    0.021466    0.021466  2++200-
      534    0.021195    0.021195  0+22020
      393   -0.021108   -0.021108  202+020
       51    0.020964   -0.020964  22+-00+
      391    0.020567   -0.020567  2+20020

 State #    3  Energy =     -55.744173609

      Det      Coef        Coefp    Occupancy (Ignoring core)
      ---      ----        ----    --------- --------- -----
       36   -0.969279   -0.969279  22+2000
      463    0.078671   -0.078671  20+2020
      246   -0.078504   -0.078504  2++2-00
      456   -0.071560   -0.071560  2++20-0
       43    0.054455    0.054455  2-+20+0
      351   -0.049774   -0.049774  22++0-0
       39    0.048475    0.048475  2-+2+00
       71   -0.046665    0.046665  2+22000
       52    0.046413   -0.046413  220200+
      472   -0.044123   -0.044123  2+020-+
      121   -0.042377    0.042377  +22-00+
      112   -0.037210   -0.037210  +2-20+0
      285    0.035522   -0.035522  02+2200
       41    0.035360   -0.035360  22+-0+0
      460   -0.034679   -0.034679  -++2+-0
      288   -0.032836   -0.032836  +-+2-+0
      297    0.032537   -0.032537  +202-0+
       73    0.030028   -0.030028  2+-2+00
      282    0.029073    0.029073  +2+-200
      145   -0.029018   -0.029018  -2++200
      142    0.027688    0.027688  22+0200
       16   -0.027222    0.027222  222000+
       64    0.026657   -0.026657  2-020++
      457   -0.026195    0.026195  2++-+-0
      148   -0.025880   -0.025880  2-++-+0
      254    0.024941   -0.024941  -++2-+0
      716    0.023492    0.023492  22+0002
      771    0.023473    0.023473  +22+00-
      157    0.023464   -0.023464  220+-0+
      494    0.023142   -0.023142  +-+2+-0
      108   -0.022162   -0.022162  +2-2+00
      281    0.021655   -0.021655  +2+2-00
       86    0.021177    0.021177  2+2-00+
       44    0.020547   -0.020547  -2+20+0
      249    0.020484   -0.020484  20+2200
      461    0.020449   -0.020449  2++-020
       46    0.020412   -0.020412  2-+-++0
      356    0.020340    0.020340  22+0020

 ---------------------------------------
      - DIABATIC STATES IN CMO -        
 ---------------------------------------

 State #    1  Energy =     -55.984333446

      Det      Coef        Coefp    Occupancy (Ignoring core)
      ---      ----        ----    --------- --------- -----
        1    0.948068   -0.948068  222+000
       71    0.242791   -0.242791  2+22000
      393   -0.066833   -0.066833  202+020
      717   -0.062325   -0.062325  220+002
       17   -0.043613   -0.043613  22-+00+
      402   -0.040991    0.040991  2+-+0-+
      179   -0.037731   -0.037731  202+200
      708   -0.034751    0.034751  2-++0+-
        8   -0.034443    0.034443  2-2+0+0
      357   -0.032444   -0.032444  220+020
      215   -0.031695   -0.031695  022+200
      389    0.030928    0.030928  202++-0
        4    0.028797   -0.028797  2-2++00
      106   -0.027516   -0.027516  +222000
      390    0.026783   -0.026783  -+2++-0
      227    0.026413    0.026413  +2-+-0+
      183   -0.026203    0.026203  202+-+0
      705    0.025796    0.025796  -2+++0-
       51    0.025271   -0.025271  22+-00+
      742    0.025075    0.025075  2+-+0+-
      113   -0.024432    0.024432  +-220+0
       76    0.024118    0.024118  2+2-0+0
      214    0.024066    0.024066  +-2+200
      122   -0.024042   -0.024042  +2-200+
        6    0.022715   -0.022715  22200+0
      218    0.021336   -0.021336  +-2+-+0
        2    0.021281   -0.021281  2220+00
      387   -0.020487    0.020487  2+20+-0
      706   -0.020480   -0.020480  22+00+-
      366    0.020167   -0.020167  22+00-+

 State #    2  Energy =     -55.844993558

      Det      Coef        Coefp    Occupancy (Ignoring core)
      ---      ----        ----    --------- --------- -----
       71   -0.952891    0.952891  2+22000
        1    0.244384   -0.244384  222+000
      822    0.062225   -0.062225  2+02002
      113    0.040894   -0.040894  +-220+0
      813   -0.037803    0.037803  20+20+-
      462    0.034810   -0.034810  2+02020
      320    0.032083    0.032083  0+22200
      183   -0.030406    0.030406  202+-+0
       74    0.029979   -0.029979  2022+00
       42   -0.028635    0.028635  22020+0
      177    0.028166   -0.028166  2+20200
        6    0.028151   -0.028151  22200+0
      810    0.025892    0.025892  -++2+0-
      332    0.025827   -0.025827  ++-2-0+
      180   -0.022920    0.022920  -+2+200
      811    0.022662   -0.022662  2++-0+-
      751    0.022274   -0.022274  2+20002
      323   -0.021896    0.021896  +022-+0
       99    0.021681   -0.021681  20-20++
      534    0.021535    0.021535  0+22020
      319   -0.021089   -0.021089  +022200
       79   -0.021050   -0.021050  -+220+0
      111    0.020298   -0.020298  +22-0+0
      192    0.020098   -0.020098  2+-+-0+
      179   -0.020067   -0.020067  202+200

 State #    3  Energy =     -55.744173609

      Det      Coef        Coefp    Occupancy (Ignoring core)
      ---      ----        ----    --------- --------- -----
       36   -0.981145   -0.981145  22+2000
      463    0.067113   -0.067113  20+2020
      121    0.044130   -0.044130  +22-00+
      249    0.042841   -0.042841  20+2200
      112   -0.041828   -0.041828  +2-20+0
      472    0.036851    0.036851  2+020-+
      253    0.033424    0.033424  20+2-+0
      285    0.031879   -0.031879  02+2200
      459   -0.030888    0.030888  20+2+-0
       86   -0.030296   -0.030296  2+2-00+
        7    0.028289    0.028289  22-+0+0
       41   -0.027658    0.027658  22+-0+0
      297   -0.026375    0.026375  +202-0+
      716    0.025862    0.025862  22+0002
      771   -0.025153   -0.025153  +22+00-
       77    0.024911   -0.024911  2+-20+0
      284   -0.024885    0.024885  +-+2200
      356    0.024793    0.024793  22+0020
      250    0.024147    0.024147  -++2200
      460   -0.023555   -0.023555  -++2+-0
      142    0.023428    0.023428  22+0200
      367   -0.022963    0.022963  220+0-+
      288   -0.022489   -0.022489  +-+2-+0
      491    0.021907   -0.021907  +2+20-0
      499    0.021746   -0.021746  02+2020
       39   -0.021081   -0.021081  2-+2+00
      148   -0.020391   -0.020391  2-++-+0
       64   -0.020348    0.020348  2-020++
      457   -0.020238    0.020238  2++-+-0
      498    0.020213   -0.020213  +-+2020

 ---------------------------------------
    -DIABATIC STATES IN PROTOTYPES-     
 ---------------------------------------

     STATE:    1
 Group Ref#    Coefficients
     1    1    0.985149
     2    2    0.002495
     3    3    0.000054

WEIGHT OF LISTED PROTOTYPES:   97.05%

     STATE:    2
 Group Ref#    Coefficients
     1    1    0.002494
     2    2    0.985419
     3    3    0.000221

WEIGHT OF LISTED PROTOTYPES:   97.11%

     STATE:    3
 Group Ref#    Coefficients
     1    1    0.000055
     2    2    0.000222
     3    3    0.981116

WEIGHT OF LISTED PROTOTYPES:   96.26%

     DIRECT MAX. DIABATIZATION FINISHED    
 CPU     0: STEP CPU TIME=     0.25 TOTAL CPU TIME=         10.9 (      0.2 MIN)
 TOTAL WALL CLOCK TIME=         10.9 SECONDS, CPU UTILIZATION IS    99.82%

DIABATS FOR SPIN-ORBIT CALCULATION ARE READY

TRANSITION DIPOLES BETWEEN ADIABATS (in A.U.):

STATE PAIR      X         Y         Z
    1    1  0.204448  0.000000  0.745411
    2    1  0.024835  0.000000  0.111971
    2    2  0.110781 -0.000000  0.274499
    3    1 -0.000000 -0.084951  0.000000
    3    2 -0.000000  0.276977  0.000000
    3    3  0.438510  0.000000  0.266981


TRANSITION DIPOLES BETWEEN DIABATS (in A.U.):

STATE PAIR      X         Y         Z
    1    1  0.210516  0.000004  0.770625
    2    1 -0.003394  0.000068 -0.005316
    2    2  0.104713  0.001043  0.249285
    3    1  0.000024  0.024840 -0.000031
    3    2  0.000603  0.288643  0.000032
    3    3  0.438509 -0.001047  0.266981

TRANSITION DIPOLES BETWEEN DIRECT MAX. DIABATS (in A.U.):

STATE PAIR      X         Y         Z
    1    1  0.210516  0.000004  0.770625
    2    1 -0.003394  0.000068 -0.005316
    2    2  0.104713  0.001043  0.249285
    3    1  0.000024  0.024840 -0.000031
    3    2  0.000603  0.288643  0.000032
    3    3  0.438509 -0.001047  0.266981
 No $TRANST Group Found.
 Quit without doing spin-orbit coupling
 ..... DONE WITH MP2 ENERGY .....
 CPU     0: STEP CPU TIME=     0.00 TOTAL CPU TIME=         10.9 (      0.2 MIN)
 TOTAL WALL CLOCK TIME=         10.9 SECONDS, CPU UTILIZATION IS    99.82%
            100000000  WORDS OF DYNAMIC MEMORY USED
 EXECUTION OF GAMESS TERMINATED NORMALLY Wed Nov 16 19:24:57 2022
 DDI: 715512 bytes (0.7 MB / 0 MWords) used by master data server.

 ----------------------------------------
 CPU timing information for all processes
 ========================================
 0: 10.609 + 0.323 = 10.933
 ----------------------------------------
Note: The following floating-point exceptions are signalling: IEEE_DENORMAL
 ddikick.x: exited gracefully.
unset echo
----- accounting info -----
Files used on the master node io002 were:
-rw-r--r-- 1 bsonghao nooijen   20733 Nov 16 19:24 /scratch/bsonghao/nh3_diabatization_2d_at_mode_7_8_dist0.0_0.4.F05
-rw-r--r-- 1 bsonghao nooijen  363520 Nov 16 19:24 /scratch/bsonghao/nh3_diabatization_2d_at_mode_7_8_dist0.0_0.4.F09
-rw-r--r-- 1 bsonghao nooijen 1995920 Nov 16 19:24 /scratch/bsonghao/nh3_diabatization_2d_at_mode_7_8_dist0.0_0.4.F10
-rw-r--r-- 1 bsonghao nooijen  105064 Nov 16 19:24 /scratch/bsonghao/nh3_diabatization_2d_at_mode_7_8_dist0.0_0.4.F13
-rw-r--r-- 1 bsonghao nooijen  180312 Nov 16 19:24 /scratch/bsonghao/nh3_diabatization_2d_at_mode_7_8_dist0.0_0.4.F15
-rw-r--r-- 1 bsonghao nooijen       0 Nov 16 19:24 /scratch/bsonghao/nh3_diabatization_2d_at_mode_7_8_dist0.0_0.4.F16
-rw-r--r-- 1 bsonghao nooijen    9808 Nov 16 19:24 /scratch/bsonghao/nh3_diabatization_2d_at_mode_7_8_dist0.0_0.4.F70
-rw-r--r-- 1 bsonghao nooijen    9808 Nov 16 19:24 /scratch/bsonghao/nh3_diabatization_2d_at_mode_7_8_dist0.0_0.4.F71
-rw-r--r-- 1 bsonghao nooijen   19608 Nov 16 19:24 /scratch/bsonghao/nh3_diabatization_2d_at_mode_7_8_dist0.0_0.4.F72
-rw-r--r-- 1 bsonghao nooijen   19608 Nov 16 19:24 /scratch/bsonghao/nh3_diabatization_2d_at_mode_7_8_dist0.0_0.4.F73
-rw-r--r-- 1 bsonghao nooijen 1920824 Nov 16 19:24 /scratch/bsonghao/nh3_diabatization_2d_at_mode_7_8_dist0.0_0.4.F74
-rw-r--r-- 1 bsonghao nooijen       0 Nov 16 19:24 /scratch/bsonghao/nh3_diabatization_2d_at_mode_7_8_dist0.0_0.4.F75
-rw-r--r-- 1 bsonghao nooijen   58848 Nov 16 19:24 /scratch/bsonghao/nh3_diabatization_2d_at_mode_7_8_dist0.0_0.4.F76
-rw-r--r-- 1 bsonghao nooijen       0 Nov 16 19:24 /scratch/bsonghao/nh3_diabatization_2d_at_mode_7_8_dist0.0_0.4.F77
-rw-r--r-- 1 bsonghao nooijen    1864 Nov 16 19:24 /scratch/bsonghao/nh3_diabatization_2d_at_mode_7_8_dist0.0_0.4.F78
-rw-r--r-- 1 bsonghao nooijen   39208 Nov 16 19:24 /scratch/bsonghao/nh3_diabatization_2d_at_mode_7_8_dist0.0_0.4.F79
-rw-r--r-- 1 bsonghao nooijen     104 Nov 16 19:24 /scratch/bsonghao/nh3_diabatization_2d_at_mode_7_8_dist0.0_0.4.F80
-rw-r--r-- 1 bsonghao nooijen   13472 Nov 16 19:24 /scratch/bsonghao/nh3_diabatization_2d_at_mode_7_8_dist0.0_0.4.F81
-rw-r--r-- 1 bsonghao nooijen      16 Nov 16 19:24 /scratch/bsonghao/nh3_diabatization_2d_at_mode_7_8_dist0.0_0.4.F82
-rw-r--r-- 1 bsonghao nooijen   19216 Nov 16 19:24 /scratch/bsonghao/nh3_diabatization_2d_at_mode_7_8_dist0.0_0.4.F83
-rw-r--r-- 1 bsonghao nooijen   29712 Nov 16 19:24 /scratch/bsonghao/nh3_diabatization_2d_at_mode_7_8_dist0.0_0.4.F84
-rw-r--r-- 1 bsonghao nooijen  295304 Nov 16 19:24 /scratch/bsonghao/nh3_diabatization_2d_at_mode_7_8_dist0.0_0.4.F85
-rw-r--r-- 1 bsonghao nooijen  562040 Nov 16 19:24 /scratch/bsonghao/nh3_diabatization_2d_at_mode_7_8_dist0.0_0.4.F86
-rw-r--r-- 1 bsonghao nooijen     656 Nov 16 19:24 /scratch/bsonghao/nh3_diabatization_2d_at_mode_7_8_dist0.0_0.4.F87
-rw-r--r-- 1 bsonghao nooijen   23440 Nov 16 19:24 /scratch/bsonghao/nh3_diabatization_2d_at_mode_7_8_dist0.0_0.4.F88
-rw-r--r-- 1 bsonghao nooijen     240 Nov 16 19:24 /scratch/bsonghao/nh3_diabatization_2d_at_mode_7_8_dist0.0_0.4.F89
-rw-r--r-- 1 bsonghao nooijen       0 Nov 16 19:24 /scratch/bsonghao/nh3_diabatization_2d_at_mode_7_8_dist0.0_0.4.F90
-rw-r--r-- 1 bsonghao nooijen   13760 Nov 16 19:24 /scratch/bsonghao/nh3_diabatization_2d_at_mode_7_8_dist0.0_0.4.F91
-rw-r--r-- 1 bsonghao nooijen   22776 Nov 16 19:24 /scratch/bsonghao/nh3_diabatization_2d_at_mode_7_8_dist0.0_0.4.F92
-rw-r--r-- 1 bsonghao nooijen   23168 Nov 16 19:24 /scratch/bsonghao/nh3_diabatization_2d_at_mode_7_8_dist0.0_0.4.F93
-rw-r--r-- 1 bsonghao nooijen   22776 Nov 16 19:24 /scratch/bsonghao/nh3_diabatization_2d_at_mode_7_8_dist0.0_0.4.F94
-rw-r--r-- 1 bsonghao nooijen   13760 Nov 16 19:24 /scratch/bsonghao/nh3_diabatization_2d_at_mode_7_8_dist0.0_0.4.F95
-rw-r--r-- 1 bsonghao nooijen   29440 Nov 16 19:24 /scratch/bsonghao/nh3_diabatization_2d_at_mode_7_8_dist0.0_0.4.F96
-rw-r--r-- 1 bsonghao nooijen    1184 Nov 16 19:24 /scratch/bsonghao/nh3_diabatization_2d_at_mode_7_8_dist0.0_0.4.F97
-rw-r--r-- 1 bsonghao nooijen    9808 Nov 16 19:24 /scratch/bsonghao/nh3_diabatization_2d_at_mode_7_8_dist0.0_0.4.F98
-rw-r--r-- 1 bsonghao nooijen   30264 Nov 16 19:24 /scratch/bsonghao/nh3_diabatization_2d_at_mode_7_8_dist0.0_0.4.F99
ls: No match.
ls: No match.
ls: No match.
Wed 16 Nov 2022 07:25:00 PM EST
0.283u 0.045s 0:14.30 2.2%	0+0k 48+232io 0pf+0w
