----- GAMESS execution script 'rungms' -----
This job is running on host io002
under operating system Linux at Wed 16 Nov 2022 06:20:56 PM EST
Available scratch disk space (Kbyte units) at beginning of the job is
Filesystem       1K-blocks       Used   Available Use% Mounted on
/dev/sdc1      15378471580 3278917120 11318349060  23% /scratch
GAMESS temporary binary files will be written to /scratch/bsonghao
GAMESS supplementary output files will be written to /home/bsonghao/.gamess_ascii_files/267638
Copying input file nh3_diabatization_2d_at_mode_7_8_dist-0.8_0.1.inp to your run's scratch directory...
cp nh3_diabatization_2d_at_mode_7_8_dist-0.8_0.1.inp /scratch/bsonghao/nh3_diabatization_2d_at_mode_7_8_dist-0.8_0.1.F05
unset echo
/home/bjb2chen/gamess/ddikick.x /home/bjb2chen/gamess/gamess.00.x nh3_diabatization_2d_at_mode_7_8_dist-0.8_0.1 -ddi 1 1 io002 -scr /scratch/bsonghao

 Distributed Data Interface kickoff program.
 Initiating 1 compute processes on 1 nodes to run the following command:
 /home/bjb2chen/gamess/gamess.00.x nh3_diabatization_2d_at_mode_7_8_dist-0.8_0.1 

          ******************************************************
          *         GAMESS VERSION = 02 AUG 2018 (R2)         *
          *             FROM IOWA STATE UNIVERSITY             *
          * M.W.SCHMIDT, K.K.BALDRIDGE, J.A.BOATZ, S.T.ELBERT, *
          *   M.S.GORDON, J.H.JENSEN, S.KOSEKI, N.MATSUNAGA,   *
          *          K.A.NGUYEN, S.J.SU, T.L.WINDUS,           *
          *       TOGETHER WITH M.DUPUIS, J.A.MONTGOMERY       *
          *         J.COMPUT.CHEM.  14, 1347-1363(1993)        *
          **************** 64 BIT LINUX VERSION ****************

  SINCE 1993, STUDENTS AND POSTDOCS WORKING AT IOWA STATE UNIVERSITY
  AND ALSO IN THEIR VARIOUS JOBS AFTER LEAVING ISU HAVE MADE IMPORTANT
  CONTRIBUTIONS TO THE CODE:
     IVANA ADAMOVIC, CHRISTINE AIKENS, YURI ALEXEEV, POOJA ARORA,
     ANDREY ASADCHEV, ROB BELL, PRADIPTA BANDYOPADHYAY, JONATHAN BENTZ,
     BRETT BODE, KURT BRORSEN, CALEB CARLIN, GALINA CHABAN, WEI CHEN,
     CHEOL HO CHOI, PAUL DAY, ALBERT DEFUSCO, NUWAN DESILVA, TIM DUDLEY,
     DMITRI FEDOROV, ALEX FINDLATER, GRAHAM FLETCHER, MARK FREITAG,
     KURT GLAESEMANN, ANASTASIA GUININA,
     DAN KEMP, GRANT MERRILL, NORIYUKI MINEZAWA, JONATHAN MULLIN,
     TAKESHI NAGATA, SEAN NEDD, HEATHER NETZLOFF, BOSILJKA NJEGIC, RYAN OLSON,
     MIKE PAK, BUU PHAM,
     SPENCER PRUITT, LUKE ROSKOP, JIM SHOEMAKER, LYUDMILA SLIPCHENKO,
     TONY SMITH, SAROM SOK LEANG, JIE SONG, TETSUYA TAKETSUGU, SIMON WEBB,
     PENG XU, SOOHAENG YOO, FEDERICO ZAHARIEV

  ADDITIONAL CODE HAS BEEN PROVIDED BY COLLABORATORS IN OTHER GROUPS:
     IOWA STATE UNIVERSITY:
          JOE IVANIC, AARON WEST, LAIMUTIS BYTAUTAS, KLAUS RUEDENBERG
     UNIVERSITY OF TOKYO: KIMIHIKO HIRAO, TAKAHITO NAKAJIMA,
          TAKAO TSUNEDA, MUNEAKI KAMIYA, SUSUMU YANAGISAWA,
          KIYOSHI YAGI, MAHITO CHIBA, SEIKEN TOKURA, NAOAKI KAWAKAMI
     UNIVERSITY OF AARHUS: FRANK JENSEN
     UNIVERSITY OF IOWA: VISVALDAS KAIRYS, HUI LI
     NATIONAL INST. OF STANDARDS AND TECHNOLOGY: WALT STEVENS, DAVID GARMER
     UNIVERSITY OF PISA: BENEDETTA MENNUCCI, JACOPO TOMASI
     UNIVERSITY OF MEMPHIS: HENRY KURTZ, PRAKASHAN KORAMBATH
     UNIVERSITY OF ALBERTA: TOBY ZENG, MARIUSZ KLOBUKOWSKI
     UNIVERSITY OF NEW ENGLAND: MARK SPACKMAN
     MIE UNIVERSITY: HIROAKI UMEDA
     NAT. INST. OF ADVANCED INDUSTRIAL SCIENCE AND TECHNOLOGY: KAZUO KITAURA
     MICHIGAN STATE UNIVERSITY:
          KAROL KOWALSKI, MARTA WLOCH, JEFFREY GOUR, JESSE LUTZ,
          WEI LI, JUN SHEN, J. EMILIANO DEUSTUA, PIOTR PIECUCH
     UNIVERSITY OF MINNESOTA:
          YINAN SHU
     UNIVERSITY OF SILESIA: MONIKA MUSIAL, STANISLAW KUCHARSKI
     FACULTES UNIVERSITAIRES NOTRE-DAME DE LA PAIX:
          OLIVIER QUINET, BENOIT CHAMPAGNE
     UNIVERSITY OF CALIFORNIA - SANTA BARBARA: BERNARD KIRTMAN
     INSTITUTE FOR MOLECULAR SCIENCE:
          KAZUYA ISHIMURA, MICHIO KATOUDA, AND SHIGERU NAGASE
     UNIVERSITY OF NOTRE DAME: ANNA POMOGAEVA, DAN CHIPMAN
     KYUSHU UNIVERSITY:
          HARUYUKI NAKANO,
          FENG LONG GU, JACEK KORCHOWIEC, MARCIN MAKOWSKI, AND YURIKO AOKI,
          HIROTOSHI MORI AND EISAKU MIYOSHI
     PENNSYLVANIA STATE UNIVERSITY:
          TZVETELIN IORDANOV, CHET SWALINA, JONATHAN SKONE,
          SHARON HAMMES-SCHIFFER
     WASEDA UNIVERSITY:
          MASATO KOBAYASHI, TOMOKO AKAMA, TSUGUKI TOUMA,
          TAKESHI YOSHIKAWA, YASUHIRO IKABATA, JUNJI SEINO,
          YUYA NAKAJIMA, HIROMI NAKAI
     NANJING UNIVERSITY: SHUHUA LI
     UNIVERSITY OF NEBRASKA:
          PEIFENG SU, DEJUN SI, NANDUN THELLAMUREGE, YALI WANG, HUI LI
     UNIVERSITY OF ZURICH: ROBERTO PEVERATI, KIM BALDRIDGE
     N. COPERNICUS UNIVERSITY AND JACKSON STATE UNIVERSITY:
          MARIA BARYSZ
     UNIVERSITY OF COPENHAGEN: Jimmy Kromann, CASPER STEINMANN
     TOKYO INSTITUTE OF TECHNOLOGY: HIROYA NAKATA
     NAGOYA UNIVERSITY: YOSHIO NISHIMOTO, STEPHAN IRLE
     MOSCOW STATE UNIVERSITY: VLADIMIR MIRONOV

 EXECUTION OF GAMESS BEGUN Wed Nov 16 18:20:57 2022

            ECHO OF THE FIRST FEW INPUT CARDS -
 INPUT CARD> $system kdiag=3 mwords=100 memddi=1000 parall=.t. $end                         
 INPUT CARD> $contrl runtyp=energy ispher=1 $end                                            
 INPUT CARD> $contrl icut=9 itol=20 inttyp=rysquad qmttol=1.0d-05 nosym=1 $end              
 INPUT CARD> $scf    npunch=2 conv=1.0d-06 dirscf=.t.      $end                             
 INPUT CARD> $contrl scftyp=mcscf  mult=2 maxit=200 icharg=1 mplevl=2 $end                  
 INPUT CARD> $guess  guess=moread norb=29 purify=.t. $end                                   
 INPUT CARD> $basis  gbasis=ccd $end                                                        
 INPUT CARD> $mcscf  cistep=gmcci fullnr=.t. finci=mos                                      
 INPUT CARD>         acurcy=1.d-6 maxit=100 $end                                            
 INPUT CARD> $trans  dirtrf=.t. $end                                                        
 INPUT CARD> $mrmp   mrpt=gmcpt rdvecs=.f. $end                                             
 INPUT CARD> $gmcpt  nmofzc=0 nmodoc=1 nmoact=7 nelact=7 stsym(1)=A                         
 INPUT CARD>         reftyp=ormas nspace=1 mstart(1)=2 mine(1)=7 maxe(1)=7                  
 INPUT CARD>         kstate(1)=1,1,1                                                        
 INPUT CARD>         wstate(1)=1,1,1                                                        
 INPUT CARD>         iwgt=0 thrwgt=-1.0 krot=.f. kszdoe=.f. knospn=.f.                      
 INPUT CARD>         thrde=-1.0 edshft=0.02 $end                                            
 INPUT CARD> $data                                                                          
 INPUT CARD> NH3+ 3 states calculation at NH3 structure.                                    
 INPUT CARD> c1                                                                             
 INPUT CARD>N 7.0 -0.006228917999999998 0.04983122400000001 -0.1693807382                   
 INPUT CARD>H 1.0 -0.720114761 0.7898743748 0.0603758871                                    
 INPUT CARD>H 1.0 -0.108712227 -0.8984901338 0.4261476851                                   
 INPUT CARD>H 1.0 0.915379498 -0.5838059499999999 0.2828579391                              
 INPUT CARD>$end                                                                            
 INPUT CARD>--- OPTIMIZED RHF      MO-S --- GENERATED AT Mon Nov 14 16:47:08 2022           
 INPUT CARD>E=      -56.3825050291, E(NUC)=   11.8429239490                                 
 INPUT CARD> $VEC                                                                           
 INPUT CARD> 1  1-1.00134066E+00-2.25158504E-03 3.44925845E-03 0.00000000E+00 0.00000000E+00
 INPUT CARD> 1  2-2.13170927E-03 0.00000000E+00 0.00000000E+00 6.57129898E-04-6.87950443E-05
 INPUT CARD> 1  3-6.87950443E-05 1.37590089E-04 0.00000000E+00 0.00000000E+00 0.00000000E+00
 INPUT CARD> 1  4 3.25502815E-04-4.84772356E-04 3.62525460E-04-6.27912517E-04-3.45956485E-04
 INPUT CARD> 1  5 3.25502815E-04-4.84772356E-04 3.62525460E-04 6.27912517E-04-3.45956485E-04
 INPUT CARD> 1  6 3.25502815E-04-4.84772356E-04-7.25050921E-04 0.00000000E+00-3.45956485E-04
 INPUT CARD> 2  1 1.31286642E-02-4.05911371E-01-2.82090992E-01 0.00000000E+00 0.00000000E+00
 INPUT CARD> 2  2-7.71489043E-02 0.00000000E+00 0.00000000E+00 9.73717494E-03 6.62450916E-04
 INPUT CARD> 2  3 6.62450916E-04-1.32490183E-03 0.00000000E+00 0.00000000E+00 0.00000000E+00
 INPUT CARD> 2  4-1.96090317E-01-1.96656153E-02-1.74855877E-02 3.02859263E-02 8.68214399E-03
 INPUT CARD> 2  5-1.96090317E-01-1.96656153E-02-1.74855877E-02-3.02859263E-02 8.68214399E-03
 INPUT CARD> 2  6-1.96090317E-01-1.96656153E-02 3.49711754E-02 0.00000000E+00 8.68214399E-03
 INPUT CARD> 3  1 0.00000000E+00 0.00000000E+00 0.00000000E+00 4.48608762E-01 0.00000000E+00
 INPUT CARD> 3  2 0.00000000E+00 2.18692520E-01 0.00000000E+00 0.00000000E+00 1.30198027E-02
 INPUT CARD> 3  3-1.30198027E-02 0.00000000E+00 0.00000000E+00 2.71832968E-02 0.00000000E+00
 INPUT CARD> 3  4-1.85332726E-01-7.03958951E-02 8.47929477E-03 1.95242443E-02 8.32835058E-03
 INPUT CARD> 3  5-1.85332726E-01-7.03958951E-02 8.47929477E-03-1.95242443E-02 8.32835058E-03
 INPUT CARD> 3  6 3.70665453E-01 1.40791790E-01-2.53376884E-02 0.00000000E+00-1.66567012E-02
 INPUT CARD> 4  1 0.00000000E+00 0.00000000E+00 0.00000000E+00 0.00000000E+00 4.48608762E-01
 INPUT CARD> 4  2 0.00000000E+00 0.00000000E+00 2.18692520E-01 0.00000000E+00 0.00000000E+00
 INPUT CARD> 4  3 0.00000000E+00 0.00000000E+00-1.50339731E-02 0.00000000E+00 2.71832968E-02
 INPUT CARD> 4  4 3.21005698E-01 1.21929267E-01 1.95242443E-02-1.40653607E-02-1.44251263E-02
  100000000 WORDS OF MEMORY AVAILABLE

     BASIS OPTIONS
     -------------
     GBASIS=CCD          IGAUSS=       0      POLAR=NONE    
     NDFUNC=       0     NFFUNC=       0     DIFFSP=       F
     NPFUNC=       0      DIFFS=       F     BASNAM=        


     RUN TITLE
     ---------
  NH3+ 3 states calculation at NH3 structure.                                    

 THE POINT GROUP OF THE MOLECULE IS C1      
 THE ORDER OF THE PRINCIPAL AXIS IS     0

 ATOM      ATOMIC                      COORDINATES (BOHR)
           CHARGE         X                   Y                   Z
 N           7.0    -0.0117709482        0.0941673590       -0.3200831828
 H           1.0    -1.3608195780        1.4926461331        0.1140938829
 H           1.0    -0.2054363205       -1.6979001556        0.8053023551
 H           1.0     1.7298164260       -1.1032332755        0.5345239984

          INTERNUCLEAR DISTANCES (ANGS.)
          ------------------------------

                1 N          2 H          3 H          4 H     

   1 N       0.0000000    1.0536057 *  1.1244867 *  1.2063905 *
   2 H       1.0536057 *  0.0000000    1.8325329 *  2.1474025 *
   3 H       1.1244867 *  1.8325329 *  0.0000000    1.0808894 *
   4 H       1.2063905 *  2.1474025 *  1.0808894 *  0.0000000  

  * ... LESS THAN  3.000


     ATOMIC BASIS SET
     ----------------
 THE CONTRACTED PRIMITIVE FUNCTIONS HAVE BEEN UNNORMALIZED
 THE CONTRACTED BASIS FUNCTIONS ARE NOW NORMALIZED TO UNITY

  SHELL TYPE  PRIMITIVE        EXPONENT          CONTRACTION COEFFICIENT(S)

 N         

      1   S       1          9046.0000000    0.000699617413
      1   S       2          1357.0000000    0.005386054630
      1   S       3           309.3000000    0.027391021189
      1   S       4            87.7300000    0.103150591982
      1   S       5            28.5600000    0.278570663317
      1   S       6            10.2100000    0.448294849454
      1   S       7             3.8380000    0.278085928395
      1   S       8             0.7466000    0.015431561233

      2   S       9          9046.0000000   -0.000304990096
      2   S      10          1357.0000000   -0.002408026379
      2   S      11           309.3000000   -0.011944448725
      2   S      12            87.7300000   -0.048925992909
      2   S      13            28.5600000   -0.134472724725
      2   S      14            10.2100000   -0.315112577700
      2   S      15             3.8380000   -0.242857832550
      2   S      16             0.7466000    1.094382206854

      3   S      17             0.2248000    1.000000000000

      4   P      18            13.5500000    0.058905676772
      4   P      19             2.9170000    0.320461106714
      4   P      20             0.7973000    0.753042061792

      5   P      21             0.2185000    1.000000000000

      6   D      22             0.8170000    1.000000000000

 H         

      7   S      23            13.0100000    0.033498726390
      7   S      24             1.9620000    0.234800801174
      7   S      25             0.4446000    0.813682957883

      8   S      26             0.1220000    1.000000000000

      9   P      27             0.7270000    1.000000000000

 H         

     10   S      28            13.0100000    0.033498726390
     10   S      29             1.9620000    0.234800801174
     10   S      30             0.4446000    0.813682957883

     11   S      31             0.1220000    1.000000000000

     12   P      32             0.7270000    1.000000000000

 H         

     13   S      33            13.0100000    0.033498726390
     13   S      34             1.9620000    0.234800801174
     13   S      35             0.4446000    0.813682957883

     14   S      36             0.1220000    1.000000000000

     15   P      37             0.7270000    1.000000000000

 TOTAL NUMBER OF BASIS SET SHELLS             =   15
 NUMBER OF CARTESIAN GAUSSIAN BASIS FUNCTIONS =   30
 NOTE: THIS RUN WILL RESTRICT THE MO VARIATION SPACE TO SPHERICAL HARMONICS.
 THE NUMBER OF ORBITALS KEPT IN THE VARIATIONAL SPACE WILL BE PRINTED LATER.
 NUMBER OF ELECTRONS                          =    9
 CHARGE OF MOLECULE                           =    1
 SPIN MULTIPLICITY                            =    2
 NUMBER OF OCCUPIED ORBITALS (ALPHA)          =    5
 NUMBER OF OCCUPIED ORBITALS (BETA )          =    4
 TOTAL NUMBER OF ATOMS                        =    4
 THE NUCLEAR REPULSION ENERGY IS       10.9052228586

     $CONTRL OPTIONS
     ---------------
 SCFTYP=MCSCF        RUNTYP=ENERGY       EXETYP=RUN     
 MPLEVL=       2     CITYP =NONE         CCTYP =NONE         VBTYP =NONE    
 DFTTYP=NONE         TDDFT =NONE    
 MULT  =       2     ICHARG=       1     NZVAR =       0     COORD =UNIQUE  
 PP    =NONE         RELWFN=NONE         LOCAL =NONE         NUMGRD=       F
 ISPHER=       1     NOSYM =       1     MAXIT =     200     UNITS =ANGS    
 PLTORB=       F     MOLPLT=       F     AIMPAC=       F     FRIEND=        
 NPRINT=       7     IREST =       0     GEOM  =INPUT   
 NORMF =       0     NORMP =       0     ITOL  =      20     ICUT  =       9
 INTTYP=RYSQUAD      GRDTYP=BEST         QMTTOL= 1.0E-05

     $SYSTEM OPTIONS
     ---------------
  REPLICATED MEMORY=   100000000 WORDS (ON EVERY NODE).
 DISTRIBUTED MEMDDI=        1000 MILLION WORDS IN AGGREGATE,
 MEMDDI DISTRIBUTED OVER   1 PROCESSORS IS  1000000000 WORDS/PROCESSOR.
 TOTAL MEMORY REQUESTED ON EACH PROCESSOR=  1100000000 WORDS.
 TIMLIM=      525600.00 MINUTES, OR     365.0 DAYS.
 PARALL= T  BALTYP=  DLB     KDIAG=    3  COREFL= F
 MXSEQ2=     300 MXSEQ3=     150  mem10=         0

          ----------------
          PROPERTIES INPUT
          ----------------

     MOMENTS            FIELD           POTENTIAL          DENSITY
 IEMOM =       1   IEFLD =       0   IEPOT =       0   IEDEN =       0
 WHERE =COMASS     WHERE =NUCLEI     WHERE =NUCLEI     WHERE =NUCLEI  
 OUTPUT=BOTH       OUTPUT=BOTH       OUTPUT=BOTH       OUTPUT=BOTH    
 IEMINT=       0   IEFINT=       0                     IEDINT=       0
                                                       MORB  =       0

     -------------------------------
     INTEGRAL TRANSFORMATION OPTIONS
     -------------------------------
     NWORD  =            0
     CUTOFF = 1.0E-09     MPTRAN =       0
     DIRTRF =       T     AOINTS =DUP     

          ----------------------
          MCSCF INPUT PARAMETERS
          ----------------------
 CONVERGER SELECTION: FOCAS = F  SOSCF = F  FULLNR = T  QUD = F  JACOBI = F
 SECULAR EQUATION METHOD CISTEP = GMCCI   
 --- GENERAL INPUT OPTIONS:
 MAXIT =     100  MICIT =       1  ACURCY= 1.000E-06
 DAMP  =   0.000  CANONC=       T  ENGTOL= 1.000E-10
 EKT   =       F  NPUNCH=       2  NWORD =         0
 REGENERATE CI AFTER CONVERGENCE = NONE    
 DIABATIZATION AFTER CONVERGENCE =        F
 --- INPUT FOR FULLNR CONVERGER:
 METHOD=DM2       FORS  =       F  DROPC =       T
 LINSER=       F  FCORE =       F  NORB  =      30

          ----------------------
          INTEGRAL INPUT OPTIONS
          ----------------------
 NOPK  =       1 NORDER=       0 SCHWRZ=       T

 ------------------------------------------
 MULTIREFERENCE PERTURBATION THEORY CONTROL
 ------------------------------------------
 MRPT=GMCPT    READ CONVERGED MCSCF VECTORS= F


     ------------------------------------------
     THE POINT GROUP IS C1 , NAXIS= 1, ORDER= 1
     ------------------------------------------

 -- VARIATIONAL SPACE WILL BE RESTRICTED TO PURE SPHERICAL HARMONICS ONLY --
 AFTER EXCLUDING CONTAMINANT COMBINATIONS FROM THE CARTESIAN GAUSSIAN BASIS
 SET, THE NUMBER OF SPHERICAL HARMONICS KEPT IN THE VARIATION SPACE IS   29

     DIMENSIONS OF THE SYMMETRY SUBSPACES ARE
 A   =   29

 ..... DONE SETTING UP THE RUN .....
 CPU     0: STEP CPU TIME=     0.03 TOTAL CPU TIME=          0.0 (      0.0 MIN)
 TOTAL WALL CLOCK TIME=          0.0 SECONDS, CPU UTILIZATION IS    75.00%

          ********************
          1 ELECTRON INTEGRALS
          ********************
 TIME TO DO   DIPOLE INTEGRALS=      0.01
 ...... END OF ONE-ELECTRON INTEGRALS ......
 CPU     0: STEP CPU TIME=     0.01 TOTAL CPU TIME=          0.0 (      0.0 MIN)
 TOTAL WALL CLOCK TIME=          0.0 SECONDS, CPU UTILIZATION IS   100.00%

          -------------
          GUESS OPTIONS
          -------------
          GUESS =MOREAD            NORB  =      29          NORDER=       0
          MIX   =       F          PRTMO =       F          PUNMO =       F
          TOLZ  = 1.0E-08          TOLE  = 1.0E-05
          SYMDEN=       F          PURIFY=       T

 INITIAL GUESS ORBITALS GENERATED BY MOREAD   ROUTINE.

 STATISTICS FOR GENERATION OF SYMMETRY ORBITAL -Q- MATRIX
 NUMBER OF CARTESIAN ATOMIC ORBITALS=         30
 NUMBER OF SPHERICAL CONTAMINANTS DROPPED=     1
 NUMBER OF LINEARLY DEPENDENT MOS DROPPED=     0
 TOTAL NUMBER OF MOS IN VARIATION SPACE=      29
 ORBITAL PURIFICATION WILL OCCUR

 SYMMETRIES FOR INITIAL GUESS ORBITALS FOLLOW.   BOTH SET(S).
     5 ORBITALS ARE OCCUPIED (    1 CORE ORBITALS).
     1=A        2=A        3=A        4=A        5=A        6=A        7=A   
     8=A        9=A       10=A       11=A       12=A       13=A       14=A   
    15=A       16=A       17=A       18=A       19=A       20=A       21=A   
    22=A       23=A       24=A       25=A       26=A       27=A       28=A   
    29=A   
 ...... END OF INITIAL ORBITAL SELECTION ......
 CPU     0: STEP CPU TIME=     0.01 TOTAL CPU TIME=          0.0 (      0.0 MIN)
 TOTAL WALL CLOCK TIME=          0.1 SECONDS, CPU UTILIZATION IS   100.00%

                    ----------------------
                    AO INTEGRAL TECHNOLOGY
                    ----------------------
     S,P,L SHELL ROTATED AXIS INTEGRALS, REPROGRAMMED BY
        KAZUYA ISHIMURA (IMS) AND JOSE SIERRA (SYNSTAR).
     S,P,D,L SHELL ROTATED AXIS INTEGRALS PROGRAMMED BY
        KAZUYA ISHIMURA (INSTITUTE FOR MOLECULAR SCIENCE).
     S,P,D,F,G SHELL TO TOTAL QUARTET ANGULAR MOMENTUM SUM 5,
        ERIC PROGRAM BY GRAHAM FLETCHER (ELORET AND NASA ADVANCED
        SUPERCOMPUTING DIVISION, AMES RESEARCH CENTER).
     S,P,D,F,G,L SHELL GENERAL RYS QUADRATURE PROGRAMMED BY
        MICHEL DUPUIS (PACIFIC NORTHWEST NATIONAL LABORATORY).

          --------------------
          2 ELECTRON INTEGRALS
          --------------------

 DIRECT SCF METHOD SKIPS INTEGRAL STORAGE ON DISK.
 DIRECT TRANSFORMATION SKIPS AO INTEGRAL STORAGE ON DISK.
  ...... END OF TWO-ELECTRON INTEGRALS .....
 STEP CPU TIME =     0.02 TOTAL CPU TIME =          0.1 (      0.0 MIN)
 TOTAL WALL CLOCK TIME=          0.1 SECONDS, CPU UTILIZATION IS   100.00%
 DDI: Creating Array [0] - 900 x 36 = 32400 words.
 DDI: Creating Array [1] - 21 x 288 = 6048 words.
 DDI: Creating Array [2] - 36 x 36 = 1296 words.
 DDI: Creating Array [3] - 465 x 36 = 16740 words.

          -----------------
          MCSCF CALCULATION
          -----------------

 ----- NUCLEAR ENERGY ----- =        10.9052228586

     -------------------------------------------------
     GMC-PT/GMC-QDPT or general MCSCF input parameters
     -------------------------------------------------
 # of frozen core orbs. =         0 ->         0
 # of doubly occ. orbs. =         1
 # of active      orbs. =         7
 # of virtual     orbs. =        21
 # of active electrons  =         7
 # of states in CI      =         3
 Highest state in CI    =         3
 kstate =  1 1 1
 avecoe =  0.333 0.333 0.333
 State symmetry           = A           
 Assigned symmetry number = 1

 <<<Act. MO sym.: 1111111

 <<<Division of 1-ext.:  0
 <<<Division of 2-ext.:  0

 *** Reference space

 Reference type: ORMAS (= Occupation restricted multiple active space)
 # of orbitals          =  7
 # of minimum electrons =  7
 # of maximum electrons =  7
 State symmetry    =    1 (input)
 2*Sz              =    1 (input)
 Spin multiplicity =    2 (input)
 Dimension of reference space =      1225  (from      3432 walks)

 Dimension of reference space =      1225  (from      1225 walks)

 <<<Ionized spaces for Ref-CI:
      0:         1225 /   -1-0:         1960 /  0-1-0:         2891

 EVALUATING EXCHANGE INTEGRALS FOR DIRECT INTEGRAL TRANSFORMATION
 SCHWARZ INEQUALITY OVERHEAD:       465 INTEGRALS, T=        0.01

     --------------------------------------------
     PARTIAL TWO ELECTRON INTEGRAL TRANSFORMATION
     --------------------------------------------

 NUMBER OF CORE MOLECULAR ORBITALS     =    1
 NUMBER OF OCCUPIED MOLECULAR ORBITALS =    8
 TOTAL NUMBER OF MOLECULAR ORBITALS    =   29
 TOTAL NUMBER OF ATOMIC ORBITALS       =   30
 THRESHOLD FOR KEEPING TRANSFORMED 2E- INTEGRALS = 1.000E-09

 -------------------------------     ------------------------------
 DISTRIBUTED DATA TRANSFORMATION     PROGRAM WRITTEN BY G. FLETCHER
 -------------------------------     ------------------------------

 THE DISTRIBUTED MEMORY REQUIRED FOR THIS STEP IS MEMDDI=         1 MWORDS
 CREATING DISTRIBUTED STORAGE FOR [VIR OCC|VIR OCC] INTEGRALS
 CREATING DISTRIBUTED STORAGE FOR [VIR OCC|OCC OCC] INTEGRALS
 CREATING DISTRIBUTED STORAGE FOR [OCC OCC|OCC OCC] INTEGRALS
 CREATING DISTRIBUTED STORAGE FOR [VIR VIR|OCC OCC] INTEGRALS
 FOR    1 PROCESSORS, THE REPLICATED MEMORY NEEDED IS       73700 WORDS.
 SCHWARZ INEQUALITY OVERHEAD:       465 INTEGRALS, T=        0.00

      DIRECT 4-INDEX TRANSFORMATION 
      SCHWARZ INEQUALITY TEST SKIPPED          0 INTEGRAL BLOCKS
 ----- FROZEN CORE ENERGY =       -47.5548969900
 ... END OF INTEGRAL TRANSFORMATION ...
 CPU     0: STEP CPU TIME=     0.22 TOTAL CPU TIME=          0.3 (      0.0 MIN)
 TOTAL WALL CLOCK TIME=          0.3 SECONDS, CPU UTILIZATION IS   100.00%

     --------------------------------     -----------------------------
     MCHF NEWTON-RAPHSON OPTIMIZATION     CODE WRITTEN BY MICHEL DUPUIS
     --------------------------------     -----------------------------
     PARALLEL VERSION WRITTEN BY G. FLETCHER (ELORET)
     NASA ADVANCED SUPERCOMPUTING DIVISION, AMES RESEARCH CENTER

 NUMBER OF INDEPENDENT ORBITAL ROTATION PARAMETERS =   175
 ..... DONE SOLVING NEWTON-RAPHSON EQUATIONS .....
 CPU     0: STEP CPU TIME=     0.73 TOTAL CPU TIME=          1.0 (      0.0 MIN)
 TOTAL WALL CLOCK TIME=          1.0 SECONDS, CPU UTILIZATION IS   100.00%
 ..... DONE WITH NTN-RPH ORBITAL ROTATIONS ..... 
 CPU     0: STEP CPU TIME=     0.00 TOTAL CPU TIME=          1.0 (      0.0 MIN)
 TOTAL WALL CLOCK TIME=          1.0 SECONDS, CPU UTILIZATION IS   100.00%
 MAXIMUM MEMORY USED BY NTN-RPH CODE WAS     57645 WORDS.

 ITER     TOTAL ENERGY      DEL(E)  LAGRANGIAN ASYMMETRY   SQCDF  MICIT   DAMP
   1      -55.557104289 -0.557104289  0.110214    9    3 9.151E-02  1   0.0000
   2      -55.624980812 -0.067876523  0.020307   12    5 4.570E-01  1   0.0000
   3      -55.662450797 -0.037469985  0.014644   11    6 2.409E-01  1   0.0165
   4      -55.680198917 -0.017748121  0.005172   11    6 5.505E-02  1   0.0067
   5      -55.682970400 -0.002771483  0.001097   23    5 1.881E-03  1   0.0000
   6      -55.683075348 -0.000104948  0.000526   23    5 1.811E-04  1   0.0000
   7      -55.683088005 -0.000012657  0.000256   23    5 3.879E-05  1   0.0000
   8      -55.683090795 -0.000002790  0.000130   23    5 1.011E-05  1   0.0000
   9      -55.683091516 -0.000000721  0.000068   23    5 2.940E-06  1   0.0000
  10      -55.683091721 -0.000000205  0.000036   23    5 9.232E-07  1   0.0000
  11      -55.683091783 -0.000000062  0.000019   23    5 3.067E-07  1   0.0000
  12      -55.683091803 -0.000000020  0.000011   23    5 1.063E-07  1   0.0000
  13      -55.683091810 -0.000000007  0.000006   23    5 3.813E-08  1   0.0000
  14      -55.683091812 -0.000000002  0.000003   23    5 1.399E-08  1   0.0000
  15      -55.683091813 -0.000000001  0.000002   23    5 5.226E-09  1   0.0000
  16      -55.683091813 -0.000000000  0.000001   23    5 1.990E-09  1   0.0000
  17      -55.683091813 -0.000000000  0.000001   23    5 7.547E-10  1   0.0000

          --------------------
          LAGRANGIAN CONVERGED
          --------------------

 FINAL MCSCF ENERGY IS      -55.6830918132 AFTER  17 ITERATIONS

 -MCCI- BASED ON OPTIMIZED ORBITALS
 ----------------------------------

 PLEASE NOTE: IF THE ACTIVE ORBITALS ARE CANONICALIZED BELOW,
 THE FOLLOWING CI EXPANSION COEFFICIENTS AND THE DENSITY DO NOT
 CORRESPOND TO THE PRINTED ORBITALS.  THE PRINTED EXPANSIONS MATCH
 THE ORBITALS USED DURING THE LAST ITERATION.  IF YOU WISH TO SEE
 CI EXPANSIONS BASED ON THE CANONICAL (OR NATURAL) ORBITALS, YOU
 MUST RUN A CI CALCULATION WITH THAT ORBITAL CHOICE READ IN $VEC.

 Averaged energy =     -55.683091813

 State #    1  Energy =     -55.816854721  S =  0.500

      Det      Coef    Occupancy (Ignoring core)
      ---      ----    --------- --------- -----
        1    0.887229  11110001110000
        5   -0.072502  01111001110000
        8   -0.131838  10110101110000
       17   -0.139900  11010011110000
       36   -0.282035  11110001101000
       71    0.136702  11110001011000
      211    0.053262  11110000110100
      386    0.105540  11110001010010
      393    0.053137  10110101010010
      701    0.097342  11110001100001
      717    0.059712  11010011100001

 State #    2  Energy =     -55.729917852  S =  0.500

      Det      Coef    Occupancy (Ignoring core)
      ---      ----    --------- --------- -----
        1    0.279418  11110001110000
       36    0.567439  11110001101000
       38   -0.059614  11011001101000
       43   -0.072946  10110101101000
       52   -0.070823  11010011101000
       71   -0.706662  11110001011000
       73    0.056162  11011001011000
       75    0.057116  01111001011000
       78    0.085601  10110101011000
       87    0.090950  11010011011000
      456    0.056929  11110001001010
      701    0.068844  11110001100001
      806    0.070477  11110001001001

 State #    3  Energy =     -55.502502867  S =  0.500

      Det      Coef    Occupancy (Ignoring core)
      ---      ----    --------- --------- -----
        1   -0.129373  11110001110000
       36   -0.705103  11110001101000
       43    0.065768  10110101101000
       52    0.058887  11010011101000
       71   -0.625627  11110001011000
       87    0.057502  11010011011000
      281   -0.060583  11110000101100
      316   -0.058524  11110000011100
      456   -0.071357  11110001001010
      806    0.091193  11110001001001

 DENSITY MATRIX OVER ACTIVE MO-S

             1           2           3           4           5

    1    1.9709350
    2   -0.0086398   1.6225791
    3   -0.0227674  -0.0120302   1.6226039
    4   -0.0005986  -0.0048078  -0.0044844   1.6480518
    5    0.1120586   0.0175348   0.0867007  -0.0226800   0.0444157
    6   -0.0157605  -0.1585313  -0.0004005  -0.0077264  -0.0078918
    7    0.0032838   0.0367447   0.1739647   0.0710980   0.0099092

             6           7

    6    0.0414367
    7   -0.0103548   0.0499777

 FORMING THE "STANDARD FOCK OPERATOR" IN DIRECT AO INTEGRAL MODE...
 ONLY THE    1 CORE AND   21 VIRTUAL ORBITALS WILL BE CANONICALIZED

          ----------------------
          MCSCF NATURAL ORBITALS
          ----------------------

                      1          2          3          4          5
                  -15.9822     1.9786     1.6540     1.6478     1.6347
                     A          A          A          A          A   
    1  N  1  S    1.001040   0.008978  -0.007303  -0.005675   0.002213
    2  N  1  S   -0.001952   0.432706  -0.095850  -0.173778   0.034445
    3  N  1  S   -0.006331   0.340932  -0.178201  -0.243581   0.055650
    4  N  1  X   -0.000230  -0.015167  -0.152717   0.122997   0.486433
    5  N  1  Y    0.000079  -0.041555   0.308764  -0.281292   0.273127
    6  N  1  Z    0.001152   0.080265   0.464831   0.341258   0.043454
    7  N  1  X   -0.000026   0.001512  -0.048192   0.021845   0.284957
    8  N  1  Y    0.000119  -0.010462   0.155303  -0.079342   0.175516
    9  N  1  Z   -0.000619   0.018444   0.323922   0.206437   0.048497
   10  N  1 XX   -0.000011  -0.000478  -0.006643  -0.010778   0.005087
   11  N  1 YY    0.000197   0.001239  -0.010728  -0.003523  -0.007096
   12  N  1 ZZ   -0.000186  -0.000761   0.017371   0.014301   0.002009
   13  N  1 XY   -0.000353  -0.005108  -0.004396   0.004376  -0.011119
   14  N  1 XZ   -0.000059   0.000966  -0.007540   0.003889   0.020435
   15  N  1 YZ   -0.000060  -0.003467   0.008717  -0.015792   0.011346
   16  H  2  S   -0.001806   0.165070   0.301702  -0.215570  -0.054860
   17  H  2  S    0.000675  -0.001107   0.049111  -0.017537   0.004538
   18  H  2  X   -0.000677   0.020252   0.025776  -0.020532   0.008173
   19  H  2  Y    0.000714  -0.024815  -0.021266   0.015069   0.020543
   20  H  2  Z    0.000279  -0.002055   0.010322   0.019183   0.002914
   21  H  3  S   -0.001556   0.205767  -0.022012   0.302415  -0.237241
   22  H  3  S    0.000283   0.008948   0.014670   0.059839  -0.115109
   23  H  3  X   -0.000147   0.006749  -0.002738   0.021213   0.012787
   24  H  3  Y   -0.000771   0.032476   0.008849   0.023571  -0.016857
   25  H  3  Z    0.000490  -0.016322   0.023009  -0.003256   0.018650
   26  H  4  S   -0.001218   0.162678  -0.055519   0.232146   0.268382
   27  H  4  S    0.000273  -0.000592   0.009398   0.031803   0.120802
   28  H  4  X    0.000537  -0.024116   0.007683  -0.029687  -0.014354
   29  H  4  Y   -0.000318   0.013684   0.001049   0.003820   0.027571
   30  H  4  Z    0.000328  -0.006713   0.023175   0.005585  -0.007626

                      6          7          8
                    0.0367     0.0291     0.0192
                     A          A          A   
    1  N  1  S   -0.127538  -0.064150  -0.139491
    2  N  1  S   -0.470199  -0.274161  -0.415376
    3  N  1  S   -0.111862  -0.213386   0.020415
    4  N  1  X   -0.478232   0.271676   0.639944
    5  N  1  Y   -0.130214   0.604650  -0.566850
    6  N  1  Z   -0.380859  -0.445960  -0.177878
    7  N  1  X    0.047537  -0.088107   0.060207
    8  N  1  Y    0.098044   0.072879  -0.076579
    9  N  1  Z    0.031868  -0.018404   0.094911
   10  N  1 XX    0.014241  -0.033884   0.033348
   11  N  1 YY   -0.009684   0.031676  -0.009393
   12  N  1 ZZ   -0.004557   0.002208  -0.023955
   13  N  1 XY   -0.073028   0.007934  -0.013595
   14  N  1 XZ    0.014296  -0.000366  -0.037917
   15  N  1 YZ   -0.021743  -0.037111   0.013129
   16  H  2  S    0.326850   0.056137   0.803068
   17  H  2  S    0.045139  -0.020132   0.155561
   18  H  2  X    0.030375   0.006527   0.053221
   19  H  2  Y   -0.017361  -0.016772  -0.059190
   20  H  2  Z   -0.001494   0.002133   0.029654
   21  H  3  S   -0.105196   0.810110  -0.004599
   22  H  3  S   -0.134655   0.238732   0.025572
   23  H  3  X    0.039148   0.027001  -0.030323
   24  H  3  Y   -0.002943   0.042540   0.023567
   25  H  3  Z    0.026623  -0.008384  -0.005055
   26  H  4  S    0.712511  -0.033939  -0.285865
   27  H  4  S    0.225193  -0.109336  -0.101540
   28  H  4  X   -0.051151  -0.020269   0.024266
   29  H  4  Y    0.040402  -0.038099   0.002581
   30  H  4  Z    0.011792   0.029151  -0.007550

          ------------------------
          MCSCF OPTIMIZED ORBITALS
          ------------------------

                      1          2          3          4          5
                  -15.9822     0.0000     0.0000     0.0000     0.0000
                     A          A          A          A          A   
    1  N  1  S    1.001040  -0.000740   0.003997  -0.017433  -0.010124
    2  N  1  S   -0.001952   0.398609  -0.006442   0.009074  -0.182657
    3  N  1  S   -0.006331   0.331868   0.014977   0.092778  -0.279640
    4  N  1  X   -0.000230  -0.010692   0.428476   0.093995  -0.014463
    5  N  1  Y    0.000079  -0.011004   0.005184   0.407861   0.049661
    6  N  1  Z    0.001152   0.049777  -0.008336  -0.012519   0.588696
    7  N  1  X   -0.000026   0.011249   0.268935   0.123407   0.000533
    8  N  1  Y    0.000119   0.008003   0.067297   0.222017   0.080885
    9  N  1  Z   -0.000619   0.024755  -0.005535   0.052701   0.386782
   10  N  1 XX   -0.000011  -0.000169   0.003161   0.012056  -0.009362
   11  N  1 YY    0.000197   0.001205  -0.004754  -0.009569  -0.012637
   12  N  1 ZZ   -0.000186  -0.001037   0.001593  -0.002487   0.021999
   13  N  1 XY   -0.000353  -0.009211  -0.010739  -0.018205  -0.002731
   14  N  1 XZ   -0.000059   0.001780   0.024724   0.002636  -0.002617
   15  N  1 YZ   -0.000060  -0.004525  -0.000502   0.022038  -0.000584
   16  H  2  S   -0.001806   0.200688  -0.270414   0.344002   0.112888
   17  H  2  S    0.000675   0.003853  -0.026396   0.055021   0.031884
   18  H  2  X   -0.000677   0.023835  -0.012215   0.036221   0.008862
   19  H  2  Y    0.000714  -0.026780   0.034321  -0.013890  -0.006283
   20  H  2  Z    0.000279  -0.001840   0.003940  -0.004382   0.020563
   21  H  3  S   -0.001556   0.208226  -0.120546  -0.397791   0.117602
   22  H  3  S    0.000283   0.004434  -0.100738  -0.114514   0.029750
   23  H  3  X   -0.000147   0.009100   0.023195  -0.009732   0.010524
   24  H  3  Y   -0.000771   0.032796  -0.012444  -0.022631   0.018785
   25  H  3  Z    0.000490  -0.013959   0.008598   0.026324   0.017841
   26  H  4  S   -0.001218   0.196790   0.401369  -0.014248   0.120810
   27  H  4  S    0.000273   0.010151   0.136766   0.062191   0.040183
   28  H  4  X    0.000537  -0.026611  -0.030093   0.016248  -0.012421
   29  H  4  Y   -0.000318   0.015480   0.028321   0.016936   0.007019
   30  H  4  Z    0.000328  -0.005197  -0.012803   0.002980   0.019838

                      6          7          8          9         10
                    0.0000     0.0000     0.0000     0.1157     0.1991
                     A          A          A          A          A   
    1  N  1  S    0.171455  -0.057878   0.082706  -0.087276   0.035682
    2  N  1  S    0.657784  -0.148496   0.222461  -0.122807   0.039508
    3  N  1  S    0.237677   0.011043  -0.122895   1.010952  -0.485958
    4  N  1  X    0.025642   0.890486   0.031082   0.000509  -0.128656
    5  N  1  Y   -0.099978  -0.167039   0.864754   0.044635   0.094309
    6  N  1  Z    0.600270  -0.069807  -0.044345  -0.114665   0.047248
    7  N  1  X    0.013209   0.018500  -0.097217   0.056789   0.536663
    8  N  1  Y   -0.084638  -0.082042   0.088298  -0.235780  -0.567731
    9  N  1  Z   -0.039171   0.051459  -0.058252   0.288945  -0.043853
   10  N  1 XX    0.002024   0.007104  -0.048496  -0.009932  -0.025804
   11  N  1 YY   -0.010070   0.007906   0.030424   0.044084  -0.014260
   12  N  1 ZZ    0.008046  -0.015009   0.018072  -0.034152   0.040064
   13  N  1 XY    0.051565   0.031297   0.039894  -0.067745   0.068783
   14  N  1 XZ    0.000436  -0.034864   0.016994   0.010249   0.054500
   15  N  1 YZ    0.036428   0.009996  -0.023555  -0.062788  -0.062536
   16  H  2  S   -0.469660   0.434098  -0.518797   0.277692  -0.553111
   17  H  2  S   -0.060883   0.086324  -0.116057  -0.446934   1.940036
   18  H  2  X   -0.037932   0.025554  -0.034072  -0.026868   0.097792
   19  H  2  Y    0.037455  -0.038489   0.028133   0.055509  -0.092452
   20  H  2  Z   -0.008823   0.024913  -0.014626  -0.026606  -0.064261
   21  H  3  S   -0.431696   0.309090   0.588279   0.385345   0.160611
   22  H  3  S   -0.061197   0.162240   0.196651  -0.919390  -0.528097
   23  H  3  X   -0.037428  -0.033845   0.021795   0.065155   0.002677
   24  H  3  Y   -0.030109   0.032845   0.016298  -0.080262  -0.005934
   25  H  3  Z   -0.012804  -0.020504  -0.009719   0.048992   0.041258
   26  H  4  S   -0.418528  -0.583962  -0.123330   0.439545   0.181695
   27  H  4  S   -0.067839  -0.224774  -0.096197  -0.869181  -0.607258
   28  H  4  X    0.043149   0.037168  -0.008292   0.002384   0.014424
   29  H  4  Y   -0.005269  -0.029790  -0.041960  -0.069509  -0.027396
   30  H  4  Z   -0.025238  -0.004045   0.021696   0.038645   0.060605

                     11         12         13         14         15
                    0.2673     0.5267     0.5800     0.6798     0.8707
                     A          A          A          A          A   
    1  N  1  S    0.011794  -0.105213   0.028955  -0.041024  -0.577483
    2  N  1  S    0.029374  -0.145060  -0.032176  -0.070795  -1.295943
    3  N  1  S   -0.077420   0.705566  -0.512758   0.110008   2.165359
    4  N  1  X   -0.057644  -0.253368  -0.357665  -0.436519  -0.057662
    5  N  1  Y    0.008753  -0.416351  -0.362121   0.203044   0.109507
    6  N  1  Z    0.007414  -0.587721   0.432467  -0.162040   0.279963
    7  N  1  X    0.467428   0.235296   0.686792   1.420519   0.047746
    8  N  1  Y    0.131054   0.796539   1.026407  -1.144056  -0.167070
    9  N  1  Z   -0.076442   0.754981  -0.849386   0.421028  -0.157062
   10  N  1 XX    0.061524  -0.000227  -0.029762  -0.032121   0.076739
   11  N  1 YY   -0.053257  -0.023846   0.046127   0.062019  -0.091114
   12  N  1 ZZ   -0.008267   0.024073  -0.016365  -0.029897   0.014376
   13  N  1 XY   -0.051116   0.010532  -0.022534   0.013126   0.037314
   14  N  1 XZ    0.042789   0.004070  -0.005819  -0.075353  -0.041247
   15  N  1 YZ    0.037229  -0.008182  -0.000634   0.052443  -0.020033
   16  H  2  S    0.093862  -0.479731   0.226307   0.563881  -0.141662
   17  H  2  S   -0.166907  -0.336291  -0.245023   0.595411  -0.483432
   18  H  2  X   -0.011898  -0.052687   0.058431   0.173179  -0.169395
   19  H  2  Y   -0.036084   0.046794   0.079039  -0.083177  -0.038715
   20  H  2  Z    0.002538   0.023253  -0.048505   0.156824   0.128459
   21  H  3  S   -0.635681   0.029664   0.622181  -0.175835   0.008234
   22  H  3  S    2.216747   0.323681   0.881996  -0.088081  -0.309206
   23  H  3  X    0.083617  -0.053485   0.040544  -0.091748  -0.244232
   24  H  3  Y    0.064055   0.069979   0.103141  -0.194584  -0.010348
   25  H  3  Z   -0.032609   0.066888  -0.121158  -0.085177   0.192510
   26  H  4  S    0.593655  -0.233536   0.007187  -0.591396  -0.011984
   27  H  4  S   -2.092811  -0.309097  -0.484884  -0.515911  -0.362078
   28  H  4  X    0.100740   0.037608  -0.096717   0.161552   0.230932
   29  H  4  Y    0.025537   0.060212  -0.054246  -0.182209   0.166200
   30  H  4  Z   -0.005495   0.125344  -0.027158  -0.145219   0.069729

                     16         17         18         19         20
                    1.0637     1.0861     1.2215     1.2974     1.4263
                     A          A          A          A          A   
    1  N  1  S    0.073216  -0.337149   0.009652  -0.231084  -0.343835
    2  N  1  S    0.166542  -0.695299   0.024824  -0.494133  -0.745136
    3  N  1  S   -0.349653   1.468180  -0.013601   0.862936   1.077844
    4  N  1  X   -0.161170   0.122949   0.122735  -0.084142  -0.039555
    5  N  1  Y    0.092806  -0.029022  -0.157207  -0.013494   0.082237
    6  N  1  Z    0.049324   0.047473  -0.022311  -0.001225  -0.094637
    7  N  1  X    0.748904  -0.552176  -0.405207   0.118378  -0.124086
    8  N  1  Y   -0.690134   0.037235   0.924465   0.188982  -0.396006
    9  N  1  Z   -0.301621   0.083537  -0.100138   0.358362   0.581276
   10  N  1 XX   -0.067436  -0.231017   0.085934   0.117993  -0.062957
   11  N  1 YY   -0.173131   0.099941  -0.088708   0.002804   0.032059
   12  N  1 ZZ    0.240567   0.131075   0.002774  -0.120797   0.030898
   13  N  1 XY   -0.104631  -0.019839  -0.038548   0.060144  -0.154299
   14  N  1 XZ   -0.060890   0.064150  -0.264622   0.154585   0.077809
   15  N  1 YZ   -0.036374   0.149601  -0.105370   0.050962   0.025934
   16  H  2  S    0.513173  -0.411477  -0.453202  -0.208146  -0.233183
   17  H  2  S    0.319727  -0.348198  -0.213858  -0.125528  -0.065830
   18  H  2  X   -0.134393   0.276580  -0.205756  -0.432872   0.195740
   19  H  2  Y   -0.225787   0.264223  -0.377351  -0.385968   0.180486
   20  H  2  Z    0.082502   0.392753   0.344993  -0.161154  -0.587482
   21  H  3  S   -0.119399  -0.399150   0.212393  -0.145267  -0.449557
   22  H  3  S    0.038446  -0.199694   0.122607  -0.088691  -0.217136
   23  H  3  X    0.268104   0.281758   0.040853   0.342675   0.096411
   24  H  3  Y    0.211513  -0.084848   0.129425  -0.464616   0.156686
   25  H  3  Z    0.536594  -0.081668   0.079995  -0.363792   0.292963
   26  H  4  S   -0.489737  -0.025133   0.336558  -0.372290  -0.404674
   27  H  4  S   -0.080243   0.025030   0.049702   0.039921   0.161272
   28  H  4  X   -0.209070  -0.104875  -0.004269  -0.279497  -0.210024
   29  H  4  Y    0.013805  -0.353060  -0.485220   0.021346  -0.126175
   30  H  4  Z    0.314393   0.233315  -0.506650   0.052441  -0.587300

                     21         22         23         24         25
                    1.5950     1.7034     1.8618     1.9608     2.1383
                     A          A          A          A          A   
    1  N  1  S   -0.127148   0.077822   0.120447  -0.007050  -0.026510
    2  N  1  S   -0.231576   0.276606   0.266381   0.002081  -0.064994
    3  N  1  S    0.697376   0.723320   0.179700   0.126692  -0.134579
    4  N  1  X    0.004476   0.042756  -0.371284   0.073166   0.127569
    5  N  1  Y    0.173301  -0.353149   0.392017  -0.039322   0.003511
    6  N  1  Z   -0.005317   0.234276  -0.008056   0.004940  -0.044239
    7  N  1  X    0.699813   0.058110  -0.236013   0.100089   0.038022
    8  N  1  Y   -0.422286  -0.121499   0.296215   0.178016   0.010095
    9  N  1  Z    0.355005   0.257290   0.020621   0.228078  -0.121902
   10  N  1 XX   -0.024735   0.047814  -0.008502  -0.640420  -0.298585
   11  N  1 YY    0.112218  -0.082024  -0.115555  -0.158186   0.549169
   12  N  1 ZZ   -0.087482   0.034210   0.124058   0.798606  -0.250583
   13  N  1 XY    0.134363   0.094126   0.151864  -0.448118   0.176380
   14  N  1 XZ   -0.156629   0.150540   0.273130   0.050041   0.190982
   15  N  1 YZ   -0.067381   0.247171  -0.063006  -0.075628   0.146701
   16  H  2  S    0.229755  -0.055008  -0.111783  -0.054585   0.096667
   17  H  2  S   -0.036367  -0.029490  -0.506860  -0.053127   0.011467
   18  H  2  X   -0.405043  -0.162433  -0.684064  -0.248042  -0.110238
   19  H  2  Y    0.096793   0.212987   0.726356  -0.149852  -0.338398
   20  H  2  Z   -0.473901  -0.279120   0.409144  -0.202204   0.049244
   21  H  3  S   -0.451008   0.010189   0.030294   0.126206   0.425666
   22  H  3  S    0.270488  -0.358348   0.198340   0.122703   0.368052
   23  H  3  X   -0.133287   0.064273   0.120630  -0.037444   0.879610
   24  H  3  Y    0.380834  -0.644070   0.142179  -0.169593   0.454301
   25  H  3  Z   -0.221666   0.578432  -0.072414  -0.409319   0.136190
   26  H  4  S   -0.236761  -0.039277   0.019536  -0.068071  -0.352649
   27  H  4  S   -0.524105  -0.253543   0.103166  -0.185699  -0.328530
   28  H  4  X    0.198677   0.422089  -0.104022   0.405500   0.899190
   29  H  4  Y   -0.648097  -0.445089   0.056488   0.049313   0.359528
   30  H  4  Z    0.420807   0.017603  -0.441670  -0.085984  -0.211761

                     26         27         28         29
                    2.2291     2.5043     2.6584     2.9991
                     A          A          A          A   
    1  N  1  S   -0.109506  -0.070768  -0.145891  -0.078608
    2  N  1  S   -0.180565  -0.172738  -0.156484  -0.041081
    3  N  1  S    0.764232  -0.450111   1.702558   1.447495
    4  N  1  X    0.008519   0.302667  -0.054366  -0.125318
    5  N  1  Y    0.000994  -0.183891  -0.253792   0.345818
    6  N  1  Z    0.033363  -0.090400   0.236157   0.100722
    7  N  1  X   -0.390136   0.897801   0.149923  -0.200514
    8  N  1  Y   -0.309270  -0.631257  -0.898928   0.496065
    9  N  1  Z    0.380018  -0.050471   0.507090   0.149118
   10  N  1 XX    0.310559   0.454310  -0.376819   0.671416
   11  N  1 YY   -0.410738  -0.624398   0.732858  -0.045085
   12  N  1 ZZ    0.100179   0.170087  -0.356039  -0.626331
   13  N  1 XY    0.120442   0.160534  -0.244387  -1.286670
   14  N  1 XZ   -0.605267   0.826754   0.152896   0.100998
   15  N  1 YZ   -0.420846  -0.465774  -1.057911   0.248119
   16  H  2  S   -0.186329   0.917997  -0.124163  -1.271074
   17  H  2  S   -0.114629   0.405432   0.035012  -0.367667
   18  H  2  X    0.253011   0.707383  -0.131295  -0.616825
   19  H  2  Y    0.485837  -0.458034   0.063180   0.774799
   20  H  2  Z   -0.203504   0.075000   0.252473   0.368913
   21  H  3  S   -0.142231   0.209551  -1.239115   0.463961
   22  H  3  S   -0.086460   0.174238  -0.505787   0.098564
   23  H  3  X    0.854134   0.090295  -0.220823   0.179892
   24  H  3  Y   -0.329249   0.299139  -0.905772   0.373320
   25  H  3  Z   -0.150029  -0.225849   0.629063  -0.227226
   26  H  4  S   -0.355510  -0.646555  -0.375189  -0.699616
   27  H  4  S   -0.067809  -0.386424  -0.060034  -0.179865
   28  H  4  X    0.481632   0.538742   0.092867   0.699019
   29  H  4  Y    0.280067  -0.467559  -0.197897  -0.308911
   30  H  4  Z   -0.044250   0.107343   0.172704   0.373627
 .....DONE WITH MCSCF ITERATIONS.....
 CPU     0: STEP CPU TIME=    11.82 TOTAL CPU TIME=         12.8 (      0.2 MIN)
 TOTAL WALL CLOCK TIME=         12.9 SECONDS, CPU UTILIZATION IS    99.92%

     ----------------------------------------------------------------
     PROPERTY VALUES FOR THE MCSCF SELF-CONSISTENT FIELD WAVEFUNCTION
     ----------------------------------------------------------------

          -----------------
          ENERGY COMPONENTS
          -----------------

         WAVEFUNCTION NORMALIZATION =       1.0000000000

                ONE ELECTRON ENERGY =     -93.3650849918
                TWO ELECTRON ENERGY =      26.7767703199
           NUCLEAR REPULSION ENERGY =      10.9052228586
                                      ------------------
                       TOTAL ENERGY =     -55.6830918132

 ELECTRON-ELECTRON POTENTIAL ENERGY =      26.7767703199
  NUCLEUS-ELECTRON POTENTIAL ENERGY =    -148.9994536502
   NUCLEUS-NUCLEUS POTENTIAL ENERGY =      10.9052228586
                                      ------------------
             TOTAL POTENTIAL ENERGY =    -111.3174604717
               TOTAL KINETIC ENERGY =      55.6343686585
                 VIRIAL RATIO (V/T) =       2.0008757744

          ---------------------------------------
          MULLIKEN AND LOWDIN POPULATION ANALYSES
          ---------------------------------------

     ATOMIC MULLIKEN POPULATION IN EACH MOLECULAR ORBITAL

                      1          2          3          4          5

                  2.000000   1.978577   1.654029   1.647761   1.634727

    1             2.000543   1.372136   1.345028   0.997284   1.229261
    2            -0.000253   0.168256   0.276338   0.177748   0.017909
    3            -0.000196   0.266849   0.011537   0.287150   0.153583
    4            -0.000094   0.171337   0.021127   0.185579   0.233973

                      6          7          8

                  0.036662   0.029081   0.019164

    1             0.015985   0.014659   0.010236
    2             0.003342  -0.000015   0.007910
    3             0.000096   0.014343   0.000065
    4             0.017239   0.000093   0.000953
 WARNING! MCSCF POPULATIONS SHOWN ABOVE ARE FOR THE NATURAL ORBITALS.
 IGNORE THE ABOVE DATA FOR MCSCF FUNCTIONS WHICH ARE NOT OF -FORS- TYPE.
 THE FOLLOWING POPULATIONS ARE CORRECT FOR ANY MCSCF WAVEFUNCTION.

               ----- POPULATIONS IN EACH AO -----
                             MULLIKEN      LOWDIN
              1  N  1  S      2.00217     1.90514
              2  N  1  S      0.81718     0.58151
              3  N  1  S      0.72293     0.42076
              4  N  1  X      0.70977     0.64463
              5  N  1  Y      0.67076     0.60137
              6  N  1  Z      0.83274     0.78622
              7  N  1  X      0.38577     0.46454
              8  N  1  Y      0.30777     0.41781
              9  N  1  Z      0.52115     0.56039
             10  N  1 XX      0.00045     0.16951
             11  N  1 YY      0.00150     0.17198
             12  N  1 ZZ      0.00365     0.14486
             13  N  1 XY      0.00366     0.00956
             14  N  1 XZ      0.00562     0.00520
             15  N  1 YZ      0.00000     0.01233
             16  H  2  S      0.56692     0.44121
             17  H  2  S      0.02894     0.14882
             18  H  2  X      0.02175     0.04309
             19  H  2  Y      0.02368     0.04440
             20  H  2  Z      0.00994     0.02800
             21  H  3  S      0.61233     0.46383
             22  H  3  S      0.06321     0.15448
             23  H  3  X      0.01380     0.04595
             24  H  3  Y      0.02621     0.04217
             25  H  3  Z      0.01787     0.03652
             26  H  4  S      0.51674     0.39183
             27  H  4  S      0.06313     0.15490
             28  H  4  X      0.02477     0.05222
             29  H  4  Y      0.01435     0.03156
             30  H  4  Z      0.01121     0.02521

          ----- MULLIKEN ATOMIC OVERLAP POPULATIONS -----
          (OFF-DIAGONAL ELEMENTS NEED TO BE MULTIPLIED BY 2)

             1           2           3           4

    1    6.2170978
    2    0.3009195   0.3591820
    3    0.2426696  -0.0037346   0.4987271
    4    0.2244440  -0.0051325  -0.0042349   0.4151308

          TOTAL MULLIKEN AND LOWDIN ATOMIC POPULATIONS
       ATOM         MULL.POP.    CHARGE          LOW.POP.     CHARGE
    1 N             6.985131    0.014869         6.895815    0.104185
    2 H             0.651235    0.348765         0.705518    0.294482
    3 H             0.733427    0.266573         0.742952    0.257048
    4 H             0.630207    0.369793         0.655715    0.344285

          MULLIKEN SPHERICAL HARMONIC POPULATIONS
       ATOM           S       P       D      F      G      H      I    TOTAL
    1 N             3.54    3.43    0.01   0.00   0.00   0.00   0.00    6.99
    2 H             0.60    0.06    0.00   0.00   0.00   0.00   0.00    0.65
    3 H             0.68    0.06    0.00   0.00   0.00   0.00   0.00    0.73
    4 H             0.58    0.05    0.00   0.00   0.00   0.00   0.00    0.63

          ---------------------
          ELECTROSTATIC MOMENTS
          ---------------------

 POINT   1           X           Y           Z (BOHR)    CHARGE
                 0.000001   -0.000006   -0.177185        1.00 (A.U.)
         DX          DY          DZ         /D/  (DEBYE)
     0.120855   -1.007762    2.169333    2.395035
 ...... END OF PROPERTY EVALUATION ......
 CPU     0: STEP CPU TIME=     0.00 TOTAL CPU TIME=         12.8 (      0.2 MIN)
 TOTAL WALL CLOCK TIME=         12.9 SECONDS, CPU UTILIZATION IS    99.92%

     -------------------------------------------------
     GMC-PT/GMC-QDPT or general MCSCF input parameters
     -------------------------------------------------
 # of frozen core orbs. =         0 ->         0
 # of doubly occ. orbs. =         1
 # of active      orbs. =         7
 # of virtual     orbs. =        21
 # of active electrons  =         7
 # of states in CI      =         3
 Highest state in CI    =         3
 kstate =  1 1 1
 avecoe =  0.333 0.333 0.333
 State symmetry           = A           
 Assigned symmetry number = 1

 <<<Act. MO sym.: 1111111

 <<<Division of 1-ext.:  0
 <<<Division of 2-ext.:  0

     ------------------------
     Orbital canonicalization
     ------------------------

 MOs are canonicalized for core, virtual, and invariant-active orbital spaces.
 This is a part of the GMC-QDPT calculation.
 SCHWARZ INEQUALITY OVERHEAD:       465 INTEGRALS, T=        0.00
 DIRECT TRANSFORMATION SKIPS AO INTEGRAL STORAGE ON DISK.

 Averaged energy =     -55.683091813

 State #    1  Energy =     -55.816854721  S =  0.500
 State #    2  Energy =     -55.729917852  S =  0.500
 State #    3  Energy =     -55.502502867  S =  0.500

 Orbital energies for filled orbital space
  -15.982223
 Orbital energies for active orbital space
   -1.484813  -0.776021  -1.004147  -0.719004   0.092443
    0.394944   0.222423
 Orbital energies for external orbital space
    0.115745   0.199063   0.267297   0.526706   0.580018
    0.679781   0.870688   1.063705   1.086053   1.221541
    1.297435   1.426344   1.594975   1.703376   1.861754
    1.960794   2.138271   2.229149   2.504326   2.658378
    2.999076

 Zero values mean non-canonical orbitals.
 ... done with orbital canonicalization ...
 CPU     0: STEP CPU TIME=     0.64 TOTAL CPU TIME=         13.5 (      0.2 MIN)
 TOTAL WALL CLOCK TIME=         13.5 SECONDS, CPU UTILIZATION IS    99.93%

     --------------------------------------------
     PARTIAL TWO ELECTRON INTEGRAL TRANSFORMATION
     --------------------------------------------

 NUMBER OF CORE MOLECULAR ORBITALS     =    0
 NUMBER OF OCCUPIED MOLECULAR ORBITALS =    8
 TOTAL NUMBER OF MOLECULAR ORBITALS    =   29
 TOTAL NUMBER OF ATOMIC ORBITALS       =   30
 THRESHOLD FOR KEEPING TRANSFORMED 2E- INTEGRALS = 1.000E-09
 AO INTEGRALS WILL BE CALCULATED IN DIRECT MODE...
 DIRECT TRANSFORMATION SKIPS AO INTEGRAL STORAGE ON DISK.
 SCHWARZ INEQUALITY OVERHEAD:       465 INTEGRALS, T=        0.00

 PLAN A: REQUIREMENTS FOR FULLY IN-MEMORY TRANSFORMATION:
 # OF WORDS AVAILABLE =            100000000
 # OF WORDS NEEDED    =               221798

 PARALLEL ONLY WORKS WITH THE SEGMENTED ALGORITHM.
 ADJUSTING MEMORY TO USE SEGMENTED ALGORITHM.


 PLAN B: REQUIREMENTS FOR THE SEGMENTED TRANSFORMATION:
       MINIMUM=         124148 WORDS FOR 1 MOLECULAR ORBITAL PER PASS
       MAXIMUM=         221798 WORDS FOR ALL MOLECULAR ORBITALS IN 1 PASS
              (          13950 EXTRA WORDS INCLUDES 1 EXTRA ORBITAL/PASS)
 THIS RUN USES=         221798 WORDS,
 DISTRIBUTING   1 PASSES EACH CONTAINING     8 ORBITALS OVER   1 PROCESSORS.

 CHOOSING SEGMENTED PARTIAL TRANSFORMATION...
 DIRECT TRANSFORMATION SKIPS AO INTEGRAL STORAGE ON DISK.
 PASS #   1 TOOK        0.04 SECONDS.
 TOTAL NUMBER OF TRANSFORMED 2E- INTEGRALS KEPT =        29226
 ... END OF INTEGRAL TRANSFORMATION ...
 CPU     0: STEP CPU TIME=     0.04 TOTAL CPU TIME=         13.5 (      0.2 MIN)
 TOTAL WALL CLOCK TIME=         13.5 SECONDS, CPU UTILIZATION IS    99.93%

     --------     ------------------------------------------
     GMC-QDPT     Program written by H.Nakano (Kyushu Univ.)
     --------     ------------------------------------------

 *** Reference space

 Reference type: ORMAS (= Occupation restricted multiple active space)
 # of orbitals          =  7
 # of minimum electrons =  7
 # of maximum electrons =  7
 State symmetry    =    1 (input)
 2*Sz              =    1 (input)
 Spin multiplicity =    2 (input)
 Dimension of reference space =      1225  (from      3432 walks)

 Dimension of reference space =      1225  (from      1225 walks)

 <<<Ionized spaces for Ref-CI:
      0:         1225 /   -1-0:         1960 /  0-1-0:         2891

 ***                    ***
 *** Reference space CI ***
 ***                    ***

 Converged after   32 iterations

 Reference wavefunctions:

 State #    1  Energy =     -55.816854721  S =  0.500

      Det      Coef    Occupancy (Ignoring core)
      ---      ----    --------- --------- -----
        1   -0.962210  11110001110000
       71    0.154879  11110001011000
      357   -0.052448  11010101100010
      753   -0.077437  10110011010001

 State #    2  Energy =     -55.729917852  S =  0.500

      Det      Coef    Occupancy (Ignoring core)
      ---      ----    --------- --------- -----
        1   -0.159705  11110001110000
       71   -0.966336  11110001011000
      177    0.051237  11101001010100
      462    0.053294  11010101001010

 State #    3  Energy =     -55.502502867  S =  0.500

      Det      Coef    Occupancy (Ignoring core)
      ---      ----    --------- --------- -----
       36   -0.970343  11110001101000
      123   -0.053684  10110010111000
      142    0.053133  11101001100100
      823   -0.079084  10110011001001

 Davidson method: CPU/Wall time =           0.44 /           0.44 sec.

 Oscillator strength (invalid if E(1)/=E(GS)):
 -----------------------------------------
   State                        f
 -----------------------------------------
     2     F(REF-CI)=        0.0012991129
     3     F(REF-CI)=        0.0064325405
 -----------------------------------------

 Dipole moment matrix elements, x, y, z, in A.U.

 Dimension of ionized spaces for PT:
 (N-2) space:         1715 /  (N-1) space:         2842 /  N space:         2891
 (N+1) space:         2842 /  (N+2) space:         1715

 <<<Ionized spaces for internal:
         0:         1225 /      -1-0:         1960 /     0-1-0:         2891
  -1-0-1-0:         2842 / 0-1-0-1-0:         3381

 Diagonal elements of averaged one-particle density matrix:
       2       3       4       5       6       7       8
  0.9922  0.9833  0.9858  0.9887  0.0215  0.0113  0.0173
  0.9862  0.6556  0.6632  0.6597  0.0149  0.0081  0.0123

 Orbital energies:
 -------- Doubly-occupied orbitals (highest several orbs.) -------
             1
 -1.598222D+01
 -------- Active orbitals ----------------------------------------
             2            3            4            5            6
 -1.484813D+00-7.760210D-01-1.004147D+00-7.190043D-01 9.244262D-02
             7            8
  3.949437D-01 2.224228D-01
 -------- External orbitals (lowest several orbs.) ---------------
             9           10           11           12           13
  1.157448D-01 1.990626D-01 2.672972D-01 5.267059D-01 5.800180D-01
            14           15           16           17           18
  6.797806D-01 8.706882D-01 1.063705D+00 1.086053D+00 1.221541D+00

 *** Quasi-degeneracy checking

 === Det (|Ci| > 1.0D-01 and dE < 5.0D-03)

 # of small denominators (single excitations)
 State       dEmin  dE < 5.0D-03  dE < 5.0D-04  dE < 5.0D-05  dE < 5.0D-06
 ----- ----------- ------------- ------------- ------------- -------------
     1    5.00D-03             0             0             0             0
     2    5.00D-03             0             0             0             0
     3    5.00D-03             0             0             0             0

 # of small denominators (double excitations)
 State       dEmin  dE < 5.0D-03  dE < 5.0D-04  dE < 5.0D-05  dE < 5.0D-06
 ----- ----------- ------------- ------------- ------------- -------------
     1    5.00D-03             0             0             0             0
     2    5.00D-03             0             0             0             0
     3    5.00D-03             0             0             0             0

 *** Zeroth-Order Setup (Granovsky's zeroth-order vectors)
 Zeroth-order effective Hamiltonian
  (= Sum_i e(i)*<I|a+(i)a(i)|J> ):
                   1            2            3
     1 -7.138803D+00
     2 -1.532361D-02-7.102673D+00
     3 -1.429353D-03-6.223190D-03-6.857142D+00

 Zeroth-order vectors:
 State #    1
       MC st            1           2           3
       Coeff    9.382D-01   3.458D-01   1.216D-02
 State #    2
       MC st            2           1           3
       Coeff   -9.380D-01   3.460D-01  -2.226D-02
 State #    3
       MC st            3           2           1
       Coeff    9.997D-01  -2.509D-02  -3.706D-03

 *** GMC-QDPT computation

 (Integral reading:  CPU/Wall time =           0.00 /           0.00 sec.)

 One-external:
   0 -ionized terms: CPU/Wall time =           0.03 /           0.03 sec.
 (-1)-ionized terms: CPU/Wall time =           0.08 /           0.09 sec.
 (+1)-ionized terms: CPU/Wall time =           0.03 /           0.02 sec.
 (+1)-ionized terms: CPU/Wall time =           0.00 /           0.01 sec.
 (+2)-ionized terms: CPU/Wall time =           0.01 /           0.00 sec.

 Internal:
 # of macro loops for internal contribution =         1 (input)
 Loop:    1
 Dimension of internal CISD space     =         0  (after screening)
 Space construction: CPU/Wall time =           0.01 /           0.02 sec.
 Internal terms:     CPU/Wall time =           0.00 /           0.00 sec.

 Two-external:
   0 -ionized terms: CPU/Wall time =           0.06 /           0.06 sec.
 (-1)-ionized terms: CPU/Wall time =           1.00 /           1.00 sec.
 (-2)-ionized terms: CPU/Wall time =           0.17 /           0.17 sec.

 Total time:         CPU/Wall time =           1.39 /           1.40 sec.

 ***                  ***
 *** GMC-QDPT Results ***
 ***                  ***

 Diagonal elements of effective Hamiltonian:
 Heff(  1) =   -55.90742263
 Heff(  2) =   -55.84558472
 Heff(  3) =   -55.61416054

 Off-diagonal elements of effective Hamiltonian:
                   1            2
     2 -2.511765D-02
     3  3.655835D-03-4.480544D-03

 ******** GMC-QDPT energies ********
 ----------------------------------------------------------------------------
   State                        1st order                           2nd order
 ----------------------------------------------------------------------------
     1     E(REF-CI)=      -55.8168547211   E(GMC-QDPT2)=      -55.9163518604
     2     E(REF-CI)=      -55.7299178518   E(GMC-QDPT2)=      -55.8368011941
     3     E(REF-CI)=      -55.5025028667   E(GMC-QDPT2)=      -55.6140148369
 ----------------------------------------------------------------------------

 Excitation energies (invalid if E(1)/=E(GS)):
 ----------------------------------------------------------------------------
   State                        1st order                           2nd order
 ----------------------------------------------------------------------------

     TZ Sorted GMC-PT ENERGIES:
         1      -55.9163518604
         2      -55.8368011941
         3      -55.6140148369
     2     E(REF-CI)=        2.3656739 eV   E(GMC-QDPT2)=        2.1646850 eV
     3     E(REF-CI)=        8.5539541 eV   E(GMC-QDPT2)=        8.2270137 eV
 ----------------------------------------------------------------------------

 Main characters of perturbed GMC-QDPT states:

 State #    1  Energy =     -55.916351860  S =  0.500

      Det      Coef    Occupancy (Ignoring core)
      ---      ----    --------- --------- -----
        1   -0.964123  11110001110000
       71    0.142650  11110001011000
      357   -0.052507  11010101100010
      753   -0.077541  10110011010001

 State #    2  Energy =     -55.836801194  S =  0.500

      Det      Coef    Occupancy (Ignoring core)
      ---      ----    --------- --------- -----
        1   -0.147504  11110001110000
       71   -0.968230  11110001011000
      177    0.051610  11101001010100
      462    0.053387  11010101001010

 State #    3  Energy =     -55.614014837  S =  0.500

      Det      Coef    Occupancy (Ignoring core)
      ---      ----    --------- --------- -----
       36   -0.970324  11110001101000
      123   -0.053723  10110010111000
      142    0.053090  11101001100100
      823   -0.079055  10110011001001

 <<<Max |V/de| = 2.944D-02  Thresh = 1.000D+00

 Oscillator strength (invalid if E(1)/=E(GS)):
 ----------------------------------------------------------------------------
   State                        1st order                           2nd order
 ----------------------------------------------------------------------------
     2     F(REF-CI)=        0.0012991129     F(GMC-PT2)=        0.0012543350
     3     F(REF-CI)=        0.0064325405     F(GMC-PT2)=        0.0062828650
 ----------------------------------------------------------------------------

 Dipole moment matrix elements, x, y, z, in A.U.
States    1    1        0.0881980424       -0.3709228946        0.6554061902
States    1    2       -0.0043872089        0.0379060318       -0.1489815767
States    1    3       -0.0970764641        0.1215741330        0.0834708753
States    2    1       -0.0043872089        0.0379060318       -0.1489815767
States    2    2       -0.1227834573       -0.3317584082        0.3405449356
States    2    3       -0.0816497370       -0.0310180842       -0.0028940020
States    3    1       -0.0970764641        0.1215741330        0.0834708753
States    3    2       -0.0816497370       -0.0310180842       -0.0028940020
States    3    3        0.2061509407       -0.6208097908        0.2556569726

 Oscillator strength (valid only when positive): 
 ----------------------------------------------------------------------------
  States                        1st order                           2nd order
 ----------------------------------------------------------------------------
  1  1     F(REF-CI)=        0.0000000000     F(GMC-PT2)=        0.0000000000
  1  2     F(REF-CI)=       -0.0012991129     F(GMC-PT2)=       -0.0012543350
  1  3     F(REF-CI)=       -0.0064325405     F(GMC-PT2)=       -0.0062828650
  2  1     F(REF-CI)=        0.0012991129     F(GMC-PT2)=        0.0012543350
  2  2     F(REF-CI)=        0.0000000000     F(GMC-PT2)=        0.0000000000
  2  3     F(REF-CI)=       -0.0011772012     F(GMC-PT2)=       -0.0011343058
  3  1     F(REF-CI)=        0.0064325405     F(GMC-PT2)=        0.0062828650
  3  2     F(REF-CI)=        0.0011772012     F(GMC-PT2)=        0.0011343058
  3  3     F(REF-CI)=        0.0000000000     F(GMC-PT2)=        0.0000000000
 CPU     0: STEP CPU TIME=     1.91 TOTAL CPU TIME=         15.4 (      0.3 MIN)
 TOTAL WALL CLOCK TIME=         15.4 SECONDS, CPU UTILIZATION IS    99.94%

     !!! DIABATIZATION FOR REF CI STATES !!!

 *******************************************************
          $DMO GROUP FOUND IN THE INPUT.
        DIABATIZATION OF ADIABATIC STATES BEGINS.
     PROGRAMMED BY TAO ZENG (CARLETON UNIVERSITY).
               Email: toby.zeng@carleton.ca
     See T. Zeng, J. Chem. Phys. 2017, 146, 144103
 *******************************************************

 *************************************************************************
     STEP 1: TRANSFORMATION OF ADIABATIC STATES TO THE DMO REPRESENTATION
         See Atchity and Ruedenberg, J. Chem. Phys. 1999, 111, 2910
 *************************************************************************

Read in Diabatic Molecualr Orbitals:

                      1          2          3          4          5

    1  N  1  S    0.008609   0.000000   0.000000  -0.013219   0.279491
    2  N  1  S    0.442914  -0.000000   0.000000  -0.184329   0.867803
    3  N  1  S    0.276913   0.000000  -0.000000  -0.288315   0.144236
    4  N  1  X   -0.000000   0.493155  -0.024636  -0.000000  -0.000000
    5  N  1  Y    0.000000   0.024636   0.493155  -0.000000   0.000000
    6  N  1  Z    0.090197   0.000000   0.000000   0.593421   0.705309
    7  N  1  X   -0.000000   0.210628  -0.010522   0.000000   0.000000
    8  N  1  Y    0.000000   0.010522   0.210628  -0.000000  -0.000000
    9  N  1  Z   -0.004381   0.000000   0.000000   0.381592  -0.106092
   10  N  1 XX   -0.000457   0.010719  -0.000535  -0.012387   0.006153
   11  N  1 YY   -0.000457  -0.010719   0.000535  -0.012387   0.006153
   12  N  1 ZZ    0.000914  -0.000000   0.000000   0.024773  -0.012306
   13  N  1 XY    0.000000  -0.000618  -0.012377  -0.000000   0.000000
   14  N  1 XZ   -0.000000   0.026529  -0.001325  -0.000000   0.000000
   15  N  1 YZ    0.000000   0.001325   0.026529  -0.000000   0.000000
   16  H  2  S    0.194462  -0.176074   0.343485   0.112865  -0.523343
   17  H  2  S    0.003574  -0.023812   0.046452   0.024014  -0.054445
   18  H  2  X    0.018760   0.009101   0.022834   0.009336  -0.039151
   19  H  2  Y   -0.032493   0.022287  -0.020044  -0.016171   0.067811
   20  H  2  Z   -0.009251   0.008464  -0.016511   0.018769  -0.010566
   21  H  3  S    0.194462  -0.209430  -0.324227   0.112865  -0.523343
   22  H  3  S    0.003574  -0.028322  -0.043847   0.024014  -0.054445
   23  H  3  X    0.018760   0.006781  -0.023627   0.009336  -0.039151
   24  H  3  Y    0.032493  -0.024174  -0.017723   0.016171  -0.067811
   25  H  3  Z   -0.009251   0.010067   0.015585   0.018769  -0.010566
   26  H  4  S    0.194462   0.385503  -0.019258   0.112865  -0.523343
   27  H  4  S    0.003574   0.052134  -0.002604   0.024014  -0.054445
   28  H  4  X   -0.037519  -0.032295   0.001613  -0.018672   0.078302
   29  H  4  Y    0.000000   0.001067   0.021353  -0.000000   0.000000
   30  H  4  Z   -0.009251  -0.018530   0.000926   0.018769  -0.010566

                      6          7

    1  N  1  S    0.000000  -0.000000
    2  N  1  S    0.000000  -0.000000
    3  N  1  S   -0.000000   0.000000
    4  N  1  X   -0.930415  -0.002083
    5  N  1  Y   -0.002083   0.930415
    6  N  1  Z   -0.000000   0.000000
    7  N  1  X   -0.046866  -0.000105
    8  N  1  Y   -0.000105   0.046866
    9  N  1  Z   -0.000000   0.000000
   10  N  1 XX    0.001538   0.000003
   11  N  1 YY   -0.001538  -0.000003
   12  N  1 ZZ   -0.000000   0.000000
   13  N  1 XY   -0.000004   0.001776
   14  N  1 XZ    0.039985   0.000090
   15  N  1 YZ    0.000090  -0.039985
   16  H  2  S   -0.362630  -0.631354
   17  H  2  S   -0.065964  -0.114846
   18  H  2  X    0.002763  -0.037520
   19  H  2  Y    0.037435   0.040736
   20  H  2  Z    0.001882   0.003276
   21  H  3  S   -0.365454   0.629724
   22  H  3  S   -0.066477   0.114549
   23  H  3  X    0.002595   0.037532
   24  H  3  Y   -0.037617   0.040567
   25  H  3  Z    0.001896  -0.003268
   26  H  4  S    0.728084   0.001630
   27  H  4  S    0.132441   0.000297
   28  H  4  X   -0.062317  -0.000140
   29  H  4  Y    0.000055  -0.024345
   30  H  4  Z   -0.003778  -0.000008

NUMBER OF SUB ACTIVE SPACES:   1
ROTATE ACTIVE MOS TO DMOS IN EACH SUB-SPACE

SPACE  1:

OVERLAP BETWEEN ORTHONORMAL AND PRE-ORTHONORMAL REF. DMOS

             1           2           3           4           5

    1    0.9716884  -0.0116327  -0.0280772  -0.0101267  -0.0014692
    2   -0.0116327   0.9111566  -0.0881427  -0.0023968  -0.0164687
    3   -0.0280772  -0.0881427   0.9861369  -0.0468098   0.0842236
    4   -0.0101267  -0.0023968  -0.0468098   0.9925365  -0.0122950
    5   -0.0014692  -0.0164687   0.0842236  -0.0122950   1.1764966
    6   -0.0025517  -0.0524698  -0.0657779   0.0156068  -0.0751879
    7    0.0008447   0.0934969  -0.0109814   0.0615582  -0.0402481

             6           7

    1   -0.0025517   0.0008447
    2   -0.0524698   0.0934969
    3   -0.0657779  -0.0109814
    4    0.0156068   0.0615582
    5   -0.0751879  -0.0402481
    6    1.0500889  -0.0077371
    7   -0.0077371   1.0677071
REFERENCE DMOS AFTER ORTHONORMALIZATION:

                      1          2          3          4          5

    1  N  1  S    0.008602   0.002516  -0.019421  -0.012007   0.240243
    2  N  1  S    0.453804   0.012960  -0.053933  -0.177501   0.745117
    3  N  1  S    0.281777   0.002243  -0.014826  -0.288277   0.122576
    4  N  1  X    0.002766   0.492743  -0.034500   0.016020  -0.047774
    5  N  1  Y    0.013612  -0.011742   0.510549  -0.030986  -0.004627
    6  N  1  Z    0.099863   0.015601  -0.016871   0.605976   0.609129
    7  N  1  X    0.002969   0.232217   0.007895   0.002764  -0.000083
    8  N  1  Y    0.006742   0.029071   0.219263   0.007441  -0.012820
    9  N  1  Z    0.000156   0.003892   0.025339   0.386326  -0.089455
   10  N  1 XX   -0.000452   0.011950  -0.000371  -0.012440   0.005457
   11  N  1 YY   -0.000794  -0.012173  -0.001681  -0.012630   0.005010
   12  N  1 ZZ    0.001247   0.000224   0.002053   0.025070  -0.010467
   13  N  1 XY   -0.000408  -0.002149  -0.012900  -0.000704   0.000893
   14  N  1 XZ    0.000608   0.032098   0.003957  -0.000186   0.002650
   15  N  1 YZ    0.000971   0.008124   0.027775   0.003644  -0.003034
   16  H  2  S    0.209708  -0.123191   0.363739   0.169942  -0.515167
   17  H  2  S    0.005037  -0.014974   0.046778   0.033587  -0.057474
   18  H  2  X    0.020450   0.016469   0.028627   0.012904  -0.036106
   19  H  2  Y   -0.033881   0.021156  -0.022615  -0.019980   0.063245
   20  H  2  Z   -0.009681   0.007571  -0.014803   0.017973  -0.007581
   21  H  3  S    0.184599  -0.352429  -0.336202   0.063206  -0.430915
   22  H  3  S    0.001485  -0.051698  -0.048082   0.015681  -0.044260
   23  H  3  X    0.018736   0.001753  -0.020033   0.006226  -0.030637
   24  H  3  Y    0.032434  -0.035092  -0.017009   0.013355  -0.058171
   25  H  3  Z   -0.008618   0.013331   0.018656   0.019914  -0.009958
   26  H  4  S    0.211530   0.475525   0.114260   0.109960  -0.402496
   27  H  4  S    0.005465   0.066297   0.016229   0.023147  -0.038372
   28  H  4  X   -0.039726  -0.040082  -0.013123  -0.018639   0.063236
   29  H  4  Y    0.000761   0.005777   0.022329   0.002471  -0.002200
   30  H  4  Z   -0.009602  -0.020930   0.000119   0.018717  -0.009446

                      6          7

    1  N  1  S    0.016380   0.009440
    2  N  1  S    0.054632   0.036669
    3  N  1  S    0.013082   0.020764
    4  N  1  X   -0.867628  -0.054469
    5  N  1  Y    0.036053   0.879556
    6  N  1  Z    0.034475  -0.013345
    7  N  1  X   -0.032725  -0.020754
    8  N  1  Y    0.014391   0.042790
    9  N  1  Z   -0.010555  -0.025802
   10  N  1 XX    0.002612  -0.000105
   11  N  1 YY   -0.001619   0.001951
   12  N  1 ZZ   -0.000993  -0.001847
   13  N  1 XY   -0.000833   0.001787
   14  N  1 XZ    0.040107  -0.002285
   15  N  1 YZ    0.001681  -0.038189
   16  H  2  S   -0.372092  -0.608869
   17  H  2  S   -0.066051  -0.110356
   18  H  2  X    0.002237  -0.038393
   19  H  2  Y    0.040327   0.039922
   20  H  2  Z    0.000417   0.000942
   21  H  3  S   -0.413659   0.594163
   22  H  3  S   -0.071503   0.108226
   23  H  3  X   -0.000691   0.033258
   24  H  3  Y   -0.042649   0.037595
   25  H  3  Z    0.002570  -0.005534
   26  H  4  S    0.693923  -0.055589
   27  H  4  S    0.127322  -0.007224
   28  H  4  X   -0.057414   0.006318
   29  H  4  Y    0.001375  -0.023293
   30  H  4  Z   -0.005611   0.000358

 -------------------------------------------
       MAXIMIZING MORMO OVERLAP TERM        
 -------------------------------------------
   SWEEP    VALUE       PROGRESS
     0     4.74066
     1     6.89912     2.15846424
     2     6.93757     0.03844913
     3     6.93758     0.00000450
     4     6.93758     0.00000000
     5     6.93758     0.00000000
 THE ROTATION IS DONE
ACTIVE ORBITALS AFTER MORMO:

                      1          2          3          4          5

    1  N  1  S    0.006745  -0.005529  -0.027122  -0.012168   0.178205
    2  N  1  S    0.425409  -0.021666  -0.059608  -0.190035   0.663751
    3  N  1  S    0.338609   0.047322   0.026145  -0.270768   0.223821
    4  N  1  X   -0.010308   0.441915  -0.063986   0.002856  -0.047161
    5  N  1  Y    0.007138  -0.036021   0.480836  -0.045593   0.016585
    6  N  1  Z    0.083850   0.007760  -0.043456   0.604926   0.581660
    7  N  1  X    0.016130   0.295641   0.069265   0.002250   0.007972
    8  N  1  Y    0.014533   0.088790   0.233520   0.057674  -0.052433
    9  N  1  Z    0.030231   0.009547   0.069705   0.386627  -0.049426
   10  N  1 XX   -0.000287   0.011061   0.006749  -0.005859  -0.000759
   11  N  1 YY    0.000452  -0.010051  -0.007076  -0.014575  -0.009043
   12  N  1 ZZ   -0.000165  -0.001010   0.000327   0.020434   0.009802
   13  N  1 XY   -0.007609  -0.016650  -0.022572  -0.002400   0.050245
   14  N  1 XZ    0.002329   0.022176   0.003054  -0.005079   0.003891
   15  N  1 YZ   -0.002573   0.007004   0.014920   0.001608   0.035920
   16  H  2  S    0.185253  -0.153520   0.355858   0.131489  -0.503806
   17  H  2  S    0.001940  -0.003271   0.050555   0.038648  -0.069740
   18  H  2  X    0.023018  -0.002717   0.036679   0.008946  -0.039168
   19  H  2  Y   -0.025076   0.028617  -0.017137  -0.007378   0.040930
   20  H  2  Z   -0.002276   0.004980  -0.005974   0.022251  -0.012593
   21  H  3  S    0.181423  -0.263279  -0.311466   0.083144  -0.456407
   22  H  3  S   -0.001216  -0.140814  -0.091168   0.022563  -0.068377
   23  H  3  X    0.007908   0.017098  -0.003592   0.007019  -0.034986
   24  H  3  Y    0.030933  -0.018547  -0.018685   0.018053  -0.034874
   25  H  3  Z   -0.013237   0.013523   0.028625   0.016473  -0.009023
   26  H  4  S    0.185366   0.386677   0.025272   0.098355  -0.400315
   27  H  4  S    0.011306   0.151391   0.065858   0.035871  -0.055100
   28  H  4  X   -0.024918  -0.024051   0.011203  -0.009742   0.043021
   29  H  4  Y    0.015877   0.034941   0.013086   0.008175  -0.005831
   30  H  4  Z   -0.005672  -0.015249   0.010823   0.017137  -0.022464

                      6          7

    1  N  1  S    0.037480   0.076735
    2  N  1  S    0.074149   0.171531
    3  N  1  S   -0.021647  -0.165601
    4  N  1  X   -0.885998  -0.025022
    5  N  1  Y    0.017583   0.848203
    6  N  1  Z    0.047785  -0.030056
    7  N  1  X   -0.014743  -0.070020
    8  N  1  Y    0.054470   0.102219
    9  N  1  Z   -0.040628  -0.034047
   10  N  1 XX   -0.002009  -0.049422
   11  N  1 YY   -0.010476   0.028453
   12  N  1 ZZ    0.012485   0.020969
   13  N  1 XY   -0.037533   0.031390
   14  N  1 XZ    0.032098   0.023559
   15  N  1 YZ   -0.011099  -0.028182
   16  H  2  S   -0.366863  -0.576569
   17  H  2  S   -0.071401  -0.123926
   18  H  2  X   -0.022003  -0.037146
   19  H  2  Y    0.033686   0.034603
   20  H  2  Z   -0.021315  -0.014132
   21  H  3  S   -0.316783   0.585760
   22  H  3  S   -0.171610   0.173576
   23  H  3  X    0.034100   0.032308
   24  H  3  Y   -0.030367   0.015239
   25  H  3  Z    0.020006  -0.005320
   26  H  4  S    0.624508   0.039422
   27  H  4  S    0.234252  -0.045702
   28  H  4  X   -0.040243  -0.021305
   29  H  4  Y    0.033968  -0.033983
   30  H  4  Z    0.002449   0.023048

Actually Used Diabatic Molecualr Orbitals:

                      1          2          3          4          5

    1  N  1  S    0.006745  -0.005529  -0.027122  -0.012168   0.178205
    2  N  1  S    0.425409  -0.021666  -0.059608  -0.190035   0.663751
    3  N  1  S    0.338609   0.047322   0.026145  -0.270768   0.223821
    4  N  1  X   -0.010308   0.441915  -0.063986   0.002856  -0.047161
    5  N  1  Y    0.007138  -0.036021   0.480836  -0.045593   0.016585
    6  N  1  Z    0.083850   0.007760  -0.043456   0.604926   0.581660
    7  N  1  X    0.016130   0.295641   0.069265   0.002250   0.007972
    8  N  1  Y    0.014533   0.088790   0.233520   0.057674  -0.052433
    9  N  1  Z    0.030231   0.009547   0.069705   0.386627  -0.049426
[...]
 STATE #  3'S GMC-PT-LEVEL DIABATIC ENERGY=     -55.703292671       5.259419058

 --- DIABATIC COUPLINGS (OFF DIAGONAL ELEMENTS)---  HATREE            EV
 STATE #  1 &  2'S GMC-PT-LEVEL COUPLING  =      -0.010277572      -0.279666992
 STATE #  1 &  3'S GMC-PT-LEVEL COUPLING  =       0.058447387       1.590434395
 STATE #  2 &  3'S GMC-PT-LEVEL COUPLING  =      -0.106516147      -2.898451987

 ---------------------------------------
     - ROTATION TO DIABATIC STATES -    
 ---------------------------------------
 ROWS=ADIABATIC, COLUMNS=DIABATIC STATES

             1           2           3

    1    0.9212148  -0.1821545  -0.3437777
    2   -0.3415118  -0.8018850  -0.4902551
    3    0.1863680  -0.5690344   0.8009163

 ---------------------------------------
          - DIABATIC STATES -           
 ---------------------------------------

 State #    1  Energy =     -55.896572759

      Det      Coef        Coefp    Occupancy (Ignoring core)
      ---      ----        ----    --------- --------- -----
        1    0.904836   -0.904836  222+000
        3    0.144905    0.144905  22-++00
      141   -0.139268   -0.139268  22++-00
       18    0.133012   -0.133012  2-2+00+
        8   -0.131475    0.131475  2-2+0+0
      736   -0.127289    0.127289  2+2+00-
      386    0.100818   -0.100818  2+2+0-0
       16    0.097690   -0.097690  222000+
        7   -0.086991   -0.086991  22-+0+0
      351    0.083757    0.083757  22++0-0
      717   -0.070273   -0.070273  220+002
      393   -0.066639   -0.066639  202+020
       17    0.054401    0.054401  22-+00+
      215   -0.039484   -0.039484  022+200
      708    0.037877   -0.037877  2-++0+-
      402    0.036125   -0.036125  2+-+0-+
      218    0.035238   -0.035238  +-2+-+0
      390    0.034645   -0.034645  -+2++-0
      738   -0.034523   -0.034523  2+-++0-
      179   -0.034260   -0.034260  202+200
      705   -0.033906   -0.033906  -2+++0-
      158   -0.033485   -0.033485  2-++-0+
      227   -0.033319   -0.033319  +2-+-0+
     1051   -0.032232   -0.032232  2+++0--
      212    0.031875    0.031875  +220200
       13   -0.031567   -0.031567  2--+++0
       76    0.030657    0.030657  2+2-0+0
      701   -0.030387   -0.030387  22++00-
       23    0.029203    0.029203  2--++0+
      387   -0.028733    0.028733  2+20+-0
       29   -0.028609   -0.028609  2--+0++
      148    0.027806    0.027806  2-++-+0
      911    0.027248    0.027248  2+++-0-
        5    0.027063    0.027063  -22++00
       27    0.026664   -0.026664  2-200++
      561   -0.026248   -0.026248  2+++--0
      113   -0.026232    0.026232  +-220+0
      773    0.025906   -0.025906  +2-++0-
      702    0.025751    0.025751  22+0+0-
       20   -0.025735   -0.025735  22-0+0+
      388    0.025094    0.025094  2+-++-0
      122    0.024897    0.024897  +2-200+
      424   -0.024874   -0.024874  +-2++-0
      184   -0.024677   -0.024677  -+2+-+0
      751   -0.024671    0.024671  2+20002
       51   -0.024013    0.024013  22+-00+
      159    0.022956   -0.022956  -2++-0+
      401   -0.020467   -0.020467  2+200-+

 State #    2  Energy =     -55.767302461

      Det      Coef        Coefp    Occupancy (Ignoring core)
      ---      ----        ----    --------- --------- -----
       71   -0.907925    0.907925  2+22000
      246   -0.159222   -0.159222  2++2-00
       73    0.149697   -0.149697  2+-2+00
       88   -0.125972    0.125972  202200+
      736   -0.116586    0.116586  2+2+00-
       86    0.112569    0.112569  2+2-00+
       77   -0.102398    0.102398  2+-20+0
      456    0.098021    0.098021  2++20-0
       78    0.082253   -0.082253  20220+0
      822    0.071992   -0.071992  2+02002
       72   -0.054287   -0.054287  2+2-+00
       36    0.045020    0.045020  22+2000
      813    0.044737   -0.044737  20+20+-
       99   -0.042441    0.042441  20-20++
      320    0.040613    0.040613  0+22200
      810   -0.035509   -0.035509  -++2+0-
      177    0.035484   -0.035484  2+20200
      183   -0.035381    0.035381  202+-+0
      263   -0.035165   -0.035165  20+2-0+
      317    0.034903   -0.034903  ++2-200
      111    0.034854   -0.034854  +22-0+0
      180   -0.034809    0.034809  -+2+200
      323   -0.034377    0.034377  +022-+0
       76    0.033186    0.033186  2+2-0+0
      176    0.033152   -0.033152  2+2+-00
      332   -0.032966    0.032966  ++-2-0+
       90    0.032095    0.032095  2+--+0+
       93    0.030605   -0.030605  20-2+0+
      911    0.030319    0.030319  2+++-0-
      807   -0.029832    0.029832  2++-+0-
       83   -0.029821    0.029821  20-2++0
       97    0.029330    0.029330  202-0++
      192   -0.028357    0.028357  2+-+-0+
      753    0.028139    0.028139  202+002
      108    0.027734    0.027734  +2-2+00
       81    0.027481    0.027481  202-++0
       74    0.027386   -0.027386  2022+00
      526   -0.027369   -0.027369  ++220-0
      878    0.026270    0.026270  ++-2+0-
      806   -0.026136   -0.026136  2++200-
      743   -0.025613   -0.025613  202+0+-
      253    0.024734    0.024734  20+2-+0
      391    0.024588   -0.024588  2+20020
      264    0.024472   -0.024472  -++2-0+
      252   -0.024300   -0.024300  2+02-+0
      742    0.022788    0.022788  2+-+0+-
        6    0.021923   -0.021923  22200+0
      316    0.021798    0.021798  ++22-00
      529    0.021431    0.021431  +022+-0
        4    0.021134   -0.021134  2-2++00
      113    0.020524   -0.020524  +-220+0

 State #    3  Energy =     -55.703292671

      Det      Coef        Coefp    Occupancy (Ignoring core)
      ---      ----        ----    --------- --------- -----
       36   -0.902835   -0.902835  22+2000
       53   -0.149615   -0.149615  2-+200+
       38   -0.147021    0.147021  2202+00
      806    0.138574    0.138574  2++200-
       51    0.120211   -0.120211  22+-00+
      701   -0.112212   -0.112212  22++00-
       43    0.096483    0.096483  2-+20+0
      456   -0.087831   -0.087831  2++20-0
       42    0.080171   -0.080171  22020+0
      106   -0.073320   -0.073320  +222000
      463    0.071701   -0.071701  20+2020
       73    0.049348   -0.049348  2+-2+00
      472   -0.043945   -0.043945  2+020-+
       71   -0.042088    0.042088  2+22000
       64    0.041663   -0.041663  2-020++
       37   -0.041051    0.041051  22+-+00
      123    0.040197   -0.040197  +-2200+
      285    0.039900   -0.039900  02+2200
      249    0.039876   -0.039876  20+2200
       39   -0.038867   -0.038867  2-+2+00
      288   -0.038576   -0.038576  +-+2-+0
      460   -0.037728   -0.037728  -++2+-0
      282    0.037189    0.037189  +2+-200
      145   -0.036333   -0.036333  -2++200
      457   -0.035301    0.035301  2++-+-0
      142    0.035247    0.035247  22+0200
      297    0.034832   -0.034832  +202-0+
      808    0.034006   -0.034006  2+02+0-
      148   -0.033646   -0.033646  2-++-+0
       55   -0.032060   -0.032060  220-+0+
      109    0.031605   -0.031605  +-22+00
      718    0.030960   -0.030960  2-++002
       58   -0.030310    0.030310  2-02+0+
      121   -0.030186    0.030186  +22-00+
      112   -0.029459   -0.029459  +2-20+0
      113   -0.028979    0.028979  +-220+0
      821   -0.028483    0.028483  2++-002
      157    0.028276   -0.028276  220+-0+
       86    0.028018    0.028018  2+2-00+
      494    0.026939   -0.026939  +-+2+-0
       44    0.026848   -0.026848  -2+20+0
      876   -0.026826   -0.026826  ++2200-
      254    0.026082   -0.026082  -++2-+0
      141    0.025968    0.025968  22++-00
       78    0.024379   -0.024379  20220+0
      253    0.023932    0.023932  20+2-+0
       62    0.022953   -0.022953  2-+-0++
       46    0.022923   -0.022923  2-+-++0
       16   -0.022741    0.022741  222000+
       48    0.021531   -0.021531  2-02++0
     1051    0.021405    0.021405  2+++0--
       56   -0.021171    0.021171  2-+-+0+
      843   -0.020943   -0.020943  +202+0-
      708   -0.020423    0.020423  2-++0+-
      859    0.020174   -0.020174  02+2002

 ---------------------------------------
      - DIABATIC STATES IN CMO -        
 ---------------------------------------

 State #    1  Energy =     -55.896572759

      Det      Coef        Coefp    Occupancy (Ignoring core)
      ---      ----        ----    --------- --------- -----
        1    0.840547   -0.840547  222+000
       71   -0.459669    0.459669  2+22000
       36   -0.173726   -0.173726  22+2000
      753   -0.068968   -0.068968  202+002
      357   -0.048672   -0.048672  220+020
      177    0.043567   -0.043567  2+20200
      106   -0.040284   -0.040284  +222000
      179   -0.036698   -0.036698  202+200
      143   -0.032476   -0.032476  220+200
        7    0.031018    0.031018  22-+0+0
      752    0.030558    0.030558  2+-+002
      718   -0.030436    0.030436  2-++002
      215   -0.030360   -0.030360  022+200
        2    0.030239   -0.030239  2220+00
      212    0.029715    0.029715  +220200
      180   -0.029556    0.029556  -+2+200
       18    0.029534   -0.029534  2-2+00+
      462    0.028737   -0.028737  2+02020
      193    0.027478   -0.027478  202+-0+
      123    0.027425   -0.027425  +-2200+
       86   -0.024991   -0.024991  2+2-00+
      178   -0.024566   -0.024566  2+-+200
      737    0.024328   -0.024328  2+20+0-
      717   -0.024219   -0.024219  220+002
      248    0.022952   -0.022952  2+02200
       74   -0.022414    0.022414  2022+00
      742    0.022405    0.022405  2+-+0+-
      355   -0.022103   -0.022103  -2+++-0
      217   -0.021259   -0.021259  +2-+-+0
      754    0.020869   -0.020869  -+2+002
      352    0.020817    0.020817  22+0+-0
      911    0.020760    0.020760  2+++-0-
      740   -0.020151    0.020151  -+2++0-
      182   -0.020017    0.020017  2+-+-+0

 State #    2  Energy =     -55.767302461

      Det      Coef        Coefp    Occupancy (Ignoring core)
      ---      ----        ----    --------- --------- -----
       71   -0.757767    0.757767  2+22000
       36    0.539546    0.539546  22+2000
        1   -0.302319    0.302319  222+000
      823   -0.071092    0.071092  20+2002
      822    0.041549   -0.041549  2+02002
      177    0.038222   -0.038222  2+20200
      108    0.037444    0.037444  +2-2+00
        3   -0.031527   -0.031527  22-++00
      462    0.031313   -0.031313  2+02020
      111    0.029979   -0.029979  +22-0+0
      248    0.027313   -0.027313  2+02200
      317    0.026950   -0.026950  ++2-200
       37    0.026927   -0.026927  22+-+00
      320    0.026451    0.026451  0+22200
      142   -0.024913   -0.024913  22+0200
      807   -0.024156    0.024156  2++-+0-
      357    0.023642    0.023642  220+020
       78    0.023179   -0.023179  20220+0
      812    0.023165   -0.023165  2+020+-
       93    0.022620   -0.022620  20-2+0+
       91   -0.021541   -0.021541  202-+0+
      753    0.021364    0.021364  202+002
      285   -0.021340    0.021340  02+2200
      180   -0.021305    0.021305  -+2+200
       72   -0.021203   -0.021203  2+2-+00
       40   -0.020501    0.020501  -2+2+00
        4    0.020408   -0.020408  2-2++00

 State #    3  Energy =     -55.703292671

      Det      Coef        Coefp    Occupancy (Ignoring core)
      ---      ----        ----    --------- --------- -----
       36   -0.787756   -0.787756  22+2000
       71   -0.415305    0.415305  2+22000
        1   -0.391911    0.391911  222+000
      142    0.050013    0.050013  22+0200
      123    0.049992   -0.049992  +-2200+
      823    0.048296   -0.048296  20+2002
       72    0.037988    0.037988  2+2-+00
      462    0.037662   -0.037662  2+02020
        4   -0.036720    0.036720  2-2++00
      107    0.035770   -0.035770  +22-+00
        2   -0.035263    0.035263  2220+00
      145   -0.034539   -0.034539  -2++200
      249    0.033800   -0.033800  20+2200
      248    0.033748   -0.033748  2+02200
      143    0.033727    0.033727  220+200
      158    0.031377    0.031377  2-++-0+
      753    0.029423    0.029423  202+002
      285    0.028795   -0.028795  02+2200
      282    0.028139    0.028139  +2+-200
       74   -0.028045    0.028045  2022+00
       89   -0.027421   -0.027421  -+2200+
       16   -0.026089    0.026089  222000+
      247    0.025929   -0.025929  2++-200
        3    0.025627    0.025627  22-++00
       43   -0.025482   -0.025482  2-+20+0
      109    0.025084   -0.025084  +-22+00
      263   -0.024808   -0.024808  20+2-0+
      108   -0.024118   -0.024118  +2-2+00
      144   -0.023512    0.023512  2-++200
      463    0.022779   -0.022779  20+2020
      876   -0.022571   -0.022571  ++2200-
      911   -0.021991   -0.021991  2+++-0-
       77    0.021837   -0.021837  2+-20+0
        5   -0.021762   -0.021762  -22++00
       38    0.021421   -0.021421  2202+00
      473    0.020952    0.020952  20+20-+
      859    0.020893   -0.020893  02+2002
      122    0.020855    0.020855  +2-200+
      807    0.020156   -0.020156  2++-+0-

 ---------------------------------------
    -DIABATIC STATES IN PROTOTYPES-     
 ---------------------------------------

     STATE:    1
 Group Ref#    Coefficients
     1    1    0.925483
     2    2   -0.008803
     3    3    0.000671

WEIGHT OF LISTED PROTOTYPES:   85.66%

     STATE:    2
 Group Ref#    Coefficients
     1    1   -0.008826
     2    2    0.923059
     3    3    0.003224

WEIGHT OF LISTED PROTOTYPES:   85.21%

     STATE:    3
 Group Ref#    Coefficients
     1    1    0.000674
     2    2    0.003233
     3    3    0.920467

WEIGHT OF LISTED PROTOTYPES:   84.73%

     DIRECT MAX. DIABATIZATION FINISHED    
 CPU     0: STEP CPU TIME=     0.25 TOTAL CPU TIME=         15.7 (      0.3 MIN)
 TOTAL WALL CLOCK TIME=         15.7 SECONDS, CPU UTILIZATION IS    99.94%

DIABATS FOR SPIN-ORBIT CALCULATION ARE READY

TRANSITION DIPOLES BETWEEN ADIABATS (in A.U.):

STATE PAIR      X         Y         Z
    1    1  0.088198 -0.370923  0.655406
    2    1 -0.004387  0.037906 -0.148982
    2    2 -0.122783 -0.331758  0.340545
    3    1 -0.097076  0.121574  0.083471
    3    2 -0.081650 -0.031018 -0.002894
    3    3  0.206151 -0.620810  0.255657


TRANSITION DIPOLES BETWEEN DIABATS (in A.U.):

STATE PAIR      X         Y         Z
    1    1  0.047509 -0.353190  0.727570
    2    1 -0.016799 -0.057665  0.010240
    2    2 -0.105195 -0.418683  0.294646
    3    1 -0.051862  0.049815 -0.005299
    3    2 -0.113467  0.160431  0.009232
    3    3  0.229252 -0.551617  0.229392

TRANSITION DIPOLES BETWEEN DIRECT MAX. DIABATS (in A.U.):

STATE PAIR      X         Y         Z
    1    1  0.047509 -0.353192  0.727570
    2    1 -0.016801 -0.057667  0.010234
    2    2 -0.105194 -0.418683  0.294646
    3    1 -0.051863  0.049817 -0.005297
    3    2 -0.113468  0.160431  0.009233
    3    3  0.229250 -0.551616  0.229392
 No $TRANST Group Found.
 Quit without doing spin-orbit coupling
 ..... DONE WITH MP2 ENERGY .....
 CPU     0: STEP CPU TIME=     0.01 TOTAL CPU TIME=         15.7 (      0.3 MIN)
 TOTAL WALL CLOCK TIME=         15.7 SECONDS, CPU UTILIZATION IS   100.00%
            100000000  WORDS OF DYNAMIC MEMORY USED
 EXECUTION OF GAMESS TERMINATED NORMALLY Wed Nov 16 18:21:12 2022
 DDI: 715512 bytes (0.7 MB / 0 MWords) used by master data server.

 ----------------------------------------
 CPU timing information for all processes
 ========================================
 0: 15.343 + 0.352 = 15.695
 ----------------------------------------
Note: The following floating-point exceptions are signalling: IEEE_DENORMAL
 ddikick.x: exited gracefully.
unset echo
----- accounting info -----
Files used on the master node io002 were:
-rw-r--r-- 1 bsonghao nooijen   20704 Nov 16 18:20 /scratch/bsonghao/nh3_diabatization_2d_at_mode_7_8_dist-0.8_0.1.F05
-rw-r--r-- 1 bsonghao nooijen  363520 Nov 16 18:21 /scratch/bsonghao/nh3_diabatization_2d_at_mode_7_8_dist-0.8_0.1.F09
-rw-r--r-- 1 bsonghao nooijen 1995920 Nov 16 18:21 /scratch/bsonghao/nh3_diabatization_2d_at_mode_7_8_dist-0.8_0.1.F10
-rw-r--r-- 1 bsonghao nooijen  131264 Nov 16 18:21 /scratch/bsonghao/nh3_diabatization_2d_at_mode_7_8_dist-0.8_0.1.F13
-rw-r--r-- 1 bsonghao nooijen  180312 Nov 16 18:21 /scratch/bsonghao/nh3_diabatization_2d_at_mode_7_8_dist-0.8_0.1.F15
-rw-r--r-- 1 bsonghao nooijen       0 Nov 16 18:20 /scratch/bsonghao/nh3_diabatization_2d_at_mode_7_8_dist-0.8_0.1.F16
-rw-r--r-- 1 bsonghao nooijen    9808 Nov 16 18:21 /scratch/bsonghao/nh3_diabatization_2d_at_mode_7_8_dist-0.8_0.1.F70
-rw-r--r-- 1 bsonghao nooijen    9808 Nov 16 18:21 /scratch/bsonghao/nh3_diabatization_2d_at_mode_7_8_dist-0.8_0.1.F71
-rw-r--r-- 1 bsonghao nooijen   19608 Nov 16 18:21 /scratch/bsonghao/nh3_diabatization_2d_at_mode_7_8_dist-0.8_0.1.F72
-rw-r--r-- 1 bsonghao nooijen   19608 Nov 16 18:21 /scratch/bsonghao/nh3_diabatization_2d_at_mode_7_8_dist-0.8_0.1.F73
-rw-r--r-- 1 bsonghao nooijen 1920824 Nov 16 18:21 /scratch/bsonghao/nh3_diabatization_2d_at_mode_7_8_dist-0.8_0.1.F74
-rw-r--r-- 1 bsonghao nooijen       0 Nov 16 18:20 /scratch/bsonghao/nh3_diabatization_2d_at_mode_7_8_dist-0.8_0.1.F75
-rw-r--r-- 1 bsonghao nooijen   58848 Nov 16 18:21 /scratch/bsonghao/nh3_diabatization_2d_at_mode_7_8_dist-0.8_0.1.F76
-rw-r--r-- 1 bsonghao nooijen       0 Nov 16 18:20 /scratch/bsonghao/nh3_diabatization_2d_at_mode_7_8_dist-0.8_0.1.F77
-rw-r--r-- 1 bsonghao nooijen    1864 Nov 16 18:21 /scratch/bsonghao/nh3_diabatization_2d_at_mode_7_8_dist-0.8_0.1.F78
-rw-r--r-- 1 bsonghao nooijen   39208 Nov 16 18:21 /scratch/bsonghao/nh3_diabatization_2d_at_mode_7_8_dist-0.8_0.1.F79
-rw-r--r-- 1 bsonghao nooijen     104 Nov 16 18:21 /scratch/bsonghao/nh3_diabatization_2d_at_mode_7_8_dist-0.8_0.1.F80
-rw-r--r-- 1 bsonghao nooijen   13472 Nov 16 18:21 /scratch/bsonghao/nh3_diabatization_2d_at_mode_7_8_dist-0.8_0.1.F81
-rw-r--r-- 1 bsonghao nooijen      16 Nov 16 18:21 /scratch/bsonghao/nh3_diabatization_2d_at_mode_7_8_dist-0.8_0.1.F82
-rw-r--r-- 1 bsonghao nooijen   19216 Nov 16 18:21 /scratch/bsonghao/nh3_diabatization_2d_at_mode_7_8_dist-0.8_0.1.F83
-rw-r--r-- 1 bsonghao nooijen   29712 Nov 16 18:21 /scratch/bsonghao/nh3_diabatization_2d_at_mode_7_8_dist-0.8_0.1.F84
-rw-r--r-- 1 bsonghao nooijen  401576 Nov 16 18:21 /scratch/bsonghao/nh3_diabatization_2d_at_mode_7_8_dist-0.8_0.1.F85
-rw-r--r-- 1 bsonghao nooijen  903672 Nov 16 18:21 /scratch/bsonghao/nh3_diabatization_2d_at_mode_7_8_dist-0.8_0.1.F86
-rw-r--r-- 1 bsonghao nooijen     656 Nov 16 18:21 /scratch/bsonghao/nh3_diabatization_2d_at_mode_7_8_dist-0.8_0.1.F87
-rw-r--r-- 1 bsonghao nooijen   41936 Nov 16 18:21 /scratch/bsonghao/nh3_diabatization_2d_at_mode_7_8_dist-0.8_0.1.F88
-rw-r--r-- 1 bsonghao nooijen     240 Nov 16 18:21 /scratch/bsonghao/nh3_diabatization_2d_at_mode_7_8_dist-0.8_0.1.F89
-rw-r--r-- 1 bsonghao nooijen       0 Nov 16 18:20 /scratch/bsonghao/nh3_diabatization_2d_at_mode_7_8_dist-0.8_0.1.F90
-rw-r--r-- 1 bsonghao nooijen   13760 Nov 16 18:21 /scratch/bsonghao/nh3_diabatization_2d_at_mode_7_8_dist-0.8_0.1.F91
-rw-r--r-- 1 bsonghao nooijen   22776 Nov 16 18:21 /scratch/bsonghao/nh3_diabatization_2d_at_mode_7_8_dist-0.8_0.1.F92
-rw-r--r-- 1 bsonghao nooijen   23168 Nov 16 18:21 /scratch/bsonghao/nh3_diabatization_2d_at_mode_7_8_dist-0.8_0.1.F93
-rw-r--r-- 1 bsonghao nooijen   22776 Nov 16 18:21 /scratch/bsonghao/nh3_diabatization_2d_at_mode_7_8_dist-0.8_0.1.F94
-rw-r--r-- 1 bsonghao nooijen   13760 Nov 16 18:21 /scratch/bsonghao/nh3_diabatization_2d_at_mode_7_8_dist-0.8_0.1.F95
-rw-r--r-- 1 bsonghao nooijen   29440 Nov 16 18:21 /scratch/bsonghao/nh3_diabatization_2d_at_mode_7_8_dist-0.8_0.1.F96
-rw-r--r-- 1 bsonghao nooijen    1184 Nov 16 18:21 /scratch/bsonghao/nh3_diabatization_2d_at_mode_7_8_dist-0.8_0.1.F97
-rw-r--r-- 1 bsonghao nooijen    9808 Nov 16 18:21 /scratch/bsonghao/nh3_diabatization_2d_at_mode_7_8_dist-0.8_0.1.F98
-rw-r--r-- 1 bsonghao nooijen   30264 Nov 16 18:21 /scratch/bsonghao/nh3_diabatization_2d_at_mode_7_8_dist-0.8_0.1.F99
ls: No match.
ls: No match.
ls: No match.
Wed 16 Nov 2022 06:21:15 PM EST
0.302u 0.029s 0:19.06 1.6%	0+0k 48+224io 0pf+0w
