----- GAMESS execution script 'rungms' -----
This job is running on host io002
under operating system Linux at Wed 16 Nov 2022 07:31:20 PM EST
Available scratch disk space (Kbyte units) at beginning of the job is
Filesystem       1K-blocks       Used   Available Use% Mounted on
/dev/sdc1      15378471580 3278917120 11318349060  23% /scratch
GAMESS temporary binary files will be written to /scratch/bsonghao
GAMESS supplementary output files will be written to /home/bsonghao/.gamess_ascii_files/267638
Copying input file nh3_diabatization_2d_at_mode_7_8_dist0.1_0.2.inp to your run's scratch directory...
cp nh3_diabatization_2d_at_mode_7_8_dist0.1_0.2.inp /scratch/bsonghao/nh3_diabatization_2d_at_mode_7_8_dist0.1_0.2.F05
unset echo
/home/bjb2chen/gamess/ddikick.x /home/bjb2chen/gamess/gamess.00.x nh3_diabatization_2d_at_mode_7_8_dist0.1_0.2 -ddi 1 1 io002 -scr /scratch/bsonghao

 Distributed Data Interface kickoff program.
 Initiating 1 compute processes on 1 nodes to run the following command:
 /home/bjb2chen/gamess/gamess.00.x nh3_diabatization_2d_at_mode_7_8_dist0.1_0.2 

          ******************************************************
          *         GAMESS VERSION = 02 AUG 2018 (R2)         *
          *             FROM IOWA STATE UNIVERSITY             *
          * M.W.SCHMIDT, K.K.BALDRIDGE, J.A.BOATZ, S.T.ELBERT, *
          *   M.S.GORDON, J.H.JENSEN, S.KOSEKI, N.MATSUNAGA,   *
          *          K.A.NGUYEN, S.J.SU, T.L.WINDUS,           *
          *       TOGETHER WITH M.DUPUIS, J.A.MONTGOMERY       *
          *         J.COMPUT.CHEM.  14, 1347-1363(1993)        *
          **************** 64 BIT LINUX VERSION ****************

  SINCE 1993, STUDENTS AND POSTDOCS WORKING AT IOWA STATE UNIVERSITY
  AND ALSO IN THEIR VARIOUS JOBS AFTER LEAVING ISU HAVE MADE IMPORTANT
  CONTRIBUTIONS TO THE CODE:
     IVANA ADAMOVIC, CHRISTINE AIKENS, YURI ALEXEEV, POOJA ARORA,
     ANDREY ASADCHEV, ROB BELL, PRADIPTA BANDYOPADHYAY, JONATHAN BENTZ,
     BRETT BODE, KURT BRORSEN, CALEB CARLIN, GALINA CHABAN, WEI CHEN,
     CHEOL HO CHOI, PAUL DAY, ALBERT DEFUSCO, NUWAN DESILVA, TIM DUDLEY,
     DMITRI FEDOROV, ALEX FINDLATER, GRAHAM FLETCHER, MARK FREITAG,
     KURT GLAESEMANN, ANASTASIA GUININA,
     DAN KEMP, GRANT MERRILL, NORIYUKI MINEZAWA, JONATHAN MULLIN,
     TAKESHI NAGATA, SEAN NEDD, HEATHER NETZLOFF, BOSILJKA NJEGIC, RYAN OLSON,
     MIKE PAK, BUU PHAM,
     SPENCER PRUITT, LUKE ROSKOP, JIM SHOEMAKER, LYUDMILA SLIPCHENKO,
     TONY SMITH, SAROM SOK LEANG, JIE SONG, TETSUYA TAKETSUGU, SIMON WEBB,
     PENG XU, SOOHAENG YOO, FEDERICO ZAHARIEV

  ADDITIONAL CODE HAS BEEN PROVIDED BY COLLABORATORS IN OTHER GROUPS:
     IOWA STATE UNIVERSITY:
          JOE IVANIC, AARON WEST, LAIMUTIS BYTAUTAS, KLAUS RUEDENBERG
     UNIVERSITY OF TOKYO: KIMIHIKO HIRAO, TAKAHITO NAKAJIMA,
          TAKAO TSUNEDA, MUNEAKI KAMIYA, SUSUMU YANAGISAWA,
          KIYOSHI YAGI, MAHITO CHIBA, SEIKEN TOKURA, NAOAKI KAWAKAMI
     UNIVERSITY OF AARHUS: FRANK JENSEN
     UNIVERSITY OF IOWA: VISVALDAS KAIRYS, HUI LI
     NATIONAL INST. OF STANDARDS AND TECHNOLOGY: WALT STEVENS, DAVID GARMER
     UNIVERSITY OF PISA: BENEDETTA MENNUCCI, JACOPO TOMASI
     UNIVERSITY OF MEMPHIS: HENRY KURTZ, PRAKASHAN KORAMBATH
     UNIVERSITY OF ALBERTA: TOBY ZENG, MARIUSZ KLOBUKOWSKI
     UNIVERSITY OF NEW ENGLAND: MARK SPACKMAN
     MIE UNIVERSITY: HIROAKI UMEDA
     NAT. INST. OF ADVANCED INDUSTRIAL SCIENCE AND TECHNOLOGY: KAZUO KITAURA
     MICHIGAN STATE UNIVERSITY:
          KAROL KOWALSKI, MARTA WLOCH, JEFFREY GOUR, JESSE LUTZ,
          WEI LI, JUN SHEN, J. EMILIANO DEUSTUA, PIOTR PIECUCH
     UNIVERSITY OF MINNESOTA:
          YINAN SHU
     UNIVERSITY OF SILESIA: MONIKA MUSIAL, STANISLAW KUCHARSKI
     FACULTES UNIVERSITAIRES NOTRE-DAME DE LA PAIX:
          OLIVIER QUINET, BENOIT CHAMPAGNE
     UNIVERSITY OF CALIFORNIA - SANTA BARBARA: BERNARD KIRTMAN
     INSTITUTE FOR MOLECULAR SCIENCE:
          KAZUYA ISHIMURA, MICHIO KATOUDA, AND SHIGERU NAGASE
     UNIVERSITY OF NOTRE DAME: ANNA POMOGAEVA, DAN CHIPMAN
     KYUSHU UNIVERSITY:
          HARUYUKI NAKANO,
          FENG LONG GU, JACEK KORCHOWIEC, MARCIN MAKOWSKI, AND YURIKO AOKI,
          HIROTOSHI MORI AND EISAKU MIYOSHI
     PENNSYLVANIA STATE UNIVERSITY:
          TZVETELIN IORDANOV, CHET SWALINA, JONATHAN SKONE,
          SHARON HAMMES-SCHIFFER
     WASEDA UNIVERSITY:
          MASATO KOBAYASHI, TOMOKO AKAMA, TSUGUKI TOUMA,
          TAKESHI YOSHIKAWA, YASUHIRO IKABATA, JUNJI SEINO,
          YUYA NAKAJIMA, HIROMI NAKAI
     NANJING UNIVERSITY: SHUHUA LI
     UNIVERSITY OF NEBRASKA:
          PEIFENG SU, DEJUN SI, NANDUN THELLAMUREGE, YALI WANG, HUI LI
     UNIVERSITY OF ZURICH: ROBERTO PEVERATI, KIM BALDRIDGE
     N. COPERNICUS UNIVERSITY AND JACKSON STATE UNIVERSITY:
          MARIA BARYSZ
     UNIVERSITY OF COPENHAGEN: Jimmy Kromann, CASPER STEINMANN
     TOKYO INSTITUTE OF TECHNOLOGY: HIROYA NAKATA
     NAGOYA UNIVERSITY: YOSHIO NISHIMOTO, STEPHAN IRLE
     MOSCOW STATE UNIVERSITY: VLADIMIR MIRONOV

 EXECUTION OF GAMESS BEGUN Wed Nov 16 19:31:21 2022

            ECHO OF THE FIRST FEW INPUT CARDS -
 INPUT CARD> $system kdiag=3 mwords=100 memddi=1000 parall=.t. $end                         
 INPUT CARD> $contrl runtyp=energy ispher=1 $end                                            
 INPUT CARD> $contrl icut=9 itol=20 inttyp=rysquad qmttol=1.0d-05 nosym=1 $end              
 INPUT CARD> $scf    npunch=2 conv=1.0d-06 dirscf=.t.      $end                             
 INPUT CARD> $contrl scftyp=mcscf  mult=2 maxit=200 icharg=1 mplevl=2 $end                  
 INPUT CARD> $guess  guess=moread norb=29 purify=.t. $end                                   
 INPUT CARD> $basis  gbasis=ccd $end                                                        
 INPUT CARD> $mcscf  cistep=gmcci fullnr=.t. finci=mos                                      
 INPUT CARD>         acurcy=1.d-6 maxit=100 $end                                            
 INPUT CARD> $trans  dirtrf=.t. $end                                                        
 INPUT CARD> $mrmp   mrpt=gmcpt rdvecs=.f. $end                                             
 INPUT CARD> $gmcpt  nmofzc=0 nmodoc=1 nmoact=7 nelact=7 stsym(1)=A                         
 INPUT CARD>         reftyp=ormas nspace=1 mstart(1)=2 mine(1)=7 maxe(1)=7                  
 INPUT CARD>         kstate(1)=1,1,1                                                        
 INPUT CARD>         wstate(1)=1,1,1                                                        
 INPUT CARD>         iwgt=0 thrwgt=-1.0 krot=.f. kszdoe=.f. knospn=.f.                      
 INPUT CARD>         thrde=-1.0 edshft=0.02 $end                                            
 INPUT CARD> $data                                                                          
 INPUT CARD> NH3+ 3 states calculation at NH3 structure.                                    
 INPUT CARD> c1                                                                             
 INPUT CARD>N 7.0 -0.012457835999999996 -0.006228902999999999 -0.1693807922                 
 INPUT CARD>H 1.0 -0.32528758300000005 0.8891833698 0.2529240921                            
 INPUT CARD>H 1.0 -0.40171290400000004 -0.8756063978 0.20720261310000004                    
 INPUT CARD>H 1.0 0.900105456 0.07297574799999998 0.30925563310000004                       
 INPUT CARD>$end                                                                            
 INPUT CARD>--- OPTIMIZED RHF      MO-S --- GENERATED AT Mon Nov 14 16:47:08 2022           
 INPUT CARD>E=      -56.3825050291, E(NUC)=   11.8429239490                                 
 INPUT CARD> $VEC                                                                           
 INPUT CARD> 1  1-1.00134066E+00-2.25158504E-03 3.44925845E-03 0.00000000E+00 0.00000000E+00
 INPUT CARD> 1  2-2.13170927E-03 0.00000000E+00 0.00000000E+00 6.57129898E-04-6.87950443E-05
 INPUT CARD> 1  3-6.87950443E-05 1.37590089E-04 0.00000000E+00 0.00000000E+00 0.00000000E+00
 INPUT CARD> 1  4 3.25502815E-04-4.84772356E-04 3.62525460E-04-6.27912517E-04-3.45956485E-04
 INPUT CARD> 1  5 3.25502815E-04-4.84772356E-04 3.62525460E-04 6.27912517E-04-3.45956485E-04
 INPUT CARD> 1  6 3.25502815E-04-4.84772356E-04-7.25050921E-04 0.00000000E+00-3.45956485E-04
 INPUT CARD> 2  1 1.31286642E-02-4.05911371E-01-2.82090992E-01 0.00000000E+00 0.00000000E+00
 INPUT CARD> 2  2-7.71489043E-02 0.00000000E+00 0.00000000E+00 9.73717494E-03 6.62450916E-04
 INPUT CARD> 2  3 6.62450916E-04-1.32490183E-03 0.00000000E+00 0.00000000E+00 0.00000000E+00
 INPUT CARD> 2  4-1.96090317E-01-1.96656153E-02-1.74855877E-02 3.02859263E-02 8.68214399E-03
 INPUT CARD> 2  5-1.96090317E-01-1.96656153E-02-1.74855877E-02-3.02859263E-02 8.68214399E-03
 INPUT CARD> 2  6-1.96090317E-01-1.96656153E-02 3.49711754E-02 0.00000000E+00 8.68214399E-03
 INPUT CARD> 3  1 0.00000000E+00 0.00000000E+00 0.00000000E+00 4.48608762E-01 0.00000000E+00
 INPUT CARD> 3  2 0.00000000E+00 2.18692520E-01 0.00000000E+00 0.00000000E+00 1.30198027E-02
 INPUT CARD> 3  3-1.30198027E-02 0.00000000E+00 0.00000000E+00 2.71832968E-02 0.00000000E+00
 INPUT CARD> 3  4-1.85332726E-01-7.03958951E-02 8.47929477E-03 1.95242443E-02 8.32835058E-03
 INPUT CARD> 3  5-1.85332726E-01-7.03958951E-02 8.47929477E-03-1.95242443E-02 8.32835058E-03
 INPUT CARD> 3  6 3.70665453E-01 1.40791790E-01-2.53376884E-02 0.00000000E+00-1.66567012E-02
 INPUT CARD> 4  1 0.00000000E+00 0.00000000E+00 0.00000000E+00 0.00000000E+00 4.48608762E-01
 INPUT CARD> 4  2 0.00000000E+00 0.00000000E+00 2.18692520E-01 0.00000000E+00 0.00000000E+00
 INPUT CARD> 4  3 0.00000000E+00 0.00000000E+00-1.50339731E-02 0.00000000E+00 2.71832968E-02
 INPUT CARD> 4  4 3.21005698E-01 1.21929267E-01 1.95242443E-02-1.40653607E-02-1.44251263E-02
  100000000 WORDS OF MEMORY AVAILABLE

     BASIS OPTIONS
     -------------
     GBASIS=CCD          IGAUSS=       0      POLAR=NONE    
     NDFUNC=       0     NFFUNC=       0     DIFFSP=       F
     NPFUNC=       0      DIFFS=       F     BASNAM=        


     RUN TITLE
     ---------
  NH3+ 3 states calculation at NH3 structure.                                    

 THE POINT GROUP OF THE MOLECULE IS C1      
 THE ORDER OF THE PRINCIPAL AXIS IS     0

 ATOM      ATOMIC                      COORDINATES (BOHR)
           CHARGE         X                   Y                   Z
 N           7.0    -0.0235418964       -0.0117709199       -0.3200832848
 H           1.0    -0.6147043991        1.6803129218        0.4779572298
 H           1.0    -0.7591273143       -1.6546561649        0.3915561627
 H           1.0     1.7009526719        0.1379041675        0.5844084067

          INTERNUCLEAR DISTANCES (ANGS.)
          ------------------------------

                1 N          2 H          3 H          4 H     

   1 N       0.0000000    1.0382519 *  1.0242811 *  1.0335076 *
   2 H       1.0382519 *  0.0000000    1.7670354 *  1.4734165 *
   3 H       1.0242811 *  1.7670354 *  0.0000000    1.6139870 *
   4 H       1.0335076 *  1.4734165 *  1.6139870 *  0.0000000  

  * ... LESS THAN  3.000


     ATOMIC BASIS SET
     ----------------
 THE CONTRACTED PRIMITIVE FUNCTIONS HAVE BEEN UNNORMALIZED
 THE CONTRACTED BASIS FUNCTIONS ARE NOW NORMALIZED TO UNITY

  SHELL TYPE  PRIMITIVE        EXPONENT          CONTRACTION COEFFICIENT(S)

 N         

      1   S       1          9046.0000000    0.000699617413
      1   S       2          1357.0000000    0.005386054630
      1   S       3           309.3000000    0.027391021189
      1   S       4            87.7300000    0.103150591982
      1   S       5            28.5600000    0.278570663317
      1   S       6            10.2100000    0.448294849454
      1   S       7             3.8380000    0.278085928395
      1   S       8             0.7466000    0.015431561233

      2   S       9          9046.0000000   -0.000304990096
      2   S      10          1357.0000000   -0.002408026379
      2   S      11           309.3000000   -0.011944448725
      2   S      12            87.7300000   -0.048925992909
      2   S      13            28.5600000   -0.134472724725
      2   S      14            10.2100000   -0.315112577700
      2   S      15             3.8380000   -0.242857832550
      2   S      16             0.7466000    1.094382206854

      3   S      17             0.2248000    1.000000000000

      4   P      18            13.5500000    0.058905676772
      4   P      19             2.9170000    0.320461106714
      4   P      20             0.7973000    0.753042061792

      5   P      21             0.2185000    1.000000000000

      6   D      22             0.8170000    1.000000000000

 H         

      7   S      23            13.0100000    0.033498726390
      7   S      24             1.9620000    0.234800801174
      7   S      25             0.4446000    0.813682957883

      8   S      26             0.1220000    1.000000000000

      9   P      27             0.7270000    1.000000000000

 H         

     10   S      28            13.0100000    0.033498726390
     10   S      29             1.9620000    0.234800801174
     10   S      30             0.4446000    0.813682957883

     11   S      31             0.1220000    1.000000000000

     12   P      32             0.7270000    1.000000000000

 H         

     13   S      33            13.0100000    0.033498726390
     13   S      34             1.9620000    0.234800801174
     13   S      35             0.4446000    0.813682957883

     14   S      36             0.1220000    1.000000000000

     15   P      37             0.7270000    1.000000000000

 TOTAL NUMBER OF BASIS SET SHELLS             =   15
 NUMBER OF CARTESIAN GAUSSIAN BASIS FUNCTIONS =   30
 NOTE: THIS RUN WILL RESTRICT THE MO VARIATION SPACE TO SPHERICAL HARMONICS.
 THE NUMBER OF ORBITALS KEPT IN THE VARIATIONAL SPACE WILL BE PRINTED LATER.
 NUMBER OF ELECTRONS                          =    9
 CHARGE OF MOLECULE                           =    1
 SPIN MULTIPLICITY                            =    2
 NUMBER OF OCCUPIED ORBITALS (ALPHA)          =    5
 NUMBER OF OCCUPIED ORBITALS (BETA )          =    4
 TOTAL NUMBER OF ATOMS                        =    4
 THE NUCLEAR REPULSION ENERGY IS       11.7548325171

     $CONTRL OPTIONS
     ---------------
 SCFTYP=MCSCF        RUNTYP=ENERGY       EXETYP=RUN     
 MPLEVL=       2     CITYP =NONE         CCTYP =NONE         VBTYP =NONE    
 DFTTYP=NONE         TDDFT =NONE    
 MULT  =       2     ICHARG=       1     NZVAR =       0     COORD =UNIQUE  
 PP    =NONE         RELWFN=NONE         LOCAL =NONE         NUMGRD=       F
 ISPHER=       1     NOSYM =       1     MAXIT =     200     UNITS =ANGS    
 PLTORB=       F     MOLPLT=       F     AIMPAC=       F     FRIEND=        
 NPRINT=       7     IREST =       0     GEOM  =INPUT   
 NORMF =       0     NORMP =       0     ITOL  =      20     ICUT  =       9
 INTTYP=RYSQUAD      GRDTYP=BEST         QMTTOL= 1.0E-05

     $SYSTEM OPTIONS
     ---------------
  REPLICATED MEMORY=   100000000 WORDS (ON EVERY NODE).
 DISTRIBUTED MEMDDI=        1000 MILLION WORDS IN AGGREGATE,
 MEMDDI DISTRIBUTED OVER   1 PROCESSORS IS  1000000000 WORDS/PROCESSOR.
 TOTAL MEMORY REQUESTED ON EACH PROCESSOR=  1100000000 WORDS.
 TIMLIM=      525600.00 MINUTES, OR     365.0 DAYS.
 PARALL= T  BALTYP=  DLB     KDIAG=    3  COREFL= F
 MXSEQ2=     300 MXSEQ3=     150  mem10=         0

          ----------------
          PROPERTIES INPUT
          ----------------

     MOMENTS            FIELD           POTENTIAL          DENSITY
 IEMOM =       1   IEFLD =       0   IEPOT =       0   IEDEN =       0
 WHERE =COMASS     WHERE =NUCLEI     WHERE =NUCLEI     WHERE =NUCLEI  
 OUTPUT=BOTH       OUTPUT=BOTH       OUTPUT=BOTH       OUTPUT=BOTH    
 IEMINT=       0   IEFINT=       0                     IEDINT=       0
                                                       MORB  =       0

     -------------------------------
     INTEGRAL TRANSFORMATION OPTIONS
     -------------------------------
     NWORD  =            0
     CUTOFF = 1.0E-09     MPTRAN =       0
     DIRTRF =       T     AOINTS =DUP     

          ----------------------
          MCSCF INPUT PARAMETERS
          ----------------------
 CONVERGER SELECTION: FOCAS = F  SOSCF = F  FULLNR = T  QUD = F  JACOBI = F
 SECULAR EQUATION METHOD CISTEP = GMCCI   
 --- GENERAL INPUT OPTIONS:
 MAXIT =     100  MICIT =       1  ACURCY= 1.000E-06
 DAMP  =   0.000  CANONC=       T  ENGTOL= 1.000E-10
 EKT   =       F  NPUNCH=       2  NWORD =         0
 REGENERATE CI AFTER CONVERGENCE = NONE    
 DIABATIZATION AFTER CONVERGENCE =        F
 --- INPUT FOR FULLNR CONVERGER:
 METHOD=DM2       FORS  =       F  DROPC =       T
 LINSER=       F  FCORE =       F  NORB  =      30

          ----------------------
          INTEGRAL INPUT OPTIONS
          ----------------------
 NOPK  =       1 NORDER=       0 SCHWRZ=       T

 ------------------------------------------
 MULTIREFERENCE PERTURBATION THEORY CONTROL
 ------------------------------------------
 MRPT=GMCPT    READ CONVERGED MCSCF VECTORS= F


     ------------------------------------------
     THE POINT GROUP IS C1 , NAXIS= 1, ORDER= 1
     ------------------------------------------

 -- VARIATIONAL SPACE WILL BE RESTRICTED TO PURE SPHERICAL HARMONICS ONLY --
 AFTER EXCLUDING CONTAMINANT COMBINATIONS FROM THE CARTESIAN GAUSSIAN BASIS
 SET, THE NUMBER OF SPHERICAL HARMONICS KEPT IN THE VARIATION SPACE IS   29

     DIMENSIONS OF THE SYMMETRY SUBSPACES ARE
 A   =   29

 ..... DONE SETTING UP THE RUN .....
 CPU     0: STEP CPU TIME=     0.04 TOTAL CPU TIME=          0.0 (      0.0 MIN)
 TOTAL WALL CLOCK TIME=          0.1 SECONDS, CPU UTILIZATION IS    80.00%

          ********************
          1 ELECTRON INTEGRALS
          ********************
 TIME TO DO   DIPOLE INTEGRALS=      0.00
 ...... END OF ONE-ELECTRON INTEGRALS ......
 CPU     0: STEP CPU TIME=     0.00 TOTAL CPU TIME=          0.0 (      0.0 MIN)
 TOTAL WALL CLOCK TIME=          0.1 SECONDS, CPU UTILIZATION IS    80.00%

          -------------
          GUESS OPTIONS
          -------------
          GUESS =MOREAD            NORB  =      29          NORDER=       0
          MIX   =       F          PRTMO =       F          PUNMO =       F
          TOLZ  = 1.0E-08          TOLE  = 1.0E-05
          SYMDEN=       F          PURIFY=       T

 INITIAL GUESS ORBITALS GENERATED BY MOREAD   ROUTINE.

 STATISTICS FOR GENERATION OF SYMMETRY ORBITAL -Q- MATRIX
 NUMBER OF CARTESIAN ATOMIC ORBITALS=         30
 NUMBER OF SPHERICAL CONTAMINANTS DROPPED=     1
 NUMBER OF LINEARLY DEPENDENT MOS DROPPED=     0
 TOTAL NUMBER OF MOS IN VARIATION SPACE=      29
 ORBITAL PURIFICATION WILL OCCUR

 SYMMETRIES FOR INITIAL GUESS ORBITALS FOLLOW.   BOTH SET(S).
     5 ORBITALS ARE OCCUPIED (    1 CORE ORBITALS).
     1=A        2=A        3=A        4=A        5=A        6=A        7=A   
     8=A        9=A       10=A       11=A       12=A       13=A       14=A   
    15=A       16=A       17=A       18=A       19=A       20=A       21=A   
    22=A       23=A       24=A       25=A       26=A       27=A       28=A   
    29=A   
 ...... END OF INITIAL ORBITAL SELECTION ......
 CPU     0: STEP CPU TIME=     0.01 TOTAL CPU TIME=          0.1 (      0.0 MIN)
 TOTAL WALL CLOCK TIME=          0.1 SECONDS, CPU UTILIZATION IS   100.00%

                    ----------------------
                    AO INTEGRAL TECHNOLOGY
                    ----------------------
     S,P,L SHELL ROTATED AXIS INTEGRALS, REPROGRAMMED BY
        KAZUYA ISHIMURA (IMS) AND JOSE SIERRA (SYNSTAR).
     S,P,D,L SHELL ROTATED AXIS INTEGRALS PROGRAMMED BY
        KAZUYA ISHIMURA (INSTITUTE FOR MOLECULAR SCIENCE).
     S,P,D,F,G SHELL TO TOTAL QUARTET ANGULAR MOMENTUM SUM 5,
        ERIC PROGRAM BY GRAHAM FLETCHER (ELORET AND NASA ADVANCED
        SUPERCOMPUTING DIVISION, AMES RESEARCH CENTER).
     S,P,D,F,G,L SHELL GENERAL RYS QUADRATURE PROGRAMMED BY
        MICHEL DUPUIS (PACIFIC NORTHWEST NATIONAL LABORATORY).

          --------------------
          2 ELECTRON INTEGRALS
          --------------------

 DIRECT SCF METHOD SKIPS INTEGRAL STORAGE ON DISK.
 DIRECT TRANSFORMATION SKIPS AO INTEGRAL STORAGE ON DISK.
  ...... END OF TWO-ELECTRON INTEGRALS .....
 STEP CPU TIME =     0.01 TOTAL CPU TIME =          0.1 (      0.0 MIN)
 TOTAL WALL CLOCK TIME=          0.1 SECONDS, CPU UTILIZATION IS    75.00%
 DDI: Creating Array [0] - 900 x 36 = 32400 words.
 DDI: Creating Array [1] - 21 x 288 = 6048 words.
 DDI: Creating Array [2] - 36 x 36 = 1296 words.
 DDI: Creating Array [3] - 465 x 36 = 16740 words.

          -----------------
          MCSCF CALCULATION
          -----------------

 ----- NUCLEAR ENERGY ----- =        11.7548325171

     -------------------------------------------------
     GMC-PT/GMC-QDPT or general MCSCF input parameters
     -------------------------------------------------
 # of frozen core orbs. =         0 ->         0
 # of doubly occ. orbs. =         1
 # of active      orbs. =         7
 # of virtual     orbs. =        21
 # of active electrons  =         7
 # of states in CI      =         3
 Highest state in CI    =         3
 kstate =  1 1 1
 avecoe =  0.333 0.333 0.333
 State symmetry           = A           
 Assigned symmetry number = 1

 <<<Act. MO sym.: 1111111

 <<<Division of 1-ext.:  0
 <<<Division of 2-ext.:  0

 *** Reference space

 Reference type: ORMAS (= Occupation restricted multiple active space)
 # of orbitals          =  7
 # of minimum electrons =  7
 # of maximum electrons =  7
 State symmetry    =    1 (input)
 2*Sz              =    1 (input)
 Spin multiplicity =    2 (input)
 Dimension of reference space =      1225  (from      3432 walks)

 Dimension of reference space =      1225  (from      1225 walks)

 <<<Ionized spaces for Ref-CI:
      0:         1225 /   -1-0:         1960 /  0-1-0:         2891

 EVALUATING EXCHANGE INTEGRALS FOR DIRECT INTEGRAL TRANSFORMATION
 SCHWARZ INEQUALITY OVERHEAD:       465 INTEGRALS, T=        0.00

     --------------------------------------------
     PARTIAL TWO ELECTRON INTEGRAL TRANSFORMATION
     --------------------------------------------

 NUMBER OF CORE MOLECULAR ORBITALS     =    1
 NUMBER OF OCCUPIED MOLECULAR ORBITALS =    8
 TOTAL NUMBER OF MOLECULAR ORBITALS    =   29
 TOTAL NUMBER OF ATOMIC ORBITALS       =   30
 THRESHOLD FOR KEEPING TRANSFORMED 2E- INTEGRALS = 1.000E-09

 -------------------------------     ------------------------------
 DISTRIBUTED DATA TRANSFORMATION     PROGRAM WRITTEN BY G. FLETCHER
 -------------------------------     ------------------------------

 THE DISTRIBUTED MEMORY REQUIRED FOR THIS STEP IS MEMDDI=         1 MWORDS
 CREATING DISTRIBUTED STORAGE FOR [VIR OCC|VIR OCC] INTEGRALS
 CREATING DISTRIBUTED STORAGE FOR [VIR OCC|OCC OCC] INTEGRALS
 CREATING DISTRIBUTED STORAGE FOR [OCC OCC|OCC OCC] INTEGRALS
 CREATING DISTRIBUTED STORAGE FOR [VIR VIR|OCC OCC] INTEGRALS
 FOR    1 PROCESSORS, THE REPLICATED MEMORY NEEDED IS       73700 WORDS.
 SCHWARZ INEQUALITY OVERHEAD:       465 INTEGRALS, T=        0.00

      DIRECT 4-INDEX TRANSFORMATION 
      SCHWARZ INEQUALITY TEST SKIPPED          0 INTEGRAL BLOCKS
 ----- FROZEN CORE ENERGY =       -47.8088044088
 ... END OF INTEGRAL TRANSFORMATION ...
 CPU     0: STEP CPU TIME=     0.23 TOTAL CPU TIME=          0.3 (      0.0 MIN)
 TOTAL WALL CLOCK TIME=          0.3 SECONDS, CPU UTILIZATION IS    96.67%

     --------------------------------     -----------------------------
     MCHF NEWTON-RAPHSON OPTIMIZATION     CODE WRITTEN BY MICHEL DUPUIS
     --------------------------------     -----------------------------
     PARALLEL VERSION WRITTEN BY G. FLETCHER (ELORET)
     NASA ADVANCED SUPERCOMPUTING DIVISION, AMES RESEARCH CENTER

 NUMBER OF INDEPENDENT ORBITAL ROTATION PARAMETERS =   175
 ..... DONE SOLVING NEWTON-RAPHSON EQUATIONS .....
 CPU     0: STEP CPU TIME=     0.74 TOTAL CPU TIME=          1.0 (      0.0 MIN)
 TOTAL WALL CLOCK TIME=          1.1 SECONDS, CPU UTILIZATION IS    98.10%
 ..... DONE WITH NTN-RPH ORBITAL ROTATIONS ..... 
 CPU     0: STEP CPU TIME=     0.01 TOTAL CPU TIME=          1.0 (      0.0 MIN)
 TOTAL WALL CLOCK TIME=          1.1 SECONDS, CPU UTILIZATION IS    99.05%
 MAXIMUM MEMORY USED BY NTN-RPH CODE WAS     57645 WORDS.

 ITER     TOTAL ENERGY      DEL(E)  LAGRANGIAN ASYMMETRY   SQCDF  MICIT   DAMP
   1      -55.679844999 -0.679844999  0.136357   14    4 1.700E-01  1   0.0000
   2      -55.716199568 -0.036354569  0.024911   12    5 4.513E-01  1   0.0000
   3      -55.748038027 -0.031838459  0.012311   12    5 2.110E-01  1   0.0263
   4      -55.761217332 -0.013179305  0.004071   11    6 3.713E-02  1   0.0045
   5      -55.762805852 -0.001588520  0.000746   12    5 1.113E-03  1   0.0000
   6      -55.762854078 -0.000048226  0.000248   12    5 9.087E-05  1   0.0000
   7      -55.762858831 -0.000004753  0.000111   12    5 1.226E-05  1   0.0000
   8      -55.762859516 -0.000000685  0.000049   12    5 1.817E-06  1   0.0000
   9      -55.762859620 -0.000000105  0.000020   12    5 2.830E-07  1   0.0000
  10      -55.762859637 -0.000000017  0.000008   12    5 4.716E-08  1   0.0000
  11      -55.762859640 -0.000000003  0.000003   12    5 8.796E-09  1   0.0000
  12      -55.762859640 -0.000000001  0.000001   12    5 1.537E-09  1   0.0000
  13      -55.762859640 -0.000000000  0.000003   12    3 6.105E-10  1   0.0000
  14      -55.762859640 -0.000000000  0.000000   12    7 1.707E-10  1   0.0000

          --------------------
          LAGRANGIAN CONVERGED
          --------------------

 FINAL MCSCF ENERGY IS      -55.7628596404 AFTER  14 ITERATIONS

 -MCCI- BASED ON OPTIMIZED ORBITALS
 ----------------------------------

 PLEASE NOTE: IF THE ACTIVE ORBITALS ARE CANONICALIZED BELOW,
 THE FOLLOWING CI EXPANSION COEFFICIENTS AND THE DENSITY DO NOT
 CORRESPOND TO THE PRINTED ORBITALS.  THE PRINTED EXPANSIONS MATCH
 THE ORBITALS USED DURING THE LAST ITERATION.  IF YOU WISH TO SEE
 CI EXPANSIONS BASED ON THE CANONICAL (OR NATURAL) ORBITALS, YOU
 MUST RUN A CI CALCULATION WITH THAT ORBITAL CHOICE READ IN $VEC.

 Averaged energy =     -55.762859640

 State #    1  Energy =     -55.905607217  S =  0.500

      Det      Coef    Occupancy (Ignoring core)
      ---      ----    --------- --------- -----
        1    0.952026  11110001110000
        2    0.055974  11101001110000
        5   -0.059603  01111001110000
        8   -0.122800  10110101110000
       17    0.131125  11010011110000
       71   -0.070093  11110001011000
      386    0.092816  11110001010010
      393    0.065869  10110101010010
      701   -0.107100  11110001100001
      717    0.052942  11010011100001

 State #    2  Energy =     -55.725282252  S =  0.500

      Det      Coef    Occupancy (Ignoring core)
      ---      ----    --------- --------- -----
        1    0.060229  11110001110000
       36    0.281705  11110001101000
       71    0.926439  11110001011000
       75   -0.051515  01111001011000
       78   -0.060029  10110101011000
       87    0.091582  11010011011000
      316    0.053611  11110000011100
      806    0.096025  11110001001001
      822   -0.054075  11010011001001

 State #    3  Energy =     -55.657689452  S =  0.500

      Det      Coef    Occupancy (Ignoring core)
      ---      ----    --------- --------- -----
       36    0.929352  11110001101000
       43   -0.075565  10110101101000
       52    0.063545  11010011101000
       71   -0.279720  11110001011000
      281    0.061224  11110000101100
      456    0.088601  11110001001010
      463    0.066469  10110101001010

 DENSITY MATRIX OVER ACTIVE MO-S

             1           2           3           4           5

    1    1.9799456
    2    0.0059909   1.6377204
    3    0.0015879  -0.0001434   1.6370102
    4    0.0037419   0.0005447  -0.0000531   1.6557831
    5    0.0934926  -0.0053059  -0.0004033   0.0439069   0.0236507
    6   -0.0023590  -0.1307300  -0.0073054   0.0094655   0.0011731
    7   -0.0025653  -0.0052671  -0.1477634   0.0021565  -0.0002089

             6           7

    6    0.0332341
    7    0.0000921   0.0326560

 FORMING THE "STANDARD FOCK OPERATOR" IN DIRECT AO INTEGRAL MODE...
 ONLY THE    1 CORE AND   21 VIRTUAL ORBITALS WILL BE CANONICALIZED

          ----------------------
          MCSCF NATURAL ORBITALS
          ----------------------

                      1          2          3          4          5
                  -15.9873     1.9846     1.6570     1.6508     1.6479
                     A          A          A          A          A   
    1  N  1  S    1.001350   0.008432  -0.011409  -0.000800  -0.000916
    2  N  1  S   -0.001758   0.439150  -0.182391  -0.031355  -0.027541
    3  N  1  S   -0.006401   0.281057  -0.286585  -0.043962  -0.040620
    4  N  1  X   -0.000020   0.015614  -0.050342   0.147286   0.489659
    5  N  1  Y   -0.000035   0.005837  -0.039269   0.468727  -0.155713
    6  N  1  Z    0.001165   0.097846   0.593034   0.043322   0.021012
    7  N  1  X    0.000040  -0.003070  -0.035637   0.056578   0.227680
    8  N  1  Y    0.000012  -0.000706  -0.021011   0.177762  -0.071515
    9  N  1  Z   -0.000432   0.004103   0.381712   0.019680   0.003099
   10  N  1 XX   -0.000081  -0.001060  -0.012776   0.002204   0.011570
   11  N  1 YY    0.000262  -0.000141  -0.011655  -0.004286  -0.012635
   12  N  1 ZZ   -0.000180   0.001201   0.024431   0.002082   0.001065
   13  N  1 XY    0.000109   0.000550   0.000424  -0.008193   0.003413
   14  N  1 XZ    0.000073   0.000635  -0.000790   0.007789   0.024917
   15  N  1 YZ    0.000025   0.000559  -0.001400   0.023421  -0.007623
   16  H  2  S   -0.002027   0.191258   0.096157   0.274420  -0.260576
   17  H  2  S    0.000472   0.002588   0.024016   0.034234  -0.044539
   18  H  2  X   -0.000392   0.013035   0.005698   0.022191   0.006664
   19  H  2  Y    0.000933  -0.034082  -0.015178  -0.018381   0.025771
   20  H  2  Z    0.000444  -0.008654   0.019640  -0.011585   0.013267
   21  H  3  S   -0.002107   0.187214   0.134184  -0.360425  -0.065972
   22  H  3  S    0.000554   0.001551   0.027546  -0.042825  -0.011757
   23  H  3  X   -0.000477   0.016366   0.007859  -0.016306   0.016245
   24  H  3  Y   -0.000965   0.033822   0.016993  -0.027986  -0.012581
   25  H  3  Z    0.000424  -0.006510   0.017757   0.018097   0.003820
   26  H  4  S   -0.002031   0.202958   0.089422   0.130208   0.360341
   27  H  4  S    0.000389   0.005910   0.021156   0.016291   0.060805
   28  H  4  X    0.000972  -0.036255  -0.017330  -0.012147  -0.028133
   29  H  4  Y    0.000063  -0.003086  -0.001359   0.020051  -0.009026
   30  H  4  Z    0.000465  -0.011823   0.019792  -0.005116  -0.018263

                      6          7          8
                    0.0229     0.0189     0.0179
                     A          A          A   
    1  N  1  S   -0.049182  -0.009790   0.264485
    2  N  1  S   -0.149788  -0.018888   0.833493
    3  N  1  S    0.010377   0.035832   0.153116
    4  N  1  X    0.844330   0.231764   0.137292
    5  N  1  Y   -0.214055   0.918467  -0.050787
    6  N  1  Z   -0.051059   0.049764   0.688852
    7  N  1  X    0.018967   0.019635   0.030260
    8  N  1  Y   -0.004364   0.066696   0.008382
    9  N  1  Z    0.012783  -0.000684  -0.102823
   10  N  1 XX   -0.021858   0.003962   0.019569
   11  N  1 YY    0.022587  -0.001197  -0.009627
   12  N  1 ZZ   -0.000729  -0.002765  -0.009942
   13  N  1 XY   -0.002247  -0.019695  -0.011351
   14  N  1 XZ   -0.028148  -0.012708  -0.021460
   15  N  1 YZ    0.008307  -0.048853  -0.005858
   16  H  2  S    0.564422  -0.537769  -0.419707
   17  H  2  S    0.106501  -0.100545  -0.038063
   18  H  2  X    0.003571  -0.035789  -0.031850
   19  H  2  Y   -0.054374   0.037984   0.058839
   20  H  2  Z   -0.007523  -0.005757  -0.013219
   21  H  3  S    0.264920   0.684141  -0.526103
   22  H  3  S    0.043242   0.125393  -0.054911
   23  H  3  X   -0.004825   0.030910  -0.036547
   24  H  3  Y    0.030806   0.053067  -0.066251
   25  H  3  Z   -0.003149   0.003360  -0.011135
   26  H  4  S   -0.633636  -0.195383  -0.587478
   27  H  4  S   -0.132351  -0.033307  -0.071491
   28  H  4  X    0.045603   0.018301   0.081148
   29  H  4  Y    0.009487  -0.031207   0.002693
   30  H  4  Z    0.011524  -0.002976  -0.009429

          ------------------------
          MCSCF OPTIMIZED ORBITALS
          ------------------------

                      1          2          3          4          5
                  -15.9873     0.0000     0.0000     0.0000     0.0000
                     A          A          A          A          A   
    1  N  1  S    1.001350  -0.004043   0.002468   0.002048  -0.018597
    2  N  1  S   -0.001758   0.402501  -0.009149  -0.002850  -0.200219
    3  N  1  S   -0.006401   0.279519  -0.032249  -0.011681  -0.289168
    4  N  1  X   -0.000020   0.004222   0.440536  -0.016590  -0.015566
    5  N  1  Y   -0.000035   0.001091  -0.003560   0.407379  -0.008189
    6  N  1  Z    0.001165   0.053558  -0.001511  -0.001536   0.578182
    7  N  1  X    0.000040  -0.008045   0.232699  -0.018004  -0.022950
    8  N  1  Y    0.000012  -0.002040  -0.011877   0.185469  -0.010225
    9  N  1  Z   -0.000432   0.002047  -0.014481  -0.005801   0.384570
   10  N  1 XX   -0.000081  -0.002092   0.013857  -0.001475  -0.012809
   11  N  1 YY    0.000262   0.000887  -0.014225   0.001155  -0.011988
   12  N  1 ZZ   -0.000180   0.001205   0.000368   0.000320   0.024798
   13  N  1 XY    0.000109   0.001185   0.001351  -0.007203   0.000181
   14  N  1 XZ    0.000073   0.001080   0.028602  -0.000100   0.001088
   15  N  1 YZ    0.000025   0.000923   0.000836   0.029020   0.000265
   16  H  2  S   -0.002027   0.214789  -0.190534   0.392194   0.124931
   17  H  2  S    0.000472   0.005173  -0.038244   0.055685   0.026596
   18  H  2  X   -0.000392   0.014200   0.013890   0.021530   0.008667
   19  H  2  Y    0.000933  -0.037145   0.021850  -0.028778  -0.018056
   20  H  2  Z    0.000444  -0.008445   0.008333  -0.016082   0.019300
   21  H  3  S   -0.002107   0.213560  -0.214840  -0.384823   0.123641
   22  H  3  S    0.000554   0.004108  -0.032319  -0.048912   0.025695
   23  H  3  X   -0.000477   0.017730   0.009816  -0.023996   0.008448
   24  H  3  Y   -0.000965   0.037090  -0.024448  -0.027781   0.016944
   25  H  3  Z    0.000424  -0.006593   0.008300   0.014293   0.019370
   26  H  4  S   -0.002031   0.219042   0.435411   0.004681   0.126171
   27  H  4  S    0.000389   0.007193   0.072658  -0.005348   0.025460
   28  H  4  X    0.000972  -0.038971  -0.034290  -0.001812  -0.021612
   29  H  4  Y    0.000063  -0.003119  -0.002178   0.024789  -0.000256
   30  H  4  Z    0.000465  -0.011292  -0.021019   0.000148   0.018735

                      6          7          8          9         10
                    0.0000     0.0000     0.0000     0.1550     0.1977
                     A          A          A          A          A   
    1  N  1  S    0.267435  -0.021635  -0.017544  -0.162091  -0.013492
    2  N  1  S    0.858784  -0.060129  -0.045315  -0.252511  -0.025746
    3  N  1  S    0.158167   0.035146   0.019112   1.598335   0.075242
    4  N  1  X    0.041670   0.923718  -0.009740  -0.019334  -0.024724
    5  N  1  Y    0.020696   0.039994   0.984602  -0.005848  -0.088612
    6  N  1  Z    0.710525   0.033773   0.005292  -0.239812  -0.029860
    7  N  1  X    0.026855   0.045615   0.010653   0.073485   0.311837
    8  N  1  Y    0.011742   0.014724   0.081792   0.038296   0.612692
    9  N  1  Z   -0.093260  -0.002210   0.003160   0.559852   0.079820
   10  N  1 XX    0.021827  -0.016657   0.007935  -0.008737   0.039184
   11  N  1 YY   -0.012631   0.019269  -0.006256   0.055073  -0.044441
   12  N  1 ZZ   -0.009197  -0.002612  -0.001680  -0.046335   0.005257
   13  N  1 XY   -0.011896  -0.008625  -0.018166   0.020363  -0.057564
   14  N  1 XZ   -0.018470  -0.030431  -0.003049   0.024421   0.052326
   15  N  1 YZ   -0.009192  -0.005706  -0.046239   0.011313   0.092650
   16  H  2  S   -0.498496   0.337431  -0.598943   0.266646   0.212667
   17  H  2  S   -0.054777   0.067946  -0.117155  -0.898130  -0.843792
   18  H  2  X   -0.032956  -0.008465  -0.030923  -0.017724  -0.047801
   19  H  2  Y    0.064659  -0.033972   0.043694   0.108126   0.034765
   20  H  2  Z   -0.012387  -0.009700  -0.003993   0.026116   0.055952
   21  H  3  S   -0.507117   0.364854   0.597414   0.298362  -0.540813
   22  H  3  S   -0.052698   0.066771   0.109510  -0.917058   1.873926
   23  H  3  X   -0.033128   0.000552   0.031908  -0.046246   0.036439
   24  H  3  Y   -0.064658   0.034818   0.045863  -0.107023   0.085690
   25  H  3  Z   -0.010329  -0.002671   0.006268   0.007971  -0.075123
   26  H  4  S   -0.502243  -0.688683   0.027409   0.179879   0.298268
   27  H  4  S   -0.055491  -0.137944   0.008171  -0.742279  -1.077730
   28  H  4  X    0.073507   0.054625  -0.001160   0.100276   0.053865
   29  H  4  Y   -0.000180   0.000856  -0.030598   0.026577  -0.028455
   30  H  4  Z   -0.010892   0.007440  -0.005244   0.041597   0.048717

                     11         12         13         14         15
                    0.2013     0.5450     0.5709     0.6240     0.8289
                     A          A          A          A          A   
    1  N  1  S    0.015471   0.032702   0.004410   0.095109  -0.136723
    2  N  1  S    0.028572   0.021798  -0.040381   0.349010  -0.306345
    3  N  1  S   -0.112920  -0.324699  -0.234553   0.138591   0.624230
    4  N  1  X    0.011063  -0.572710   0.087805  -0.137701  -0.019358
    5  N  1  Y   -0.039019   0.009635  -0.478853  -0.155332  -0.087764
    6  N  1  Z    0.025818   0.250268   0.222154  -0.606244   0.093933
    7  N  1  X   -0.398795   1.665458  -0.228700   0.649143   0.132038
    8  N  1  Y    0.343311   0.050832   1.785858   0.751357   0.562461
    9  N  1  Z   -0.069609  -0.347303  -0.353531   1.012898   0.046039
   10  N  1 XX   -0.070873   0.011674   0.002352  -0.022080   0.045601
   11  N  1 YY    0.072087   0.002205   0.016748  -0.045250  -0.014139
   12  N  1 ZZ   -0.001214  -0.013879  -0.019100   0.067330  -0.031461
   13  N  1 XY   -0.045346   0.008793   0.042713  -0.001132  -0.157687
   14  N  1 XZ   -0.069747   0.039326  -0.000416  -0.022632  -0.028456
   15  N  1 YZ    0.051825   0.000928   0.018721  -0.016984  -0.138415
   16  H  2  S    0.525065   0.361289  -0.437008  -0.613196  -0.137518
   17  H  2  S   -1.739483   0.552026  -0.828162  -0.003447  -0.267996
   18  H  2  X   -0.015555   0.061419   0.054780  -0.000081  -0.437671
   19  H  2  Y    0.073838  -0.037980   0.166130   0.013135   0.097611
   20  H  2  Z    0.048859  -0.073333   0.026360   0.027549  -0.231711
   21  H  3  S   -0.006259   0.432302   0.711294  -0.103867   0.094112
   22  H  3  S    0.104650   0.525611   0.671033   0.549346   0.078456
   23  H  3  X    0.050213   0.067612  -0.029137   0.045694   0.196017
   24  H  3  Y   -0.004786   0.044429   0.140277   0.120454   0.067678
   25  H  3  Z   -0.015761  -0.062726  -0.050878   0.067716   0.293900
   26  H  4  S   -0.511175  -0.351781   0.217783  -0.725142  -0.055479
   27  H  4  S    1.742416  -0.977360   0.178183  -0.219976  -0.145601
   28  H  4  X   -0.080389   0.122433  -0.012379   0.025971   0.170546
   29  H  4  Y   -0.024039   0.045993   0.090425  -0.003583  -0.465725
   30  H  4  Z   -0.049282   0.076976  -0.040383   0.038773  -0.079011

                     16         17         18         19         20
                    0.9585     0.9774     1.3508     1.4889     1.5330
                     A          A          A          A          A   
    1  N  1  S   -0.539332  -0.087485   0.011516  -0.528761  -0.349338
    2  N  1  S   -1.145980  -0.186126   0.023721  -1.089345  -0.708300
    3  N  1  S    2.320979   0.487361  -0.040146   2.051914   1.491805
    4  N  1  X   -0.040268  -0.062020   0.033664   0.001373   0.034096
    5  N  1  Y   -0.018774   0.023671  -0.138298   0.014581  -0.037381
    6  N  1  Z    0.172963   0.038512   0.002836  -0.026688   0.000750
    7  N  1  X    0.178846   0.409949  -0.056477  -0.281857   0.564616
    8  N  1  Y    0.068581  -0.144042   0.560259  -0.419084   0.699757
    9  N  1  Z   -0.061927   0.166025  -0.006626   0.827684   0.657603
   10  N  1 XX   -0.118511   0.171311  -0.008804   0.125302   0.056741
   11  N  1 YY   -0.096724  -0.119140   0.003821   0.139463   0.062339
   12  N  1 ZZ    0.215235  -0.052171   0.004983  -0.264765  -0.119080
   13  N  1 XY    0.021428   0.056199  -0.049444   0.004627  -0.000320
   14  N  1 XZ   -0.025423  -0.229657  -0.006836   0.025629  -0.086255
   15  N  1 YZ    0.002678   0.072359  -0.000552   0.027082  -0.045593
   16  H  2  S   -0.343308   0.022914  -0.258353  -0.457946  -0.594892
   17  H  2  S   -0.306051   0.040506  -0.093961  -0.108869  -0.173864
   18  H  2  X    0.069480  -0.236769  -0.472721   0.282968  -0.190264
   19  H  2  Y   -0.050998  -0.161156  -0.428035   0.170061  -0.114326
   20  H  2  Z    0.346874   0.258475   0.259466  -0.446082  -0.082615
   21  H  3  S   -0.289569  -0.059298   0.235561  -0.774313  -0.077074
   22  H  3  S   -0.319750  -0.051021   0.106566  -0.298288   0.078566
   23  H  3  X    0.002914  -0.435151   0.544462   0.299063  -0.333106
   24  H  3  Y    0.036036   0.154495  -0.415499  -0.018025  -0.112984
   25  H  3  Z    0.301561   0.051672  -0.205134  -0.068039  -0.838114
   26  H  4  S   -0.402371  -0.190086   0.042128  -0.457206  -0.620625
   27  H  4  S   -0.330825  -0.202772   0.003227  -0.120443  -0.288412
   28  H  4  X   -0.094566   0.306031   0.058544   0.126638  -0.015852
   29  H  4  Y    0.048185   0.128665   0.347386   0.368875  -0.421833
   30  H  4  Z    0.311288  -0.441731  -0.035088  -0.436481   0.277913

                     21         22         23         24         25
                    1.5985     1.8331     1.8690     2.0819     2.2428
                     A          A          A          A          A   
    1  N  1  S   -0.016111   0.063388  -0.001042   0.049835   0.113732
    2  N  1  S   -0.036688   0.127069   0.006271   0.229795   0.260229
    3  N  1  S   -0.003195  -0.305761   0.037851   2.018424   0.138687
    4  N  1  X   -0.170262   0.458399   0.060823   0.040602   0.077124
    5  N  1  Y    0.043508   0.038628   0.610288   0.000945   0.086755
    6  N  1  Z   -0.014816   0.028457   0.025807   0.381296   0.095633
    7  N  1  X   -0.501389  -0.190044   0.038924  -0.132860  -0.172680
    8  N  1  Y    0.610573   0.079539   0.031421  -0.018485   0.001274
    9  N  1  Z   -0.015390  -0.110989   0.033268   0.879912  -0.259421
   10  N  1 XX    0.039895  -0.262298  -0.050169  -0.126324   0.791208
   11  N  1 YY    0.010351   0.170423  -0.009974  -0.255466  -0.085232
   12  N  1 ZZ   -0.050245   0.091875   0.060142   0.381791  -0.705976
   13  N  1 XY   -0.009284   0.006054   0.291438  -0.017996  -0.340998
   14  N  1 XZ    0.160526  -0.140926  -0.002997  -0.089915  -0.491038
   15  N  1 YZ   -0.101462  -0.008573  -0.182557   0.028421  -0.173508
   16  H  2  S   -0.225446  -0.008926   0.048225  -0.583446  -0.059788
   17  H  2  S   -0.267688   0.256314  -0.362031  -0.320949  -0.100823
   18  H  2  X    0.435597   0.386806  -0.442375  -0.022700   0.349003
   19  H  2  Y    0.093921  -0.376596   0.592793   0.862575   0.285848
   20  H  2  Z    0.649934   0.021585   0.325067  -0.087930   0.374615
   21  H  3  S    0.143149   0.027547  -0.063505  -0.599261  -0.017963
   22  H  3  S    0.041703   0.244522   0.353018  -0.371909   0.002148
   23  H  3  X    0.301818   0.234034   0.384953  -0.196404   0.200355
   24  H  3  Y   -0.222766   0.353296   0.569858  -0.878978  -0.112838
   25  H  3  Z   -0.128255  -0.104600  -0.389712  -0.129445   0.113773
   26  H  4  S    0.088730   0.237380  -0.013795  -0.554243   0.011883
   27  H  4  S    0.235178  -0.403813  -0.008734  -0.213758  -0.045913
   28  H  4  X   -0.018847   0.868315   0.024707   0.727645   0.003646
   29  H  4  Y   -0.578336  -0.163194   0.121220   0.132248   0.178070
   30  H  4  Z   -0.535327   0.214583   0.057957   0.036921   0.655016

                     26         27         28         29
                    2.3602     2.5280     2.7818     2.9313
                     A          A          A          A   
    1  N  1  S    0.016854   0.005426  -0.034933   0.030959
    2  N  1  S    0.010605   0.143827  -0.075773   0.086405
    3  N  1  S   -0.413673   1.959230  -0.081274   0.270568
    4  N  1  X   -0.043134   0.128663   0.072743  -0.622997
    5  N  1  Y   -0.071869  -0.006961   0.667464   0.038171
    6  N  1  Z   -0.058015   0.313448  -0.019776   0.033071
    7  N  1  X   -0.316082   0.499524   0.172805  -1.061586
    8  N  1  Y    0.283308   0.204188   1.433280   0.057064
    9  N  1  Z   -0.150633   0.393955   0.038080  -0.038519
   10  N  1 XX    0.255167   0.080543   0.000647  -0.991660
   11  N  1 YY   -0.290390   0.685400  -0.090416   1.204904
   12  N  1 ZZ    0.035224  -0.765943   0.089770  -0.213243
   13  N  1 XY    0.817895   0.425552  -0.829968  -0.121495
   14  N  1 XZ   -0.471801   0.621625   0.124883  -0.895810
   15  N  1 YZ    0.582993   0.313654   1.166769   0.077249
   16  H  2  S    0.032100  -0.645727  -1.091679  -0.872458
   17  H  2  S   -0.026356  -0.143436  -0.423345  -0.309656
   18  H  2  X   -0.004767  -0.469015  -0.239025  -0.222583
   19  H  2  Y   -0.051404   0.212412   0.734659   0.679058
   20  H  2  Z   -0.333149   0.381877   0.263380   0.406044
   21  H  3  S    0.124787  -0.546224   1.303629  -0.696984
   22  H  3  S    0.017566  -0.112769   0.496989  -0.232163
   23  H  3  X    0.559928  -0.303198   0.375775  -0.242036
   24  H  3  Y   -0.216525  -0.290897   0.879318  -0.482997
   25  H  3  Z    0.174950   0.551394  -0.321394   0.295372
   26  H  4  S    0.246272  -0.965468  -0.119180   1.248463
   27  H  4  S    0.157017  -0.374323  -0.031171   0.451101
   28  H  4  X   -0.190877   0.642558   0.044371  -0.924472
   29  H  4  Y   -0.563470  -0.139106  -0.120168  -0.108817
   30  H  4  Z    0.092897   0.428834  -0.013608  -0.485410
 .....DONE WITH MCSCF ITERATIONS.....
 CPU     0: STEP CPU TIME=     8.77 TOTAL CPU TIME=          9.8 (      0.2 MIN)
 TOTAL WALL CLOCK TIME=          9.8 SECONDS, CPU UTILIZATION IS    99.90%

     ----------------------------------------------------------------
     PROPERTY VALUES FOR THE MCSCF SELF-CONSISTENT FIELD WAVEFUNCTION
     ----------------------------------------------------------------

          -----------------
          ENERGY COMPONENTS
          -----------------

         WAVEFUNCTION NORMALIZATION =       1.0000000000

                ONE ELECTRON ENERGY =     -94.9024359396
                TWO ELECTRON ENERGY =      27.3847437821
           NUCLEAR REPULSION ENERGY =      11.7548325171
                                      ------------------
                       TOTAL ENERGY =     -55.7628596404

 ELECTRON-ELECTRON POTENTIAL ENERGY =      27.3847437821
  NUCLEUS-ELECTRON POTENTIAL ENERGY =    -150.8341143603
   NUCLEUS-NUCLEUS POTENTIAL ENERGY =      11.7548325171
                                      ------------------
             TOTAL POTENTIAL ENERGY =    -111.6945380612
               TOTAL KINETIC ENERGY =      55.9316784207
                 VIRIAL RATIO (V/T) =       1.9969816965

          ---------------------------------------
          MULLIKEN AND LOWDIN POPULATION ANALYSES
          ---------------------------------------

     ATOMIC MULLIKEN POPULATION IN EACH MOLECULAR ORBITAL

                      1          2          3          4          5

                  2.000000   1.984625   1.656953   1.650798   1.647915

    1             2.001045   1.292502   1.543966   0.940421   1.032216
    2            -0.000335   0.224763   0.030625   0.238772   0.210178
    3            -0.000362   0.214528   0.052402   0.411433   0.021399
    4            -0.000348   0.252832   0.029961   0.060171   0.384121

                      6          7          8

                  0.022914   0.018865   0.017930

    1             0.011533   0.010068   0.009592
    2             0.004653   0.003220   0.001861
    3             0.001008   0.005150   0.002867
    4             0.005721   0.000426   0.003609
 WARNING! MCSCF POPULATIONS SHOWN ABOVE ARE FOR THE NATURAL ORBITALS.
 IGNORE THE ABOVE DATA FOR MCSCF FUNCTIONS WHICH ARE NOT OF -FORS- TYPE.
 THE FOLLOWING POPULATIONS ARE CORRECT FOR ANY MCSCF WAVEFUNCTION.

               ----- POPULATIONS IN EACH AO -----
                             MULLIKEN      LOWDIN
              1  N  1  S      2.00279     1.89297
              2  N  1  S      0.82807     0.57614
              3  N  1  S      0.61239     0.38775
              4  N  1  X      0.70379     0.63455
              5  N  1  Y      0.67911     0.59958
              6  N  1  Z      0.89012     0.83091
              7  N  1  X      0.32249     0.40324
              8  N  1  Y      0.26768     0.37938
              9  N  1  Z      0.51551     0.55249
             10  N  1 XX      0.00056     0.16076
             11  N  1 YY      0.00392     0.17815
             12  N  1 ZZ      0.00160     0.14184
             13  N  1 XY      0.00659     0.00665
             14  N  1 XZ      0.00671     0.01178
             15  N  1 YZ      0.00000     0.01286
             16  H  2  S      0.61977     0.48114
             17  H  2  S      0.03546     0.14144
             18  H  2  X      0.01197     0.02450
             19  H  2  Y      0.03191     0.05333
             20  H  2  Z      0.01463     0.03818
             21  H  3  S      0.61958     0.48181
             22  H  3  S      0.03026     0.14092
             23  H  3  X      0.01332     0.02622
             24  H  3  Y      0.03162     0.05376
             25  H  3  Z      0.01365     0.03736
             26  H  4  S      0.63617     0.49366
             27  H  4  S      0.04067     0.14071
             28  H  4  X      0.03356     0.05618
             29  H  4  Y      0.00958     0.01989
             30  H  4  Z      0.01652     0.04187

          ----- MULLIKEN ATOMIC OVERLAP POPULATIONS -----
          (OFF-DIAGONAL ELEMENTS NEED TO BE MULTIPLIED BY 2)

             1           2           3           4

    1    5.8934872
    2    0.3133629   0.4115192
    3    0.3212363  -0.0055292   0.3976307
    4    0.3132573  -0.0056159  -0.0049122   0.4337642

          TOTAL MULLIKEN AND LOWDIN ATOMIC POPULATIONS
       ATOM         MULL.POP.    CHARGE          LOW.POP.     CHARGE
    1 N             6.841344    0.158656         6.769050    0.230950
    2 H             0.713737    0.286263         0.738574    0.261426
    3 H             0.708426    0.291574         0.740071    0.259929
    4 H             0.736494    0.263506         0.752304    0.247696

          MULLIKEN SPHERICAL HARMONIC POPULATIONS
       ATOM           S       P       D      F      G      H      I    TOTAL
    1 N             3.44    3.38    0.02   0.00   0.00   0.00   0.00    6.84
    2 H             0.66    0.06    0.00   0.00   0.00   0.00   0.00    0.71
    3 H             0.65    0.06    0.00   0.00   0.00   0.00   0.00    0.71
    4 H             0.68    0.06    0.00   0.00   0.00   0.00   0.00    0.74

          ---------------------
          ELECTROSTATIC MOMENTS
          ---------------------

 POINT   1           X           Y           Z (BOHR)    CHARGE
                 0.000001    0.000001   -0.177185        1.00 (A.U.)
         DX          DY          DZ         /D/  (DEBYE)
     0.202596    0.104148    2.146238    2.158293
 ...... END OF PROPERTY EVALUATION ......
 CPU     0: STEP CPU TIME=     0.01 TOTAL CPU TIME=          9.8 (      0.2 MIN)
 TOTAL WALL CLOCK TIME=          9.8 SECONDS, CPU UTILIZATION IS    99.90%

     -------------------------------------------------
     GMC-PT/GMC-QDPT or general MCSCF input parameters
     -------------------------------------------------
 # of frozen core orbs. =         0 ->         0
 # of doubly occ. orbs. =         1
 # of active      orbs. =         7
 # of virtual     orbs. =        21
 # of active electrons  =         7
 # of states in CI      =         3
 Highest state in CI    =         3
 kstate =  1 1 1
 avecoe =  0.333 0.333 0.333
 State symmetry           = A           
 Assigned symmetry number = 1

 <<<Act. MO sym.: 1111111

 <<<Division of 1-ext.:  0
 <<<Division of 2-ext.:  0

     ------------------------
     Orbital canonicalization
     ------------------------

 MOs are canonicalized for core, virtual, and invariant-active orbital spaces.
 This is a part of the GMC-QDPT calculation.
 SCHWARZ INEQUALITY OVERHEAD:       465 INTEGRALS, T=        0.00
 DIRECT TRANSFORMATION SKIPS AO INTEGRAL STORAGE ON DISK.

 Averaged energy =     -55.762859640

 State #    1  Energy =     -55.905607217  S =  0.500
 State #    2  Energy =     -55.725282252  S =  0.500
 State #    3  Energy =     -55.657689452  S =  0.500

 Orbital energies for filled orbital space
  -15.987344
 Orbital energies for active orbital space
   -1.536400  -0.904281  -0.975676  -0.760659   0.429209
    0.319924   0.411859
 Orbital energies for external orbital space
    0.154957   0.197728   0.201331   0.545013   0.570898
    0.623965   0.828859   0.958531   0.977427   1.350756
    1.488904   1.533019   1.598523   1.833124   1.868990
    2.081901   2.242793   2.360193   2.528049   2.781780
    2.931282

 Zero values mean non-canonical orbitals.
 ... done with orbital canonicalization ...
 CPU     0: STEP CPU TIME=     0.58 TOTAL CPU TIME=         10.4 (      0.2 MIN)
 TOTAL WALL CLOCK TIME=         10.4 SECONDS, CPU UTILIZATION IS    99.81%

     --------------------------------------------
     PARTIAL TWO ELECTRON INTEGRAL TRANSFORMATION
     --------------------------------------------

 NUMBER OF CORE MOLECULAR ORBITALS     =    0
 NUMBER OF OCCUPIED MOLECULAR ORBITALS =    8
 TOTAL NUMBER OF MOLECULAR ORBITALS    =   29
 TOTAL NUMBER OF ATOMIC ORBITALS       =   30
 THRESHOLD FOR KEEPING TRANSFORMED 2E- INTEGRALS = 1.000E-09
 AO INTEGRALS WILL BE CALCULATED IN DIRECT MODE...
 DIRECT TRANSFORMATION SKIPS AO INTEGRAL STORAGE ON DISK.
 SCHWARZ INEQUALITY OVERHEAD:       465 INTEGRALS, T=        0.01

 PLAN A: REQUIREMENTS FOR FULLY IN-MEMORY TRANSFORMATION:
 # OF WORDS AVAILABLE =            100000000
 # OF WORDS NEEDED    =               221798

 PARALLEL ONLY WORKS WITH THE SEGMENTED ALGORITHM.
 ADJUSTING MEMORY TO USE SEGMENTED ALGORITHM.


 PLAN B: REQUIREMENTS FOR THE SEGMENTED TRANSFORMATION:
       MINIMUM=         124148 WORDS FOR 1 MOLECULAR ORBITAL PER PASS
       MAXIMUM=         221798 WORDS FOR ALL MOLECULAR ORBITALS IN 1 PASS
              (          13950 EXTRA WORDS INCLUDES 1 EXTRA ORBITAL/PASS)
 THIS RUN USES=         221798 WORDS,
 DISTRIBUTING   1 PASSES EACH CONTAINING     8 ORBITALS OVER   1 PROCESSORS.

 CHOOSING SEGMENTED PARTIAL TRANSFORMATION...
 DIRECT TRANSFORMATION SKIPS AO INTEGRAL STORAGE ON DISK.
 PASS #   1 TOOK        0.04 SECONDS.
 TOTAL NUMBER OF TRANSFORMED 2E- INTEGRALS KEPT =        29226
 ... END OF INTEGRAL TRANSFORMATION ...
 CPU     0: STEP CPU TIME=     0.05 TOTAL CPU TIME=         10.5 (      0.2 MIN)
 TOTAL WALL CLOCK TIME=         10.5 SECONDS, CPU UTILIZATION IS    99.90%

     --------     ------------------------------------------
     GMC-QDPT     Program written by H.Nakano (Kyushu Univ.)
     --------     ------------------------------------------

 *** Reference space

 Reference type: ORMAS (= Occupation restricted multiple active space)
 # of orbitals          =  7
 # of minimum electrons =  7
 # of maximum electrons =  7
 State symmetry    =    1 (input)
 2*Sz              =    1 (input)
 Spin multiplicity =    2 (input)
 Dimension of reference space =      1225  (from      3432 walks)

 Dimension of reference space =      1225  (from      1225 walks)

 <<<Ionized spaces for Ref-CI:
      0:         1225 /   -1-0:         1960 /  0-1-0:         2891

 ***                    ***
 *** Reference space CI ***
 ***                    ***

 Converged after   32 iterations

 Reference wavefunctions:

 State #    1  Energy =     -55.905607217  S =  0.500

      Det      Coef    Occupancy (Ignoring core)
      ---      ----    --------- --------- -----
        1    0.979984  11110001110000
      393    0.073274  10110101010010
      717    0.066237  11010011100001

 State #    2  Energy =     -55.725282252  S =  0.500

      Det      Coef    Occupancy (Ignoring core)
      ---      ----    --------- --------- -----
       71    0.984413  11110001011000
      822   -0.065819  11010011001001

 State #    3  Energy =     -55.657689452  S =  0.500

      Det      Coef    Occupancy (Ignoring core)
      ---      ----    --------- --------- -----
       36    0.982739  11110001101000
      463    0.073014  10110101001010

 Davidson method: CPU/Wall time =           0.43 /           0.43 sec.

 Oscillator strength (invalid if E(1)/=E(GS)):
 -----------------------------------------
   State                        f
 -----------------------------------------
     2     F(REF-CI)=        0.0002678862
     3     F(REF-CI)=        0.0004881706
 -----------------------------------------

 Dipole moment matrix elements, x, y, z, in A.U.

 Dimension of ionized spaces for PT:
 (N-2) space:         1715 /  (N-1) space:         2842 /  N space:         2891
 (N+1) space:         2842 /  (N+2) space:         1715

 <<<Ionized spaces for internal:
         0:         1225 /      -1-0:         1960 /     0-1-0:         2891
  -1-0-1-0:         2842 / 0-1-0-1-0:         3381

 Diagonal elements of averaged one-particle density matrix:
       2       3       4       5       6       7       8
  0.9943  0.9884  0.9894  0.9933  0.0098  0.0136  0.0112
  0.9902  0.6593  0.6612  0.6637  0.0082  0.0095  0.0079

 Orbital energies:
 -------- Doubly-occupied orbitals (highest several orbs.) -------
             1
 -1.598734D+01
 -------- Active orbitals ----------------------------------------
             2            3            4            5            6
 -1.536400D+00-9.042811D-01-9.756762D-01-7.606591D-01 4.292090D-01
             7            8
  3.199243D-01 4.118589D-01
 -------- External orbitals (lowest several orbs.) ---------------
             9           10           11           12           13
  1.549570D-01 1.977280D-01 2.013305D-01 5.450129D-01 5.708976D-01
            14           15           16           17           18
  6.239647D-01 8.288586D-01 9.585307D-01 9.774273D-01 1.350756D+00

 *** Quasi-degeneracy checking

 === Det (|Ci| > 1.0D-01 and dE < 5.0D-03)

 # of small denominators (single excitations)
 State       dEmin  dE < 5.0D-03  dE < 5.0D-04  dE < 5.0D-05  dE < 5.0D-06
 ----- ----------- ------------- ------------- ------------- -------------
     1    5.00D-03             0             0             0             0
     2    5.00D-03             0             0             0             0
     3    5.00D-03             0             0             0             0

 # of small denominators (double excitations)
 State       dEmin  dE < 5.0D-03  dE < 5.0D-04  dE < 5.0D-05  dE < 5.0D-06
 ----- ----------- ------------- ------------- ------------- -------------
     1    5.00D-03             0             0             0             0
     2    5.00D-03             0             0             0             0
     3    5.00D-03             0             0             0             0

 *** Zeroth-Order Setup (Granovsky's zeroth-order vectors)
 Zeroth-order effective Hamiltonian
  (= Sum_i e(i)*<I|a+(i)a(i)|J> ):
                   1            2            3
     1 -7.494160D+00
     2  3.615946D-03-7.371301D+00
     3 -1.532146D-03-5.918038D-04-7.295224D+00

 Zeroth-order vectors:
 State #    1
       MC st            1           2           3
       Coeff   -9.995D-01   2.935D-02  -7.606D-03
 State #    2
       MC st            2           1           3
       Coeff   -9.995D-01  -2.929D-02  -8.376D-03
 State #    3
       MC st            3           2           1
       Coeff    9.999D-01  -8.150D-03  -7.849D-03

 *** GMC-QDPT computation

 (Integral reading:  CPU/Wall time =           0.00 /           0.00 sec.)

 One-external:
   0 -ionized terms: CPU/Wall time =           0.03 /           0.04 sec.
 (-1)-ionized terms: CPU/Wall time =           0.09 /           0.08 sec.
 (+1)-ionized terms: CPU/Wall time =           0.02 /           0.02 sec.
 (+1)-ionized terms: CPU/Wall time =           0.01 /           0.01 sec.
 (+2)-ionized terms: CPU/Wall time =           0.00 /           0.01 sec.

 Internal:
 # of macro loops for internal contribution =         1 (input)
 Loop:    1
 Dimension of internal CISD space     =         0  (after screening)
 Space construction: CPU/Wall time =           0.02 /           0.01 sec.
 Internal terms:     CPU/Wall time =           0.00 /           0.00 sec.

 Two-external:
   0 -ionized terms: CPU/Wall time =           0.06 /           0.07 sec.
 (-1)-ionized terms: CPU/Wall time =           0.99 /           0.98 sec.
 (-2)-ionized terms: CPU/Wall time =           0.17 /           0.17 sec.

 Total time:         CPU/Wall time =           1.39 /           1.39 sec.

 ***                  ***
 *** GMC-QDPT Results ***
 ***                  ***

 Diagonal elements of effective Hamiltonian:
 Heff(  1) =   -56.00297564
 Heff(  2) =   -55.83474502
 Heff(  3) =   -55.76841732

 Off-diagonal elements of effective Hamiltonian:
                   1            2
     2 -4.702076D-03
     3 -1.711973D-03-5.500805D-04

 ******** GMC-QDPT energies ********
 ----------------------------------------------------------------------------
   State                        1st order                           2nd order
 ----------------------------------------------------------------------------
     1     E(REF-CI)=      -55.9056072168   E(GMC-QDPT2)=      -56.0031196640
     2     E(REF-CI)=      -55.7252822523   E(GMC-QDPT2)=      -55.8346175008
     3     E(REF-CI)=      -55.6576894522   E(GMC-QDPT2)=      -55.7684008073
 ----------------------------------------------------------------------------

 Excitation energies (invalid if E(1)/=E(GS)):
 ----------------------------------------------------------------------------
   State                        1st order                           2nd order
 ----------------------------------------------------------------------------

     TZ Sorted GMC-PT ENERGIES:
         1      -56.0031196640
         2      -55.8346175008
         3      -55.7684008073
     2     E(REF-CI)=        4.9068947 eV   E(GMC-QDPT2)=        4.5851798 eV
     3     E(REF-CI)=        6.7461895 eV   E(GMC-QDPT2)=        6.3870287 eV
 ----------------------------------------------------------------------------

 Main characters of perturbed GMC-QDPT states:

 State #    1  Energy =     -56.003119664  S =  0.500

      Det      Coef    Occupancy (Ignoring core)
      ---      ----    --------- --------- -----
        1    0.980003  11110001110000
      393    0.073273  10110101010010
      717    0.066231  11010011100001

 State #    2  Energy =     -55.834617501  S =  0.500

      Det      Coef    Occupancy (Ignoring core)
      ---      ----    --------- --------- -----
       71    0.984433  11110001011000
      822   -0.065818  11010011001001

 State #    3  Energy =     -55.768400807  S =  0.500

      Det      Coef    Occupancy (Ignoring core)
      ---      ----    --------- --------- -----
       36    0.982743  11110001101000
      463    0.073014  10110101001010

 <<<Max |V/de| = 2.821D-02  Thresh = 1.000D+00

 Oscillator strength (invalid if E(1)/=E(GS)):
 ----------------------------------------------------------------------------
   State                        1st order                           2nd order
 ----------------------------------------------------------------------------
     2     F(REF-CI)=        0.0002678862     F(GMC-PT2)=        0.0002580750
     3     F(REF-CI)=        0.0004881706     F(GMC-PT2)=        0.0004698142
 ----------------------------------------------------------------------------

 Dipole moment matrix elements, x, y, z, in A.U.
States    1    1        0.1092374279        0.0582789609        0.7716714680
States    1    2        0.0204904191       -0.0022840156        0.0432700783
States    1    3        0.0101526757        0.0463187321       -0.0274573153
States    2    1        0.0204904191       -0.0022840156        0.0432700783
States    2    2       -0.0444916354       -0.0853171732        0.2549855003
States    2    3        0.1032509919       -0.2195350945        0.0006768542
States    3    1        0.0101526757        0.0463187321       -0.0274573153
States    3    2        0.1032509919       -0.2195350945        0.0006768542
States    3    3        0.3244088468        0.2182555432        0.2523870434

 Oscillator strength (valid only when positive): 
 ----------------------------------------------------------------------------
  States                        1st order                           2nd order
 ----------------------------------------------------------------------------
  1  1     F(REF-CI)=        0.0000000000     F(GMC-PT2)=        0.0000000000
  1  2     F(REF-CI)=       -0.0002678862     F(GMC-PT2)=       -0.0002580750
  1  3     F(REF-CI)=       -0.0004881706     F(GMC-PT2)=       -0.0004698142
  2  1     F(REF-CI)=        0.0002678862     F(GMC-PT2)=        0.0002580750
  2  2     F(REF-CI)=        0.0000000000     F(GMC-PT2)=        0.0000000000
  2  3     F(REF-CI)=       -0.0026549161     F(GMC-PT2)=       -0.0025982055
  3  1     F(REF-CI)=        0.0004881706     F(GMC-PT2)=        0.0004698142
  3  2     F(REF-CI)=        0.0026549161     F(GMC-PT2)=        0.0025982055
  3  3     F(REF-CI)=        0.0000000000     F(GMC-PT2)=        0.0000000000
 CPU     0: STEP CPU TIME=     1.88 TOTAL CPU TIME=         12.3 (      0.2 MIN)
 TOTAL WALL CLOCK TIME=         12.4 SECONDS, CPU UTILIZATION IS    99.84%

     !!! DIABATIZATION FOR REF CI STATES !!!

 *******************************************************
          $DMO GROUP FOUND IN THE INPUT.
        DIABATIZATION OF ADIABATIC STATES BEGINS.
     PROGRAMMED BY TAO ZENG (CARLETON UNIVERSITY).
               Email: toby.zeng@carleton.ca
     See T. Zeng, J. Chem. Phys. 2017, 146, 144103
 *******************************************************

 *************************************************************************
     STEP 1: TRANSFORMATION OF ADIABATIC STATES TO THE DMO REPRESENTATION
         See Atchity and Ruedenberg, J. Chem. Phys. 1999, 111, 2910
 *************************************************************************

Read in Diabatic Molecualr Orbitals:

                      1          2          3          4          5

    1  N  1  S    0.008609   0.000000   0.000000  -0.013219   0.279491
    2  N  1  S    0.442914  -0.000000   0.000000  -0.184329   0.867803
    3  N  1  S    0.276913   0.000000  -0.000000  -0.288315   0.144236
    4  N  1  X   -0.000000   0.493155  -0.024636  -0.000000  -0.000000
    5  N  1  Y    0.000000   0.024636   0.493155  -0.000000   0.000000
    6  N  1  Z    0.090197   0.000000   0.000000   0.593421   0.705309
    7  N  1  X   -0.000000   0.210628  -0.010522   0.000000   0.000000
    8  N  1  Y    0.000000   0.010522   0.210628  -0.000000  -0.000000
    9  N  1  Z   -0.004381   0.000000   0.000000   0.381592  -0.106092
   10  N  1 XX   -0.000457   0.010719  -0.000535  -0.012387   0.006153
   11  N  1 YY   -0.000457  -0.010719   0.000535  -0.012387   0.006153
   12  N  1 ZZ    0.000914  -0.000000   0.000000   0.024773  -0.012306
   13  N  1 XY    0.000000  -0.000618  -0.012377  -0.000000   0.000000
   14  N  1 XZ   -0.000000   0.026529  -0.001325  -0.000000   0.000000
   15  N  1 YZ    0.000000   0.001325   0.026529  -0.000000   0.000000
   16  H  2  S    0.194462  -0.176074   0.343485   0.112865  -0.523343
   17  H  2  S    0.003574  -0.023812   0.046452   0.024014  -0.054445
   18  H  2  X    0.018760   0.009101   0.022834   0.009336  -0.039151
   19  H  2  Y   -0.032493   0.022287  -0.020044  -0.016171   0.067811
   20  H  2  Z   -0.009251   0.008464  -0.016511   0.018769  -0.010566
   21  H  3  S    0.194462  -0.209430  -0.324227   0.112865  -0.523343
   22  H  3  S    0.003574  -0.028322  -0.043847   0.024014  -0.054445
   23  H  3  X    0.018760   0.006781  -0.023627   0.009336  -0.039151
   24  H  3  Y    0.032493  -0.024174  -0.017723   0.016171  -0.067811
   25  H  3  Z   -0.009251   0.010067   0.015585   0.018769  -0.010566
   26  H  4  S    0.194462   0.385503  -0.019258   0.112865  -0.523343
   27  H  4  S    0.003574   0.052134  -0.002604   0.024014  -0.054445
   28  H  4  X   -0.037519  -0.032295   0.001613  -0.018672   0.078302
   29  H  4  Y    0.000000   0.001067   0.021353  -0.000000   0.000000
   30  H  4  Z   -0.009251  -0.018530   0.000926   0.018769  -0.010566

                      6          7

    1  N  1  S    0.000000  -0.000000
    2  N  1  S    0.000000  -0.000000
    3  N  1  S   -0.000000   0.000000
    4  N  1  X   -0.930415  -0.002083
    5  N  1  Y   -0.002083   0.930415
    6  N  1  Z   -0.000000   0.000000
    7  N  1  X   -0.046866  -0.000105
    8  N  1  Y   -0.000105   0.046866
    9  N  1  Z   -0.000000   0.000000
   10  N  1 XX    0.001538   0.000003
   11  N  1 YY   -0.001538  -0.000003
   12  N  1 ZZ   -0.000000   0.000000
   13  N  1 XY   -0.000004   0.001776
   14  N  1 XZ    0.039985   0.000090
   15  N  1 YZ    0.000090  -0.039985
   16  H  2  S   -0.362630  -0.631354
   17  H  2  S   -0.065964  -0.114846
   18  H  2  X    0.002763  -0.037520
   19  H  2  Y    0.037435   0.040736
   20  H  2  Z    0.001882   0.003276
   21  H  3  S   -0.365454   0.629724
   22  H  3  S   -0.066477   0.114549
   23  H  3  X    0.002595   0.037532
   24  H  3  Y   -0.037617   0.040567
   25  H  3  Z    0.001896  -0.003268
   26  H  4  S    0.728084   0.001630
   27  H  4  S    0.132441   0.000297
   28  H  4  X   -0.062317  -0.000140
   29  H  4  Y    0.000055  -0.024345
   30  H  4  Z   -0.003778  -0.000008

NUMBER OF SUB ACTIVE SPACES:   1
ROTATE ACTIVE MOS TO DMOS IN EACH SUB-SPACE

SPACE  1:

OVERLAP BETWEEN ORTHONORMAL AND PRE-ORTHONORMAL REF. DMOS

             1           2           3           4           5

    1    0.9974592   0.0103575   0.0030994  -0.0008890   0.0001392
    2    0.0103575   0.9740228   0.0153568   0.0141764  -0.0268434
    3    0.0030994   0.0153568   1.0171987   0.0055907  -0.0128780
    4   -0.0008890   0.0141764   0.0055907   0.9993555  -0.0012211
    5    0.0001392  -0.0268434  -0.0128780  -0.0012211   1.0163103
    6   -0.0021649  -0.0199826   0.0130514   0.0150384   0.0044356
    7    0.0013290  -0.0121153  -0.0172887  -0.0084070   0.0066287

             6           7

    1   -0.0021649   0.0013290
    2   -0.0199826  -0.0121153
    3    0.0130514  -0.0172887
    4    0.0150384  -0.0084070
    5    0.0044356   0.0066287
    6    1.0178974   0.0051442
    7    0.0051442   0.9948033
REFERENCE DMOS AFTER ORTHONORMALIZATION:

                      1          2          3          4          5

    1  N  1  S    0.008492   0.007591   0.003396  -0.013012   0.275248
    2  N  1  S    0.443518   0.021253   0.010023  -0.183434   0.854331
    3  N  1  S    0.277295   0.005158   0.002338  -0.288264   0.141708
    4  N  1  X   -0.006982   0.488594  -0.019659   0.006872   0.016559
    5  N  1  Y   -0.003137   0.028875   0.500592   0.004925   0.001008
    6  N  1  Z    0.090722   0.009221   0.005272   0.594752   0.695049
    7  N  1  X   -0.002298   0.215841  -0.012935  -0.002337   0.005700
    8  N  1  Y   -0.000806   0.008188   0.207882  -0.000806   0.002531
    9  N  1  Z   -0.003957  -0.008401  -0.003146   0.381956  -0.104193
   10  N  1 XX   -0.000583   0.011416  -0.000573  -0.012575   0.006326
   11  N  1 YY   -0.000364  -0.010713   0.000845  -0.012219   0.005776
   12  N  1 ZZ    0.000947  -0.000703  -0.000273   0.024794  -0.012102
   13  N  1 XY    0.000040  -0.000428  -0.012139   0.000085  -0.000176
   14  N  1 XZ   -0.000200   0.028123  -0.002223  -0.000985   0.000538
   15  N  1 YZ   -0.000032   0.000489   0.025408  -0.000482   0.000594
   16  H  2  S    0.196438  -0.218935   0.327284   0.113927  -0.510815
   17  H  2  S    0.003794  -0.029753   0.044203   0.024169  -0.052738
   18  H  2  X    0.018735   0.007241   0.021089   0.008738  -0.037828
   19  H  2  Y   -0.032793   0.026873  -0.018868  -0.016626   0.066754
   20  H  2  Z   -0.009294   0.008572  -0.016535   0.018730  -0.010386
   21  H  3  S    0.196845  -0.228226  -0.307909   0.128184  -0.527283
   22  H  3  S    0.003759  -0.030313  -0.040703   0.026585  -0.055317
   23  H  3  X    0.018783   0.006445  -0.023323   0.009625  -0.038897
   24  H  3  Y    0.032801  -0.027281  -0.016890   0.017515  -0.067745
   25  H  3  Z   -0.009396   0.009658   0.014911   0.018493  -0.009919
   26  H  4  S    0.192718   0.393927  -0.041628   0.096277  -0.508179
   27  H  4  S    0.003346   0.054518  -0.005849   0.021259  -0.052757
   28  H  4  X   -0.037458  -0.031744   0.004027  -0.017269   0.076518
   29  H  4  Y   -0.000037   0.000486   0.020583  -0.000323   0.000431
   30  H  4  Z   -0.009065  -0.019611   0.001048   0.019098  -0.010859

                      6          7

    1  N  1  S   -0.000875  -0.001799
    2  N  1  S    0.000257  -0.007404
    3  N  1  S    0.004321  -0.003670
    4  N  1  X   -0.904442   0.008148
    5  N  1  Y   -0.012755   0.944432
    6  N  1  Z   -0.011512   0.000537
    7  N  1  X   -0.041646   0.002459
    8  N  1  Y   -0.002865   0.050815
    9  N  1  Z   -0.005341   0.003798
   10  N  1 XX    0.001899  -0.000025
   11  N  1 YY   -0.001576  -0.000252
   12  N  1 ZZ   -0.000323   0.000277
   13  N  1 XY    0.000135   0.001570
   14  N  1 XZ    0.039874   0.000176
   15  N  1 YZ   -0.000023  -0.039755
   16  H  2  S   -0.360626  -0.625662
   17  H  2  S   -0.065497  -0.114150
   18  H  2  X    0.002849  -0.036975
   19  H  2  Y    0.037228   0.040214
   20  H  2  Z    0.001961   0.003340
   21  H  3  S   -0.361927   0.631088
   22  H  3  S   -0.066107   0.115001
   23  H  3  X    0.002852   0.037701
   24  H  3  Y   -0.037375   0.040902
   25  H  3  Z    0.001625  -0.002682
   26  H  4  S    0.724721   0.005908
   27  H  4  S    0.131177   0.000709
   28  H  4  X   -0.062050  -0.000742
   29  H  4  Y   -0.000076  -0.024113
   30  H  4  Z   -0.004364   0.000039

 -------------------------------------------
       MAXIMIZING MORMO OVERLAP TERM        
 -------------------------------------------
   SWEEP    VALUE       PROGRESS
     0     6.51378
     1     6.99394     0.48015338
     2     6.99458     0.00064743
     3     6.99458     0.00000000
     4     6.99458     0.00000000
 THE ROTATION IS DONE
FLIPPING SIGN FOR ORBITAL   7
ACTIVE ORBITALS AFTER MORMO:

                      1          2          3          4          5

    1  N  1  S    0.008311   0.010499   0.004318  -0.012920   0.268000
    2  N  1  S    0.441062   0.023457   0.008549  -0.184499   0.844780
    3  N  1  S    0.285084  -0.017755  -0.002628  -0.286585   0.151576
    4  N  1  X   -0.002733   0.480386  -0.016837   0.012170   0.010644
    5  N  1  Y   -0.002320   0.031540   0.501215   0.005888  -0.000994
    6  N  1  Z    0.089375   0.014727   0.007270   0.594825   0.692762
    7  N  1  X   -0.009648   0.234926  -0.023943  -0.017822   0.019532
    8  N  1  Y   -0.002411  -0.002970   0.193246  -0.007859   0.008023
    9  N  1  Z    0.000061  -0.024202  -0.009116   0.381838  -0.101259
   10  N  1 XX   -0.001249   0.014134  -0.001052  -0.012367   0.021941
   11  N  1 YY    0.000322  -0.013656   0.001268  -0.012121  -0.012209
   12  N  1 ZZ    0.000928  -0.000479  -0.000216   0.024488  -0.009732
   13  N  1 XY    0.000734  -0.000005  -0.009299  -0.000511  -0.011423
   14  N  1 XZ    0.000057   0.026526  -0.002247   0.000358  -0.018791
   15  N  1 YZ    0.000527   0.000342   0.024125  -0.000397  -0.008897
   16  H  2  S    0.192961  -0.190859   0.336628   0.112384  -0.507602
   17  H  2  S    0.003013  -0.037881   0.045566   0.025283  -0.054667
   18  H  2  X    0.012594   0.012490   0.017234   0.007609  -0.033891
   19  H  2  Y   -0.034318   0.022330  -0.024717  -0.016429   0.066386
   20  H  2  Z   -0.008878   0.006464  -0.017201   0.018823  -0.012172
   21  H  3  S    0.191239  -0.216594  -0.319475   0.119457  -0.521720
   22  H  3  S    0.001773  -0.030997  -0.036789   0.026313  -0.054464
   23  H  3  X    0.016122   0.008568  -0.021670   0.007914  -0.034496
   24  H  3  Y    0.034258  -0.024994  -0.022774   0.015929  -0.066754
   25  H  3  Z   -0.007105   0.008021   0.014152   0.019366  -0.010966
   26  H  4  S    0.194404   0.388469  -0.028474   0.104336  -0.515478
   27  H  4  S    0.004562   0.064282  -0.010554   0.022154  -0.056020
   28  H  4  X   -0.035501  -0.029486   0.001472  -0.018941   0.075746
   29  H  4  Y   -0.003117  -0.001946   0.021783  -0.000438   0.000098
   30  H  4  Z   -0.011464  -0.021534   0.000190   0.018341  -0.010159

                      6          7

    1  N  1  S    0.016488  -0.014465
    2  N  1  S    0.038679  -0.031895
    3  N  1  S   -0.045922   0.027069
    4  N  1  X   -0.904625   0.004965
    5  N  1  Y   -0.009472   0.940832
    6  N  1  Z   -0.033131   0.009503
    7  N  1  X   -0.036435   0.009814
    8  N  1  Y   -0.010502   0.064018
    9  N  1  Z    0.011395  -0.001354
   10  N  1 XX    0.016766   0.007848
   11  N  1 YY   -0.020037  -0.005702
   12  N  1 ZZ    0.003271  -0.002146
   13  N  1 XY    0.008296  -0.017733
   14  N  1 XZ    0.031862  -0.004443
   15  N  1 YZ    0.005229  -0.049090
   16  H  2  S   -0.343036  -0.630880
   17  H  2  S   -0.069980  -0.120809
   18  H  2  X    0.009334  -0.033794
   19  H  2  Y    0.034110   0.046126
   20  H  2  Z    0.010323  -0.003138
   21  H  3  S   -0.354758   0.635975
   22  H  3  S   -0.064747   0.114777
   23  H  3  X    0.000936   0.033427
   24  H  3  Y   -0.033822   0.048558
   25  H  3  Z    0.004028   0.004282
   26  H  4  S    0.717398  -0.003453
   27  H  4  S    0.142399   0.003377
   28  H  4  X   -0.057631   0.001948
   29  H  4  Y   -0.001283  -0.032805
   30  H  4  Z   -0.007843  -0.005055

Actually Used Diabatic Molecualr Orbitals:

                      1          2          3          4          5

    1  N  1  S    0.008311   0.010499   0.004318  -0.012920   0.268000
    2  N  1  S    0.441062   0.023457   0.008549  -0.184499   0.844780
    3  N  1  S    0.285084  -0.017755  -0.002628  -0.286585   0.151576
    4  N  1  X   -0.002733   0.480386  -0.016837   0.012170   0.010644
    5  N  1  Y   -0.002320   0.031540   0.501215   0.005888  -0.000994
    6  N  1  Z    0.089375   0.014727   0.007270   0.594825   0.692762
    7  N  1  X   -0.009648   0.234926  -0.023943  -0.017822   0.019532
    8  N  1  Y   -0.002411  -0.002970   0.193246  -0.007859   0.008023
    9  N  1  Z    0.000061  -0.024202  -0.009116   0.381838  -0.101259
   10  N  1 XX   -0.001249   0.014134  -0.001052  -0.012367   0.021941
   11  N  1 YY    0.000322  -0.013656   0.001268  -0.012121  -0.012209
   12  N  1 ZZ    0.000928  -0.000479  -0.000216   0.024488  -0.009732
   13  N  1 XY    0.000734  -0.000005  -0.009299  -0.000511  -0.011423
   14  N  1 XZ    0.000057   0.026526  -0.002247   0.000358  -0.018791
   15  N  1 YZ    0.000527   0.000342   0.024125  -0.000397  -0.008897
   16  H  2  S    0.192961  -0.190859   0.336628   0.112384  -0.507602
   17  H  2  S    0.003013  -0.037881   0.045566   0.025283  -0.054667
   18  H  2  X    0.012594   0.012490   0.017234   0.007609  -0.033891
   19  H  2  Y   -0.034318   0.022330  -0.024717  -0.016429   0.066386
   20  H  2  Z   -0.008878   0.006464  -0.017201   0.018823  -0.012172
   21  H  3  S    0.191239  -0.216594  -0.319475   0.119457  -0.521720
   22  H  3  S    0.001773  -0.030997  -0.036789   0.026313  -0.054464
[...]
       36   -0.274918   -0.274918  22+2000
        1    0.100422   -0.100422  222+000
      822    0.063823   -0.063823  2+02002
      813   -0.038500    0.038500  20+20+-
      111    0.032033   -0.032033  +22-0+0
      320    0.031494    0.031494  0+22200
      113    0.030225   -0.030225  +-220+0
      323   -0.029548    0.029548  +022-+0
      810    0.027671    0.027671  -++2+0-
      183   -0.026884    0.026884  202+-+0
        6    0.026832   -0.026832  22200+0
      177    0.026447   -0.026447  2+20200
      332    0.026191   -0.026191  ++-2-0+
       74    0.025619   -0.025619  2022+00
      180   -0.024178    0.024178  -+2+200
      317    0.022339   -0.022339  ++2-200
      751    0.021608   -0.021608  2+20002
       42   -0.021355    0.021355  22020+0
      462    0.021327   -0.021327  2+02020
       99    0.021253   -0.021253  20-20++
      391    0.020509   -0.020509  2+20020
      463    0.020371   -0.020371  20+2020

 State #    3  Energy =     -55.773693641

      Det      Coef        Coefp    Occupancy (Ignoring core)
      ---      ----        ----    --------- --------- -----
       36   -0.942080   -0.942080  22+2000
       71    0.279279   -0.279279  2+22000
      463    0.069993   -0.069993  20+2020
      121    0.041710   -0.041710  +22-00+
      472    0.037329    0.037329  2+020-+
      285    0.031336   -0.031336  02+2200
      460   -0.030732   -0.030732  -++2+-0
      112   -0.030598   -0.030598  +2-20+0
      249    0.029821   -0.029821  20+2200
      288   -0.029629   -0.029629  +-+2-+0
      297   -0.026040    0.026040  +202-0+
        1    0.025098   -0.025098  222+000
      716    0.025045    0.025045  22+0002
      142    0.023874    0.023874  22+0200
      145   -0.023595   -0.023595  -2++200
      282    0.023306    0.023306  +2+-200
       86   -0.023226   -0.023226  2+2-00+
      771   -0.023182   -0.023182  +22+00-
      148   -0.023047   -0.023047  2-++-+0
      457   -0.022825    0.022825  2++-+-0
      253    0.022623    0.022623  20+2-+0
       16    0.020837   -0.020837  222000+
       64   -0.020505    0.020505  2-020++
       39   -0.020421   -0.020421  2-+2+00
       41   -0.020174    0.020174  22+-0+0
      494    0.020067   -0.020067  +-+2+-0
      356    0.020062    0.020062  22+0020

 ---------------------------------------
    -DIABATIC STATES IN PROTOTYPES-     
 ---------------------------------------

     STATE:    1
 Group Ref#    Coefficients
     1    1    0.993200
     2    2    0.000853
     3    3    0.000003

WEIGHT OF LISTED PROTOTYPES:   98.64%

     STATE:    2
 Group Ref#    Coefficients
     1    1    0.000853
     2    2    0.993332
     3    3   -0.000093

WEIGHT OF LISTED PROTOTYPES:   98.67%

     STATE:    3
 Group Ref#    Coefficients
     1    1    0.000003
     2    2   -0.000093
     3    3    0.991710

WEIGHT OF LISTED PROTOTYPES:   98.35%

 --------------------------------------------------
 IN DIRECT MAX. DIABATIZATION FOR GMC-QDPT

 DIRECT MAXIMIZATION (DM) WITHOUT TRUNCATING ADIABATS
 EXPANSIONS INTO THE REFERENCE CONFIGURATION SPACE
 --------------------------------------------------

 -------------------------------------------
 - DM DIABT PT HAMILTONIAN MATRIX ELEMENTS -
 -------------------------------------------
                                            
 --- DIABATIC ENERGIES (DIAGONAL ELEMENT) ---       HARTREE            EV
 STATE #  1'S GMC-PT-LEVEL DIABATIC ENERGY=     -56.001497529       0.000000000
 STATE #  2'S GMC-PT-LEVEL DIABATIC ENERGY=     -55.830946799       4.640921736
 STATE #  3'S GMC-PT-LEVEL DIABATIC ENERGY=     -55.773693644       6.198859450

 --- DIABATIC COUPLINGS (OFF DIAGONAL ELEMENTS)---  HATREE            EV
 STATE #  1 &  2'S GMC-PT-LEVEL COUPLING  =      -0.015863328      -0.431663131
 STATE #  1 &  3'S GMC-PT-LEVEL COUPLING  =      -0.007621146      -0.207381939
 STATE #  2 &  3'S GMC-PT-LEVEL COUPLING  =       0.017088611       0.465004793

 ---------------------------------------
     - ROTATION TO DIABATIC STATES -    
 ---------------------------------------
 ROWS=ADIABATIC, COLUMNS=DIABATIC STATES

             1           2           3

    1   -0.9956706  -0.0891132  -0.0264370
    2   -0.0782891   0.9572963  -0.2783067
    3    0.0501088  -0.2750321  -0.9601284

 ---------------------------------------
          - DIABATIC STATES -           
 ---------------------------------------

 State #    1  Energy =     -56.001497529

      Det      Coef        Coefp    Occupancy (Ignoring core)
      ---      ----        ----    --------- --------- -----
        1    0.976543   -0.976543  222+000
      393   -0.074622   -0.074622  202+020
        8   -0.070509    0.070509  2-2+0+0
      717   -0.067303   -0.067303  220+002
      386    0.041918   -0.041918  2+2+0-0
      708    0.038379   -0.038379  2-++0+-
      402    0.037309   -0.037309  2+-+0-+
        4   -0.035758    0.035758  2-2++00
      176    0.034711   -0.034711  2+2+-00
      215   -0.034186   -0.034186  022+200
      218    0.033180   -0.033180  +-2+-+0
      390    0.032901   -0.032901  -+2++-0
      227   -0.032300   -0.032300  +2-+-0+
      705   -0.032132   -0.032132  -2+++0-
       76    0.028591    0.028591  2+2-0+0
        2    0.028558   -0.028558  2220+00
       17    0.028540    0.028540  22-+00+
      212    0.027932    0.027932  +220200
      113   -0.026782    0.026782  +-220+0
       51   -0.026328    0.026328  22+-00+
      122    0.024195    0.024195  +2-200+
      143   -0.023343   -0.023343  220+200
      106   -0.023188   -0.023188  +222000
      424   -0.022918   -0.022918  +-2++-0
        6    0.022710   -0.022710  22200+0
      184   -0.022148   -0.022148  -+2+-+0
      387   -0.022138    0.022138  2+20+-0
      702    0.021510    0.021510  22+0+0-
      773    0.020871   -0.020871  +2-++0-
      742   -0.020840   -0.020840  2+-+0+-
      179   -0.020743   -0.020743  202+200
      368   -0.020621   -0.020621  2-++0-+
      159    0.020476   -0.020476  -2++-0+

 State #    2  Energy =     -55.830946799

      Det      Coef        Coefp    Occupancy (Ignoring core)
      ---      ----        ----    --------- --------- -----
       71   -0.979004    0.979004  2+22000
      822    0.065903   -0.065903  2+02002
       74    0.061330   -0.061330  2022+00
       76    0.048666    0.048666  2+2-0+0
       36    0.046980    0.046980  22+2000
      813    0.040773   -0.040773  20+20+-
      386   -0.037424    0.037424  2+2+0-0
      111    0.036962   -0.036962  +22-0+0
      323   -0.034046    0.034046  +022-+0
      320    0.033572    0.033572  0+22200
      810   -0.032442   -0.032442  -++2+0-
      332   -0.031026    0.031026  ++-2-0+
      113    0.029633   -0.029633  +-220+0
      180   -0.028298    0.028298  -+2+200
      317    0.028030   -0.028030  ++2-200
       38   -0.027003    0.027003  2202+00
      177    0.026126   -0.026126  2+20200
      183   -0.025865    0.025865  202+-+0
      106    0.025558    0.025558  +222000
        6    0.025018   -0.025018  22200+0
      248    0.024433   -0.024433  2+02200
       99   -0.024055    0.024055  20-20++
      391    0.023158   -0.023158  2+20020
      807   -0.022478    0.022478  2++-+0-
      192   -0.022141    0.022141  2+-+-0+
       51    0.022062   -0.022062  22+-00+
      751    0.021681   -0.021681  2+20002
      526   -0.021065   -0.021065  ++220-0
      529    0.020692    0.020692  +022+-0
      878    0.020242    0.020242  ++-2+0-
      534    0.020196    0.020196  0+22020

 State #    3  Energy =     -55.773693644

      Det      Coef        Coefp    Occupancy (Ignoring core)
      ---      ----        ----    --------- --------- -----
       36   -0.979162   -0.979162  22+2000
      463    0.075294   -0.075294  20+2020
       71   -0.047307    0.047307  2+22000
      121   -0.041701    0.041701  +22-00+
      472   -0.041483   -0.041483  2+020-+
      456   -0.041430   -0.041430  2++20-0
      246   -0.039125   -0.039125  2++2-00
      285    0.034120   -0.034120  02+2200
      460   -0.033844   -0.033844  -++2+-0
       52    0.033045   -0.033045  220200+
      288   -0.032728   -0.032728  +-+2-+0
      112   -0.031860   -0.031860  +2-20+0
      297    0.031798   -0.031798  +202-0+
       43    0.028429    0.028429  2-+20+0
      145   -0.028139   -0.028139  -2++200
      282    0.027996    0.027996  +2+-200
       73    0.027000   -0.027000  2+-2+00
      142    0.026168    0.026168  22+0200
       16   -0.026112    0.026112  222000+
       64    0.024238   -0.024238  2-020++
      457   -0.024178    0.024178  2++-+-0
      148   -0.024037   -0.024037  2-++-+0
      716    0.023894    0.023894  22+0002
      157    0.023551   -0.023551  220+-0+
      249    0.022956   -0.022956  20+2200
      771    0.022644    0.022644  +22+00-
      254    0.022566   -0.022566  -++2-+0
      494    0.022131   -0.022131  +-+2+-0
      123    0.021936   -0.021936  +-2200+
       86    0.021720    0.021720  2+2-00+
      356    0.021523    0.021523  22+0020

 ---------------------------------------
      - DIABATIC STATES IN CMO -        
 ---------------------------------------

 State #    1  Energy =     -56.001497529

      Det      Coef        Coefp    Occupancy (Ignoring core)
      ---      ----        ----    --------- --------- -----
        1    0.974610   -0.974610  222+000
       71    0.088667   -0.088667  2+22000
      393   -0.072959   -0.072959  202+020
      717   -0.066556   -0.066556  220+002
       36    0.052174    0.052174  22+2000
        8   -0.043360    0.043360  2-2+0+0
       17   -0.043093   -0.043093  22-+00+
      402   -0.036230    0.036230  2+-+0-+
      708   -0.034604    0.034604  2-++0+-
      215   -0.032994   -0.032994  022+200
      390    0.031977   -0.031977  -+2++-0
      218    0.030831   -0.030831  +-2+-+0
      179   -0.027962   -0.027962  202+200
       76    0.027843    0.027843  2+2-0+0
      227    0.027750    0.027750  +2-+-0+
        2    0.027618   -0.027618  2220+00
      705    0.027612    0.027612  -2+++0-
      113   -0.025769    0.025769  +-220+0
      106   -0.025759   -0.025759  +222000
       51    0.025063   -0.025063  22+-00+
      212    0.024019    0.024019  +220200
      122   -0.023656   -0.023656  +2-200+
      387   -0.022993    0.022993  2+20+-0
      184   -0.021041   -0.021041  -+2+-+0
      357   -0.020913   -0.020913  220+020
      424   -0.020775   -0.020775  +-2++-0
      742    0.020673    0.020673  2+-+0+-

 State #    2  Energy =     -55.830946799

      Det      Coef        Coefp    Occupancy (Ignoring core)
      ---      ----        ----    --------- --------- -----
       71   -0.939903    0.939903  2+22000
       36   -0.274918   -0.274918  22+2000
        1    0.100422   -0.100422  222+000
      822    0.063823   -0.063823  2+02002
      813   -0.038500    0.038500  20+20+-
      111    0.032033   -0.032033  +22-0+0
      320    0.031494    0.031494  0+22200
      113    0.030225   -0.030225  +-220+0
      323   -0.029548    0.029548  +022-+0
      810    0.027671    0.027671  -++2+0-
      183   -0.026884    0.026884  202+-+0
        6    0.026832   -0.026832  22200+0
      177    0.026447   -0.026447  2+20200
      332    0.026191   -0.026191  ++-2-0+
       74    0.025619   -0.025619  2022+00
      180   -0.024178    0.024178  -+2+200
      317    0.022339   -0.022339  ++2-200
      751    0.021608   -0.021608  2+20002
       42   -0.021355    0.021355  22020+0
      462    0.021327   -0.021327  2+02020
       99    0.021253   -0.021253  20-20++
      391    0.020509   -0.020509  2+20020
      463    0.020371   -0.020371  20+2020

 State #    3  Energy =     -55.773693644

      Det      Coef        Coefp    Occupancy (Ignoring core)
      ---      ----        ----    --------- --------- -----
       36   -0.942080   -0.942080  22+2000
       71    0.279279   -0.279279  2+22000
      463    0.069993   -0.069993  20+2020
      121    0.041710   -0.041710  +22-00+
      472    0.037329    0.037329  2+020-+
      285    0.031336   -0.031336  02+2200
      460   -0.030732   -0.030732  -++2+-0
      112   -0.030598   -0.030598  +2-20+0
      249    0.029821   -0.029821  20+2200
      288   -0.029629   -0.029629  +-+2-+0
      297   -0.026040    0.026040  +202-0+
        1    0.025098   -0.025098  222+000
      716    0.025045    0.025045  22+0002
      142    0.023874    0.023874  22+0200
      145   -0.023595   -0.023595  -2++200
      282    0.023306    0.023306  +2+-200
       86   -0.023226   -0.023226  2+2-00+
      771   -0.023182   -0.023182  +22+00-
      148   -0.023047   -0.023047  2-++-+0
      457   -0.022825    0.022825  2++-+-0
      253    0.022623    0.022623  20+2-+0
       16    0.020837   -0.020837  222000+
       64   -0.020505    0.020505  2-020++
       39   -0.020421   -0.020421  2-+2+00
       41   -0.020174    0.020174  22+-0+0
      494    0.020067   -0.020067  +-+2+-0
      356    0.020062    0.020062  22+0020

 ---------------------------------------
    -DIABATIC STATES IN PROTOTYPES-     
 ---------------------------------------

     STATE:    1
 Group Ref#    Coefficients
     1    1    0.993200
     2    2    0.000853
     3    3    0.000003

WEIGHT OF LISTED PROTOTYPES:   98.64%

     STATE:    2
 Group Ref#    Coefficients
     1    1    0.000853
     2    2    0.993332
     3    3   -0.000093

WEIGHT OF LISTED PROTOTYPES:   98.67%

     STATE:    3
 Group Ref#    Coefficients
     1    1    0.000003
     2    2   -0.000093
     3    3    0.991710

WEIGHT OF LISTED PROTOTYPES:   98.35%

     DIRECT MAX. DIABATIZATION FINISHED    
 CPU     0: STEP CPU TIME=     0.25 TOTAL CPU TIME=         12.6 (      0.2 MIN)
 TOTAL WALL CLOCK TIME=         12.6 SECONDS, CPU UTILIZATION IS    99.92%

DIABATS FOR SPIN-ORBIT CALCULATION ARE READY

TRANSITION DIPOLES BETWEEN ADIABATS (in A.U.):

STATE PAIR      X         Y         Z
    1    1  0.109237  0.058279  0.771671
    2    1  0.020490 -0.002284  0.043270
    2    2 -0.044492 -0.085317  0.254986
    3    1  0.010153  0.046319 -0.027457
    3    2  0.103251 -0.219535  0.000677
    3    3  0.324409  0.218256  0.252387


TRANSITION DIPOLES BETWEEN DIABATS (in A.U.):

STATE PAIR      X         Y         Z
    1    1  0.110207  0.054545  0.776681
    2    1 -0.000921  0.007938 -0.002410
    2    2 -0.072734  0.057048  0.249807
    3    1  0.008032  0.019315 -0.000365
    3    2  0.011711  0.269779 -0.002610
    3    3  0.351682  0.079624  0.252556

TRANSITION DIPOLES BETWEEN DIRECT MAX. DIABATS (in A.U.):

STATE PAIR      X         Y         Z
    1    1  0.110207  0.054545  0.776681
    2    1 -0.000921  0.007938 -0.002410
    2    2 -0.072734  0.057048  0.249807
    3    1  0.008032  0.019315 -0.000365
    3    2  0.011711  0.269779 -0.002610
    3    3  0.351682  0.079624  0.252556
 No $TRANST Group Found.
 Quit without doing spin-orbit coupling
 ..... DONE WITH MP2 ENERGY .....
 CPU     0: STEP CPU TIME=     0.00 TOTAL CPU TIME=         12.6 (      0.2 MIN)
 TOTAL WALL CLOCK TIME=         12.6 SECONDS, CPU UTILIZATION IS    99.84%
            100000000  WORDS OF DYNAMIC MEMORY USED
 EXECUTION OF GAMESS TERMINATED NORMALLY Wed Nov 16 19:31:33 2022
 DDI: 715512 bytes (0.7 MB / 0 MWords) used by master data server.

 ----------------------------------------
 CPU timing information for all processes
 ========================================
 0: 12.307 + 0.288 = 12.595
 ----------------------------------------
Note: The following floating-point exceptions are signalling: IEEE_DENORMAL
 ddikick.x: exited gracefully.
unset echo
----- accounting info -----
Files used on the master node io002 were:
-rw-r--r-- 1 bsonghao nooijen   20736 Nov 16 19:31 /scratch/bsonghao/nh3_diabatization_2d_at_mode_7_8_dist0.1_0.2.F05
-rw-r--r-- 1 bsonghao nooijen  363520 Nov 16 19:31 /scratch/bsonghao/nh3_diabatization_2d_at_mode_7_8_dist0.1_0.2.F09
-rw-r--r-- 1 bsonghao nooijen 1995920 Nov 16 19:31 /scratch/bsonghao/nh3_diabatization_2d_at_mode_7_8_dist0.1_0.2.F10
-rw-r--r-- 1 bsonghao nooijen  131264 Nov 16 19:31 /scratch/bsonghao/nh3_diabatization_2d_at_mode_7_8_dist0.1_0.2.F13
-rw-r--r-- 1 bsonghao nooijen  180312 Nov 16 19:31 /scratch/bsonghao/nh3_diabatization_2d_at_mode_7_8_dist0.1_0.2.F15
-rw-r--r-- 1 bsonghao nooijen       0 Nov 16 19:31 /scratch/bsonghao/nh3_diabatization_2d_at_mode_7_8_dist0.1_0.2.F16
-rw-r--r-- 1 bsonghao nooijen    9808 Nov 16 19:31 /scratch/bsonghao/nh3_diabatization_2d_at_mode_7_8_dist0.1_0.2.F70
-rw-r--r-- 1 bsonghao nooijen    9808 Nov 16 19:31 /scratch/bsonghao/nh3_diabatization_2d_at_mode_7_8_dist0.1_0.2.F71
-rw-r--r-- 1 bsonghao nooijen   19608 Nov 16 19:31 /scratch/bsonghao/nh3_diabatization_2d_at_mode_7_8_dist0.1_0.2.F72
-rw-r--r-- 1 bsonghao nooijen   19608 Nov 16 19:31 /scratch/bsonghao/nh3_diabatization_2d_at_mode_7_8_dist0.1_0.2.F73
-rw-r--r-- 1 bsonghao nooijen 1920824 Nov 16 19:31 /scratch/bsonghao/nh3_diabatization_2d_at_mode_7_8_dist0.1_0.2.F74
-rw-r--r-- 1 bsonghao nooijen       0 Nov 16 19:31 /scratch/bsonghao/nh3_diabatization_2d_at_mode_7_8_dist0.1_0.2.F75
-rw-r--r-- 1 bsonghao nooijen   58848 Nov 16 19:31 /scratch/bsonghao/nh3_diabatization_2d_at_mode_7_8_dist0.1_0.2.F76
-rw-r--r-- 1 bsonghao nooijen       0 Nov 16 19:31 /scratch/bsonghao/nh3_diabatization_2d_at_mode_7_8_dist0.1_0.2.F77
-rw-r--r-- 1 bsonghao nooijen    1864 Nov 16 19:31 /scratch/bsonghao/nh3_diabatization_2d_at_mode_7_8_dist0.1_0.2.F78
-rw-r--r-- 1 bsonghao nooijen   39208 Nov 16 19:31 /scratch/bsonghao/nh3_diabatization_2d_at_mode_7_8_dist0.1_0.2.F79
-rw-r--r-- 1 bsonghao nooijen     104 Nov 16 19:31 /scratch/bsonghao/nh3_diabatization_2d_at_mode_7_8_dist0.1_0.2.F80
-rw-r--r-- 1 bsonghao nooijen   13472 Nov 16 19:31 /scratch/bsonghao/nh3_diabatization_2d_at_mode_7_8_dist0.1_0.2.F81
-rw-r--r-- 1 bsonghao nooijen      16 Nov 16 19:31 /scratch/bsonghao/nh3_diabatization_2d_at_mode_7_8_dist0.1_0.2.F82
-rw-r--r-- 1 bsonghao nooijen   19216 Nov 16 19:31 /scratch/bsonghao/nh3_diabatization_2d_at_mode_7_8_dist0.1_0.2.F83
-rw-r--r-- 1 bsonghao nooijen   29712 Nov 16 19:31 /scratch/bsonghao/nh3_diabatization_2d_at_mode_7_8_dist0.1_0.2.F84
-rw-r--r-- 1 bsonghao nooijen  401576 Nov 16 19:31 /scratch/bsonghao/nh3_diabatization_2d_at_mode_7_8_dist0.1_0.2.F85
-rw-r--r-- 1 bsonghao nooijen  903672 Nov 16 19:31 /scratch/bsonghao/nh3_diabatization_2d_at_mode_7_8_dist0.1_0.2.F86
-rw-r--r-- 1 bsonghao nooijen     656 Nov 16 19:31 /scratch/bsonghao/nh3_diabatization_2d_at_mode_7_8_dist0.1_0.2.F87
-rw-r--r-- 1 bsonghao nooijen   27376 Nov 16 19:31 /scratch/bsonghao/nh3_diabatization_2d_at_mode_7_8_dist0.1_0.2.F88
-rw-r--r-- 1 bsonghao nooijen     240 Nov 16 19:31 /scratch/bsonghao/nh3_diabatization_2d_at_mode_7_8_dist0.1_0.2.F89
-rw-r--r-- 1 bsonghao nooijen       0 Nov 16 19:31 /scratch/bsonghao/nh3_diabatization_2d_at_mode_7_8_dist0.1_0.2.F90
-rw-r--r-- 1 bsonghao nooijen   13760 Nov 16 19:31 /scratch/bsonghao/nh3_diabatization_2d_at_mode_7_8_dist0.1_0.2.F91
-rw-r--r-- 1 bsonghao nooijen   22776 Nov 16 19:31 /scratch/bsonghao/nh3_diabatization_2d_at_mode_7_8_dist0.1_0.2.F92
-rw-r--r-- 1 bsonghao nooijen   23168 Nov 16 19:31 /scratch/bsonghao/nh3_diabatization_2d_at_mode_7_8_dist0.1_0.2.F93
-rw-r--r-- 1 bsonghao nooijen   22776 Nov 16 19:31 /scratch/bsonghao/nh3_diabatization_2d_at_mode_7_8_dist0.1_0.2.F94
-rw-r--r-- 1 bsonghao nooijen   13760 Nov 16 19:31 /scratch/bsonghao/nh3_diabatization_2d_at_mode_7_8_dist0.1_0.2.F95
-rw-r--r-- 1 bsonghao nooijen   29440 Nov 16 19:31 /scratch/bsonghao/nh3_diabatization_2d_at_mode_7_8_dist0.1_0.2.F96
-rw-r--r-- 1 bsonghao nooijen    1184 Nov 16 19:31 /scratch/bsonghao/nh3_diabatization_2d_at_mode_7_8_dist0.1_0.2.F97
-rw-r--r-- 1 bsonghao nooijen    9808 Nov 16 19:31 /scratch/bsonghao/nh3_diabatization_2d_at_mode_7_8_dist0.1_0.2.F98
-rw-r--r-- 1 bsonghao nooijen   30264 Nov 16 19:31 /scratch/bsonghao/nh3_diabatization_2d_at_mode_7_8_dist0.1_0.2.F99
ls: No match.
ls: No match.
ls: No match.
Wed 16 Nov 2022 07:31:36 PM EST
0.279u 0.053s 0:15.97 2.0%	0+0k 48+224io 0pf+0w
