----- GAMESS execution script 'rungms' -----
This job is running on host io002
under operating system Linux at Wed 16 Nov 2022 07:18:53 PM EST
Available scratch disk space (Kbyte units) at beginning of the job is
Filesystem       1K-blocks       Used   Available Use% Mounted on
/dev/sdc1      15378471580 3278917120 11318349060  23% /scratch
GAMESS temporary binary files will be written to /scratch/bsonghao
GAMESS supplementary output files will be written to /home/bsonghao/.gamess_ascii_files/267638
Copying input file nh3_diabatization_2d_at_mode_7_8_dist-0.1_0.7.inp to your run's scratch directory...
cp nh3_diabatization_2d_at_mode_7_8_dist-0.1_0.7.inp /scratch/bsonghao/nh3_diabatization_2d_at_mode_7_8_dist-0.1_0.7.F05
unset echo
/home/bjb2chen/gamess/ddikick.x /home/bjb2chen/gamess/gamess.00.x nh3_diabatization_2d_at_mode_7_8_dist-0.1_0.7 -ddi 1 1 io002 -scr /scratch/bsonghao

 Distributed Data Interface kickoff program.
 Initiating 1 compute processes on 1 nodes to run the following command:
 /home/bjb2chen/gamess/gamess.00.x nh3_diabatization_2d_at_mode_7_8_dist-0.1_0.7 

          ******************************************************
          *         GAMESS VERSION = 02 AUG 2018 (R2)         *
          *             FROM IOWA STATE UNIVERSITY             *
          * M.W.SCHMIDT, K.K.BALDRIDGE, J.A.BOATZ, S.T.ELBERT, *
          *   M.S.GORDON, J.H.JENSEN, S.KOSEKI, N.MATSUNAGA,   *
          *          K.A.NGUYEN, S.J.SU, T.L.WINDUS,           *
          *       TOGETHER WITH M.DUPUIS, J.A.MONTGOMERY       *
          *         J.COMPUT.CHEM.  14, 1347-1363(1993)        *
          **************** 64 BIT LINUX VERSION ****************

  SINCE 1993, STUDENTS AND POSTDOCS WORKING AT IOWA STATE UNIVERSITY
  AND ALSO IN THEIR VARIOUS JOBS AFTER LEAVING ISU HAVE MADE IMPORTANT
  CONTRIBUTIONS TO THE CODE:
     IVANA ADAMOVIC, CHRISTINE AIKENS, YURI ALEXEEV, POOJA ARORA,
     ANDREY ASADCHEV, ROB BELL, PRADIPTA BANDYOPADHYAY, JONATHAN BENTZ,
     BRETT BODE, KURT BRORSEN, CALEB CARLIN, GALINA CHABAN, WEI CHEN,
     CHEOL HO CHOI, PAUL DAY, ALBERT DEFUSCO, NUWAN DESILVA, TIM DUDLEY,
     DMITRI FEDOROV, ALEX FINDLATER, GRAHAM FLETCHER, MARK FREITAG,
     KURT GLAESEMANN, ANASTASIA GUININA,
     DAN KEMP, GRANT MERRILL, NORIYUKI MINEZAWA, JONATHAN MULLIN,
     TAKESHI NAGATA, SEAN NEDD, HEATHER NETZLOFF, BOSILJKA NJEGIC, RYAN OLSON,
     MIKE PAK, BUU PHAM,
     SPENCER PRUITT, LUKE ROSKOP, JIM SHOEMAKER, LYUDMILA SLIPCHENKO,
     TONY SMITH, SAROM SOK LEANG, JIE SONG, TETSUYA TAKETSUGU, SIMON WEBB,
     PENG XU, SOOHAENG YOO, FEDERICO ZAHARIEV

  ADDITIONAL CODE HAS BEEN PROVIDED BY COLLABORATORS IN OTHER GROUPS:
     IOWA STATE UNIVERSITY:
          JOE IVANIC, AARON WEST, LAIMUTIS BYTAUTAS, KLAUS RUEDENBERG
     UNIVERSITY OF TOKYO: KIMIHIKO HIRAO, TAKAHITO NAKAJIMA,
          TAKAO TSUNEDA, MUNEAKI KAMIYA, SUSUMU YANAGISAWA,
          KIYOSHI YAGI, MAHITO CHIBA, SEIKEN TOKURA, NAOAKI KAWAKAMI
     UNIVERSITY OF AARHUS: FRANK JENSEN
     UNIVERSITY OF IOWA: VISVALDAS KAIRYS, HUI LI
     NATIONAL INST. OF STANDARDS AND TECHNOLOGY: WALT STEVENS, DAVID GARMER
     UNIVERSITY OF PISA: BENEDETTA MENNUCCI, JACOPO TOMASI
     UNIVERSITY OF MEMPHIS: HENRY KURTZ, PRAKASHAN KORAMBATH
     UNIVERSITY OF ALBERTA: TOBY ZENG, MARIUSZ KLOBUKOWSKI
     UNIVERSITY OF NEW ENGLAND: MARK SPACKMAN
     MIE UNIVERSITY: HIROAKI UMEDA
     NAT. INST. OF ADVANCED INDUSTRIAL SCIENCE AND TECHNOLOGY: KAZUO KITAURA
     MICHIGAN STATE UNIVERSITY:
          KAROL KOWALSKI, MARTA WLOCH, JEFFREY GOUR, JESSE LUTZ,
          WEI LI, JUN SHEN, J. EMILIANO DEUSTUA, PIOTR PIECUCH
     UNIVERSITY OF MINNESOTA:
          YINAN SHU
     UNIVERSITY OF SILESIA: MONIKA MUSIAL, STANISLAW KUCHARSKI
     FACULTES UNIVERSITAIRES NOTRE-DAME DE LA PAIX:
          OLIVIER QUINET, BENOIT CHAMPAGNE
     UNIVERSITY OF CALIFORNIA - SANTA BARBARA: BERNARD KIRTMAN
     INSTITUTE FOR MOLECULAR SCIENCE:
          KAZUYA ISHIMURA, MICHIO KATOUDA, AND SHIGERU NAGASE
     UNIVERSITY OF NOTRE DAME: ANNA POMOGAEVA, DAN CHIPMAN
     KYUSHU UNIVERSITY:
          HARUYUKI NAKANO,
          FENG LONG GU, JACEK KORCHOWIEC, MARCIN MAKOWSKI, AND YURIKO AOKI,
          HIROTOSHI MORI AND EISAKU MIYOSHI
     PENNSYLVANIA STATE UNIVERSITY:
          TZVETELIN IORDANOV, CHET SWALINA, JONATHAN SKONE,
          SHARON HAMMES-SCHIFFER
     WASEDA UNIVERSITY:
          MASATO KOBAYASHI, TOMOKO AKAMA, TSUGUKI TOUMA,
          TAKESHI YOSHIKAWA, YASUHIRO IKABATA, JUNJI SEINO,
          YUYA NAKAJIMA, HIROMI NAKAI
     NANJING UNIVERSITY: SHUHUA LI
     UNIVERSITY OF NEBRASKA:
          PEIFENG SU, DEJUN SI, NANDUN THELLAMUREGE, YALI WANG, HUI LI
     UNIVERSITY OF ZURICH: ROBERTO PEVERATI, KIM BALDRIDGE
     N. COPERNICUS UNIVERSITY AND JACKSON STATE UNIVERSITY:
          MARIA BARYSZ
     UNIVERSITY OF COPENHAGEN: Jimmy Kromann, CASPER STEINMANN
     TOKYO INSTITUTE OF TECHNOLOGY: HIROYA NAKATA
     NAGOYA UNIVERSITY: YOSHIO NISHIMOTO, STEPHAN IRLE
     MOSCOW STATE UNIVERSITY: VLADIMIR MIRONOV

 EXECUTION OF GAMESS BEGUN Wed Nov 16 19:18:54 2022

            ECHO OF THE FIRST FEW INPUT CARDS -
 INPUT CARD> $system kdiag=3 mwords=100 memddi=1000 parall=.t. $end                         
 INPUT CARD> $contrl runtyp=energy ispher=1 $end                                            
 INPUT CARD> $contrl icut=9 itol=20 inttyp=rysquad qmttol=1.0d-05 nosym=1 $end              
 INPUT CARD> $scf    npunch=2 conv=1.0d-06 dirscf=.t.      $end                             
 INPUT CARD> $contrl scftyp=mcscf  mult=2 maxit=200 icharg=1 mplevl=2 $end                  
 INPUT CARD> $guess  guess=moread norb=29 purify=.t. $end                                   
 INPUT CARD> $basis  gbasis=ccd $end                                                        
 INPUT CARD> $mcscf  cistep=gmcci fullnr=.t. finci=mos                                      
 INPUT CARD>         acurcy=1.d-6 maxit=100 $end                                            
 INPUT CARD> $trans  dirtrf=.t. $end                                                        
 INPUT CARD> $mrmp   mrpt=gmcpt rdvecs=.f. $end                                             
 INPUT CARD> $gmcpt  nmofzc=0 nmodoc=1 nmoact=7 nelact=7 stsym(1)=A                         
 INPUT CARD>         reftyp=ormas nspace=1 mstart(1)=2 mine(1)=7 maxe(1)=7                  
 INPUT CARD>         kstate(1)=1,1,1                                                        
 INPUT CARD>         wstate(1)=1,1,1                                                        
 INPUT CARD>         iwgt=0 thrwgt=-1.0 krot=.f. kszdoe=.f. knospn=.f.                      
 INPUT CARD>         thrde=-1.0 edshft=0.02 $end                                            
 INPUT CARD> $data                                                                          
 INPUT CARD> NH3+ 3 states calculation at NH3 structure.                                    
 INPUT CARD> c1                                                                             
 INPUT CARD>N 7.0 -0.043602426 0.006228902999999999 -0.1693810622                           
 INPUT CARD>H 1.0 -0.14714657200000003 1.0666695968 0.14121043110000003                     
 INPUT CARD>H 1.0 -0.07072126900000003 -1.0802465598 0.1869318921                           
 INPUT CARD>H 1.0 0.823735246 -0.07297572999999997 0.4412441501                             
 INPUT CARD>$end                                                                            
 INPUT CARD>--- OPTIMIZED RHF      MO-S --- GENERATED AT Mon Nov 14 16:47:08 2022           
 INPUT CARD>E=      -56.3825050291, E(NUC)=   11.8429239490                                 
 INPUT CARD> $VEC                                                                           
 INPUT CARD> 1  1-1.00134066E+00-2.25158504E-03 3.44925845E-03 0.00000000E+00 0.00000000E+00
 INPUT CARD> 1  2-2.13170927E-03 0.00000000E+00 0.00000000E+00 6.57129898E-04-6.87950443E-05
 INPUT CARD> 1  3-6.87950443E-05 1.37590089E-04 0.00000000E+00 0.00000000E+00 0.00000000E+00
 INPUT CARD> 1  4 3.25502815E-04-4.84772356E-04 3.62525460E-04-6.27912517E-04-3.45956485E-04
 INPUT CARD> 1  5 3.25502815E-04-4.84772356E-04 3.62525460E-04 6.27912517E-04-3.45956485E-04
 INPUT CARD> 1  6 3.25502815E-04-4.84772356E-04-7.25050921E-04 0.00000000E+00-3.45956485E-04
 INPUT CARD> 2  1 1.31286642E-02-4.05911371E-01-2.82090992E-01 0.00000000E+00 0.00000000E+00
 INPUT CARD> 2  2-7.71489043E-02 0.00000000E+00 0.00000000E+00 9.73717494E-03 6.62450916E-04
 INPUT CARD> 2  3 6.62450916E-04-1.32490183E-03 0.00000000E+00 0.00000000E+00 0.00000000E+00
 INPUT CARD> 2  4-1.96090317E-01-1.96656153E-02-1.74855877E-02 3.02859263E-02 8.68214399E-03
 INPUT CARD> 2  5-1.96090317E-01-1.96656153E-02-1.74855877E-02-3.02859263E-02 8.68214399E-03
 INPUT CARD> 2  6-1.96090317E-01-1.96656153E-02 3.49711754E-02 0.00000000E+00 8.68214399E-03
 INPUT CARD> 3  1 0.00000000E+00 0.00000000E+00 0.00000000E+00 4.48608762E-01 0.00000000E+00
 INPUT CARD> 3  2 0.00000000E+00 2.18692520E-01 0.00000000E+00 0.00000000E+00 1.30198027E-02
 INPUT CARD> 3  3-1.30198027E-02 0.00000000E+00 0.00000000E+00 2.71832968E-02 0.00000000E+00
 INPUT CARD> 3  4-1.85332726E-01-7.03958951E-02 8.47929477E-03 1.95242443E-02 8.32835058E-03
 INPUT CARD> 3  5-1.85332726E-01-7.03958951E-02 8.47929477E-03-1.95242443E-02 8.32835058E-03
 INPUT CARD> 3  6 3.70665453E-01 1.40791790E-01-2.53376884E-02 0.00000000E+00-1.66567012E-02
 INPUT CARD> 4  1 0.00000000E+00 0.00000000E+00 0.00000000E+00 0.00000000E+00 4.48608762E-01
 INPUT CARD> 4  2 0.00000000E+00 0.00000000E+00 2.18692520E-01 0.00000000E+00 0.00000000E+00
 INPUT CARD> 4  3 0.00000000E+00 0.00000000E+00-1.50339731E-02 0.00000000E+00 2.71832968E-02
 INPUT CARD> 4  4 3.21005698E-01 1.21929267E-01 1.95242443E-02-1.40653607E-02-1.44251263E-02
  100000000 WORDS OF MEMORY AVAILABLE

     BASIS OPTIONS
     -------------
     GBASIS=CCD          IGAUSS=       0      POLAR=NONE    
     NDFUNC=       0     NFFUNC=       0     DIFFSP=       F
     NPFUNC=       0      DIFFS=       F     BASNAM=        


     RUN TITLE
     ---------
  NH3+ 3 states calculation at NH3 structure.                                    

 THE POINT GROUP OF THE MOLECULE IS C1      
 THE ORDER OF THE PRINCIPAL AXIS IS     0

 ATOM      ATOMIC                      COORDINATES (BOHR)
           CHARGE         X                   Y                   Z
 N           7.0    -0.0823966375        0.0117709199       -0.3200837951
 H           1.0    -0.2780667011        2.0157132574        0.2668490214
 H           1.0    -0.1336438199       -2.0413699972        0.3532500544
 H           1.0     1.5566339014       -0.1379041335        0.8338305374

          INTERNUCLEAR DISTANCES (ANGS.)
          ------------------------------

                1 N          2 H          3 H          4 H     

   1 N       0.0000000    1.1098301 *  1.1437322 *  1.0636781 *
   2 H       1.1098301 *  0.0000000    2.1487625 *  1.5268999 *
   3 H       1.1437322 *  2.1487625 *  0.0000000    1.3708835 *
   4 H       1.0636781 *  1.5268999 *  1.3708835 *  0.0000000  

  * ... LESS THAN  3.000


     ATOMIC BASIS SET
     ----------------
 THE CONTRACTED PRIMITIVE FUNCTIONS HAVE BEEN UNNORMALIZED
 THE CONTRACTED BASIS FUNCTIONS ARE NOW NORMALIZED TO UNITY

  SHELL TYPE  PRIMITIVE        EXPONENT          CONTRACTION COEFFICIENT(S)

 N         

      1   S       1          9046.0000000    0.000699617413
      1   S       2          1357.0000000    0.005386054630
      1   S       3           309.3000000    0.027391021189
      1   S       4            87.7300000    0.103150591982
      1   S       5            28.5600000    0.278570663317
      1   S       6            10.2100000    0.448294849454
      1   S       7             3.8380000    0.278085928395
      1   S       8             0.7466000    0.015431561233

      2   S       9          9046.0000000   -0.000304990096
      2   S      10          1357.0000000   -0.002408026379
      2   S      11           309.3000000   -0.011944448725
      2   S      12            87.7300000   -0.048925992909
      2   S      13            28.5600000   -0.134472724725
      2   S      14            10.2100000   -0.315112577700
      2   S      15             3.8380000   -0.242857832550
      2   S      16             0.7466000    1.094382206854

      3   S      17             0.2248000    1.000000000000

      4   P      18            13.5500000    0.058905676772
      4   P      19             2.9170000    0.320461106714
      4   P      20             0.7973000    0.753042061792

      5   P      21             0.2185000    1.000000000000

      6   D      22             0.8170000    1.000000000000

 H         

      7   S      23            13.0100000    0.033498726390
      7   S      24             1.9620000    0.234800801174
      7   S      25             0.4446000    0.813682957883

      8   S      26             0.1220000    1.000000000000

      9   P      27             0.7270000    1.000000000000

 H         

     10   S      28            13.0100000    0.033498726390
     10   S      29             1.9620000    0.234800801174
     10   S      30             0.4446000    0.813682957883

     11   S      31             0.1220000    1.000000000000

     12   P      32             0.7270000    1.000000000000

 H         

     13   S      33            13.0100000    0.033498726390
     13   S      34             1.9620000    0.234800801174
     13   S      35             0.4446000    0.813682957883

     14   S      36             0.1220000    1.000000000000

     15   P      37             0.7270000    1.000000000000

 TOTAL NUMBER OF BASIS SET SHELLS             =   15
 NUMBER OF CARTESIAN GAUSSIAN BASIS FUNCTIONS =   30
 NOTE: THIS RUN WILL RESTRICT THE MO VARIATION SPACE TO SPHERICAL HARMONICS.
 THE NUMBER OF ORBITALS KEPT IN THE VARIATIONAL SPACE WILL BE PRINTED LATER.
 NUMBER OF ELECTRONS                          =    9
 CHARGE OF MOLECULE                           =    1
 SPIN MULTIPLICITY                            =    2
 NUMBER OF OCCUPIED ORBITALS (ALPHA)          =    5
 NUMBER OF OCCUPIED ORBITALS (BETA )          =    4
 TOTAL NUMBER OF ATOMS                        =    4
 THE NUCLEAR REPULSION ENERGY IS       11.0377304927

     $CONTRL OPTIONS
     ---------------
 SCFTYP=MCSCF        RUNTYP=ENERGY       EXETYP=RUN     
 MPLEVL=       2     CITYP =NONE         CCTYP =NONE         VBTYP =NONE    
 DFTTYP=NONE         TDDFT =NONE    
 MULT  =       2     ICHARG=       1     NZVAR =       0     COORD =UNIQUE  
 PP    =NONE         RELWFN=NONE         LOCAL =NONE         NUMGRD=       F
 ISPHER=       1     NOSYM =       1     MAXIT =     200     UNITS =ANGS    
 PLTORB=       F     MOLPLT=       F     AIMPAC=       F     FRIEND=        
 NPRINT=       7     IREST =       0     GEOM  =INPUT   
 NORMF =       0     NORMP =       0     ITOL  =      20     ICUT  =       9
 INTTYP=RYSQUAD      GRDTYP=BEST         QMTTOL= 1.0E-05

     $SYSTEM OPTIONS
     ---------------
  REPLICATED MEMORY=   100000000 WORDS (ON EVERY NODE).
 DISTRIBUTED MEMDDI=        1000 MILLION WORDS IN AGGREGATE,
 MEMDDI DISTRIBUTED OVER   1 PROCESSORS IS  1000000000 WORDS/PROCESSOR.
 TOTAL MEMORY REQUESTED ON EACH PROCESSOR=  1100000000 WORDS.
 TIMLIM=      525600.00 MINUTES, OR     365.0 DAYS.
 PARALL= T  BALTYP=  DLB     KDIAG=    3  COREFL= F
 MXSEQ2=     300 MXSEQ3=     150  mem10=         0

          ----------------
          PROPERTIES INPUT
          ----------------

     MOMENTS            FIELD           POTENTIAL          DENSITY
 IEMOM =       1   IEFLD =       0   IEPOT =       0   IEDEN =       0
 WHERE =COMASS     WHERE =NUCLEI     WHERE =NUCLEI     WHERE =NUCLEI  
 OUTPUT=BOTH       OUTPUT=BOTH       OUTPUT=BOTH       OUTPUT=BOTH    
 IEMINT=       0   IEFINT=       0                     IEDINT=       0
                                                       MORB  =       0

     -------------------------------
     INTEGRAL TRANSFORMATION OPTIONS
     -------------------------------
     NWORD  =            0
     CUTOFF = 1.0E-09     MPTRAN =       0
     DIRTRF =       T     AOINTS =DUP     

          ----------------------
          MCSCF INPUT PARAMETERS
          ----------------------
 CONVERGER SELECTION: FOCAS = F  SOSCF = F  FULLNR = T  QUD = F  JACOBI = F
 SECULAR EQUATION METHOD CISTEP = GMCCI   
 --- GENERAL INPUT OPTIONS:
 MAXIT =     100  MICIT =       1  ACURCY= 1.000E-06
 DAMP  =   0.000  CANONC=       T  ENGTOL= 1.000E-10
 EKT   =       F  NPUNCH=       2  NWORD =         0
 REGENERATE CI AFTER CONVERGENCE = NONE    
 DIABATIZATION AFTER CONVERGENCE =        F
 --- INPUT FOR FULLNR CONVERGER:
 METHOD=DM2       FORS  =       F  DROPC =       T
 LINSER=       F  FCORE =       F  NORB  =      30

          ----------------------
          INTEGRAL INPUT OPTIONS
          ----------------------
 NOPK  =       1 NORDER=       0 SCHWRZ=       T

 ------------------------------------------
 MULTIREFERENCE PERTURBATION THEORY CONTROL
 ------------------------------------------
 MRPT=GMCPT    READ CONVERGED MCSCF VECTORS= F


     ------------------------------------------
     THE POINT GROUP IS C1 , NAXIS= 1, ORDER= 1
     ------------------------------------------

 -- VARIATIONAL SPACE WILL BE RESTRICTED TO PURE SPHERICAL HARMONICS ONLY --
 AFTER EXCLUDING CONTAMINANT COMBINATIONS FROM THE CARTESIAN GAUSSIAN BASIS
 SET, THE NUMBER OF SPHERICAL HARMONICS KEPT IN THE VARIATION SPACE IS   29

     DIMENSIONS OF THE SYMMETRY SUBSPACES ARE
 A   =   29

 ..... DONE SETTING UP THE RUN .....
 CPU     0: STEP CPU TIME=     0.03 TOTAL CPU TIME=          0.0 (      0.0 MIN)
 TOTAL WALL CLOCK TIME=          0.0 SECONDS, CPU UTILIZATION IS    75.00%

          ********************
          1 ELECTRON INTEGRALS
          ********************
 TIME TO DO   DIPOLE INTEGRALS=      0.00
 ...... END OF ONE-ELECTRON INTEGRALS ......
 CPU     0: STEP CPU TIME=     0.00 TOTAL CPU TIME=          0.0 (      0.0 MIN)
 TOTAL WALL CLOCK TIME=          0.0 SECONDS, CPU UTILIZATION IS    75.00%

          -------------
          GUESS OPTIONS
          -------------
          GUESS =MOREAD            NORB  =      29          NORDER=       0
          MIX   =       F          PRTMO =       F          PUNMO =       F
          TOLZ  = 1.0E-08          TOLE  = 1.0E-05
          SYMDEN=       F          PURIFY=       T

 INITIAL GUESS ORBITALS GENERATED BY MOREAD   ROUTINE.

 STATISTICS FOR GENERATION OF SYMMETRY ORBITAL -Q- MATRIX
 NUMBER OF CARTESIAN ATOMIC ORBITALS=         30
 NUMBER OF SPHERICAL CONTAMINANTS DROPPED=     1
 NUMBER OF LINEARLY DEPENDENT MOS DROPPED=     0
 TOTAL NUMBER OF MOS IN VARIATION SPACE=      29
 ORBITAL PURIFICATION WILL OCCUR

 SYMMETRIES FOR INITIAL GUESS ORBITALS FOLLOW.   BOTH SET(S).
     5 ORBITALS ARE OCCUPIED (    1 CORE ORBITALS).
     1=A        2=A        3=A        4=A        5=A        6=A        7=A   
     8=A        9=A       10=A       11=A       12=A       13=A       14=A   
    15=A       16=A       17=A       18=A       19=A       20=A       21=A   
    22=A       23=A       24=A       25=A       26=A       27=A       28=A   
    29=A   
 ...... END OF INITIAL ORBITAL SELECTION ......
 CPU     0: STEP CPU TIME=     0.01 TOTAL CPU TIME=          0.0 (      0.0 MIN)
 TOTAL WALL CLOCK TIME=          0.1 SECONDS, CPU UTILIZATION IS    80.00%

                    ----------------------
                    AO INTEGRAL TECHNOLOGY
                    ----------------------
     S,P,L SHELL ROTATED AXIS INTEGRALS, REPROGRAMMED BY
        KAZUYA ISHIMURA (IMS) AND JOSE SIERRA (SYNSTAR).
     S,P,D,L SHELL ROTATED AXIS INTEGRALS PROGRAMMED BY
        KAZUYA ISHIMURA (INSTITUTE FOR MOLECULAR SCIENCE).
     S,P,D,F,G SHELL TO TOTAL QUARTET ANGULAR MOMENTUM SUM 5,
        ERIC PROGRAM BY GRAHAM FLETCHER (ELORET AND NASA ADVANCED
        SUPERCOMPUTING DIVISION, AMES RESEARCH CENTER).
     S,P,D,F,G,L SHELL GENERAL RYS QUADRATURE PROGRAMMED BY
        MICHEL DUPUIS (PACIFIC NORTHWEST NATIONAL LABORATORY).

          --------------------
          2 ELECTRON INTEGRALS
          --------------------

 DIRECT SCF METHOD SKIPS INTEGRAL STORAGE ON DISK.
 DIRECT TRANSFORMATION SKIPS AO INTEGRAL STORAGE ON DISK.
  ...... END OF TWO-ELECTRON INTEGRALS .....
 STEP CPU TIME =     0.02 TOTAL CPU TIME =          0.1 (      0.0 MIN)
 TOTAL WALL CLOCK TIME=          0.1 SECONDS, CPU UTILIZATION IS    85.71%
 DDI: Creating Array [0] - 900 x 36 = 32400 words.
 DDI: Creating Array [1] - 21 x 288 = 6048 words.
 DDI: Creating Array [2] - 36 x 36 = 1296 words.
 DDI: Creating Array [3] - 465 x 36 = 16740 words.

          -----------------
          MCSCF CALCULATION
          -----------------

 ----- NUCLEAR ENERGY ----- =        11.0377304927

     -------------------------------------------------
     GMC-PT/GMC-QDPT or general MCSCF input parameters
     -------------------------------------------------
 # of frozen core orbs. =         0 ->         0
 # of doubly occ. orbs. =         1
 # of active      orbs. =         7
 # of virtual     orbs. =        21
 # of active electrons  =         7
 # of states in CI      =         3
 Highest state in CI    =         3
 kstate =  1 1 1
 avecoe =  0.333 0.333 0.333
 State symmetry           = A           
 Assigned symmetry number = 1

 <<<Act. MO sym.: 1111111

 <<<Division of 1-ext.:  0
 <<<Division of 2-ext.:  0

 *** Reference space

 Reference type: ORMAS (= Occupation restricted multiple active space)
 # of orbitals          =  7
 # of minimum electrons =  7
 # of maximum electrons =  7
 State symmetry    =    1 (input)
 2*Sz              =    1 (input)
 Spin multiplicity =    2 (input)
 Dimension of reference space =      1225  (from      3432 walks)

 Dimension of reference space =      1225  (from      1225 walks)

 <<<Ionized spaces for Ref-CI:
      0:         1225 /   -1-0:         1960 /  0-1-0:         2891

 EVALUATING EXCHANGE INTEGRALS FOR DIRECT INTEGRAL TRANSFORMATION
 SCHWARZ INEQUALITY OVERHEAD:       465 INTEGRALS, T=        0.00

     --------------------------------------------
     PARTIAL TWO ELECTRON INTEGRAL TRANSFORMATION
     --------------------------------------------

 NUMBER OF CORE MOLECULAR ORBITALS     =    1
 NUMBER OF OCCUPIED MOLECULAR ORBITALS =    8
 TOTAL NUMBER OF MOLECULAR ORBITALS    =   29
 TOTAL NUMBER OF ATOMIC ORBITALS       =   30
 THRESHOLD FOR KEEPING TRANSFORMED 2E- INTEGRALS = 1.000E-09

 -------------------------------     ------------------------------
 DISTRIBUTED DATA TRANSFORMATION     PROGRAM WRITTEN BY G. FLETCHER
 -------------------------------     ------------------------------

 THE DISTRIBUTED MEMORY REQUIRED FOR THIS STEP IS MEMDDI=         1 MWORDS
 CREATING DISTRIBUTED STORAGE FOR [VIR OCC|VIR OCC] INTEGRALS
 CREATING DISTRIBUTED STORAGE FOR [VIR OCC|OCC OCC] INTEGRALS
 CREATING DISTRIBUTED STORAGE FOR [OCC OCC|OCC OCC] INTEGRALS
 CREATING DISTRIBUTED STORAGE FOR [VIR VIR|OCC OCC] INTEGRALS
 FOR    1 PROCESSORS, THE REPLICATED MEMORY NEEDED IS       73700 WORDS.
 SCHWARZ INEQUALITY OVERHEAD:       465 INTEGRALS, T=        0.00

      DIRECT 4-INDEX TRANSFORMATION 
      SCHWARZ INEQUALITY TEST SKIPPED          0 INTEGRAL BLOCKS
 ----- FROZEN CORE ENERGY =       -47.6059319516
 ... END OF INTEGRAL TRANSFORMATION ...
 CPU     0: STEP CPU TIME=     0.23 TOTAL CPU TIME=          0.3 (      0.0 MIN)
 TOTAL WALL CLOCK TIME=          0.3 SECONDS, CPU UTILIZATION IS   100.00%

     --------------------------------     -----------------------------
     MCHF NEWTON-RAPHSON OPTIMIZATION     CODE WRITTEN BY MICHEL DUPUIS
     --------------------------------     -----------------------------
     PARALLEL VERSION WRITTEN BY G. FLETCHER (ELORET)
     NASA ADVANCED SUPERCOMPUTING DIVISION, AMES RESEARCH CENTER

 NUMBER OF INDEPENDENT ORBITAL ROTATION PARAMETERS =   175
 ..... DONE SOLVING NEWTON-RAPHSON EQUATIONS .....
 CPU     0: STEP CPU TIME=     0.85 TOTAL CPU TIME=          1.1 (      0.0 MIN)
 TOTAL WALL CLOCK TIME=          1.2 SECONDS, CPU UTILIZATION IS    99.13%
 ..... DONE WITH NTN-RPH ORBITAL ROTATIONS ..... 
 CPU     0: STEP CPU TIME=     0.00 TOTAL CPU TIME=          1.1 (      0.0 MIN)
 TOTAL WALL CLOCK TIME=          1.2 SECONDS, CPU UTILIZATION IS    99.13%
 MAXIMUM MEMORY USED BY NTN-RPH CODE WAS     57645 WORDS.

 ITER     TOTAL ENERGY      DEL(E)  LAGRANGIAN ASYMMETRY   SQCDF  MICIT   DAMP
   1      -55.607335152 -0.607335152  0.109312   12    5 1.039E-01  1   0.0000
   2      -55.664666008 -0.057330856  0.019755   12    5 4.619E-01  1   0.0000
   3      -55.700877156 -0.036211148  0.013961   11    6 2.221E-01  1   0.0190
   4      -55.717119117 -0.016241961  0.004847   11    6 4.116E-02  1   0.0057
   5      -55.719211802 -0.002092685  0.001294   13    5 9.834E-04  1   0.0000
   6      -55.719274144 -0.000062342  0.000525   13    5 7.193E-05  1   0.0000
   7      -55.719280742 -0.000006597  0.000224   13    5 1.410E-05  1   0.0000
   8      -55.719282056 -0.000001314  0.000102   13    5 3.355E-06  1   0.0000
   9      -55.719282358 -0.000000302  0.000048   13    5 8.720E-07  1   0.0000
  10      -55.719282433 -0.000000075  0.000023   13    5 2.407E-07  1   0.0000
  11      -55.719282453 -0.000000020  0.000011   13    5 6.934E-08  1   0.0000
  12      -55.719282459 -0.000000006  0.000006   22    5 2.063E-08  1   0.0000
  13      -55.719282460 -0.000000002  0.000003   22    5 6.270E-09  1   0.0000
  14      -55.719282461 -0.000000000  0.000002   22    5 1.971E-09  1   0.0000
  15      -55.719282461 -0.000000000  0.000001   22    5 6.172E-10  1   0.0000

          --------------------
          LAGRANGIAN CONVERGED
          --------------------

 FINAL MCSCF ENERGY IS      -55.7192824611 AFTER  15 ITERATIONS

 -MCCI- BASED ON OPTIMIZED ORBITALS
 ----------------------------------

 PLEASE NOTE: IF THE ACTIVE ORBITALS ARE CANONICALIZED BELOW,
 THE FOLLOWING CI EXPANSION COEFFICIENTS AND THE DENSITY DO NOT
 CORRESPOND TO THE PRINTED ORBITALS.  THE PRINTED EXPANSIONS MATCH
 THE ORBITALS USED DURING THE LAST ITERATION.  IF YOU WISH TO SEE
 CI EXPANSIONS BASED ON THE CANONICAL (OR NATURAL) ORBITALS, YOU
 MUST RUN A CI CALCULATION WITH THAT ORBITAL CHOICE READ IN $VEC.

 Averaged energy =     -55.719282461

 State #    1  Energy =     -55.858592277  S =  0.500

      Det      Coef    Occupancy (Ignoring core)
      ---      ----    --------- --------- -----
        1   -0.881858  11110001110000
        2   -0.059148  11101001110000
        5    0.072558  01111001110000
        6   -0.051643  11100101110000
        8    0.150528  10110101110000
       17    0.122518  11010011110000
       71    0.328919  11110001011000
       76    0.056454  11100101011000
      211   -0.052642  11110000110100
      386   -0.094074  11110001010010
      393   -0.076244  10110101010010
      701   -0.102732  11110001100001

 State #    2  Energy =     -55.714030355  S =  0.500

      Det      Coef    Occupancy (Ignoring core)
      ---      ----    --------- --------- -----
        1    0.317193  11110001110000
       17   -0.053949  11010011110000
       36   -0.160015  11110001101000
       71    0.878530  11110001011000
       74   -0.083245  10111001011000
       75   -0.066922  01111001011000
       76    0.058126  11100101011000
       78   -0.108614  10110101011000
       87   -0.094567  11010011011000
      106    0.054123  11110000111000
      113   -0.056077  10110100111000
      316    0.055160  11110000011100
      386    0.099236  11110001010010
      806   -0.082435  11110001001001
      822   -0.051300  11010011001001

 State #    3  Energy =     -55.585224751  S =  0.500

      Det      Coef    Occupancy (Ignoring core)
      ---      ----    --------- --------- -----
       36   -0.942470  11110001101000
       43    0.100083  10110101101000
       52    0.059329  11010011101000
       71   -0.151989  11110001011000
      246   -0.057163  11110001001100
      281   -0.080587  11110000101100
      351   -0.050518  11110001100010
      456   -0.125148  11110001001010
      463   -0.079826  10110101001010

 DENSITY MATRIX OVER ACTIVE MO-S

             1           2           3           4           5

    1    1.9730540
    2    0.0315596   1.6169283
    3    0.0005386  -0.0021099   1.6334965
    4   -0.0033965   0.0120997   0.0008987   1.6477769
    5    0.1118051  -0.0804758  -0.0012541   0.0446815   0.0373923
    6    0.0139172  -0.1838150  -0.0034358   0.0912241   0.0180256
    7   -0.0044893  -0.0009539   0.1409428  -0.0015444  -0.0015576

             6           7

    6    0.0582805
    7   -0.0016104   0.0330715

 FORMING THE "STANDARD FOCK OPERATOR" IN DIRECT AO INTEGRAL MODE...
 ONLY THE    1 CORE AND   21 VIRTUAL ORBITALS WILL BE CANONICALIZED

          ----------------------
          MCSCF NATURAL ORBITALS
          ----------------------

                      1          2          3          4          5
                  -15.9776     1.9815     1.6544     1.6463     1.6403
                     A          A          A          A          A   
    1  N  1  S    1.001070   0.009769  -0.008526   0.001274  -0.003879
    2  N  1  S   -0.002026   0.434889  -0.164479   0.047394  -0.097310
    3  N  1  S   -0.006387   0.326647  -0.263281   0.065629  -0.147475
    4  N  1  X    0.000108   0.059137  -0.113070  -0.121801   0.510444
    5  N  1  Y    0.000050  -0.002322   0.043892   0.451328   0.130833
    6  N  1  Z    0.001054   0.087423   0.585508  -0.047778   0.019700
    7  N  1  X   -0.000005   0.004310  -0.102689  -0.054682   0.279015
    8  N  1  Y    0.000011  -0.001971   0.022398   0.180384   0.065869
    9  N  1  Z   -0.000509   0.013446   0.390683  -0.018244  -0.028716
   10  N  1 XX   -0.000119  -0.002197  -0.012920  -0.003333   0.015973
   11  N  1 YY    0.000235   0.002247  -0.010109   0.005668  -0.017336
   12  N  1 ZZ   -0.000116  -0.000050   0.023029  -0.002335   0.001363
   13  N  1 XY   -0.000060  -0.000901   0.000001   0.001320   0.000087
   14  N  1 XZ    0.000186   0.003007   0.002689  -0.006456   0.023106
   15  N  1 YZ   -0.000000  -0.000905   0.001510   0.017989   0.005145
   16  H  2  S   -0.001575   0.160474   0.122316   0.344453  -0.034729
   17  H  2  S    0.000531  -0.000207   0.034849   0.054502  -0.027450
   18  H  2  X   -0.000130   0.006579  -0.000161   0.003447   0.021567
   19  H  2  Y    0.000837  -0.030556  -0.015156  -0.038892   0.000708
   20  H  2  Z    0.000292  -0.003621   0.019966  -0.012021   0.002234
   21  H  3  S   -0.001451   0.158863   0.075427  -0.291823  -0.202343
   22  H  3  S    0.000440  -0.000875   0.028951  -0.043873  -0.067899
   23  H  3  X   -0.000063   0.003539  -0.001139  -0.011030   0.018420
   24  H  3  Y   -0.000765   0.029302   0.010161  -0.034934  -0.018944
   25  H  3  Z    0.000310  -0.004791   0.021745   0.007280   0.006907
   26  H  4  S   -0.001850   0.219377   0.119151  -0.120942   0.351332
   27  H  4  S    0.000280   0.009383   0.027205  -0.021821   0.100316
   28  H  4  X    0.000864  -0.032888  -0.022583   0.009304  -0.019780
   29  H  4  Y   -0.000075   0.002800   0.001436   0.023412   0.008371
   30  H  4  Z    0.000568  -0.018892   0.018024   0.005873  -0.023408

                      6          7          8
                    0.0345     0.0226     0.0205
                     A          A          A   
    1  N  1  S   -0.130153  -0.150338   0.063018
    2  N  1  S   -0.435977  -0.531656   0.201886
    3  N  1  S    0.021483  -0.200574   0.027651
    4  N  1  X    0.613234  -0.466546   0.037233
    5  N  1  Y    0.081575   0.208780   0.900771
    6  N  1  Z   -0.164588  -0.621258   0.158924
    7  N  1  X   -0.057173  -0.085504   0.011642
    8  N  1  Y   -0.008443   0.035809   0.073753
    9  N  1  Z    0.069568   0.068682  -0.039514
   10  N  1 XX   -0.064878  -0.008796   0.005280
   11  N  1 YY    0.070152   0.008400  -0.009048
   12  N  1 ZZ   -0.005274   0.000396   0.003768
   13  N  1 XY   -0.005828  -0.019463  -0.052208
   14  N  1 XZ    0.002428   0.051750  -0.013403
   15  N  1 YZ   -0.005034  -0.017326  -0.052438
   16  H  2  S    0.458376   0.126456  -0.657341
   17  H  2  S    0.099185  -0.008644  -0.146881
   18  H  2  X   -0.013428   0.009640  -0.019408
   19  H  2  Y   -0.046633  -0.022816   0.066632
   20  H  2  Z   -0.001646   0.013858  -0.027384
   21  H  3  S    0.560915   0.336809   0.440089
   22  H  3  S    0.142498   0.041330   0.125970
   23  H  3  X   -0.017768   0.021728   0.013251
   24  H  3  Y    0.056821   0.041801   0.039418
   25  H  3  Z    0.000213   0.028814   0.014102
   26  H  4  S   -0.400701   0.728880  -0.124461
   27  H  4  S   -0.152431   0.141263  -0.030579
   28  H  4  X    0.005455  -0.063313   0.013396
   29  H  4  Y   -0.006690  -0.015062  -0.050226
   30  H  4  Z    0.023438  -0.000257   0.000796

          ------------------------
          MCSCF OPTIMIZED ORBITALS
          ------------------------

                      1          2          3          4          5
                  -15.9776     0.0000     0.0000     0.0000     0.0000
                     A          A          A          A          A   
    1  N  1  S    1.001070  -0.002181   0.012066  -0.001805  -0.016550
    2  N  1  S   -0.002026   0.398129  -0.013410   0.002386  -0.198279
    3  N  1  S   -0.006387   0.327216  -0.122014   0.001976  -0.272444
    4  N  1  X    0.000108   0.022881   0.445836   0.016935  -0.034994
    5  N  1  Y    0.000050   0.000936   0.000042   0.389431   0.008226
    6  N  1  Z    0.001054   0.051025   0.013627   0.001112   0.578398
    7  N  1  X   -0.000005  -0.021957   0.292468   0.020759  -0.086259
    8  N  1  Y    0.000011  -0.002169   0.013233   0.185376   0.008072
    9  N  1  Z   -0.000509   0.022204  -0.054689   0.004271   0.392266
   10  N  1 XX   -0.000119  -0.006196   0.024778   0.000950  -0.015788
   11  N  1 YY    0.000235   0.006529  -0.025931  -0.000532  -0.006995
   12  N  1 ZZ   -0.000116  -0.000333   0.001153  -0.000418   0.022784
   13  N  1 XY   -0.000060  -0.001409  -0.000584   0.006085  -0.000085
   14  N  1 XZ    0.000186   0.003867   0.024029   0.000898   0.004375
   15  N  1 YZ   -0.000000  -0.001284  -0.000591   0.023476   0.000197
   16  H  2  S   -0.001575   0.198884  -0.188466   0.374757   0.120409
   17  H  2  S    0.000531   0.007650  -0.057827   0.057930   0.035399
   18  H  2  X   -0.000130   0.005314   0.021543   0.011058  -0.000177
   19  H  2  Y    0.000837  -0.034743   0.016538  -0.042612  -0.014683
   20  H  2  Z    0.000292  -0.003087   0.003953  -0.007236   0.021000
   21  H  3  S   -0.001451   0.197122  -0.163186  -0.379621   0.122212
   22  H  3  S    0.000440   0.008638  -0.069652  -0.072099   0.037345
   23  H  3  X   -0.000063   0.002241   0.023564  -0.006590  -0.000513
   24  H  3  Y   -0.000765   0.033316  -0.012705  -0.042631   0.015436
   25  H  3  Z    0.000310  -0.003872   0.003341   0.008825   0.021059
   26  H  4  S   -0.001850   0.212036   0.434294  -0.002494   0.118608
   27  H  4  S    0.000280   0.003307   0.120792   0.012019   0.023871
   28  H  4  X    0.000864  -0.034079  -0.023745   0.001392  -0.023659
   29  H  4  Y   -0.000075   0.002314   0.001507   0.029348  -0.000333
   30  H  4  Z    0.000568  -0.016225  -0.029293  -0.000106   0.017660

                      6          7          8          9         10
                    0.0000     0.0000     0.0000     0.1576     0.2094
                     A          A          A          A          A   
    1  N  1  S    0.204167  -0.035536   0.017970  -0.137554   0.006517
    2  N  1  S    0.727957  -0.106550   0.045914  -0.210731   0.003459
    3  N  1  S    0.182323   0.118475  -0.007881   1.339185  -0.108284
    4  N  1  X    0.073740   0.824570   0.024891  -0.052605  -0.000598
    5  N  1  Y   -0.017740  -0.043878   0.964579   0.006295   0.180650
    6  N  1  Z    0.659361   0.137696   0.019730  -0.215733   0.010660
    7  N  1  X    0.084059   0.032732  -0.009496   0.214233   0.086242
    8  N  1  Y   -0.010475  -0.024753   0.094043  -0.040666  -0.869129
    9  N  1  Z   -0.086000  -0.002860  -0.017637   0.463294   0.000501
   10  N  1 XX    0.038734  -0.048293  -0.004164  -0.029189   0.018420
   11  N  1 YY   -0.042418   0.054303   0.001096   0.071177  -0.029576
   12  N  1 ZZ    0.003684  -0.006010   0.003068  -0.041989   0.011156
   13  N  1 XY    0.007718   0.005308  -0.054899  -0.016933  -0.000689
   14  N  1 XZ   -0.048712  -0.021457  -0.003159   0.072161   0.014472
   15  N  1 YZ    0.005470   0.004942  -0.053112  -0.010928  -0.094039
   16  H  2  S   -0.455201   0.312606  -0.532746   0.337185  -0.505554
   17  H  2  S   -0.070049   0.083694  -0.128459  -0.773142   1.765202
   18  H  2  X   -0.006571  -0.013884  -0.017880  -0.017377  -0.000702
   19  H  2  Y    0.053874  -0.026799   0.051758   0.078650  -0.100739
   20  H  2  Z   -0.016702  -0.008902  -0.025083   0.002235  -0.069421
   21  H  3  S   -0.441821   0.284697   0.527239   0.391380   0.346333
   22  H  3  S   -0.072603   0.091393   0.141823  -0.907046  -1.205714
   23  H  3  X   -0.007670  -0.023902   0.014285   0.019238   0.009971
   24  H  3  Y   -0.051706   0.025137   0.049381  -0.069834  -0.068728
   25  H  3  Z   -0.021101  -0.015334   0.019943   0.028088   0.067828
   26  H  4  S   -0.449856  -0.675587  -0.035629   0.225777   0.112207
   27  H  4  S   -0.055544  -0.191439  -0.021054  -0.771853  -0.363686
   28  H  4  X    0.052217   0.035618   0.002244   0.081236   0.008870
   29  H  4  Y    0.004952   0.002584  -0.050221  -0.039514  -0.010362
   30  H  4  Z   -0.010176   0.016270   0.003571   0.075783   0.017561

                     11         12         13         14         15
                    0.2344     0.5343     0.6277     0.7058     0.7642
                     A          A          A          A          A   
    1  N  1  S    0.032476   0.084284   0.071019   0.066194  -0.144237
    2  N  1  S    0.072702   0.132097   0.290232   0.166183  -0.346951
    3  N  1  S   -0.169979  -0.382509   0.266412  -0.163888   0.470867
    4  N  1  X   -0.004412  -0.656952  -0.220993  -0.034730  -0.004094
    5  N  1  Y    0.034179  -0.013574   0.018277  -0.455727  -0.174266
    6  N  1  Z    0.045258   0.412754  -0.568171  -0.088429   0.165641
    7  N  1  X   -0.374110   1.170164   0.947568   0.067548  -0.113842
    8  N  1  Y   -0.185307  -0.029072  -0.176531   1.827243   0.628395
    9  N  1  Z   -0.179800  -0.421298   1.095569   0.093169  -0.235059
   10  N  1 XX   -0.070100   0.020460   0.005718  -0.012713  -0.008279
   11  N  1 YY    0.086901  -0.001920  -0.045132  -0.006131   0.019687
   12  N  1 ZZ   -0.016801  -0.018540   0.039415   0.018844  -0.011407
   13  N  1 XY    0.007927  -0.007403   0.050323  -0.008748   0.201383
   14  N  1 XZ   -0.077149   0.021370  -0.040871  -0.016758   0.035030
   15  N  1 YZ   -0.013859  -0.000562   0.015359  -0.120276  -0.003424
   16  H  2  S    0.250216   0.305253  -0.310158  -0.645737  -0.312394
   17  H  2  S   -0.703287   0.383282   0.432452  -0.453031  -0.326205
   18  H  2  X    0.014223   0.011238   0.088118  -0.054593   0.345159
   19  H  2  Y   -0.002045  -0.024466  -0.045495   0.215336   0.045595
   20  H  2  Z   -0.006405  -0.053877   0.084210  -0.189058   0.055732
   21  H  3  S    0.458679   0.253948  -0.312058   0.547890   0.418064
   22  H  3  S   -1.472055   0.412108   0.328982   0.626955  -0.011461
   23  H  3  X   -0.011223   0.037416  -0.113346   0.065857  -0.387651
   24  H  3  Y   -0.037289   0.017422  -0.051626   0.256653  -0.037852
   25  H  3  Z    0.002225  -0.063075  -0.001090   0.205180  -0.049570
   26  H  4  S   -0.633153  -0.130226  -0.783293  -0.090066   0.167016
   27  H  4  S    2.181264  -0.685600  -0.546191  -0.025495  -0.021591
   28  H  4  X   -0.088019   0.084109   0.087822  -0.067606   0.018321
   29  H  4  Y    0.001875  -0.032433   0.126680  -0.232828   0.429205
   30  H  4  Z   -0.063729   0.046037   0.066054   0.016368   0.048843

                     16         17         18         19         20
                    1.0003     1.0382     1.1612     1.3539     1.3802
                     A          A          A          A          A   
    1  N  1  S   -0.596163  -0.295121   0.017975  -0.204492  -0.336247
    2  N  1  S   -1.265351  -0.623100   0.039212  -0.440722  -0.711729
    3  N  1  S    2.456987   1.359489  -0.089406   0.651347   1.282186
    4  N  1  X   -0.091493  -0.017204  -0.008682  -0.070475   0.066957
    5  N  1  Y    0.030916  -0.064936  -0.326920   0.019154  -0.006280
    6  N  1  Z    0.149865   0.054268  -0.015639  -0.049470  -0.038557
    7  N  1  X    0.554307   0.287461  -0.105101  -0.440393   0.324297
    8  N  1  Y   -0.085474   0.288647   1.170610   0.074760   0.045161
    9  N  1  Z    0.093760   0.507716  -0.084734   0.255413   0.680261
   10  N  1 XX   -0.106263   0.209893  -0.025422   0.149948  -0.040651
   11  N  1 YY   -0.096348  -0.033587   0.000300   0.031117   0.085060
   12  N  1 ZZ    0.202611  -0.176306   0.025122  -0.181065  -0.044408
   13  N  1 XY   -0.034076  -0.040637  -0.142966   0.049593  -0.027521
   14  N  1 XZ   -0.085782  -0.179785   0.039910   0.052563  -0.069414
   15  N  1 YZ   -0.000850  -0.022283   0.119521   0.009177  -0.015794
   16  H  2  S   -0.269789  -0.301995  -0.544234  -0.170795  -0.382179
   17  H  2  S   -0.292209  -0.242143  -0.237626  -0.139337  -0.012625
   18  H  2  X   -0.059814  -0.354211  -0.249605   0.709585  -0.000739
   19  H  2  Y    0.049204   0.096258  -0.221208   0.115968  -0.024051
   20  H  2  Z    0.279379  -0.022355   0.429813   0.032066  -0.619815
   21  H  3  S   -0.364897  -0.041444   0.596245  -0.104401  -0.361549
   22  H  3  S   -0.264117  -0.090035   0.206115  -0.101024   0.064506
   23  H  3  X    0.059132  -0.193065   0.385450   0.586310   0.095799
   24  H  3  Y   -0.027430  -0.123561  -0.242434  -0.059173   0.037106
   25  H  3  Z    0.327403  -0.045483  -0.380285  -0.027665  -0.649561
   26  H  4  S   -0.544609  -0.291852   0.054131  -0.147949  -0.394209
   27  H  4  S   -0.387087  -0.230964   0.036968   0.062742  -0.324761
   28  H  4  X   -0.090067   0.507971  -0.093752   0.011311   0.069249
   29  H  4  Y   -0.093636  -0.033793   0.186524  -0.107152  -0.029815
   30  H  4  Z    0.286952  -0.462041   0.021979  -0.436761   0.370462

                     21         22         23         24         25
                    1.6613     1.7353     1.8715     1.9403     2.1248
                     A          A          A          A          A   
    1  N  1  S    0.026777   0.085598   0.160410   0.156808  -0.050483
    2  N  1  S   -0.010286   0.262444   0.378224   0.350328  -0.094302
    3  N  1  S   -0.663489   0.581608  -0.004734  -0.087550   0.214734
    4  N  1  X    0.041559   0.082549   0.317369   0.215965  -0.048310
    5  N  1  Y    0.068683   0.139005  -0.395733   0.343606   0.016056
    6  N  1  Z   -0.046709   0.126411   0.201275   0.146021  -0.015214
    7  N  1  X   -0.008562  -0.081628  -0.177275  -0.189337  -0.124527
    8  N  1  Y    0.767076   0.610458  -0.190600   0.055350  -0.032963
    9  N  1  Z   -0.264274   0.186212  -0.043247  -0.080392   0.357599
   10  N  1 XX   -0.087530   0.034109  -0.108511  -0.110867  -0.776843
   11  N  1 YY    0.101343  -0.145621  -0.002488   0.028072  -0.052603
   12  N  1 ZZ   -0.013813   0.111511   0.110999   0.082795   0.829446
   13  N  1 XY    0.050358   0.055906  -0.027412   0.154062  -0.352861
   14  N  1 XZ    0.015880  -0.119106  -0.203714  -0.169825   0.280084
   15  N  1 YZ   -0.075114  -0.107478   0.163244  -0.144074  -0.059082
   16  H  2  S   -0.215778  -0.232348   0.058999  -0.002956  -0.085201
   17  H  2  S    0.097576  -0.485298   0.345210  -0.143455  -0.066153
   18  H  2  X    0.182403   0.126353   0.363668  -0.097795   0.136842
   19  H  2  Y   -0.444531   0.764592  -0.428099   0.466342   0.152328
   20  H  2  Z    0.527163   0.317356  -0.180802   0.261429  -0.190515
   21  H  3  S    0.268585   0.141351  -0.006050   0.093255  -0.105683
   22  H  3  S    0.531532  -0.128999  -0.181080   0.343864  -0.029062
   23  H  3  X   -0.266137  -0.193060   0.105770   0.575203  -0.107884
   24  H  3  Y    0.670526  -0.478952  -0.477625   0.522317  -0.054449
   25  H  3  Z   -0.349410  -0.462453   0.360055  -0.029298  -0.175581
   26  H  4  S    0.224967  -0.043737   0.141653   0.082914  -0.069656
   27  H  4  S   -0.208063   0.122017  -0.347680  -0.299278   0.056046
   28  H  4  X    0.173381   0.021085   0.694009   0.621404   0.325351
   29  H  4  Y   -0.524105  -0.536933  -0.264835   0.498411   0.122629
   30  H  4  Z   -0.044352   0.198279   0.364388   0.257044  -0.604334

                     26         27         28         29
                    2.2259     2.5249     2.6182     3.1113
                     A          A          A          A   
    1  N  1  S   -0.057281  -0.017237  -0.193296  -0.104811
    2  N  1  S   -0.112057  -0.007703  -0.219481  -0.119008
    3  N  1  S    0.201603   0.441771   2.434919   0.967998
    4  N  1  X   -0.034324   0.035556   0.310215  -0.309611
    5  N  1  Y   -0.069368   0.360088  -0.054271   0.072884
    6  N  1  Z   -0.020990   0.056219   0.318068   0.000956
    7  N  1  X    0.082679   0.118199   0.895814  -0.427719
    8  N  1  Y    0.047373   1.321629  -0.257590   0.127987
    9  N  1  Z    0.190602   0.144725   0.781642   0.009879
   10  N  1 XX   -0.271681   0.024246   0.101812  -0.976771
   11  N  1 YY    0.020524   0.036456   0.341213   1.555280
   12  N  1 ZZ    0.251157  -0.060703  -0.443025  -0.578508
   13  N  1 XY    1.030416  -0.093725  -0.139117  -0.026058
   14  N  1 XZ    0.216544   0.180196   1.088933  -0.482660
   15  N  1 YZ    0.115815   1.199533  -0.257868   0.034776
   16  H  2  S   -0.048709  -0.934438  -0.463798  -0.920839
   17  H  2  S    0.038503  -0.407613  -0.029454  -0.267710
   18  H  2  X   -0.474817  -0.068643  -0.180581  -0.085619
   19  H  2  Y   -0.155311   0.777156   0.255088   0.820960
   20  H  2  Z   -0.143543  -0.037828   0.186409   0.389294
   21  H  3  S   -0.075746   0.690336  -0.703531  -0.765046
   22  H  3  S   -0.091998   0.370378  -0.115789  -0.218643
   23  H  3  X    0.273839  -0.094442  -0.118781  -0.043949
   24  H  3  Y   -0.209984   0.641355  -0.426257  -0.771499
   25  H  3  Z   -0.030334   0.002549   0.199059   0.374717
   26  H  4  S   -0.081315  -0.214042  -1.437490   0.747339
   27  H  4  S    0.007922  -0.109939  -0.569899   0.195485
   28  H  4  X    0.039514   0.148618   0.870669  -0.614894
   29  H  4  Y   -0.389679  -0.277259  -0.072925   0.030016
   30  H  4  Z   -0.246823   0.084794   0.610833  -0.440902
 .....DONE WITH MCSCF ITERATIONS.....
 CPU     0: STEP CPU TIME=    10.57 TOTAL CPU TIME=         11.7 (      0.2 MIN)
 TOTAL WALL CLOCK TIME=         11.7 SECONDS, CPU UTILIZATION IS    99.91%

     ----------------------------------------------------------------
     PROPERTY VALUES FOR THE MCSCF SELF-CONSISTENT FIELD WAVEFUNCTION
     ----------------------------------------------------------------

          -----------------
          ENERGY COMPONENTS
          -----------------

         WAVEFUNCTION NORMALIZATION =       1.0000000000

                ONE ELECTRON ENERGY =     -93.6934069941
                TWO ELECTRON ENERGY =      26.9363940404
           NUCLEAR REPULSION ENERGY =      11.0377304927
                                      ------------------
                       TOTAL ENERGY =     -55.7192824611

 ELECTRON-ELECTRON POTENTIAL ENERGY =      26.9363940404
  NUCLEUS-ELECTRON POTENTIAL ENERGY =    -149.3612856890
   NUCLEUS-NUCLEUS POTENTIAL ENERGY =      11.0377304927
                                      ------------------
             TOTAL POTENTIAL ENERGY =    -111.3871611560
               TOTAL KINETIC ENERGY =      55.6678786949
                 VIRIAL RATIO (V/T) =       2.0009234008

          ---------------------------------------
          MULLIKEN AND LOWDIN POPULATION ANALYSES
          ---------------------------------------

     ATOMIC MULLIKEN POPULATION IN EACH MOLECULAR ORBITAL

                      1          2          3          4          5

                  2.000000   1.981504   1.654373   1.646269   1.640267

    1             2.000615   1.361184   1.535467   0.900549   1.143516
    2            -0.000174   0.163045   0.045993   0.401965   0.012721
    3            -0.000140   0.161203   0.020656   0.289234   0.141669
    4            -0.000301   0.296072   0.052257   0.054520   0.342360

                      6          7          8

                  0.034484   0.022638   0.020466

    1             0.014414   0.012207   0.011304
    2             0.006463   0.000215   0.006183
    3             0.009805   0.002068   0.002680
    4             0.003802   0.008148   0.000299
 WARNING! MCSCF POPULATIONS SHOWN ABOVE ARE FOR THE NATURAL ORBITALS.
 IGNORE THE ABOVE DATA FOR MCSCF FUNCTIONS WHICH ARE NOT OF -FORS- TYPE.
 THE FOLLOWING POPULATIONS ARE CORRECT FOR ANY MCSCF WAVEFUNCTION.

               ----- POPULATIONS IN EACH AO -----
                             MULLIKEN      LOWDIN
              1  N  1  S      2.00225     1.90431
              2  N  1  S      0.82002     0.57861
              3  N  1  S      0.70593     0.41813
              4  N  1  X      0.74093     0.68522
              5  N  1  Y      0.62723     0.54578
              6  N  1  Z      0.86342     0.81239
              7  N  1  X      0.39499     0.46443
              8  N  1  Y      0.27835     0.39667
              9  N  1  Z      0.52869     0.56868
             10  N  1 XX      0.00070     0.15333
             11  N  1 YY      0.00640     0.19418
             12  N  1 ZZ      0.00007     0.14502
             13  N  1 XY      0.00594     0.00030
             14  N  1 XZ      0.00432     0.01213
             15  N  1 YZ      0.00000     0.00794
             16  H  2  S      0.54091     0.42504
             17  H  2  S      0.04136     0.15163
             18  H  2  X      0.00915     0.02039
             19  H  2  Y      0.03438     0.05662
             20  H  2  Z      0.01061     0.02686
             21  H  3  S      0.52596     0.41172
             22  H  3  S      0.04874     0.15289
             23  H  3  X      0.00902     0.02206
             24  H  3  Y      0.03263     0.05279
             25  H  3  Z      0.01083     0.02616
             26  H  4  S      0.63875     0.49496
             27  H  4  S      0.05708     0.14941
             28  H  4  X      0.02833     0.05230
             29  H  4  Y      0.01235     0.02496
             30  H  4  Z      0.02065     0.04510

          ----- MULLIKEN ATOMIC OVERLAP POPULATIONS -----
          (OFF-DIAGONAL ELEMENTS NEED TO BE MULTIPLIED BY 2)

             1           2           3           4

    1    6.1495669
    2    0.2842848   0.3640544
    3    0.2676679  -0.0055282   0.3738902
    4    0.2777366  -0.0064000  -0.0088550   0.4946761

          TOTAL MULLIKEN AND LOWDIN ATOMIC POPULATIONS
       ATOM         MULL.POP.    CHARGE          LOW.POP.     CHARGE
    1 N             6.979256    0.020744         6.887119    0.112881
    2 H             0.636411    0.363589         0.680548    0.319452
    3 H             0.627175    0.372825         0.665613    0.334387
    4 H             0.757158    0.242842         0.766720    0.233280

          MULLIKEN SPHERICAL HARMONIC POPULATIONS
       ATOM           S       P       D      F      G      H      I    TOTAL
    1 N             3.53    3.43    0.02   0.00   0.00   0.00   0.00    6.98
    2 H             0.58    0.05    0.00   0.00   0.00   0.00   0.00    0.64
    3 H             0.57    0.05    0.00   0.00   0.00   0.00   0.00    0.63
    4 H             0.70    0.06    0.00   0.00   0.00   0.00   0.00    0.76

          ---------------------
          ELECTROSTATIC MOMENTS
          ---------------------

 POINT   1           X           Y           Z (BOHR)    CHARGE
                 0.000004   -0.000001   -0.177185        1.00 (A.U.)
         DX          DY          DZ         /D/  (DEBYE)
     0.857695   -0.129703    2.115764    2.286683
 ...... END OF PROPERTY EVALUATION ......
 CPU     0: STEP CPU TIME=     0.00 TOTAL CPU TIME=         11.7 (      0.2 MIN)
 TOTAL WALL CLOCK TIME=         11.7 SECONDS, CPU UTILIZATION IS    99.91%

     -------------------------------------------------
     GMC-PT/GMC-QDPT or general MCSCF input parameters
     -------------------------------------------------
 # of frozen core orbs. =         0 ->         0
 # of doubly occ. orbs. =         1
 # of active      orbs. =         7
 # of virtual     orbs. =        21
 # of active electrons  =         7
 # of states in CI      =         3
 Highest state in CI    =         3
 kstate =  1 1 1
 avecoe =  0.333 0.333 0.333
 State symmetry           = A           
 Assigned symmetry number = 1

 <<<Act. MO sym.: 1111111

 <<<Division of 1-ext.:  0
 <<<Division of 2-ext.:  0

     ------------------------
     Orbital canonicalization
     ------------------------

 MOs are canonicalized for core, virtual, and invariant-active orbital spaces.
 This is a part of the GMC-QDPT calculation.
 SCHWARZ INEQUALITY OVERHEAD:       465 INTEGRALS, T=        0.00
 DIRECT TRANSFORMATION SKIPS AO INTEGRAL STORAGE ON DISK.

 Averaged energy =     -55.719282461

 State #    1  Energy =     -55.858592277  S =  0.500
 State #    2  Energy =     -55.714030355  S =  0.500
 State #    3  Energy =     -55.585224751  S =  0.500

 Orbital energies for filled orbital space
  -15.977634
 Orbital energies for active orbital space
   -1.492593  -0.832884  -0.954623  -0.718782   0.334483
    0.128124   0.370266
 Orbital energies for external orbital space
    0.157592   0.209400   0.234383   0.534271   0.627696
    0.705816   0.764165   1.000285   1.038212   1.161208
    1.353875   1.380228   1.661335   1.735316   1.871492
    1.940321   2.124812   2.225879   2.524919   2.618181
    3.111332

 Zero values mean non-canonical orbitals.
 ... done with orbital canonicalization ...
 CPU     0: STEP CPU TIME=     0.67 TOTAL CPU TIME=         12.4 (      0.2 MIN)
 TOTAL WALL CLOCK TIME=         12.4 SECONDS, CPU UTILIZATION IS    99.92%

     --------------------------------------------
     PARTIAL TWO ELECTRON INTEGRAL TRANSFORMATION
     --------------------------------------------

 NUMBER OF CORE MOLECULAR ORBITALS     =    0
 NUMBER OF OCCUPIED MOLECULAR ORBITALS =    8
 TOTAL NUMBER OF MOLECULAR ORBITALS    =   29
 TOTAL NUMBER OF ATOMIC ORBITALS       =   30
 THRESHOLD FOR KEEPING TRANSFORMED 2E- INTEGRALS = 1.000E-09
 AO INTEGRALS WILL BE CALCULATED IN DIRECT MODE...
 DIRECT TRANSFORMATION SKIPS AO INTEGRAL STORAGE ON DISK.
 SCHWARZ INEQUALITY OVERHEAD:       465 INTEGRALS, T=        0.01

 PLAN A: REQUIREMENTS FOR FULLY IN-MEMORY TRANSFORMATION:
 # OF WORDS AVAILABLE =            100000000
 # OF WORDS NEEDED    =               221798

 PARALLEL ONLY WORKS WITH THE SEGMENTED ALGORITHM.
 ADJUSTING MEMORY TO USE SEGMENTED ALGORITHM.


 PLAN B: REQUIREMENTS FOR THE SEGMENTED TRANSFORMATION:
       MINIMUM=         124148 WORDS FOR 1 MOLECULAR ORBITAL PER PASS
       MAXIMUM=         221798 WORDS FOR ALL MOLECULAR ORBITALS IN 1 PASS
              (          13950 EXTRA WORDS INCLUDES 1 EXTRA ORBITAL/PASS)
 THIS RUN USES=         221798 WORDS,
 DISTRIBUTING   1 PASSES EACH CONTAINING     8 ORBITALS OVER   1 PROCESSORS.

 CHOOSING SEGMENTED PARTIAL TRANSFORMATION...
 DIRECT TRANSFORMATION SKIPS AO INTEGRAL STORAGE ON DISK.
 PASS #   1 TOOK        0.04 SECONDS.
 TOTAL NUMBER OF TRANSFORMED 2E- INTEGRALS KEPT =        29226
 ... END OF INTEGRAL TRANSFORMATION ...
 CPU     0: STEP CPU TIME=     0.05 TOTAL CPU TIME=         12.4 (      0.2 MIN)
 TOTAL WALL CLOCK TIME=         12.4 SECONDS, CPU UTILIZATION IS    99.92%

     --------     ------------------------------------------
     GMC-QDPT     Program written by H.Nakano (Kyushu Univ.)
     --------     ------------------------------------------

 *** Reference space

 Reference type: ORMAS (= Occupation restricted multiple active space)
 # of orbitals          =  7
 # of minimum electrons =  7
 # of maximum electrons =  7
 State symmetry    =    1 (input)
 2*Sz              =    1 (input)
 Spin multiplicity =    2 (input)
 Dimension of reference space =      1225  (from      3432 walks)

 Dimension of reference space =      1225  (from      1225 walks)

 <<<Ionized spaces for Ref-CI:
      0:         1225 /   -1-0:         1960 /  0-1-0:         2891

 ***                    ***
 *** Reference space CI ***
 ***                    ***

 Converged after   39 iterations

 Reference wavefunctions:

 State #    1  Energy =     -55.858592277  S =  0.500

      Det      Coef    Occupancy (Ignoring core)
      ---      ----    --------- --------- -----
        1    0.972564  11110001110000
       71    0.079969  11110001011000
      179    0.052323  10111001010100
      393    0.055257  10110101010010
      717    0.054566  11010011100001

 State #    2  Energy =     -55.714030355  S =  0.500

      Det      Coef    Occupancy (Ignoring core)
      ---      ----    --------- --------- -----
        1    0.084407  11110001110000
       71   -0.975823  11110001011000
      462    0.052324  11010101001010
      822    0.056431  11010011001001

 State #    3  Energy =     -55.585224751  S =  0.500

      Det      Coef    Occupancy (Ignoring core)
      ---      ----    --------- --------- -----
       36   -0.976540  11110001101000
      249   -0.053958  10111001001100
      463   -0.057090  10110101001010

 Davidson method: CPU/Wall time =           0.49 /           0.50 sec.

 Oscillator strength (invalid if E(1)/=E(GS)):
 -----------------------------------------
   State                        f
 -----------------------------------------
     2     F(REF-CI)=        0.0032997629
     3     F(REF-CI)=        0.0037244602
 -----------------------------------------

 Dipole moment matrix elements, x, y, z, in A.U.

 Dimension of ionized spaces for PT:
 (N-2) space:         1715 /  (N-1) space:         2842 /  N space:         2891
 (N+1) space:         2842 /  (N+2) space:         1715

 <<<Ionized spaces for internal:
         0:         1225 /      -1-0:         1960 /     0-1-0:         2891
  -1-0-1-0:         2842 / 0-1-0-1-0:         3381

 Diagonal elements of averaged one-particle density matrix:
       2       3       4       5       6       7       8
  0.9931  0.9848  0.9860  0.9909  0.0128  0.0202  0.0121
  0.9882  0.6573  0.6601  0.6615  0.0101  0.0141  0.0086

 Orbital energies:
 -------- Doubly-occupied orbitals (highest several orbs.) -------
             1
 -1.597763D+01
 -------- Active orbitals ----------------------------------------
             2            3            4            5            6
 -1.492593D+00-8.328841D-01-9.546232D-01-7.187824D-01 3.344829D-01
             7            8
  1.281238D-01 3.702663D-01
 -------- External orbitals (lowest several orbs.) ---------------
             9           10           11           12           13
  1.575923D-01 2.093999D-01 2.343828D-01 5.342707D-01 6.276960D-01
            14           15           16           17           18
  7.058160D-01 7.641652D-01 1.000285D+00 1.038212D+00 1.161208D+00

 *** Quasi-degeneracy checking

 === Det (|Ci| > 1.0D-01 and dE < 5.0D-03)

 # of small denominators (single excitations)
 State       dEmin  dE < 5.0D-03  dE < 5.0D-04  dE < 5.0D-05  dE < 5.0D-06
 ----- ----------- ------------- ------------- ------------- -------------
     1    5.00D-03             0             0             0             0
     2    5.00D-03             0             0             0             0
     3    5.00D-03             0             0             0             0

 # of small denominators (double excitations)
 State       dEmin  dE < 5.0D-03  dE < 5.0D-04  dE < 5.0D-05  dE < 5.0D-06
 ----- ----------- ------------- ------------- ------------- -------------
     1    5.00D-03             0             0             0             0
     2    5.00D-03             0             0             0             0
     3    5.00D-03             0             0             0             0

 *** Zeroth-Order Setup (Granovsky's zeroth-order vectors)
 Zeroth-order effective Hamiltonian
  (= Sum_i e(i)*<I|a+(i)a(i)|J> ):
                   1            2            3
     1 -7.170695D+00
     2 -1.678392D-02-7.074676D+00
     3 -6.901799D-04 3.453970D-03-6.947912D+00

 Zeroth-order vectors:
 State #    1
       MC st            1           2           3
       Coeff    9.859D-01   1.674D-01   4.539D-04
 State #    2
       MC st            2           1           3
       Coeff   -9.855D-01   1.673D-01   2.838D-02
 State #    3
       MC st            3           2           1
       Coeff    9.996D-01   2.790D-02  -5.197D-03

 *** GMC-QDPT computation

 (Integral reading:  CPU/Wall time =           0.00 /           0.00 sec.)

 One-external:
   0 -ionized terms: CPU/Wall time =           0.04 /           0.03 sec.
 (-1)-ionized terms: CPU/Wall time =           0.08 /           0.09 sec.
 (+1)-ionized terms: CPU/Wall time =           0.02 /           0.02 sec.
 (+1)-ionized terms: CPU/Wall time =           0.01 /           0.01 sec.
 (+2)-ionized terms: CPU/Wall time =           0.00 /           0.00 sec.

 Internal:
 # of macro loops for internal contribution =         1 (input)
 Loop:    1
 Dimension of internal CISD space     =         0  (after screening)
 Space construction: CPU/Wall time =           0.02 /           0.02 sec.
 Internal terms:     CPU/Wall time =           0.00 /           0.00 sec.

 Two-external:
   0 -ionized terms: CPU/Wall time =           0.06 /           0.06 sec.
 (-1)-ionized terms: CPU/Wall time =           1.00 /           1.00 sec.
 (-2)-ionized terms: CPU/Wall time =           0.17 /           0.17 sec.

 Total time:         CPU/Wall time =           1.40 /           1.40 sec.

 ***                  ***
 *** GMC-QDPT Results ***
 ***                  ***

 Diagonal elements of effective Hamiltonian:
 Heff(  1) =   -55.95379034
 Heff(  2) =   -55.82539298
 Heff(  3) =   -55.69614981

 Off-diagonal elements of effective Hamiltonian:
                   1            2
     2 -2.116550D-02
     3  4.904593D-04 3.577890D-03

 ******** GMC-QDPT energies ********
 ----------------------------------------------------------------------------
   State                        1st order                           2nd order
 ----------------------------------------------------------------------------
     1     E(REF-CI)=      -55.8585922773   E(GMC-QDPT2)=      -55.9571935950
     2     E(REF-CI)=      -55.7140303550   E(GMC-QDPT2)=      -55.8220887293
     3     E(REF-CI)=      -55.5852247510   E(GMC-QDPT2)=      -55.6960507973
 ----------------------------------------------------------------------------

 Excitation energies (invalid if E(1)/=E(GS)):
 ----------------------------------------------------------------------------
   State                        1st order                           2nd order
 ----------------------------------------------------------------------------

     TZ Sorted GMC-PT ENERGIES:
         1      -55.9571935950
         2      -55.8220887293
         3      -55.6960507973
     2     E(REF-CI)=        3.9337323 eV   E(GMC-QDPT2)=        3.6763925 eV
     3     E(REF-CI)=        7.4387131 eV   E(GMC-QDPT2)=        7.1060611 eV
 ----------------------------------------------------------------------------

 Main characters of perturbed GMC-QDPT states:

 State #    1  Energy =     -55.957193595  S =  0.500

      Det      Coef    Occupancy (Ignoring core)
      ---      ----    --------- --------- -----
        1    0.973264  11110001110000
       71    0.071439  11110001011000
      179    0.052435  10111001010100
      393    0.055068  10110101010010
      717    0.054580  11010011100001

 State #    2  Energy =     -55.822088729  S =  0.500

      Det      Coef    Occupancy (Ignoring core)
      ---      ----    --------- --------- -----
        1    0.075889  11110001110000
       71   -0.976496  11110001011000
      462    0.052344  11010101001010
      822    0.056464  11010011001001

 State #    3  Energy =     -55.696050797  S =  0.500

      Det      Coef    Occupancy (Ignoring core)
      ---      ----    --------- --------- -----
       36   -0.976550  11110001101000
      249   -0.053948  10111001001100
      463   -0.057094  10110101001010

 <<<Max |V/de| = 2.368D-02  Thresh = 1.000D+00

 Oscillator strength (invalid if E(1)/=E(GS)):
 ----------------------------------------------------------------------------
   State                        1st order                           2nd order
 ----------------------------------------------------------------------------
     2     F(REF-CI)=        0.0032997629     F(GMC-PT2)=        0.0031813144
     3     F(REF-CI)=        0.0037244602     F(GMC-PT2)=        0.0036697466
 ----------------------------------------------------------------------------

 Dipole moment matrix elements, x, y, z, in A.U.
States    1    1        0.3252315711       -0.0523333649        0.6670753539
States    1    2        0.0096641620        0.0152612262       -0.1870673694
States    1    3        0.0139694232       -0.1412466502       -0.0305483910
States    2    1        0.0096641620        0.0152612262       -0.1870673694
States    2    2        0.3482243097        0.0429497301        0.3433196712
States    2    3       -0.0289742507       -0.2412315008       -0.0015518901
States    3    1        0.0139694232       -0.1412466502       -0.0305483910
States    3    2       -0.0289742507       -0.2412315008       -0.0015518901
States    3    3        0.5130315352       -0.1516670078        0.3046124353

 Oscillator strength (valid only when positive): 
 ----------------------------------------------------------------------------
  States                        1st order                           2nd order
 ----------------------------------------------------------------------------
  1  1     F(REF-CI)=        0.0000000000     F(GMC-PT2)=        0.0000000000
  1  2     F(REF-CI)=       -0.0032997629     F(GMC-PT2)=       -0.0031813144
  1  3     F(REF-CI)=       -0.0037244602     F(GMC-PT2)=       -0.0036697466
  2  1     F(REF-CI)=        0.0032997629     F(GMC-PT2)=        0.0031813144
  2  2     F(REF-CI)=        0.0000000000     F(GMC-PT2)=        0.0000000000
  2  3     F(REF-CI)=       -0.0051230088     F(GMC-PT2)=       -0.0049603953
  3  1     F(REF-CI)=        0.0037244602     F(GMC-PT2)=        0.0036697466
  3  2     F(REF-CI)=        0.0051230088     F(GMC-PT2)=        0.0049603953
  3  3     F(REF-CI)=        0.0000000000     F(GMC-PT2)=        0.0000000000
 CPU     0: STEP CPU TIME=     1.96 TOTAL CPU TIME=         14.4 (      0.2 MIN)
 TOTAL WALL CLOCK TIME=         14.4 SECONDS, CPU UTILIZATION IS   100.00%

     !!! DIABATIZATION FOR REF CI STATES !!!

 *******************************************************
          $DMO GROUP FOUND IN THE INPUT.
        DIABATIZATION OF ADIABATIC STATES BEGINS.
     PROGRAMMED BY TAO ZENG (CARLETON UNIVERSITY).
               Email: toby.zeng@carleton.ca
     See T. Zeng, J. Chem. Phys. 2017, 146, 144103
 *******************************************************

 *************************************************************************
     STEP 1: TRANSFORMATION OF ADIABATIC STATES TO THE DMO REPRESENTATION
         See Atchity and Ruedenberg, J. Chem. Phys. 1999, 111, 2910
 *************************************************************************

Read in Diabatic Molecualr Orbitals:

                      1          2          3          4          5

    1  N  1  S    0.008609   0.000000   0.000000  -0.013219   0.279491
    2  N  1  S    0.442914  -0.000000   0.000000  -0.184329   0.867803
    3  N  1  S    0.276913   0.000000  -0.000000  -0.288315   0.144236
    4  N  1  X   -0.000000   0.493155  -0.024636  -0.000000  -0.000000
    5  N  1  Y    0.000000   0.024636   0.493155  -0.000000   0.000000
    6  N  1  Z    0.090197   0.000000   0.000000   0.593421   0.705309
    7  N  1  X   -0.000000   0.210628  -0.010522   0.000000   0.000000
    8  N  1  Y    0.000000   0.010522   0.210628  -0.000000  -0.000000
    9  N  1  Z   -0.004381   0.000000   0.000000   0.381592  -0.106092
   10  N  1 XX   -0.000457   0.010719  -0.000535  -0.012387   0.006153
   11  N  1 YY   -0.000457  -0.010719   0.000535  -0.012387   0.006153
   12  N  1 ZZ    0.000914  -0.000000   0.000000   0.024773  -0.012306
   13  N  1 XY    0.000000  -0.000618  -0.012377  -0.000000   0.000000
   14  N  1 XZ   -0.000000   0.026529  -0.001325  -0.000000   0.000000
   15  N  1 YZ    0.000000   0.001325   0.026529  -0.000000   0.000000
   16  H  2  S    0.194462  -0.176074   0.343485   0.112865  -0.523343
   17  H  2  S    0.003574  -0.023812   0.046452   0.024014  -0.054445
   18  H  2  X    0.018760   0.009101   0.022834   0.009336  -0.039151
   19  H  2  Y   -0.032493   0.022287  -0.020044  -0.016171   0.067811
   20  H  2  Z   -0.009251   0.008464  -0.016511   0.018769  -0.010566
   21  H  3  S    0.194462  -0.209430  -0.324227   0.112865  -0.523343
   22  H  3  S    0.003574  -0.028322  -0.043847   0.024014  -0.054445
   23  H  3  X    0.018760   0.006781  -0.023627   0.009336  -0.039151
   24  H  3  Y    0.032493  -0.024174  -0.017723   0.016171  -0.067811
   25  H  3  Z   -0.009251   0.010067   0.015585   0.018769  -0.010566
   26  H  4  S    0.194462   0.385503  -0.019258   0.112865  -0.523343
   27  H  4  S    0.003574   0.052134  -0.002604   0.024014  -0.054445
   28  H  4  X   -0.037519  -0.032295   0.001613  -0.018672   0.078302
   29  H  4  Y    0.000000   0.001067   0.021353  -0.000000   0.000000
   30  H  4  Z   -0.009251  -0.018530   0.000926   0.018769  -0.010566

                      6          7

    1  N  1  S    0.000000  -0.000000
    2  N  1  S    0.000000  -0.000000
    3  N  1  S   -0.000000   0.000000
    4  N  1  X   -0.930415  -0.002083
    5  N  1  Y   -0.002083   0.930415
    6  N  1  Z   -0.000000   0.000000
    7  N  1  X   -0.046866  -0.000105
    8  N  1  Y   -0.000105   0.046866
    9  N  1  Z   -0.000000   0.000000
   10  N  1 XX    0.001538   0.000003
   11  N  1 YY   -0.001538  -0.000003
   12  N  1 ZZ   -0.000000   0.000000
   13  N  1 XY   -0.000004   0.001776
   14  N  1 XZ    0.039985   0.000090
   15  N  1 YZ    0.000090  -0.039985
   16  H  2  S   -0.362630  -0.631354
   17  H  2  S   -0.065964  -0.114846
   18  H  2  X    0.002763  -0.037520
   19  H  2  Y    0.037435   0.040736
   20  H  2  Z    0.001882   0.003276
   21  H  3  S   -0.365454   0.629724
   22  H  3  S   -0.066477   0.114549
   23  H  3  X    0.002595   0.037532
   24  H  3  Y   -0.037617   0.040567
   25  H  3  Z    0.001896  -0.003268
   26  H  4  S    0.728084   0.001630
   27  H  4  S    0.132441   0.000297
   28  H  4  X   -0.062317  -0.000140
   29  H  4  Y    0.000055  -0.024345
   30  H  4  Z   -0.003778  -0.000008

NUMBER OF SUB ACTIVE SPACES:   1
ROTATE ACTIVE MOS TO DMOS IN EACH SUB-SPACE

SPACE  1:

OVERLAP BETWEEN ORTHONORMAL AND PRE-ORTHONORMAL REF. DMOS

             1           2           3           4           5

    1    0.9738656   0.0408619  -0.0030375  -0.0084718   0.0079617
    2    0.0408619   0.9006284  -0.0083958   0.0469251  -0.0648423
    3   -0.0030375  -0.0083958   1.0273348  -0.0070603   0.0166506
    4   -0.0084718   0.0469251  -0.0070603   0.9950917  -0.0121702
    5    0.0079617  -0.0648423   0.0166506  -0.0121702   1.1229813
    6    0.0009705  -0.0592780  -0.0143188   0.0450746   0.0492403
    7   -0.0008417   0.0068970  -0.0420331   0.0092773  -0.0183710

             6           7

    1    0.0009705  -0.0008417
    2   -0.0592780   0.0068970
    3   -0.0143188  -0.0420331
    4    0.0450746   0.0092773
    5    0.0492403  -0.0183710
    6    1.0851568  -0.0002677
    7   -0.0002677   1.0418990
REFERENCE DMOS AFTER ORTHONORMALIZATION:

                      1          2          3          4          5

    1  N  1  S    0.005965   0.017576  -0.003935  -0.010615   0.250308
    2  N  1  S    0.445206   0.042442  -0.011794  -0.173052   0.771745
    3  N  1  S    0.280343   0.011511  -0.002767  -0.286744   0.123838
    4  N  1  X   -0.020553   0.497309  -0.032810   0.014792   0.065993
    5  N  1  Y    0.001163   0.026488   0.517556  -0.006277   0.008447
    6  N  1  Z    0.092462   0.006384  -0.006349   0.606970   0.636909
    7  N  1  X   -0.010014   0.233795  -0.009167  -0.009581   0.014926
    8  N  1  Y    0.000146   0.013305   0.207385   0.000174  -0.001586
    9  N  1  Z    0.000764  -0.027447   0.003524   0.384327  -0.091446
   10  N  1 XX   -0.001191   0.013225  -0.000566  -0.013122   0.006014
   11  N  1 YY   -0.000144  -0.011050   0.000258  -0.011791   0.004792
   12  N  1 ZZ    0.001336  -0.002174   0.000308   0.024913  -0.010806
   13  N  1 XY   -0.000004  -0.000808  -0.012010  -0.000047   0.000160
   14  N  1 XZ   -0.001423   0.032248  -0.000520  -0.003288   0.000144
   15  N  1 YZ   -0.000028   0.001937   0.024332   0.000396  -0.000880
   16  H  2  S    0.216631  -0.261624   0.312453   0.144438  -0.481157
   17  H  2  S    0.005879  -0.034631   0.040628   0.029283  -0.049920
   18  H  2  X    0.019373   0.006958   0.021573   0.009071  -0.035602
   19  H  2  Y   -0.035506   0.033591  -0.018389  -0.019425   0.061786
   20  H  2  Z   -0.009666   0.008228  -0.015661   0.018083  -0.008473
   21  H  3  S    0.217580  -0.311817  -0.290029   0.132408  -0.455242
   22  H  3  S    0.006067  -0.041754  -0.038555   0.027177  -0.045543
   23  H  3  X    0.019426   0.003538  -0.020844   0.008337  -0.033986
   24  H  3  Y    0.035569  -0.036487  -0.015299   0.018663  -0.060173
   25  H  3  Z   -0.009658   0.010333   0.015407   0.018221  -0.008918
   26  H  4  S    0.185307   0.429648   0.002924   0.056745  -0.473403
   27  H  4  S    0.001493   0.061797   0.000620   0.014873  -0.050363
   28  H  4  X   -0.037805  -0.032413  -0.000853  -0.013912   0.070718
   29  H  4  Y   -0.000014   0.001514   0.019890   0.000255  -0.000592
   30  H  4  Z   -0.008299  -0.022296   0.000919   0.019954  -0.010217

                      6          7

    1  N  1  S   -0.010013   0.004235
    2  N  1  S   -0.026062   0.014745
    3  N  1  S    0.006634   0.004777
    4  N  1  X   -0.834260  -0.005814
    5  N  1  Y    0.006458   0.913911
    6  N  1  Z   -0.053929   0.005588
    7  N  1  X   -0.030808  -0.001686
    8  N  1  Y    0.003444   0.053231
    9  N  1  Z   -0.013269  -0.004713
   10  N  1 XX    0.002405   0.000115
   11  N  1 YY   -0.001745   0.000269
   12  N  1 ZZ   -0.000660  -0.000385
   13  N  1 XY   -0.000211   0.001228
   14  N  1 XZ    0.038734  -0.000108
   15  N  1 YZ    0.000524  -0.037428
   16  H  2  S   -0.328850  -0.601307
   17  H  2  S   -0.061126  -0.109511
   18  H  2  X    0.004424  -0.035878
   19  H  2  Y    0.034134   0.039376
   20  H  2  Z    0.001619   0.002140
   21  H  3  S   -0.342528   0.585645
   22  H  3  S   -0.063091   0.107607
   23  H  3  X    0.003497   0.034501
   24  H  3  Y   -0.034927   0.037353
   25  H  3  Z    0.002171  -0.002910
   26  H  4  S    0.713413  -0.009681
   27  H  4  S    0.127098  -0.001086
   28  H  4  X   -0.061805   0.001371
   29  H  4  Y    0.000406  -0.022586
   30  H  4  Z   -0.005045  -0.000189

 -------------------------------------------
       MAXIMIZING MORMO OVERLAP TERM        
 -------------------------------------------
   SWEEP    VALUE       PROGRESS
     0     5.42915
     1     6.94252     1.51337172
     2     6.95261     0.01008927
     3     6.95261     0.00000146
     4     6.95261     0.00000000
     5     6.95261     0.00000000
 THE ROTATION IS DONE
ACTIVE ORBITALS AFTER MORMO:

                      1          2          3          4          5

    1  N  1  S    0.004250   0.030256  -0.004072  -0.012498   0.203183
    2  N  1  S    0.420578   0.076177  -0.007491  -0.190197   0.716986
    3  N  1  S    0.333346  -0.078841  -0.001757  -0.269257   0.185161
    4  N  1  X    0.001853   0.441611  -0.033154   0.045419   0.031118
    5  N  1  Y    0.002952   0.019858   0.507317  -0.004972   0.009696
    6  N  1  Z    0.080753   0.037198  -0.010215   0.603609   0.639062
    7  N  1  X   -0.032795   0.302103  -0.003382  -0.064966   0.061372
    8  N  1  Y   -0.002509   0.024254   0.195232   0.005565  -0.006842
    9  N  1  Z    0.027342  -0.081996   0.011247   0.384842  -0.091261
   10  N  1 XX   -0.005895   0.029181  -0.000934  -0.016322   0.037233
   11  N  1 YY    0.005774  -0.029385   0.000748  -0.006115  -0.040378
   12  N  1 ZZ    0.000121   0.000204   0.000187   0.022437   0.003145
   13  N  1 XY   -0.001259   0.000698  -0.001102   0.000958   0.006582
   14  N  1 XZ    0.001364   0.019981   0.000580   0.002860  -0.050699
   15  N  1 YZ   -0.001190   0.001684   0.016390   0.001092   0.004614
   16  H  2  S    0.190251  -0.199143   0.319050   0.118589  -0.455994
   17  H  2  S    0.007535  -0.061238   0.044753   0.036532  -0.068519
   18  H  2  X    0.004218   0.022074   0.007778  -0.000024  -0.008746
   19  H  2  Y   -0.033543   0.017487  -0.037303  -0.013866   0.054593
   20  H  2  Z   -0.003516   0.000983  -0.009739   0.020357  -0.017951
   21  H  3  S    0.189773  -0.231064  -0.296162   0.112427  -0.430740
   22  H  3  S    0.009397  -0.083914  -0.049498   0.036075  -0.065783
   23  H  3  X    0.001130   0.022603  -0.005505  -0.001151  -0.009337
   24  H  3  Y    0.032206  -0.020059  -0.034650   0.014073  -0.051572
   25  H  3  Z   -0.004284   0.000895   0.012081   0.019393  -0.020964
   26  H  4  S    0.183370   0.403162  -0.007436   0.082318  -0.492189
   27  H  4  S   -0.002338   0.117300   0.007764   0.016358  -0.065436
   28  H  4  X   -0.031782  -0.019544   0.001019  -0.020618   0.055666
   29  H  4  Y    0.002312   0.004310   0.022478   0.000421   0.003958
   30  H  4  Z   -0.015132  -0.031767   0.002289   0.016938  -0.007450

                      6          7

    1  N  1  S    0.032763   0.015305
    2  N  1  S    0.085911   0.031934
    3  N  1  S   -0.137702  -0.021042
    4  N  1  X   -0.829230  -0.000825
    5  N  1  Y   -0.001913   0.909110
    6  N  1  Z   -0.103063   0.008079
    7  N  1  X   -0.040738  -0.010894
    8  N  1  Y    0.017305   0.071331
    9  N  1  Z    0.029889  -0.012931
   10  N  1 XX    0.046937  -0.003069
   11  N  1 YY   -0.054298  -0.000427
   12  N  1 ZZ    0.007361   0.003496
   13  N  1 XY   -0.003324  -0.055520
   14  N  1 XZ    0.021779  -0.001098
   15  N  1 YZ   -0.003397  -0.055871
   16  H  2  S   -0.289535  -0.579045
   17  H  2  S   -0.076767  -0.136720
   18  H  2  X    0.014107  -0.018144
   19  H  2  Y    0.024583   0.056673
   20  H  2  Z    0.011453  -0.023019
   21  H  3  S   -0.285786   0.567281
   22  H  3  S   -0.091749   0.147070
   23  H  3  X    0.023233   0.016353
   24  H  3  Y   -0.024890   0.054345
   25  H  3  Z    0.015784   0.019894
   26  H  4  S    0.680018   0.005705
   27  H  4  S    0.192267  -0.012337
   28  H  4  X   -0.037008  -0.000834
   29  H  4  Y   -0.001363  -0.053623
   30  H  4  Z   -0.014834   0.002905

Actually Used Diabatic Molecualr Orbitals:

                      1          2          3          4          5

    1  N  1  S    0.004250   0.030256  -0.004072  -0.012498   0.203183
    2  N  1  S    0.420578   0.076177  -0.007491  -0.190197   0.716986
    3  N  1  S    0.333346  -0.078841  -0.001757  -0.269257   0.185161
    4  N  1  X    0.001853   0.441611  -0.033154   0.045419   0.031118
    5  N  1  Y    0.002952   0.019858   0.507317  -0.004972   0.009696
    6  N  1  Z    0.080753   0.037198  -0.010215   0.603609   0.639062
    7  N  1  X   -0.032795   0.302103  -0.003382  -0.064966   0.061372
    8  N  1  Y   -0.002509   0.024254   0.195232   0.005565  -0.006842
    9  N  1  Z    0.027342  -0.081996   0.011247   0.384842  -0.091261
   10  N  1 XX   -0.005895   0.029181  -0.000934  -0.016322   0.037233
[...]
      707   -0.021404   -0.021404  220+0+-
      771    0.020952    0.020952  +22+00-
      507    0.020744   -0.020744  +2020-+
      248    0.020604   -0.020604  2+02200
      859    0.020235   -0.020235  02+2002

 ---------------------------------------
    -DIABATIC STATES IN PROTOTYPES-     
 ---------------------------------------

     STATE:    1
 Group Ref#    Coefficients
     1    1    0.954366
     2    2    0.007067
     3    3    0.001917

WEIGHT OF LISTED PROTOTYPES:   91.09%

     STATE:    2
 Group Ref#    Coefficients
     1    1    0.007067
     2    2    0.951781
     3    3    0.001486

WEIGHT OF LISTED PROTOTYPES:   90.59%

     STATE:    3
 Group Ref#    Coefficients
     1    1    0.001917
     2    2    0.001486
     3    3    0.942863

WEIGHT OF LISTED PROTOTYPES:   88.90%

 --------------------------------------------------
 IN DIRECT MAX. DIABATIZATION FOR GMC-QDPT

 DIRECT MAXIMIZATION (DM) WITHOUT TRUNCATING ADIABATS
 EXPANSIONS INTO THE REFERENCE CONFIGURATION SPACE
 --------------------------------------------------

 -------------------------------------------
 - DM DIABT PT HAMILTONIAN MATRIX ELEMENTS -
 -------------------------------------------
                                            
 --- DIABATIC ENERGIES (DIAGONAL ELEMENT) ---       HARTREE            EV
 STATE #  1'S GMC-PT-LEVEL DIABATIC ENERGY=     -55.934431450       0.000000000
 STATE #  2'S GMC-PT-LEVEL DIABATIC ENERGY=     -55.841989947       2.515461421
 STATE #  3'S GMC-PT-LEVEL DIABATIC ENERGY=     -55.698911724       6.408818164

 --- DIABATIC COUPLINGS (OFF DIAGONAL ELEMENTS)---  HATREE            EV
 STATE #  1 &  2'S GMC-PT-LEVEL COUPLING  =      -0.051207637      -1.393430771
 STATE #  1 &  3'S GMC-PT-LEVEL COUPLING  =       0.007929277       0.215766621
 STATE #  2 &  3'S GMC-PT-LEVEL COUPLING  =      -0.017017258      -0.463063173

 ---------------------------------------
     - ROTATION TO DIABATIC STATES -    
 ---------------------------------------
 ROWS=ADIABATIC, COLUMNS=DIABATIC STATES

             1           2           3

    1   -0.9138646  -0.4060170   0.0013047
    2    0.4012039  -0.9035154  -0.1506500
    3    0.0623453  -0.1371502   0.9885863

 ---------------------------------------
          - DIABATIC STATES -           
 ---------------------------------------

 State #    1  Energy =     -55.934431450

      Det      Coef        Coefp    Occupancy (Ignoring core)
      ---      ----        ----    --------- --------- -----
        1    0.933885   -0.933885  222+000
        8   -0.159417    0.159417  2-2+0+0
      386    0.126991   -0.126991  2+2+0-0
        4   -0.125799    0.125799  2-2++00
      176    0.120553   -0.120553  2+2+-00
        6    0.097129   -0.097129  22200+0
      393   -0.070233   -0.070233  202+020
      717   -0.064270   -0.064270  220+002
      708    0.046190   -0.046190  2-++0+-
      402    0.041614   -0.041614  2+-+0-+
      215   -0.036976   -0.036976  022+200
        5    0.036720    0.036720  -22++00
      705   -0.036030   -0.036030  -2+++0-
      227   -0.035275   -0.035275  +2-+-0+
       76    0.032426    0.032426  2+2-0+0
      143   -0.031735   -0.031735  220+200
      391    0.031398   -0.031398  2+20020
      390    0.030884   -0.030884  -+2++-0
      218    0.030689   -0.030689  +-2+-+0
      212    0.029982    0.029982  +220200
      113   -0.029633    0.029633  +-220+0
       51   -0.028290    0.028290  22+-00+
        2    0.027409   -0.027409  2220+00
       11    0.027106   -0.027106  2-20++0
      424   -0.026176   -0.026176  +-2++-0
     1051   -0.025555   -0.025555  2+++0--
      387   -0.024873    0.024873  2+20+-0
      357   -0.024607   -0.024607  220+020
      702    0.023506    0.023506  22+0+0-
      701    0.022909    0.022909  22++00-
      184   -0.022790   -0.022790  -+2+-+0
      147    0.022753   -0.022753  220+-+0
      773    0.022188   -0.022188  +2-++0-
      159    0.022037   -0.022037  -2++-0+
       29   -0.021949   -0.021949  2--+0++
      122    0.021803    0.021803  +2-200+
      353   -0.021711   -0.021711  220++-0
        3    0.021676    0.021676  22-++00
      183   -0.021437    0.021437  202+-+0
      141   -0.021300   -0.021300  22++-00
      211   -0.020857   -0.020857  +22+-00
      742   -0.020647   -0.020647  2+-+0+-
      389    0.020453    0.020453  202++-0

 State #    2  Energy =     -55.841989947

      Det      Coef        Coefp    Occupancy (Ignoring core)
      ---      ----        ----    --------- --------- -----
       71   -0.932269    0.932269  2+22000
       74    0.160027   -0.160027  2022+00
       76    0.135478    0.135478  2+2-0+0
      386   -0.120061    0.120061  2+2+0-0
       78    0.119680   -0.119680  20220+0
      106    0.093416    0.093416  +222000
      822    0.061209   -0.061209  2+02002
      813    0.049937   -0.049937  20+20+-
      113    0.048598   -0.048598  +-220+0
       36    0.044128    0.044128  22+2000
       81    0.043813    0.043813  202-++0
      806    0.039686    0.039686  2++200-
      393   -0.038524   -0.038524  202+020
      323   -0.038301    0.038301  +022-+0
       75   -0.037950   -0.037950  -+22+00
      810   -0.036680   -0.036680  -++2+0-
      320    0.035920    0.035920  0+22200
       99   -0.033789    0.033789  20-20++
      332   -0.033308    0.033308  ++-2-0+
      180   -0.032601    0.032601  -+2+200
      183   -0.032058    0.032058  202+-+0
       87   -0.031702    0.031702  2+-200+
      317    0.031652   -0.031652  ++2-200
      248    0.031350   -0.031350  2+02200
      177    0.031324   -0.031324  2+20200
       79   -0.030965   -0.030965  -+220+0
       38   -0.030802    0.030802  2202+00
       42   -0.028889    0.028889  22020+0
      109    0.028386   -0.028386  +-22+00
      529    0.025674    0.025674  +022+-0
       73    0.025282   -0.025282  2+-2+00
      807   -0.023925    0.023925  2++-+0-
      456    0.023674    0.023674  2++20-0
      462    0.023214   -0.023214  2+02020
      252   -0.023082   -0.023082  2+02-+0
      192   -0.022643    0.022643  2+-+-0+
        6    0.022307   -0.022307  22200+0
      534    0.022144    0.022144  0+22020
      878    0.020647    0.020647  ++-2+0-
      458    0.020520   -0.020520  2+02+-0
      264    0.020514   -0.020514  -++2-0+

 State #    3  Energy =     -55.698911724

      Det      Coef        Coefp    Occupancy (Ignoring core)
      ---      ----        ----    --------- --------- -----
       36   -0.932717   -0.932717  22+2000
      246   -0.137097   -0.137097  2++2-00
      456   -0.128485   -0.128485  2++20-0
       43    0.107337    0.107337  2-+20+0
      351   -0.105372   -0.105372  22++0-0
       39    0.103438    0.103438  2-+2+00
       41    0.089316   -0.089316  22+-0+0
      463    0.076956   -0.076956  20+2020
       52    0.061245   -0.061245  220200+
      472   -0.050590   -0.050590  2+020-+
       71   -0.045782    0.045782  2+22000
      281    0.045546   -0.045546  +2+2-00
      112   -0.043641   -0.043641  +2-20+0
      121   -0.039920    0.039920  +22-00+
      285    0.038197   -0.038197  02+2200
      461    0.036206   -0.036206  2++-020
      297    0.035914   -0.035914  +202-0+
      358   -0.035323    0.035323  2-++020
      460   -0.034321   -0.034321  -++2+-0
       64    0.033747   -0.033747  2-020++
       73    0.033659   -0.033659  2+-2+00
       46    0.032659   -0.032659  2-+-++0
      561    0.032471    0.032471  2+++--0
      282    0.032371    0.032371  +2+-200
      491    0.032059   -0.032059  +2+20-0
      142    0.031724    0.031724  22+0200
      145   -0.031550   -0.031550  -2++200
      457   -0.030970    0.030970  2++-+-0
       16   -0.030934    0.030934  222000+
      108   -0.030684   -0.030684  +2-2+00
      288   -0.030634   -0.030634  +-+2-+0
      148   -0.029779   -0.029779  2-++-+0
      254    0.027112   -0.027112  -++2-+0
      157    0.024089   -0.024089  220+-0+
      494    0.023031   -0.023031  +-+2+-0
      771    0.022377    0.022377  +22+00-
      716    0.022046    0.022046  22+0002
        3    0.021383    0.021383  22-++00
       77    0.021148   -0.021148  2+-20+0

 ---------------------------------------
      - DIABATIC STATES IN CMO -        
 ---------------------------------------

 State #    1  Energy =     -55.934431450

      Det      Coef        Coefp    Occupancy (Ignoring core)
      ---      ----        ----    --------- --------- -----
        1    0.859088   -0.859088  222+000
       71    0.455923   -0.455923  2+22000
       36   -0.067610   -0.067610  22+2000
      393   -0.059089   -0.059089  202+020
      717   -0.049518   -0.049518  220+002
      179   -0.042905   -0.042905  202+200
      357   -0.041921   -0.041921  220+020
      391   -0.040858    0.040858  2+20020
      402    0.036509   -0.036509  2+-+0-+
       17    0.036416    0.036416  22-+00+
      389    0.035267    0.035267  202++-0
        4    0.033671   -0.033671  2-2++00
      106   -0.032143   -0.032143  +222000
        6    0.031137   -0.031137  22200+0
      394    0.028987   -0.028987  -+2+020
      822   -0.027370    0.027370  2+02002
      215   -0.026462   -0.026462  022+200
      183   -0.025927    0.025927  202+-+0
      706    0.024376    0.024376  22+00+-
      113   -0.023537    0.023537  +-220+0
      388    0.023423    0.023423  2+-++-0
      462   -0.023346    0.023346  2+02020
      437   -0.023153   -0.023153  +2-+0-+
      109    0.022548   -0.022548  +-22+00
      426    0.022509    0.022509  +220020
       51   -0.022058    0.022058  22+-00+
      366   -0.021970    0.021970  22+00-+
      709   -0.021766   -0.021766  -2++0+-
      742   -0.021732   -0.021732  2+-+0+-
      708    0.021609   -0.021609  2-++0+-
      214    0.021250    0.021250  +-2+200
        3   -0.021073   -0.021073  22-++00
       87   -0.020909    0.020909  2+-200+
       72   -0.020620   -0.020620  2+2-+00

 State #    2  Energy =     -55.841989947

      Det      Coef        Coefp    Occupancy (Ignoring core)
      ---      ----        ----    --------- --------- -----
       71   -0.850774    0.850774  2+22000
        1    0.463502   -0.463502  222+000
       36    0.149940    0.149940  22+2000
      822    0.050983   -0.050983  2+02002
      462    0.046904   -0.046904  2+02020
      113    0.046229   -0.046229  +-220+0
        6    0.037564   -0.037564  22200+0
      179   -0.032580   -0.032580  202+200
       42   -0.031080    0.031080  22020+0
      811   -0.027664    0.027664  2++-0+-
      320    0.027594    0.027594  0+22200
      183   -0.027441    0.027441  202+-+0
      357   -0.025687   -0.025687  220+020
      109   -0.025647    0.025647  +-22+00
      813    0.024646   -0.024646  20+20+-
       79   -0.024362   -0.024362  -+220+0
      177    0.023363   -0.023363  2+20200
      717   -0.023000   -0.023000  220+002
       93    0.022310   -0.022310  20-2+0+
      542   -0.022027    0.022027  ++-20-+
      526   -0.021867   -0.021867  ++220-0
      107   -0.021695    0.021695  +22-+00
      531    0.020869   -0.020869  ++2-020
      534    0.020842    0.020842  0+22020
      471    0.020652    0.020652  2++-0-+
      814   -0.020619   -0.020619  -++20+-

 State #    3  Energy =     -55.698911724

      Det      Coef        Coefp    Occupancy (Ignoring core)
      ---      ----        ----    --------- --------- -----
       36   -0.962759   -0.962759  22+2000
       71   -0.165223    0.165223  2+22000
      249    0.055889   -0.055889  20+2200
      463    0.055531   -0.055531  20+2020
      112   -0.049704   -0.049704  +2-20+0
        7    0.043690    0.043690  22-+0+0
      356    0.041065    0.041065  22+0020
      253    0.040323    0.040323  20+2-+0
       41   -0.039142    0.039142  22+-0+0
      121   -0.034953    0.034953  +22-00+
      459   -0.034678    0.034678  20+2+-0
      285    0.029157   -0.029157  02+2200
       44    0.027471   -0.027471  -2+20+0
      367    0.027423   -0.027423  220+0-+
      358    0.026637   -0.026637  2-++020
      359   -0.025737   -0.025737  -2++020
      461   -0.025634    0.025634  2++-020
      250    0.025627    0.025627  -++2200
      496    0.024948    0.024948  +2+-020
      499    0.024768   -0.024768  02+2020
       77    0.024672   -0.024672  2+-20+0
      472   -0.024548   -0.024548  2+020-+
       52    0.023796   -0.023796  220200+
      284   -0.023761    0.023761  +-+2200
      498    0.023278   -0.023278  +-+2020
       58   -0.022376    0.022376  2-02+0+
      491    0.022233   -0.022233  +2+20-0
      464   -0.022187   -0.022187  -++2020
       86    0.022042    0.022042  2+2-00+
       88   -0.021830    0.021830  202200+
      716    0.021779    0.021779  22+0002
      707   -0.021404   -0.021404  220+0+-
      771    0.020952    0.020952  +22+00-
      507    0.020744   -0.020744  +2020-+
      248    0.020604   -0.020604  2+02200
      859    0.020235   -0.020235  02+2002

 ---------------------------------------
    -DIABATIC STATES IN PROTOTYPES-     
 ---------------------------------------

     STATE:    1
 Group Ref#    Coefficients
     1    1    0.954366
     2    2    0.007057
     3    3    0.001906

WEIGHT OF LISTED PROTOTYPES:   91.09%

     STATE:    2
 Group Ref#    Coefficients
     1    1    0.007076
     2    2    0.951781
     3    3    0.001479

WEIGHT OF LISTED PROTOTYPES:   90.59%

     STATE:    3
 Group Ref#    Coefficients
     1    1    0.001929
     2    2    0.001493
     3    3    0.942863

WEIGHT OF LISTED PROTOTYPES:   88.90%

     DIRECT MAX. DIABATIZATION FINISHED    
 CPU     0: STEP CPU TIME=     0.24 TOTAL CPU TIME=         14.6 (      0.2 MIN)
 TOTAL WALL CLOCK TIME=         14.6 SECONDS, CPU UTILIZATION IS    99.93%

DIABATS FOR SPIN-ORBIT CALCULATION ARE READY

TRANSITION DIPOLES BETWEEN ADIABATS (in A.U.):

STATE PAIR      X         Y         Z
    1    1  0.325232 -0.052333  0.667075
    2    1  0.009664  0.015261 -0.187067
    2    2  0.348224  0.042950  0.343320
    3    1  0.013969 -0.141247 -0.030548
    3    2 -0.028974 -0.241232 -0.001552
    3    3  0.513032 -0.151667  0.304612


TRANSITION DIPOLES BETWEEN DIABATS (in A.U.):

STATE PAIR      X         Y         Z
    1    1  0.319534 -0.044546  0.754132
    2    1  0.001089 -0.010837 -0.006416
    2    2  0.348999 -0.040733  0.254928
    3    1 -0.012316  0.024413 -0.001634
    3    2 -0.002080  0.294556  0.007477
    3    3  0.517954 -0.075772  0.305948

TRANSITION DIPOLES BETWEEN DIRECT MAX. DIABATS (in A.U.):

STATE PAIR      X         Y         Z
    1    1  0.319535 -0.044546  0.754132
    2    1  0.001089 -0.010841 -0.006411
    2    2  0.348999 -0.040738  0.254927
    3    1 -0.012318  0.024411 -0.001629
    3    2 -0.002082  0.294557  0.007476
    3    3  0.517953 -0.075767  0.305949
 No $TRANST Group Found.
 Quit without doing spin-orbit coupling
 ..... DONE WITH MP2 ENERGY .....
 CPU     0: STEP CPU TIME=     0.00 TOTAL CPU TIME=         14.6 (      0.2 MIN)
 TOTAL WALL CLOCK TIME=         14.6 SECONDS, CPU UTILIZATION IS    99.93%
            100000000  WORDS OF DYNAMIC MEMORY USED
 EXECUTION OF GAMESS TERMINATED NORMALLY Wed Nov 16 19:19:08 2022
 DDI: 715512 bytes (0.7 MB / 0 MWords) used by master data server.

 ----------------------------------------
 CPU timing information for all processes
 ========================================
 0: 14.388 + 0.256 = 14.644
 ----------------------------------------
Note: The following floating-point exceptions are signalling: IEEE_DENORMAL
 ddikick.x: exited gracefully.
unset echo
----- accounting info -----
Files used on the master node io002 were:
-rw-r--r-- 1 bsonghao nooijen   20720 Nov 16 19:18 /scratch/bsonghao/nh3_diabatization_2d_at_mode_7_8_dist-0.1_0.7.F05
-rw-r--r-- 1 bsonghao nooijen  363520 Nov 16 19:19 /scratch/bsonghao/nh3_diabatization_2d_at_mode_7_8_dist-0.1_0.7.F09
-rw-r--r-- 1 bsonghao nooijen 1995920 Nov 16 19:19 /scratch/bsonghao/nh3_diabatization_2d_at_mode_7_8_dist-0.1_0.7.F10
-rw-r--r-- 1 bsonghao nooijen  131264 Nov 16 19:19 /scratch/bsonghao/nh3_diabatization_2d_at_mode_7_8_dist-0.1_0.7.F13
-rw-r--r-- 1 bsonghao nooijen  180312 Nov 16 19:19 /scratch/bsonghao/nh3_diabatization_2d_at_mode_7_8_dist-0.1_0.7.F15
-rw-r--r-- 1 bsonghao nooijen       0 Nov 16 19:18 /scratch/bsonghao/nh3_diabatization_2d_at_mode_7_8_dist-0.1_0.7.F16
-rw-r--r-- 1 bsonghao nooijen    9808 Nov 16 19:19 /scratch/bsonghao/nh3_diabatization_2d_at_mode_7_8_dist-0.1_0.7.F70
-rw-r--r-- 1 bsonghao nooijen    9808 Nov 16 19:19 /scratch/bsonghao/nh3_diabatization_2d_at_mode_7_8_dist-0.1_0.7.F71
-rw-r--r-- 1 bsonghao nooijen   19608 Nov 16 19:19 /scratch/bsonghao/nh3_diabatization_2d_at_mode_7_8_dist-0.1_0.7.F72
-rw-r--r-- 1 bsonghao nooijen   19608 Nov 16 19:19 /scratch/bsonghao/nh3_diabatization_2d_at_mode_7_8_dist-0.1_0.7.F73
-rw-r--r-- 1 bsonghao nooijen 1920824 Nov 16 19:19 /scratch/bsonghao/nh3_diabatization_2d_at_mode_7_8_dist-0.1_0.7.F74
-rw-r--r-- 1 bsonghao nooijen       0 Nov 16 19:18 /scratch/bsonghao/nh3_diabatization_2d_at_mode_7_8_dist-0.1_0.7.F75
-rw-r--r-- 1 bsonghao nooijen   58848 Nov 16 19:19 /scratch/bsonghao/nh3_diabatization_2d_at_mode_7_8_dist-0.1_0.7.F76
-rw-r--r-- 1 bsonghao nooijen       0 Nov 16 19:18 /scratch/bsonghao/nh3_diabatization_2d_at_mode_7_8_dist-0.1_0.7.F77
-rw-r--r-- 1 bsonghao nooijen    1864 Nov 16 19:19 /scratch/bsonghao/nh3_diabatization_2d_at_mode_7_8_dist-0.1_0.7.F78
-rw-r--r-- 1 bsonghao nooijen   39208 Nov 16 19:19 /scratch/bsonghao/nh3_diabatization_2d_at_mode_7_8_dist-0.1_0.7.F79
-rw-r--r-- 1 bsonghao nooijen     104 Nov 16 19:19 /scratch/bsonghao/nh3_diabatization_2d_at_mode_7_8_dist-0.1_0.7.F80
-rw-r--r-- 1 bsonghao nooijen   13472 Nov 16 19:19 /scratch/bsonghao/nh3_diabatization_2d_at_mode_7_8_dist-0.1_0.7.F81
-rw-r--r-- 1 bsonghao nooijen      16 Nov 16 19:19 /scratch/bsonghao/nh3_diabatization_2d_at_mode_7_8_dist-0.1_0.7.F82
-rw-r--r-- 1 bsonghao nooijen   19216 Nov 16 19:19 /scratch/bsonghao/nh3_diabatization_2d_at_mode_7_8_dist-0.1_0.7.F83
-rw-r--r-- 1 bsonghao nooijen   29712 Nov 16 19:19 /scratch/bsonghao/nh3_diabatization_2d_at_mode_7_8_dist-0.1_0.7.F84
-rw-r--r-- 1 bsonghao nooijen  401576 Nov 16 19:19 /scratch/bsonghao/nh3_diabatization_2d_at_mode_7_8_dist-0.1_0.7.F85
-rw-r--r-- 1 bsonghao nooijen  903672 Nov 16 19:19 /scratch/bsonghao/nh3_diabatization_2d_at_mode_7_8_dist-0.1_0.7.F86
-rw-r--r-- 1 bsonghao nooijen     656 Nov 16 19:19 /scratch/bsonghao/nh3_diabatization_2d_at_mode_7_8_dist-0.1_0.7.F87
-rw-r--r-- 1 bsonghao nooijen   39312 Nov 16 19:19 /scratch/bsonghao/nh3_diabatization_2d_at_mode_7_8_dist-0.1_0.7.F88
-rw-r--r-- 1 bsonghao nooijen     240 Nov 16 19:19 /scratch/bsonghao/nh3_diabatization_2d_at_mode_7_8_dist-0.1_0.7.F89
-rw-r--r-- 1 bsonghao nooijen       0 Nov 16 19:18 /scratch/bsonghao/nh3_diabatization_2d_at_mode_7_8_dist-0.1_0.7.F90
-rw-r--r-- 1 bsonghao nooijen   13760 Nov 16 19:19 /scratch/bsonghao/nh3_diabatization_2d_at_mode_7_8_dist-0.1_0.7.F91
-rw-r--r-- 1 bsonghao nooijen   22776 Nov 16 19:19 /scratch/bsonghao/nh3_diabatization_2d_at_mode_7_8_dist-0.1_0.7.F92
-rw-r--r-- 1 bsonghao nooijen   23168 Nov 16 19:19 /scratch/bsonghao/nh3_diabatization_2d_at_mode_7_8_dist-0.1_0.7.F93
-rw-r--r-- 1 bsonghao nooijen   22776 Nov 16 19:19 /scratch/bsonghao/nh3_diabatization_2d_at_mode_7_8_dist-0.1_0.7.F94
-rw-r--r-- 1 bsonghao nooijen   13760 Nov 16 19:19 /scratch/bsonghao/nh3_diabatization_2d_at_mode_7_8_dist-0.1_0.7.F95
-rw-r--r-- 1 bsonghao nooijen   29440 Nov 16 19:19 /scratch/bsonghao/nh3_diabatization_2d_at_mode_7_8_dist-0.1_0.7.F96
-rw-r--r-- 1 bsonghao nooijen    1184 Nov 16 19:19 /scratch/bsonghao/nh3_diabatization_2d_at_mode_7_8_dist-0.1_0.7.F97
-rw-r--r-- 1 bsonghao nooijen    9808 Nov 16 19:19 /scratch/bsonghao/nh3_diabatization_2d_at_mode_7_8_dist-0.1_0.7.F98
-rw-r--r-- 1 bsonghao nooijen   30264 Nov 16 19:19 /scratch/bsonghao/nh3_diabatization_2d_at_mode_7_8_dist-0.1_0.7.F99
ls: No match.
ls: No match.
ls: No match.
Wed 16 Nov 2022 07:19:11 PM EST
0.305u 0.024s 0:18.01 1.7%	0+0k 48+224io 0pf+0w
