----- GAMESS execution script 'rungms' -----
This job is running on host io002
under operating system Linux at Wed 16 Nov 2022 08:10:05 PM EST
Available scratch disk space (Kbyte units) at beginning of the job is
Filesystem       1K-blocks       Used   Available Use% Mounted on
/dev/sdc1      15378471580 3278917120 11318349060  23% /scratch
GAMESS temporary binary files will be written to /scratch/bsonghao
GAMESS supplementary output files will be written to /home/bsonghao/.gamess_ascii_files/267638
Copying input file nh3_diabatization_2d_at_mode_7_8_dist0.6_0.2.inp to your run's scratch directory...
cp nh3_diabatization_2d_at_mode_7_8_dist0.6_0.2.inp /scratch/bsonghao/nh3_diabatization_2d_at_mode_7_8_dist0.6_0.2.F05
unset echo
/home/bjb2chen/gamess/ddikick.x /home/bjb2chen/gamess/gamess.00.x nh3_diabatization_2d_at_mode_7_8_dist0.6_0.2 -ddi 1 1 io002 -scr /scratch/bsonghao

 Distributed Data Interface kickoff program.
 Initiating 1 compute processes on 1 nodes to run the following command:
 /home/bjb2chen/gamess/gamess.00.x nh3_diabatization_2d_at_mode_7_8_dist0.6_0.2 

          ******************************************************
          *         GAMESS VERSION = 02 AUG 2018 (R2)         *
          *             FROM IOWA STATE UNIVERSITY             *
          * M.W.SCHMIDT, K.K.BALDRIDGE, J.A.BOATZ, S.T.ELBERT, *
          *   M.S.GORDON, J.H.JENSEN, S.KOSEKI, N.MATSUNAGA,   *
          *          K.A.NGUYEN, S.J.SU, T.L.WINDUS,           *
          *       TOGETHER WITH M.DUPUIS, J.A.MONTGOMERY       *
          *         J.COMPUT.CHEM.  14, 1347-1363(1993)        *
          **************** 64 BIT LINUX VERSION ****************

  SINCE 1993, STUDENTS AND POSTDOCS WORKING AT IOWA STATE UNIVERSITY
  AND ALSO IN THEIR VARIOUS JOBS AFTER LEAVING ISU HAVE MADE IMPORTANT
  CONTRIBUTIONS TO THE CODE:
     IVANA ADAMOVIC, CHRISTINE AIKENS, YURI ALEXEEV, POOJA ARORA,
     ANDREY ASADCHEV, ROB BELL, PRADIPTA BANDYOPADHYAY, JONATHAN BENTZ,
     BRETT BODE, KURT BRORSEN, CALEB CARLIN, GALINA CHABAN, WEI CHEN,
     CHEOL HO CHOI, PAUL DAY, ALBERT DEFUSCO, NUWAN DESILVA, TIM DUDLEY,
     DMITRI FEDOROV, ALEX FINDLATER, GRAHAM FLETCHER, MARK FREITAG,
     KURT GLAESEMANN, ANASTASIA GUININA,
     DAN KEMP, GRANT MERRILL, NORIYUKI MINEZAWA, JONATHAN MULLIN,
     TAKESHI NAGATA, SEAN NEDD, HEATHER NETZLOFF, BOSILJKA NJEGIC, RYAN OLSON,
     MIKE PAK, BUU PHAM,
     SPENCER PRUITT, LUKE ROSKOP, JIM SHOEMAKER, LYUDMILA SLIPCHENKO,
     TONY SMITH, SAROM SOK LEANG, JIE SONG, TETSUYA TAKETSUGU, SIMON WEBB,
     PENG XU, SOOHAENG YOO, FEDERICO ZAHARIEV

  ADDITIONAL CODE HAS BEEN PROVIDED BY COLLABORATORS IN OTHER GROUPS:
     IOWA STATE UNIVERSITY:
          JOE IVANIC, AARON WEST, LAIMUTIS BYTAUTAS, KLAUS RUEDENBERG
     UNIVERSITY OF TOKYO: KIMIHIKO HIRAO, TAKAHITO NAKAJIMA,
          TAKAO TSUNEDA, MUNEAKI KAMIYA, SUSUMU YANAGISAWA,
          KIYOSHI YAGI, MAHITO CHIBA, SEIKEN TOKURA, NAOAKI KAWAKAMI
     UNIVERSITY OF AARHUS: FRANK JENSEN
     UNIVERSITY OF IOWA: VISVALDAS KAIRYS, HUI LI
     NATIONAL INST. OF STANDARDS AND TECHNOLOGY: WALT STEVENS, DAVID GARMER
     UNIVERSITY OF PISA: BENEDETTA MENNUCCI, JACOPO TOMASI
     UNIVERSITY OF MEMPHIS: HENRY KURTZ, PRAKASHAN KORAMBATH
     UNIVERSITY OF ALBERTA: TOBY ZENG, MARIUSZ KLOBUKOWSKI
     UNIVERSITY OF NEW ENGLAND: MARK SPACKMAN
     MIE UNIVERSITY: HIROAKI UMEDA
     NAT. INST. OF ADVANCED INDUSTRIAL SCIENCE AND TECHNOLOGY: KAZUO KITAURA
     MICHIGAN STATE UNIVERSITY:
          KAROL KOWALSKI, MARTA WLOCH, JEFFREY GOUR, JESSE LUTZ,
          WEI LI, JUN SHEN, J. EMILIANO DEUSTUA, PIOTR PIECUCH
     UNIVERSITY OF MINNESOTA:
          YINAN SHU
     UNIVERSITY OF SILESIA: MONIKA MUSIAL, STANISLAW KUCHARSKI
     FACULTES UNIVERSITAIRES NOTRE-DAME DE LA PAIX:
          OLIVIER QUINET, BENOIT CHAMPAGNE
     UNIVERSITY OF CALIFORNIA - SANTA BARBARA: BERNARD KIRTMAN
     INSTITUTE FOR MOLECULAR SCIENCE:
          KAZUYA ISHIMURA, MICHIO KATOUDA, AND SHIGERU NAGASE
     UNIVERSITY OF NOTRE DAME: ANNA POMOGAEVA, DAN CHIPMAN
     KYUSHU UNIVERSITY:
          HARUYUKI NAKANO,
          FENG LONG GU, JACEK KORCHOWIEC, MARCIN MAKOWSKI, AND YURIKO AOKI,
          HIROTOSHI MORI AND EISAKU MIYOSHI
     PENNSYLVANIA STATE UNIVERSITY:
          TZVETELIN IORDANOV, CHET SWALINA, JONATHAN SKONE,
          SHARON HAMMES-SCHIFFER
     WASEDA UNIVERSITY:
          MASATO KOBAYASHI, TOMOKO AKAMA, TSUGUKI TOUMA,
          TAKESHI YOSHIKAWA, YASUHIRO IKABATA, JUNJI SEINO,
          YUYA NAKAJIMA, HIROMI NAKAI
     NANJING UNIVERSITY: SHUHUA LI
     UNIVERSITY OF NEBRASKA:
          PEIFENG SU, DEJUN SI, NANDUN THELLAMUREGE, YALI WANG, HUI LI
     UNIVERSITY OF ZURICH: ROBERTO PEVERATI, KIM BALDRIDGE
     N. COPERNICUS UNIVERSITY AND JACKSON STATE UNIVERSITY:
          MARIA BARYSZ
     UNIVERSITY OF COPENHAGEN: Jimmy Kromann, CASPER STEINMANN
     TOKYO INSTITUTE OF TECHNOLOGY: HIROYA NAKATA
     NAGOYA UNIVERSITY: YOSHIO NISHIMOTO, STEPHAN IRLE
     MOSCOW STATE UNIVERSITY: VLADIMIR MIRONOV

 EXECUTION OF GAMESS BEGUN Wed Nov 16 20:10:06 2022

            ECHO OF THE FIRST FEW INPUT CARDS -
 INPUT CARD> $system kdiag=3 mwords=100 memddi=1000 parall=.t. $end                         
 INPUT CARD> $contrl runtyp=energy ispher=1 $end                                            
 INPUT CARD> $contrl icut=9 itol=20 inttyp=rysquad qmttol=1.0d-05 nosym=1 $end              
 INPUT CARD> $scf    npunch=2 conv=1.0d-06 dirscf=.t.      $end                             
 INPUT CARD> $contrl scftyp=mcscf  mult=2 maxit=200 icharg=1 mplevl=2 $end                  
 INPUT CARD> $guess  guess=moread norb=29 purify=.t. $end                                   
 INPUT CARD> $basis  gbasis=ccd $end                                                        
 INPUT CARD> $mcscf  cistep=gmcci fullnr=.t. finci=mos                                      
 INPUT CARD>         acurcy=1.d-6 maxit=100 $end                                            
 INPUT CARD> $trans  dirtrf=.t. $end                                                        
 INPUT CARD> $mrmp   mrpt=gmcpt rdvecs=.f. $end                                             
 INPUT CARD> $gmcpt  nmofzc=0 nmodoc=1 nmoact=7 nelact=7 stsym(1)=A                         
 INPUT CARD>         reftyp=ormas nspace=1 mstart(1)=2 mine(1)=7 maxe(1)=7                  
 INPUT CARD>         kstate(1)=1,1,1                                                        
 INPUT CARD>         wstate(1)=1,1,1                                                        
 INPUT CARD>         iwgt=0 thrwgt=-1.0 krot=.f. kszdoe=.f. knospn=.f.                      
 INPUT CARD>         thrde=-1.0 edshft=0.02 $end                                            
 INPUT CARD> $data                                                                          
 INPUT CARD> NH3+ 3 states calculation at NH3 structure.                                    
 INPUT CARD> c1                                                                             
 INPUT CARD>N 7.0 -0.012457835999999996 -0.037373418000000005 -0.1693807922                 
 INPUT CARD>H 1.0 -0.13422429800000002 0.9231257898 0.36722778210000007                     
 INPUT CARD>H 1.0 -0.5927762040000001 -0.8416639678 0.0928989281                            
 INPUT CARD>H 1.0 0.900105456 0.43785446800000005 0.3092556281                              
 INPUT CARD>$end                                                                            
 INPUT CARD>--- OPTIMIZED RHF      MO-S --- GENERATED AT Mon Nov 14 16:47:08 2022           
 INPUT CARD>E=      -56.3825050291, E(NUC)=   11.8429239490                                 
 INPUT CARD> $VEC                                                                           
 INPUT CARD> 1  1-1.00134066E+00-2.25158504E-03 3.44925845E-03 0.00000000E+00 0.00000000E+00
 INPUT CARD> 1  2-2.13170927E-03 0.00000000E+00 0.00000000E+00 6.57129898E-04-6.87950443E-05
 INPUT CARD> 1  3-6.87950443E-05 1.37590089E-04 0.00000000E+00 0.00000000E+00 0.00000000E+00
 INPUT CARD> 1  4 3.25502815E-04-4.84772356E-04 3.62525460E-04-6.27912517E-04-3.45956485E-04
 INPUT CARD> 1  5 3.25502815E-04-4.84772356E-04 3.62525460E-04 6.27912517E-04-3.45956485E-04
 INPUT CARD> 1  6 3.25502815E-04-4.84772356E-04-7.25050921E-04 0.00000000E+00-3.45956485E-04
 INPUT CARD> 2  1 1.31286642E-02-4.05911371E-01-2.82090992E-01 0.00000000E+00 0.00000000E+00
 INPUT CARD> 2  2-7.71489043E-02 0.00000000E+00 0.00000000E+00 9.73717494E-03 6.62450916E-04
 INPUT CARD> 2  3 6.62450916E-04-1.32490183E-03 0.00000000E+00 0.00000000E+00 0.00000000E+00
 INPUT CARD> 2  4-1.96090317E-01-1.96656153E-02-1.74855877E-02 3.02859263E-02 8.68214399E-03
 INPUT CARD> 2  5-1.96090317E-01-1.96656153E-02-1.74855877E-02-3.02859263E-02 8.68214399E-03
 INPUT CARD> 2  6-1.96090317E-01-1.96656153E-02 3.49711754E-02 0.00000000E+00 8.68214399E-03
 INPUT CARD> 3  1 0.00000000E+00 0.00000000E+00 0.00000000E+00 4.48608762E-01 0.00000000E+00
 INPUT CARD> 3  2 0.00000000E+00 2.18692520E-01 0.00000000E+00 0.00000000E+00 1.30198027E-02
 INPUT CARD> 3  3-1.30198027E-02 0.00000000E+00 0.00000000E+00 2.71832968E-02 0.00000000E+00
 INPUT CARD> 3  4-1.85332726E-01-7.03958951E-02 8.47929477E-03 1.95242443E-02 8.32835058E-03
 INPUT CARD> 3  5-1.85332726E-01-7.03958951E-02 8.47929477E-03-1.95242443E-02 8.32835058E-03
 INPUT CARD> 3  6 3.70665453E-01 1.40791790E-01-2.53376884E-02 0.00000000E+00-1.66567012E-02
 INPUT CARD> 4  1 0.00000000E+00 0.00000000E+00 0.00000000E+00 0.00000000E+00 4.48608762E-01
 INPUT CARD> 4  2 0.00000000E+00 0.00000000E+00 2.18692520E-01 0.00000000E+00 0.00000000E+00
 INPUT CARD> 4  3 0.00000000E+00 0.00000000E+00-1.50339731E-02 0.00000000E+00 2.71832968E-02
 INPUT CARD> 4  4 3.21005698E-01 1.21929267E-01 1.95242443E-02-1.40653607E-02-1.44251263E-02
  100000000 WORDS OF MEMORY AVAILABLE

     BASIS OPTIONS
     -------------
     GBASIS=CCD          IGAUSS=       0      POLAR=NONE    
     NDFUNC=       0     NFFUNC=       0     DIFFSP=       F
     NPFUNC=       0      DIFFS=       F     BASNAM=        


     RUN TITLE
     ---------
  NH3+ 3 states calculation at NH3 structure.                                    

 THE POINT GROUP OF THE MOLECULE IS C1      
 THE ORDER OF THE PRINCIPAL AXIS IS     0

 ATOM      ATOMIC                      COORDINATES (BOHR)
           CHARGE         X                   Y                   Z
 N           7.0    -0.0235418964       -0.0706255192       -0.3200832848
 H           1.0    -0.2536471441        1.7444547949        0.6939598832
 H           1.0    -1.1201845976       -1.5905142729        0.1755535187
 H           1.0     1.7009526719        0.8274249670        0.5844083973

          INTERNUCLEAR DISTANCES (ANGS.)
          ------------------------------

                1 N          2 H          3 H          4 H     

   1 N       0.0000000    1.1069483 *  1.0258866 *  1.1347714 *
   2 H       1.1069483 *  0.0000000    1.8439113 *  1.1439786 *
   3 H       1.0258866 *  1.8439113 *  0.0000000    1.9780479 *
   4 H       1.1347714 *  1.1439786 *  1.9780479 *  0.0000000  

  * ... LESS THAN  3.000


     ATOMIC BASIS SET
     ----------------
 THE CONTRACTED PRIMITIVE FUNCTIONS HAVE BEEN UNNORMALIZED
 THE CONTRACTED BASIS FUNCTIONS ARE NOW NORMALIZED TO UNITY

  SHELL TYPE  PRIMITIVE        EXPONENT          CONTRACTION COEFFICIENT(S)

 N         

      1   S       1          9046.0000000    0.000699617413
      1   S       2          1357.0000000    0.005386054630
      1   S       3           309.3000000    0.027391021189
      1   S       4            87.7300000    0.103150591982
      1   S       5            28.5600000    0.278570663317
      1   S       6            10.2100000    0.448294849454
      1   S       7             3.8380000    0.278085928395
      1   S       8             0.7466000    0.015431561233

      2   S       9          9046.0000000   -0.000304990096
      2   S      10          1357.0000000   -0.002408026379
      2   S      11           309.3000000   -0.011944448725
      2   S      12            87.7300000   -0.048925992909
      2   S      13            28.5600000   -0.134472724725
      2   S      14            10.2100000   -0.315112577700
      2   S      15             3.8380000   -0.242857832550
      2   S      16             0.7466000    1.094382206854

      3   S      17             0.2248000    1.000000000000

      4   P      18            13.5500000    0.058905676772
      4   P      19             2.9170000    0.320461106714
      4   P      20             0.7973000    0.753042061792

      5   P      21             0.2185000    1.000000000000

      6   D      22             0.8170000    1.000000000000

 H         

      7   S      23            13.0100000    0.033498726390
      7   S      24             1.9620000    0.234800801174
      7   S      25             0.4446000    0.813682957883

      8   S      26             0.1220000    1.000000000000

      9   P      27             0.7270000    1.000000000000

 H         

     10   S      28            13.0100000    0.033498726390
     10   S      29             1.9620000    0.234800801174
     10   S      30             0.4446000    0.813682957883

     11   S      31             0.1220000    1.000000000000

     12   P      32             0.7270000    1.000000000000

 H         

     13   S      33            13.0100000    0.033498726390
     13   S      34             1.9620000    0.234800801174
     13   S      35             0.4446000    0.813682957883

     14   S      36             0.1220000    1.000000000000

     15   P      37             0.7270000    1.000000000000

 TOTAL NUMBER OF BASIS SET SHELLS             =   15
 NUMBER OF CARTESIAN GAUSSIAN BASIS FUNCTIONS =   30
 NOTE: THIS RUN WILL RESTRICT THE MO VARIATION SPACE TO SPHERICAL HARMONICS.
 THE NUMBER OF ORBITALS KEPT IN THE VARIATIONAL SPACE WILL BE PRINTED LATER.
 NUMBER OF ELECTRONS                          =    9
 CHARGE OF MOLECULE                           =    1
 SPIN MULTIPLICITY                            =    2
 NUMBER OF OCCUPIED ORBITALS (ALPHA)          =    5
 NUMBER OF OCCUPIED ORBITALS (BETA )          =    4
 TOTAL NUMBER OF ATOMS                        =    4
 THE NUCLEAR REPULSION ENERGY IS       11.2385171263

     $CONTRL OPTIONS
     ---------------
 SCFTYP=MCSCF        RUNTYP=ENERGY       EXETYP=RUN     
 MPLEVL=       2     CITYP =NONE         CCTYP =NONE         VBTYP =NONE    
 DFTTYP=NONE         TDDFT =NONE    
 MULT  =       2     ICHARG=       1     NZVAR =       0     COORD =UNIQUE  
 PP    =NONE         RELWFN=NONE         LOCAL =NONE         NUMGRD=       F
 ISPHER=       1     NOSYM =       1     MAXIT =     200     UNITS =ANGS    
 PLTORB=       F     MOLPLT=       F     AIMPAC=       F     FRIEND=        
 NPRINT=       7     IREST =       0     GEOM  =INPUT   
 NORMF =       0     NORMP =       0     ITOL  =      20     ICUT  =       9
 INTTYP=RYSQUAD      GRDTYP=BEST         QMTTOL= 1.0E-05

     $SYSTEM OPTIONS
     ---------------
  REPLICATED MEMORY=   100000000 WORDS (ON EVERY NODE).
 DISTRIBUTED MEMDDI=        1000 MILLION WORDS IN AGGREGATE,
 MEMDDI DISTRIBUTED OVER   1 PROCESSORS IS  1000000000 WORDS/PROCESSOR.
 TOTAL MEMORY REQUESTED ON EACH PROCESSOR=  1100000000 WORDS.
 TIMLIM=      525600.00 MINUTES, OR     365.0 DAYS.
 PARALL= T  BALTYP=  DLB     KDIAG=    3  COREFL= F
 MXSEQ2=     300 MXSEQ3=     150  mem10=         0

          ----------------
          PROPERTIES INPUT
          ----------------

     MOMENTS            FIELD           POTENTIAL          DENSITY
 IEMOM =       1   IEFLD =       0   IEPOT =       0   IEDEN =       0
 WHERE =COMASS     WHERE =NUCLEI     WHERE =NUCLEI     WHERE =NUCLEI  
 OUTPUT=BOTH       OUTPUT=BOTH       OUTPUT=BOTH       OUTPUT=BOTH    
 IEMINT=       0   IEFINT=       0                     IEDINT=       0
                                                       MORB  =       0

     -------------------------------
     INTEGRAL TRANSFORMATION OPTIONS
     -------------------------------
     NWORD  =            0
     CUTOFF = 1.0E-09     MPTRAN =       0
     DIRTRF =       T     AOINTS =DUP     

          ----------------------
          MCSCF INPUT PARAMETERS
          ----------------------
 CONVERGER SELECTION: FOCAS = F  SOSCF = F  FULLNR = T  QUD = F  JACOBI = F
 SECULAR EQUATION METHOD CISTEP = GMCCI   
 --- GENERAL INPUT OPTIONS:
 MAXIT =     100  MICIT =       1  ACURCY= 1.000E-06
 DAMP  =   0.000  CANONC=       T  ENGTOL= 1.000E-10
 EKT   =       F  NPUNCH=       2  NWORD =         0
 REGENERATE CI AFTER CONVERGENCE = NONE    
 DIABATIZATION AFTER CONVERGENCE =        F
 --- INPUT FOR FULLNR CONVERGER:
 METHOD=DM2       FORS  =       F  DROPC =       T
 LINSER=       F  FCORE =       F  NORB  =      30

          ----------------------
          INTEGRAL INPUT OPTIONS
          ----------------------
 NOPK  =       1 NORDER=       0 SCHWRZ=       T

 ------------------------------------------
 MULTIREFERENCE PERTURBATION THEORY CONTROL
 ------------------------------------------
 MRPT=GMCPT    READ CONVERGED MCSCF VECTORS= F


     ------------------------------------------
     THE POINT GROUP IS C1 , NAXIS= 1, ORDER= 1
     ------------------------------------------

 -- VARIATIONAL SPACE WILL BE RESTRICTED TO PURE SPHERICAL HARMONICS ONLY --
 AFTER EXCLUDING CONTAMINANT COMBINATIONS FROM THE CARTESIAN GAUSSIAN BASIS
 SET, THE NUMBER OF SPHERICAL HARMONICS KEPT IN THE VARIATION SPACE IS   29

     DIMENSIONS OF THE SYMMETRY SUBSPACES ARE
 A   =   29

 ..... DONE SETTING UP THE RUN .....
 CPU     0: STEP CPU TIME=     0.04 TOTAL CPU TIME=          0.0 (      0.0 MIN)
 TOTAL WALL CLOCK TIME=          0.0 SECONDS, CPU UTILIZATION IS   100.00%

          ********************
          1 ELECTRON INTEGRALS
          ********************
 TIME TO DO   DIPOLE INTEGRALS=      0.00
 ...... END OF ONE-ELECTRON INTEGRALS ......
 CPU     0: STEP CPU TIME=     0.00 TOTAL CPU TIME=          0.0 (      0.0 MIN)
 TOTAL WALL CLOCK TIME=          0.0 SECONDS, CPU UTILIZATION IS   100.00%

          -------------
          GUESS OPTIONS
          -------------
          GUESS =MOREAD            NORB  =      29          NORDER=       0
          MIX   =       F          PRTMO =       F          PUNMO =       F
          TOLZ  = 1.0E-08          TOLE  = 1.0E-05
          SYMDEN=       F          PURIFY=       T

 INITIAL GUESS ORBITALS GENERATED BY MOREAD   ROUTINE.

 STATISTICS FOR GENERATION OF SYMMETRY ORBITAL -Q- MATRIX
 NUMBER OF CARTESIAN ATOMIC ORBITALS=         30
 NUMBER OF SPHERICAL CONTAMINANTS DROPPED=     1
 NUMBER OF LINEARLY DEPENDENT MOS DROPPED=     0
 TOTAL NUMBER OF MOS IN VARIATION SPACE=      29
 ORBITAL PURIFICATION WILL OCCUR

 SYMMETRIES FOR INITIAL GUESS ORBITALS FOLLOW.   BOTH SET(S).
     5 ORBITALS ARE OCCUPIED (    1 CORE ORBITALS).
     1=A        2=A        3=A        4=A        5=A        6=A        7=A   
     8=A        9=A       10=A       11=A       12=A       13=A       14=A   
    15=A       16=A       17=A       18=A       19=A       20=A       21=A   
    22=A       23=A       24=A       25=A       26=A       27=A       28=A   
    29=A   
 ...... END OF INITIAL ORBITAL SELECTION ......
 CPU     0: STEP CPU TIME=     0.00 TOTAL CPU TIME=          0.0 (      0.0 MIN)
 TOTAL WALL CLOCK TIME=          0.1 SECONDS, CPU UTILIZATION IS    80.00%

                    ----------------------
                    AO INTEGRAL TECHNOLOGY
                    ----------------------
     S,P,L SHELL ROTATED AXIS INTEGRALS, REPROGRAMMED BY
        KAZUYA ISHIMURA (IMS) AND JOSE SIERRA (SYNSTAR).
     S,P,D,L SHELL ROTATED AXIS INTEGRALS PROGRAMMED BY
        KAZUYA ISHIMURA (INSTITUTE FOR MOLECULAR SCIENCE).
     S,P,D,F,G SHELL TO TOTAL QUARTET ANGULAR MOMENTUM SUM 5,
        ERIC PROGRAM BY GRAHAM FLETCHER (ELORET AND NASA ADVANCED
        SUPERCOMPUTING DIVISION, AMES RESEARCH CENTER).
     S,P,D,F,G,L SHELL GENERAL RYS QUADRATURE PROGRAMMED BY
        MICHEL DUPUIS (PACIFIC NORTHWEST NATIONAL LABORATORY).

          --------------------
          2 ELECTRON INTEGRALS
          --------------------

 DIRECT SCF METHOD SKIPS INTEGRAL STORAGE ON DISK.
 DIRECT TRANSFORMATION SKIPS AO INTEGRAL STORAGE ON DISK.
  ...... END OF TWO-ELECTRON INTEGRALS .....
 STEP CPU TIME =     0.02 TOTAL CPU TIME =          0.1 (      0.0 MIN)
 TOTAL WALL CLOCK TIME=          0.1 SECONDS, CPU UTILIZATION IS    85.71%
 DDI: Creating Array [0] - 900 x 36 = 32400 words.
 DDI: Creating Array [1] - 21 x 288 = 6048 words.
 DDI: Creating Array [2] - 36 x 36 = 1296 words.
 DDI: Creating Array [3] - 465 x 36 = 16740 words.

          -----------------
          MCSCF CALCULATION
          -----------------

 ----- NUCLEAR ENERGY ----- =        11.2385171263

     -------------------------------------------------
     GMC-PT/GMC-QDPT or general MCSCF input parameters
     -------------------------------------------------
 # of frozen core orbs. =         0 ->         0
 # of doubly occ. orbs. =         1
 # of active      orbs. =         7
 # of virtual     orbs. =        21
 # of active electrons  =         7
 # of states in CI      =         3
 Highest state in CI    =         3
 kstate =  1 1 1
 avecoe =  0.333 0.333 0.333
 State symmetry           = A           
 Assigned symmetry number = 1

 <<<Act. MO sym.: 1111111

 <<<Division of 1-ext.:  0
 <<<Division of 2-ext.:  0

 *** Reference space

 Reference type: ORMAS (= Occupation restricted multiple active space)
 # of orbitals          =  7
 # of minimum electrons =  7
 # of maximum electrons =  7
 State symmetry    =    1 (input)
 2*Sz              =    1 (input)
 Spin multiplicity =    2 (input)
 Dimension of reference space =      1225  (from      3432 walks)

 Dimension of reference space =      1225  (from      1225 walks)

 <<<Ionized spaces for Ref-CI:
      0:         1225 /   -1-0:         1960 /  0-1-0:         2891

 EVALUATING EXCHANGE INTEGRALS FOR DIRECT INTEGRAL TRANSFORMATION
 SCHWARZ INEQUALITY OVERHEAD:       465 INTEGRALS, T=        0.01

     --------------------------------------------
     PARTIAL TWO ELECTRON INTEGRAL TRANSFORMATION
     --------------------------------------------

 NUMBER OF CORE MOLECULAR ORBITALS     =    1
 NUMBER OF OCCUPIED MOLECULAR ORBITALS =    8
 TOTAL NUMBER OF MOLECULAR ORBITALS    =   29
 TOTAL NUMBER OF ATOMIC ORBITALS       =   30
 THRESHOLD FOR KEEPING TRANSFORMED 2E- INTEGRALS = 1.000E-09

 -------------------------------     ------------------------------
 DISTRIBUTED DATA TRANSFORMATION     PROGRAM WRITTEN BY G. FLETCHER
 -------------------------------     ------------------------------

 THE DISTRIBUTED MEMORY REQUIRED FOR THIS STEP IS MEMDDI=         1 MWORDS
 CREATING DISTRIBUTED STORAGE FOR [VIR OCC|VIR OCC] INTEGRALS
 CREATING DISTRIBUTED STORAGE FOR [VIR OCC|OCC OCC] INTEGRALS
 CREATING DISTRIBUTED STORAGE FOR [OCC OCC|OCC OCC] INTEGRALS
 CREATING DISTRIBUTED STORAGE FOR [VIR VIR|OCC OCC] INTEGRALS
 FOR    1 PROCESSORS, THE REPLICATED MEMORY NEEDED IS       73700 WORDS.
 SCHWARZ INEQUALITY OVERHEAD:       465 INTEGRALS, T=        0.00

      DIRECT 4-INDEX TRANSFORMATION 
      SCHWARZ INEQUALITY TEST SKIPPED          0 INTEGRAL BLOCKS
 ----- FROZEN CORE ENERGY =       -47.6523985399
 ... END OF INTEGRAL TRANSFORMATION ...
 CPU     0: STEP CPU TIME=     0.22 TOTAL CPU TIME=          0.3 (      0.0 MIN)
 TOTAL WALL CLOCK TIME=          0.3 SECONDS, CPU UTILIZATION IS    96.55%

     --------------------------------     -----------------------------
     MCHF NEWTON-RAPHSON OPTIMIZATION     CODE WRITTEN BY MICHEL DUPUIS
     --------------------------------     -----------------------------
     PARALLEL VERSION WRITTEN BY G. FLETCHER (ELORET)
     NASA ADVANCED SUPERCOMPUTING DIVISION, AMES RESEARCH CENTER

 NUMBER OF INDEPENDENT ORBITAL ROTATION PARAMETERS =   175
 ..... DONE SOLVING NEWTON-RAPHSON EQUATIONS .....
 CPU     0: STEP CPU TIME=     0.77 TOTAL CPU TIME=          1.0 (      0.0 MIN)
 TOTAL WALL CLOCK TIME=          1.1 SECONDS, CPU UTILIZATION IS    99.06%
 ..... DONE WITH NTN-RPH ORBITAL ROTATIONS ..... 
 CPU     0: STEP CPU TIME=     0.00 TOTAL CPU TIME=          1.0 (      0.0 MIN)
 TOTAL WALL CLOCK TIME=          1.1 SECONDS, CPU UTILIZATION IS    99.06%
 MAXIMUM MEMORY USED BY NTN-RPH CODE WAS     57645 WORDS.

 ITER     TOTAL ENERGY      DEL(E)  LAGRANGIAN ASYMMETRY   SQCDF  MICIT   DAMP
   1      -55.605300229 -0.605300229  0.114137   12    5 1.158E-01  1   0.0000
   2      -55.657010516 -0.051710287  0.020712   12    5 4.551E-01  1   0.0000
   3      -55.692539684 -0.035529168  0.013446   11    6 2.354E-01  1   0.0209
   4      -55.708475205 -0.015935522  0.004607   11    6 4.931E-02  1   0.0055
   5      -55.710716190 -0.002240985  0.000816   12    5 1.554E-03  1   0.0000
   6      -55.710786753 -0.000070562  0.000311   23    5 1.459E-04  1   0.0000
   7      -55.710794625 -0.000007872  0.000146   23    5 2.653E-05  1   0.0000
   8      -55.710796138 -0.000001513  0.000073   23    5 5.783E-06  1   0.0000
   9      -55.710796478 -0.000000341  0.000038   23    5 1.462E-06  1   0.0000
  10      -55.710796566 -0.000000088  0.000021   23    5 4.242E-07  1   0.0000
  11      -55.710796592 -0.000000026  0.000012   23    5 1.377E-07  1   0.0000
  12      -55.710796600 -0.000000008  0.000007   23    5 4.832E-08  1   0.0000
  13      -55.710796603 -0.000000003  0.000004   23    5 1.780E-08  1   0.0000
  14      -55.710796604 -0.000000001  0.000002   23    5 6.745E-09  1   0.0000
  15      -55.710796604 -0.000000000  0.000001   23    5 2.612E-09  1   0.0000
  16      -55.710796605 -0.000000000  0.000001   23    5 1.023E-09  1   0.0000

          --------------------
          LAGRANGIAN CONVERGED
          --------------------

 FINAL MCSCF ENERGY IS      -55.7107966046 AFTER  16 ITERATIONS

 -MCCI- BASED ON OPTIMIZED ORBITALS
 ----------------------------------

 PLEASE NOTE: IF THE ACTIVE ORBITALS ARE CANONICALIZED BELOW,
 THE FOLLOWING CI EXPANSION COEFFICIENTS AND THE DENSITY DO NOT
 CORRESPOND TO THE PRINTED ORBITALS.  THE PRINTED EXPANSIONS MATCH
 THE ORBITALS USED DURING THE LAST ITERATION.  IF YOU WISH TO SEE
 CI EXPANSIONS BASED ON THE CANONICAL (OR NATURAL) ORBITALS, YOU
 MUST RUN A CI CALCULATION WITH THAT ORBITAL CHOICE READ IN $VEC.

 Averaged energy =     -55.710796605

 State #    1  Energy =     -55.845115089  S =  0.500

      Det      Coef    Occupancy (Ignoring core)
      ---      ----    --------- --------- -----
        1   -0.936106  11110001110000
        5    0.068499  01111001110000
        8    0.130045  10110101110000
       17   -0.134141  11010011110000
       36   -0.154017  11110001101000
      211   -0.051910  11110000110100
      386   -0.101437  11110001010010
      393   -0.060620  10110101010010
      701    0.102943  11110001100001
      717   -0.058208  11010011100001

 State #    2  Energy =     -55.747528647  S =  0.500

      Det      Coef    Occupancy (Ignoring core)
      ---      ----    --------- --------- -----
        1   -0.104827  11110001110000
       36    0.576560  11110001101000
       43   -0.062616  10110101101000
       52    0.057654  11010011101000
       71    0.763182  11110001011000
       75   -0.054922  01111001011000
       78   -0.074743  10110101011000
       87    0.084515  11010011011000
      456    0.063648  11110001001010
      806    0.078180  11110001001001

 State #    3  Energy =     -55.539746077  S =  0.500

      Det      Coef    Occupancy (Ignoring core)
      ---      ----    --------- --------- -----
        1    0.110493  11110001110000
       36   -0.755086  11110001101000
       43    0.063755  10110101101000
       52   -0.050746  11010011101000
       71    0.588173  11110001011000
       87    0.052002  11010011011000
      281   -0.061008  11110000101100
      456   -0.068322  11110001001010
      463   -0.054843  10110101001010
      806    0.064863  11110001001001

 DENSITY MATRIX OVER ACTIVE MO-S

             1           2           3           4           5

    1    1.9746310
    2   -0.0004774   1.6299715
    3    0.0117786   0.0041234   1.6316216
    4    0.0018138  -0.0011185   0.0013139   1.6534385
    5    0.1052416  -0.0028124  -0.0373991  -0.0024538   0.0328001
    6   -0.0095811  -0.1457987  -0.0173210   0.0054964  -0.0024399
    7   -0.0056536   0.0029339  -0.1543227   0.0343340   0.0025431

             6           7

    6    0.0381911
    7   -0.0039683   0.0393463

 FORMING THE "STANDARD FOCK OPERATOR" IN DIRECT AO INTEGRAL MODE...
 ONLY THE    1 CORE AND   21 VIRTUAL ORBITALS WILL BE CANONICALIZED

          ----------------------
          MCSCF NATURAL ORBITALS
          ----------------------

                      1          2          3          4          5
                  -15.9860     1.9807     1.6556     1.6496     1.6395
                     A          A          A          A          A   
    1  N  1  S    1.001145   0.008331  -0.009160  -0.004225   0.001146
    2  N  1  S   -0.001834   0.434588  -0.131600  -0.141435   0.018898
    3  N  1  S   -0.006242   0.324684  -0.224357  -0.192406   0.029250
    4  N  1  X   -0.000148   0.001002  -0.129196   0.189498   0.471786
    5  N  1  Y   -0.000145   0.028475  -0.245915   0.325958  -0.278481
    6  N  1  Z    0.001182   0.087292   0.520283   0.267757   0.005846
    7  N  1  X   -0.000035   0.002421  -0.049465   0.051380   0.266789
    8  N  1  Y   -0.000050   0.004190  -0.118806   0.093052  -0.161984
    9  N  1  Z   -0.000562   0.016546   0.351902   0.156848   0.012895
   10  N  1 XX   -0.000041  -0.001444  -0.010215  -0.006527   0.007943
   11  N  1 YY    0.000273   0.001486  -0.010053  -0.005209  -0.008211
   12  N  1 ZZ   -0.000233  -0.000042   0.020268   0.011736   0.000268
   13  N  1 XY    0.000435   0.004140   0.003118  -0.004027   0.008340
   14  N  1 XZ   -0.000010   0.001273  -0.005525   0.008424   0.021012
   15  N  1 YZ    0.000069   0.002745  -0.007928   0.016831  -0.012642
   16  H  2  S   -0.001627   0.195798   0.009201   0.264203  -0.281376
   17  H  2  S    0.000284   0.005526   0.017047   0.039205  -0.100811
   18  H  2  X   -0.000151   0.005681  -0.000897   0.020929   0.008827
   19  H  2  Y    0.000809  -0.032828  -0.009993  -0.021100   0.023754
   20  H  2  Z    0.000475  -0.013183   0.023076  -0.003105   0.016751
   21  H  3  S   -0.002043   0.172041   0.266749  -0.276088  -0.014728
   22  H  3  S    0.000683  -0.001668   0.041604  -0.023734   0.002628
   23  H  3  X   -0.000629   0.018861   0.018064  -0.018309   0.014125
   24  H  3  Y   -0.000897   0.028429   0.022949  -0.022647  -0.013942
   25  H  3  Z    0.000355  -0.002842   0.011688   0.020089   0.000593
   26  H  4  S   -0.001519   0.178643  -0.004459   0.255683   0.277918
   27  H  4  S    0.000314   0.001192   0.016476   0.036538   0.099872
   28  H  4  X    0.000724  -0.028495  -0.002673  -0.030604  -0.016851
   29  H  4  Y    0.000313  -0.012937  -0.004616   0.001544  -0.023377
   30  H  4  Z    0.000428  -0.009371   0.023697  -0.001029  -0.012612

                      6          7          8
                    0.0302     0.0263     0.0182
                     A          A          A   
    1  N  1  S   -0.075060  -0.149422  -0.149824
    2  N  1  S   -0.260969  -0.541956  -0.437956
    3  N  1  S   -0.045632  -0.209631   0.037106
    4  N  1  X   -0.652808   0.057855   0.539363
    5  N  1  Y    0.335645  -0.461208   0.676650
    6  N  1  Z   -0.186632  -0.574473  -0.166386
    7  N  1  X    0.035172  -0.052261   0.058672
    8  N  1  Y   -0.046316  -0.085446   0.083610
    9  N  1  Z    0.021473   0.026386   0.075951
   10  N  1 XX    0.022812  -0.029961   0.017213
   11  N  1 YY   -0.021414   0.028428   0.000105
   12  N  1 ZZ   -0.001398   0.001533  -0.017318
   13  N  1 XY    0.049289   0.033273   0.007196
   14  N  1 XZ    0.020327   0.011379  -0.029360
   15  N  1 YZ    0.002669   0.043137  -0.027614
   16  H  2  S   -0.428234   0.708002  -0.091241
   17  H  2  S   -0.178647   0.140492  -0.016207
   18  H  2  X    0.020482   0.037910  -0.027752
   19  H  2  Y    0.027602  -0.057572  -0.014876
   20  H  2  Z    0.024218   0.007791  -0.005656
   21  H  3  S    0.181837   0.229386   0.855091
   22  H  3  S    0.022008   0.005181   0.149214
   23  H  3  X    0.018323   0.018320   0.049616
   24  H  3  Y    0.010429   0.030492   0.070672
   25  H  3  Z   -0.001305   0.001585   0.022162
   26  H  4  S    0.724811   0.285653  -0.235188
   27  H  4  S    0.215668   0.002723  -0.069525
   28  H  4  X   -0.053136  -0.045019   0.016927
   29  H  4  Y   -0.039126   0.017383  -0.015549
   30  H  4  Z   -0.007089   0.026201  -0.006266

          ------------------------
          MCSCF OPTIMIZED ORBITALS
          ------------------------

                      1          2          3          4          5
                  -15.9860     0.0000     0.0000     0.0000     0.0000
                     A          A          A          A          A   
    1  N  1  S    1.001145  -0.002058   0.006833   0.013014  -0.011557
    2  N  1  S   -0.001834   0.399917  -0.003631  -0.010419  -0.184920
    3  N  1  S   -0.006242   0.316520  -0.012102  -0.063035  -0.284999
    4  N  1  X   -0.000148  -0.002981   0.439037  -0.086245  -0.016971
    5  N  1  Y   -0.000145   0.005671  -0.011089   0.406941  -0.042331
    6  N  1  Z    0.001182   0.051150  -0.003461   0.002459   0.586871
    7  N  1  X   -0.000035   0.003847   0.256822  -0.103028  -0.015019
    8  N  1  Y   -0.000050  -0.005937  -0.060635   0.199236  -0.058881
    9  N  1  Z   -0.000562   0.018256  -0.012684  -0.036693   0.385220
   10  N  1 XX   -0.000041  -0.002035   0.006907  -0.008554  -0.011239
   11  N  1 YY    0.000273   0.002322  -0.008245   0.006631  -0.011862
   12  N  1 ZZ   -0.000233  -0.000287   0.001338   0.001924   0.023100
   13  N  1 XY    0.000435   0.007152   0.006503  -0.011357   0.001101
   14  N  1 XZ   -0.000010   0.002062   0.025899  -0.002295  -0.001057
   15  N  1 YZ    0.000069   0.003958   0.001589   0.025348   0.000168
   16  H  2  S   -0.001627   0.209010  -0.132202   0.398094   0.120873
   17  H  2  S    0.000284   0.005922  -0.080230   0.093233   0.029690
   18  H  2  X   -0.000151   0.007318   0.020492   0.012377   0.008683
   19  H  2  Y    0.000809  -0.034317   0.015055  -0.027375  -0.018252
   20  H  2  Z    0.000475  -0.011783   0.007635  -0.021824   0.018859
   21  H  3  S   -0.002043   0.203934  -0.264009  -0.360808   0.115309
   22  H  3  S    0.000683   0.001501  -0.028647  -0.047563   0.027677
   23  H  3  X   -0.000629   0.021423  -0.004441  -0.032150   0.008027
   24  H  3  Y   -0.000897   0.031301  -0.032812  -0.021889   0.010216
   25  H  3  Z    0.000355  -0.002947   0.005772   0.007869   0.020209
   26  H  4  S   -0.001519   0.203852   0.415243   0.016972   0.121399
   27  H  4  S    0.000314   0.006149   0.113848  -0.043351   0.033523
   28  H  4  X    0.000724  -0.031175  -0.032351  -0.011558  -0.017019
   29  H  4  Y    0.000313  -0.013515  -0.018964   0.019555  -0.004327
   30  H  4  Z    0.000428  -0.008278  -0.017779  -0.001593   0.019718

                      6          7          8          9         10
                    0.0000     0.0000     0.0000     0.1197     0.1958
                     A          A          A          A          A   
    1  N  1  S    0.201598  -0.058419  -0.078561  -0.101593   0.024322
    2  N  1  S    0.721550  -0.149451  -0.207252  -0.145456   0.026020
    3  N  1  S    0.212323   0.041256   0.093398   1.139083  -0.371973
    4  N  1  X    0.035274   0.890015  -0.041754  -0.007695  -0.092344
    5  N  1  Y    0.093428   0.174341   0.906443  -0.036243  -0.102740
    6  N  1  Z    0.627953  -0.027174   0.021509  -0.136407   0.018734
    7  N  1  X    0.019934   0.031639   0.073951   0.079971   0.445703
    8  N  1  Y    0.064896   0.079979   0.089359   0.204819   0.629896
    9  N  1  Z   -0.051106   0.035235   0.041398   0.329566  -0.001090
   10  N  1 XX    0.013829  -0.007176   0.037846  -0.010007  -0.001370
   11  N  1 YY   -0.017675   0.017678  -0.024116   0.049537  -0.032507
   12  N  1 ZZ    0.003846  -0.010502  -0.013730  -0.039530   0.033877
   13  N  1 XY   -0.048822  -0.028017   0.017572   0.070871  -0.064245
   14  N  1 XZ   -0.009206  -0.031520  -0.013771   0.018369   0.054141
   15  N  1 YZ   -0.032177  -0.016496  -0.034288   0.055062   0.080874
   16  H  2  S   -0.450107   0.307742  -0.590609   0.353215   0.190275
   17  H  2  S   -0.058251   0.126368  -0.168905  -0.877632  -0.673709
   18  H  2  X   -0.033453  -0.028585  -0.023186   0.060770  -0.002155
   19  H  2  Y    0.044345  -0.034425   0.029090   0.081115   0.014722
   20  H  2  Z   -0.014280  -0.020633   0.004129   0.048580   0.058571
   21  H  3  S   -0.487900   0.438194   0.556083   0.301378  -0.541581
   22  H  3  S   -0.052784   0.082139   0.108146  -0.560501   1.938425
   23  H  3  X   -0.034818   0.021056   0.033428  -0.036257   0.077789
   24  H  3  Y   -0.048347   0.039757   0.038952  -0.065423   0.102668
   25  H  3  Z   -0.007484   0.016632   0.014108  -0.024668  -0.073830
   26  H  4  S   -0.441194  -0.629628   0.129291   0.383806   0.178475
   27  H  4  S   -0.059775  -0.195825   0.070805  -0.889161  -0.644870
   28  H  4  X    0.053298   0.043520   0.000198   0.026569   0.016552
   29  H  4  Y    0.001757   0.018212  -0.039169   0.084462   0.016414
   30  H  4  Z   -0.019499   0.001519  -0.020664   0.042394   0.067819

                     11         12         13         14         15
                    0.2453     0.5275     0.5710     0.6424     0.8540
                     A          A          A          A          A   
    1  N  1  S    0.008334  -0.108086   0.010574  -0.013231  -0.555084
    2  N  1  S    0.018413  -0.119343  -0.024533   0.025125  -1.243935
    3  N  1  S   -0.053464   0.931436  -0.266347   0.174662   2.186306
    4  N  1  X   -0.030054  -0.065873  -0.540309  -0.312165  -0.050301
    5  N  1  Y   -0.006882   0.293255   0.370207  -0.284066  -0.083198
    6  N  1  Z    0.009839  -0.648684   0.197917  -0.258357   0.295975
    7  N  1  X    0.423889  -0.035700   1.156388   1.211008   0.056353
    8  N  1  Y   -0.168840  -0.685870  -0.905138   1.470776   0.105317
    9  N  1  Z   -0.039646   0.964830  -0.406030   0.627977  -0.110412
   10  N  1 XX    0.067787   0.005090  -0.024247  -0.007631   0.065215
   11  N  1 YY   -0.065278  -0.028454   0.033742   0.019721  -0.042262
   12  N  1 ZZ   -0.002510   0.023364  -0.009496  -0.012090  -0.022953
   13  N  1 XY    0.048397  -0.016280   0.008764  -0.013235  -0.050264
   14  N  1 XZ    0.051361   0.002939   0.000270  -0.038292  -0.030701
   15  N  1 YZ   -0.031445  -0.002021  -0.002222  -0.044917  -0.006991
   16  H  2  S   -0.608476  -0.138113   0.522149  -0.432601   0.010543
   17  H  2  S    2.067938   0.199979   0.930655  -0.233719  -0.330602
   18  H  2  X    0.062272  -0.092245   0.014024  -0.073593  -0.309343
   19  H  2  Y   -0.067924  -0.047683  -0.095662   0.187871   0.073832
   20  H  2  Z   -0.024557   0.077507  -0.093818  -0.063275   0.085866
   21  H  3  S    0.031252  -0.620666   0.139506   0.492799  -0.176304
   22  H  3  S   -0.032624  -0.410523  -0.097532   0.737811  -0.483235
   23  H  3  X   -0.028866  -0.060470   0.073688   0.132369  -0.099129
   24  H  3  Y    0.032795  -0.071441  -0.056256   0.132203  -0.034064
   25  H  3  Z   -0.001764   0.047812  -0.021233   0.138334   0.167603
   26  H  4  S    0.593906  -0.243928  -0.199946  -0.617289   0.002842
   27  H  4  S   -2.022049  -0.194986  -0.765118  -0.463225  -0.376397
   28  H  4  X    0.088705   0.051621  -0.005291   0.205341   0.262881
   29  H  4  Y   -0.017269  -0.084220   0.089823   0.106952  -0.195852
   30  H  4  Z    0.012922   0.113058   0.025596  -0.080562   0.030614

                     16         17         18         19         20
                    1.0279     1.1080     1.2475     1.3198     1.4750
                     A          A          A          A          A   
    1  N  1  S   -0.261310  -0.139485   0.192455  -0.157176  -0.459652
    2  N  1  S   -0.537861  -0.291011   0.402336  -0.333806  -0.970920
    3  N  1  S    1.098028   0.636678  -0.792256   0.597465   1.560338
    4  N  1  X   -0.036997   0.111223  -0.148217  -0.096051  -0.084570
    5  N  1  Y   -0.058710  -0.011901  -0.147802   0.052748  -0.121455
    6  N  1  Z    0.079798   0.012991   0.021112  -0.000917  -0.070105
    7  N  1  X    0.217240  -0.529917   0.694224   0.122634   0.171731
    8  N  1  Y    0.437056   0.010321   1.041176  -0.314043   0.604660
    9  N  1  Z   -0.146743   0.144912  -0.169022   0.221172   0.779241
   10  N  1 XX   -0.178693  -0.156821  -0.055259   0.080226   0.014239
   11  N  1 YY   -0.085330   0.186292  -0.016061   0.001062   0.080991
   12  N  1 ZZ    0.264023  -0.029471   0.071320  -0.081289  -0.095230
   13  N  1 XY    0.094309  -0.089030  -0.010090  -0.028373   0.076724
   14  N  1 XZ   -0.012894   0.228498   0.129905   0.135437   0.056746
   15  N  1 YZ   -0.034560  -0.158378  -0.034744  -0.065009  -0.014194
   16  H  2  S   -0.387393  -0.222724  -0.061984   0.054953  -0.660445
   17  H  2  S   -0.131093  -0.139145  -0.052353  -0.041942  -0.193518
   18  H  2  X    0.324370   0.067109  -0.174023   0.382827   0.098704
   19  H  2  Y   -0.104154   0.186078  -0.057739   0.501473  -0.110127
   20  H  2  Z    0.386195  -0.433918   0.190131  -0.401108   0.085953
   21  H  3  S    0.035091  -0.242407   0.748331  -0.218129  -0.186675
   22  H  3  S   -0.073282  -0.182296   0.408879  -0.121355  -0.058711
   23  H  3  X    0.023050   0.483937  -0.060653  -0.466508   0.078305
   24  H  3  Y    0.039813  -0.375577  -0.153108   0.354570  -0.170376
   25  H  3  Z    0.278204   0.080297  -0.366142  -0.027067  -0.778404
   26  H  4  S   -0.399878   0.140229  -0.250896  -0.293782  -0.621886
   27  H  4  S   -0.113502   0.067858  -0.064550   0.013271  -0.015500
   28  H  4  X   -0.222944  -0.006076  -0.066736  -0.231567  -0.165443
   29  H  4  Y    0.209494   0.028308  -0.585287  -0.229484   0.129669
   30  H  4  Z    0.379638   0.275976   0.528277   0.115618  -0.344981

                     21         22         23         24         25
                    1.6082     1.8308     1.8858     1.9920     2.0826
                     A          A          A          A          A   
    1  N  1  S   -0.085543   0.025747  -0.087469   0.021706  -0.034627
    2  N  1  S   -0.174104   0.172115  -0.203266   0.084386  -0.071091
    3  N  1  S    0.325575   1.094739  -0.415748   0.557957   0.038447
    4  N  1  X    0.123890   0.172323   0.317849  -0.070215   0.148001
    5  N  1  Y   -0.186607   0.368158   0.416105  -0.140011  -0.034830
    6  N  1  Z   -0.018532   0.265747  -0.040538   0.064692  -0.022402
    7  N  1  X    0.564356   0.205079   0.063764  -0.043082  -0.127636
    8  N  1  Y    0.060068   0.219129   0.035360  -0.228849   0.102226
    9  N  1  Z    0.159381   0.411146  -0.073233   0.401261  -0.011547
   10  N  1 XX   -0.014419   0.069338  -0.304785  -0.599362  -0.154797
   11  N  1 YY    0.098405  -0.026206   0.069992  -0.186867   0.285097
   12  N  1 ZZ   -0.083986  -0.043132   0.234792   0.786229  -0.130300
   13  N  1 XY   -0.085569  -0.148585   0.405752   0.312559  -0.188252
   14  N  1 XZ   -0.247748   0.003947  -0.146087   0.158873  -0.022425
   15  N  1 YZ    0.143834  -0.231635  -0.014170   0.130000  -0.000550
   16  H  2  S   -0.265828  -0.205341   0.123841  -0.024725   0.245690
   17  H  2  S    0.362806  -0.331251  -0.071180   0.098861   0.338618
   18  H  2  X   -0.178674   0.063823  -0.189420  -0.004049   1.014307
   19  H  2  Y   -0.404565   0.649942   0.105156   0.153736  -0.445303
   20  H  2  Z   -0.518820   0.452089  -0.063054  -0.342165   0.108833
   21  H  3  S    0.090640  -0.109170   0.044801  -0.236713   0.023616
   22  H  3  S   -0.007185   0.014618   0.416153  -0.302020   0.003595
   23  H  3  X   -0.408345  -0.179961   0.504416  -0.463962  -0.008629
   24  H  3  Y    0.130107  -0.134406   0.799234  -0.385713   0.112972
   25  H  3  Z   -0.202748  -0.460729  -0.323156  -0.089723  -0.013495
   26  H  4  S   -0.117042  -0.214922   0.101454  -0.113892  -0.285762
   27  H  4  S   -0.432804  -0.385671  -0.066269  -0.117727  -0.346524
   28  H  4  X    0.138510   0.542934   0.165678   0.370980   0.924104
   29  H  4  Y    0.417803   0.572659  -0.158364   0.041506  -0.524564
   30  H  4  Z    0.553952   0.300155   0.198200  -0.327722  -0.113412

                     26         27         28         29
                    2.2041     2.6400     2.7049     2.8996
                     A          A          A          A   
    1  N  1  S    0.045102  -0.139652  -0.021230  -0.005895
    2  N  1  S    0.061374  -0.201765   0.075745   0.089028
    3  N  1  S   -0.532242   0.928350   1.566675   1.299273
    4  N  1  X    0.045155   0.262530  -0.300219  -0.006990
    5  N  1  Y   -0.018350   0.373645  -0.015377  -0.391415
    6  N  1  Z   -0.053261   0.114687   0.232756   0.149449
    7  N  1  X    0.440406   0.804471  -0.499798   0.002601
    8  N  1  Y   -0.284338   1.156861   0.110002  -0.616954
    9  N  1  Z   -0.260792   0.339921   0.314908   0.149225
   10  N  1 XX   -0.343015   0.229730  -0.660721   0.630586
   11  N  1 YY    0.447826  -0.068850   1.176579  -0.079938
   12  N  1 ZZ   -0.104812  -0.160880  -0.515858  -0.550648
   13  N  1 XY   -0.090058   0.039029   0.323313   1.246864
   14  N  1 XZ    0.739035   0.737221  -0.363732   0.207285
   15  N  1 YZ   -0.435162   1.093752   0.365490  -0.352911
   16  H  2  S    0.268249  -0.719392  -1.005086   0.525505
   17  H  2  S    0.250140  -0.231323  -0.395490   0.194186
   18  H  2  X   -0.394329  -0.071961  -0.211721   0.096977
   19  H  2  Y   -0.474391   0.405448   0.813028  -0.479868
   20  H  2  Z    0.179390   0.222603   0.580286  -0.210617
   21  H  3  S    0.151815   0.699916  -0.907470  -1.199860
   22  H  3  S    0.080902   0.331377  -0.281095  -0.355719
   23  H  3  X   -0.407084   0.381550  -0.568175  -0.401717
   24  H  3  Y    0.512411   0.383430  -0.491809  -0.822100
   25  H  3  Z    0.132573   0.169529   0.327968   0.383218
   26  H  4  S    0.048320  -0.953944   0.200215  -0.772556
   27  H  4  S   -0.124565  -0.345803   0.177550  -0.241428
   28  H  4  X   -0.012623   0.592714  -0.268887   0.706809
   29  H  4  Y    0.271525   0.359460  -0.187144   0.224031
   30  H  4  Z   -0.133011   0.295393  -0.019227   0.458334
 .....DONE WITH MCSCF ITERATIONS.....
 CPU     0: STEP CPU TIME=    10.40 TOTAL CPU TIME=         11.4 (      0.2 MIN)
 TOTAL WALL CLOCK TIME=         11.5 SECONDS, CPU UTILIZATION IS    99.91%

     ----------------------------------------------------------------
     PROPERTY VALUES FOR THE MCSCF SELF-CONSISTENT FIELD WAVEFUNCTION
     ----------------------------------------------------------------

          -----------------
          ENERGY COMPONENTS
          -----------------

         WAVEFUNCTION NORMALIZATION =       1.0000000000

                ONE ELECTRON ENERGY =     -93.9523987042
                TWO ELECTRON ENERGY =      27.0030849734
           NUCLEAR REPULSION ENERGY =      11.2385171263
                                      ------------------
                       TOTAL ENERGY =     -55.7107966046

 ELECTRON-ELECTRON POTENTIAL ENERGY =      27.0030849734
  NUCLEUS-ELECTRON POTENTIAL ENERGY =    -149.6920520992
   NUCLEUS-NUCLEUS POTENTIAL ENERGY =      11.2385171263
                                      ------------------
             TOTAL POTENTIAL ENERGY =    -111.4504499996
               TOTAL KINETIC ENERGY =      55.7396533950
                 VIRIAL RATIO (V/T) =       1.9994822933

          ---------------------------------------
          MULLIKEN AND LOWDIN POPULATION ANALYSES
          ---------------------------------------

     ATOMIC MULLIKEN POPULATION IN EACH MOLECULAR ORBITAL

                      1          2          3          4          5

                  2.000000   1.980703   1.655557   1.649558   1.639469

    1             2.000732   1.352284   1.431847   0.938309   1.174438
    2            -0.000221   0.243069   0.009058   0.225137   0.224095
    3            -0.000335   0.181466   0.206065   0.269140   0.008875
    4            -0.000177   0.203884   0.008588   0.216973   0.232062

                      6          7          8

                  0.030217   0.026329   0.018167

    1             0.013627   0.013718   0.009568
    2             0.003653   0.009787   0.000108
    3             0.000748   0.000928   0.007921
    4             0.012188   0.001896   0.000570
 WARNING! MCSCF POPULATIONS SHOWN ABOVE ARE FOR THE NATURAL ORBITALS.
 IGNORE THE ABOVE DATA FOR MCSCF FUNCTIONS WHICH ARE NOT OF -FORS- TYPE.
 THE FOLLOWING POPULATIONS ARE CORRECT FOR ANY MCSCF WAVEFUNCTION.

               ----- POPULATIONS IN EACH AO -----
                             MULLIKEN      LOWDIN
              1  N  1  S      2.00237     1.90133
              2  N  1  S      0.81852     0.57780
              3  N  1  S      0.68904     0.40683
              4  N  1  X      0.71390     0.64770
              5  N  1  Y      0.66825     0.59294
              6  N  1  Z      0.85522     0.80427
              7  N  1  X      0.36766     0.44565
              8  N  1  Y      0.28201     0.39908
              9  N  1  Z      0.52185     0.55859
             10  N  1 XX      0.00044     0.16347
             11  N  1 YY      0.00200     0.17621
             12  N  1 ZZ      0.00270     0.14264
             13  N  1 XY      0.00457     0.00933
             14  N  1 XZ      0.00600     0.00721
             15  N  1 YZ      0.00000     0.01248
             16  H  2  S      0.60263     0.45969
             17  H  2  S      0.05525     0.14896
             18  H  2  X      0.01157     0.03885
             19  H  2  Y      0.02880     0.04696
             20  H  2  Z      0.01643     0.03599
             21  H  3  S      0.59313     0.45963
             22  H  3  S      0.02512     0.14468
             23  H  3  X      0.01790     0.03789
             24  H  3  Y      0.02756     0.05079
             25  H  3  Z      0.01110     0.03196
             26  H  4  S      0.56778     0.43271
             27  H  4  S      0.05402     0.14995
             28  H  4  X      0.02742     0.05280
             29  H  4  Y      0.01299     0.03234
             30  H  4  Z      0.01377     0.03128

          ----- MULLIKEN ATOMIC OVERLAP POPULATIONS -----
          (OFF-DIAGONAL ELEMENTS NEED TO BE MULTIPLIED BY 2)

             1           2           3           4

    1    6.0992065
    2    0.2646369   0.4651023
    3    0.3136116  -0.0050320   0.3717769
    4    0.2570678  -0.0100203  -0.0055495   0.4344852

          TOTAL MULLIKEN AND LOWDIN ATOMIC POPULATIONS
       ATOM         MULL.POP.    CHARGE          LOW.POP.     CHARGE
    1 N             6.934523    0.065477         6.845526    0.154474
    2 H             0.714687    0.285313         0.730445    0.269555
    3 H             0.674807    0.325193         0.724940    0.275060
    4 H             0.675983    0.324017         0.699089    0.300911

          MULLIKEN SPHERICAL HARMONIC POPULATIONS
       ATOM           S       P       D      F      G      H      I    TOTAL
    1 N             3.51    3.41    0.02   0.00   0.00   0.00   0.00    6.93
    2 H             0.66    0.06    0.00   0.00   0.00   0.00   0.00    0.71
    3 H             0.62    0.06    0.00   0.00   0.00   0.00   0.00    0.67
    4 H             0.62    0.05    0.00   0.00   0.00   0.00   0.00    0.68

          ---------------------
          ELECTROSTATIC MOMENTS
          ---------------------

 POINT   1           X           Y           Z (BOHR)    CHARGE
                 0.000001    0.000004   -0.177185        1.00 (A.U.)
         DX          DY          DZ         /D/  (DEBYE)
     0.238840    0.710475    2.183532    2.308599
 ...... END OF PROPERTY EVALUATION ......
 CPU     0: STEP CPU TIME=     0.01 TOTAL CPU TIME=         11.5 (      0.2 MIN)
 TOTAL WALL CLOCK TIME=         11.5 SECONDS, CPU UTILIZATION IS   100.00%

     -------------------------------------------------
     GMC-PT/GMC-QDPT or general MCSCF input parameters
     -------------------------------------------------
 # of frozen core orbs. =         0 ->         0
 # of doubly occ. orbs. =         1
 # of active      orbs. =         7
 # of virtual     orbs. =        21
 # of active electrons  =         7
 # of states in CI      =         3
 Highest state in CI    =         3
 kstate =  1 1 1
 avecoe =  0.333 0.333 0.333
 State symmetry           = A           
 Assigned symmetry number = 1

 <<<Act. MO sym.: 1111111

 <<<Division of 1-ext.:  0
 <<<Division of 2-ext.:  0

     ------------------------
     Orbital canonicalization
     ------------------------

 MOs are canonicalized for core, virtual, and invariant-active orbital spaces.
 This is a part of the GMC-QDPT calculation.
 SCHWARZ INEQUALITY OVERHEAD:       465 INTEGRALS, T=        0.00
 DIRECT TRANSFORMATION SKIPS AO INTEGRAL STORAGE ON DISK.

 Averaged energy =     -55.710796605

 State #    1  Energy =     -55.845115089  S =  0.500
 State #    2  Energy =     -55.747528647  S =  0.500
 State #    3  Energy =     -55.539746077  S =  0.500

 Orbital energies for filled orbital space
  -15.986029
 Orbital energies for active orbital space
   -1.506053  -0.798828  -1.015789  -0.740600   0.195773
    0.417859   0.245996
 Orbital energies for external orbital space
    0.119702   0.195766   0.245275   0.527540   0.571021
    0.642420   0.853992   1.027910   1.108024   1.247452
    1.319790   1.475047   1.608154   1.830810   1.885804
    1.992003   2.082624   2.204116   2.640039   2.704878
    2.899602

 Zero values mean non-canonical orbitals.
 ... done with orbital canonicalization ...
 CPU     0: STEP CPU TIME=     0.61 TOTAL CPU TIME=         12.1 (      0.2 MIN)
 TOTAL WALL CLOCK TIME=         12.1 SECONDS, CPU UTILIZATION IS   100.00%

     --------------------------------------------
     PARTIAL TWO ELECTRON INTEGRAL TRANSFORMATION
     --------------------------------------------

 NUMBER OF CORE MOLECULAR ORBITALS     =    0
 NUMBER OF OCCUPIED MOLECULAR ORBITALS =    8
 TOTAL NUMBER OF MOLECULAR ORBITALS    =   29
 TOTAL NUMBER OF ATOMIC ORBITALS       =   30
 THRESHOLD FOR KEEPING TRANSFORMED 2E- INTEGRALS = 1.000E-09
 AO INTEGRALS WILL BE CALCULATED IN DIRECT MODE...
 DIRECT TRANSFORMATION SKIPS AO INTEGRAL STORAGE ON DISK.
 SCHWARZ INEQUALITY OVERHEAD:       465 INTEGRALS, T=        0.00

 PLAN A: REQUIREMENTS FOR FULLY IN-MEMORY TRANSFORMATION:
 # OF WORDS AVAILABLE =            100000000
 # OF WORDS NEEDED    =               221798

 PARALLEL ONLY WORKS WITH THE SEGMENTED ALGORITHM.
 ADJUSTING MEMORY TO USE SEGMENTED ALGORITHM.


 PLAN B: REQUIREMENTS FOR THE SEGMENTED TRANSFORMATION:
       MINIMUM=         124148 WORDS FOR 1 MOLECULAR ORBITAL PER PASS
       MAXIMUM=         221798 WORDS FOR ALL MOLECULAR ORBITALS IN 1 PASS
              (          13950 EXTRA WORDS INCLUDES 1 EXTRA ORBITAL/PASS)
 THIS RUN USES=         221798 WORDS,
 DISTRIBUTING   1 PASSES EACH CONTAINING     8 ORBITALS OVER   1 PROCESSORS.

 CHOOSING SEGMENTED PARTIAL TRANSFORMATION...
 DIRECT TRANSFORMATION SKIPS AO INTEGRAL STORAGE ON DISK.
 PASS #   1 TOOK        0.04 SECONDS.
 TOTAL NUMBER OF TRANSFORMED 2E- INTEGRALS KEPT =        29226
 ... END OF INTEGRAL TRANSFORMATION ...
 CPU     0: STEP CPU TIME=     0.04 TOTAL CPU TIME=         12.1 (      0.2 MIN)
 TOTAL WALL CLOCK TIME=         12.1 SECONDS, CPU UTILIZATION IS    99.92%

     --------     ------------------------------------------
     GMC-QDPT     Program written by H.Nakano (Kyushu Univ.)
     --------     ------------------------------------------

 *** Reference space

 Reference type: ORMAS (= Occupation restricted multiple active space)
 # of orbitals          =  7
 # of minimum electrons =  7
 # of maximum electrons =  7
 State symmetry    =    1 (input)
 2*Sz              =    1 (input)
 Spin multiplicity =    2 (input)
 Dimension of reference space =      1225  (from      3432 walks)

 Dimension of reference space =      1225  (from      1225 walks)

 <<<Ionized spaces for Ref-CI:
      0:         1225 /   -1-0:         1960 /  0-1-0:         2891

 ***                    ***
 *** Reference space CI ***
 ***                    ***

 Converged after   31 iterations

 Reference wavefunctions:

 State #    1  Energy =     -55.845115089  S =  0.500

      Det      Coef    Occupancy (Ignoring core)
      ---      ----    --------- --------- -----
        1    0.974135  11110001110000
       71   -0.065223  11110001011000
      179    0.050286  10111001010100
      357    0.058146  11010101100010
      753    0.067650  10110011010001

 State #    2  Energy =     -55.747528647  S =  0.500

      Det      Coef    Occupancy (Ignoring core)
      ---      ----    --------- --------- -----
        1   -0.067365  11110001110000
       71   -0.980279  11110001011000
      462    0.058012  11010101001010

 State #    3  Energy =     -55.539746077  S =  0.500

      Det      Coef    Occupancy (Ignoring core)
      ---      ----    --------- --------- -----
       36    0.975527  11110001101000
      249    0.050676  10111001001100
      823    0.069500  10110011001001

 Davidson method: CPU/Wall time =           0.43 /           0.43 sec.

 Oscillator strength (invalid if E(1)/=E(GS)):
 -----------------------------------------
   State                        f
 -----------------------------------------
     2     F(REF-CI)=        0.0004476057
     3     F(REF-CI)=        0.0042931663
 -----------------------------------------

 Dipole moment matrix elements, x, y, z, in A.U.

 Dimension of ionized spaces for PT:
 (N-2) space:         1715 /  (N-1) space:         2842 /  N space:         2891
 (N+1) space:         2842 /  (N+2) space:         1715

 <<<Ionized spaces for internal:
         0:         1225 /      -1-0:         1960 /     0-1-0:         2891
  -1-0-1-0:         2842 / 0-1-0-1-0:         3381

 Diagonal elements of averaged one-particle density matrix:
       2       3       4       5       6       7       8
  0.9929  0.9842  0.9877  0.9917  0.0170  0.0107  0.0159
  0.9877  0.6556  0.6626  0.6626  0.0124  0.0077  0.0115

 Orbital energies:
 -------- Doubly-occupied orbitals (highest several orbs.) -------
             1
 -1.598603D+01
 -------- Active orbitals ----------------------------------------
             2            3            4            5            6
 -1.506053D+00-7.988283D-01-1.015789D+00-7.405996D-01 1.957731D-01
             7            8
  4.178588D-01 2.459964D-01
 -------- External orbitals (lowest several orbs.) ---------------
             9           10           11           12           13
  1.197025D-01 1.957662D-01 2.452749D-01 5.275397D-01 5.710214D-01
            14           15           16           17           18
  6.424196D-01 8.539922D-01 1.027910D+00 1.108024D+00 1.247452D+00

 *** Quasi-degeneracy checking

 === Det (|Ci| > 1.0D-01 and dE < 5.0D-03)

 # of small denominators (single excitations)
 State       dEmin  dE < 5.0D-03  dE < 5.0D-04  dE < 5.0D-05  dE < 5.0D-06
 ----- ----------- ------------- ------------- ------------- -------------
     1    5.00D-03             0             0             0             0
     2    5.00D-03             0             0             0             0
     3    5.00D-03             0             0             0             0

 # of small denominators (double excitations)
 State       dEmin  dE < 5.0D-03  dE < 5.0D-04  dE < 5.0D-05  dE < 5.0D-06
 ----- ----------- ------------- ------------- ------------- -------------
     1    5.00D-03             0             0             0             0
     2    5.00D-03             0             0             0             0
     3    5.00D-03             0             0             0             0

 *** Zeroth-Order Setup (Granovsky's zeroth-order vectors)
 Zeroth-order effective Hamiltonian
  (= Sum_i e(i)*<I|a+(i)a(i)|J> ):
                   1            2            3
     1 -7.274878D+00
     2  6.676059D-03-7.240104D+00
     3 -7.755675D-04-2.177290D-03-7.007316D+00

 Zeroth-order vectors:
 State #    1
       MC st            1           2           3
       Coeff    9.833D-01  -1.822D-01   1.361D-03
 State #    2
       MC st            2           1           3
       Coeff   -9.832D-01  -1.822D-01  -9.855D-03
 State #    3
       MC st            3           2           1
       Coeff    1.000D+00  -9.442D-03  -3.134D-03

 *** GMC-QDPT computation

 (Integral reading:  CPU/Wall time =           0.00 /           0.00 sec.)

 One-external:
   0 -ionized terms: CPU/Wall time =           0.03 /           0.04 sec.
 (-1)-ionized terms: CPU/Wall time =           0.09 /           0.08 sec.
 (+1)-ionized terms: CPU/Wall time =           0.02 /           0.02 sec.
 (+1)-ionized terms: CPU/Wall time =           0.00 /           0.01 sec.
 (+2)-ionized terms: CPU/Wall time =           0.01 /           0.00 sec.

 Internal:
 # of macro loops for internal contribution =         1 (input)
 Loop:    1
 Dimension of internal CISD space     =         0  (after screening)
 Space construction: CPU/Wall time =           0.01 /           0.02 sec.
 Internal terms:     CPU/Wall time =           0.00 /           0.00 sec.

 Two-external:
   0 -ionized terms: CPU/Wall time =           0.06 /           0.06 sec.
 (-1)-ionized terms: CPU/Wall time =           1.00 /           1.00 sec.
 (-2)-ionized terms: CPU/Wall time =           0.18 /           0.18 sec.

 Total time:         CPU/Wall time =           1.40 /           1.41 sec.

 ***                  ***
 *** GMC-QDPT Results ***
 ***                  ***

 Diagonal elements of effective Hamiltonian:
 Heff(  1) =   -55.94111170
 Heff(  2) =   -55.85781976
 Heff(  3) =   -55.65132507

 Off-diagonal elements of effective Hamiltonian:
                   1            2
     2  1.551709D-02
     3  9.718074D-05-1.919906D-03

 ******** GMC-QDPT energies ********
 ----------------------------------------------------------------------------
   State                        1st order                           2nd order
 ----------------------------------------------------------------------------
     1     E(REF-CI)=      -55.8451150895   E(GMC-QDPT2)=      -55.9439092337
     2     E(REF-CI)=      -55.7475286470   E(GMC-QDPT2)=      -55.8550400840
     3     E(REF-CI)=      -55.5397460773   E(GMC-QDPT2)=      -55.6513072149
 ----------------------------------------------------------------------------

 Excitation energies (invalid if E(1)/=E(GS)):
 ----------------------------------------------------------------------------
   State                        1st order                           2nd order
 ----------------------------------------------------------------------------

     TZ Sorted GMC-PT ENERGIES:
         1      -55.9439092337
         2      -55.8550400840
         3      -55.6513072149
     2     E(REF-CI)=        2.6554637 eV   E(GMC-QDPT2)=        2.4182540 eV
     3     E(REF-CI)=        8.3095183 eV   E(GMC-QDPT2)=        7.9621106 eV
 ----------------------------------------------------------------------------

 Main characters of perturbed GMC-QDPT states:

 State #    1  Energy =     -55.943909234  S =  0.500

      Det      Coef    Occupancy (Ignoring core)
      ---      ----    --------- --------- -----
        1    0.974442  11110001110000
       71   -0.060473  11110001011000
      179    0.050186  10111001010100
      357    0.058131  11010101100010
      753    0.067736  10110011010001

 State #    2  Energy =     -55.855040084  S =  0.500

      Det      Coef    Occupancy (Ignoring core)
      ---      ----    --------- --------- -----
        1   -0.062637  11110001110000
       71   -0.980585  11110001011000
      462    0.058029  11010101001010

 State #    3  Energy =     -55.651307215  S =  0.500

      Det      Coef    Occupancy (Ignoring core)
      ---      ----    --------- --------- -----
       36    0.975520  11110001101000
      249    0.050683  10111001001100
      823    0.069491  10110011001001

 <<<Max |V/de| = 2.973D-02  Thresh = 1.000D+00

 Oscillator strength (invalid if E(1)/=E(GS)):
 ----------------------------------------------------------------------------
   State                        1st order                           2nd order
 ----------------------------------------------------------------------------
     2     F(REF-CI)=        0.0004476057     F(GMC-PT2)=        0.0004245647
     3     F(REF-CI)=        0.0042931663     F(GMC-PT2)=        0.0041672233
 ----------------------------------------------------------------------------

 Dipole moment matrix elements, x, y, z, in A.U.
States    1    1        0.1230965161        0.3063552930        0.7186183131
States    1    2       -0.0372920443        0.0411681284        0.0638796441
States    1    3        0.0732744516        0.1005553456       -0.0766968205
States    2    1       -0.0372920443        0.0411681284        0.0638796441
States    2    2       -0.0286197024        0.1735720137        0.2759876739
States    2    3       -0.1185467072        0.0430552025       -0.0001463076
States    3    1        0.0732744516        0.1005553456       -0.0766968205
States    3    2       -0.1185467072        0.0430552025       -0.0001463076
States    3    3        0.2519100217        0.5662731336        0.2402751562

 Oscillator strength (valid only when positive): 
 ----------------------------------------------------------------------------
  States                        1st order                           2nd order
 ----------------------------------------------------------------------------
  1  1     F(REF-CI)=        0.0000000000     F(GMC-PT2)=        0.0000000000
  1  2     F(REF-CI)=       -0.0004476057     F(GMC-PT2)=       -0.0004245647
  1  3     F(REF-CI)=       -0.0042931663     F(GMC-PT2)=       -0.0041672233
  2  1     F(REF-CI)=        0.0004476057     F(GMC-PT2)=        0.0004245647
  2  2     F(REF-CI)=        0.0000000000     F(GMC-PT2)=        0.0000000000
  2  3     F(REF-CI)=       -0.0022133013     F(GMC-PT2)=       -0.0021605319
  3  1     F(REF-CI)=        0.0042931663     F(GMC-PT2)=        0.0041672233
  3  2     F(REF-CI)=        0.0022133013     F(GMC-PT2)=        0.0021605319
  3  3     F(REF-CI)=        0.0000000000     F(GMC-PT2)=        0.0000000000
 CPU     0: STEP CPU TIME=     1.90 TOTAL CPU TIME=         14.0 (      0.2 MIN)
 TOTAL WALL CLOCK TIME=         14.0 SECONDS, CPU UTILIZATION IS    99.93%

     !!! DIABATIZATION FOR REF CI STATES !!!

 *******************************************************
          $DMO GROUP FOUND IN THE INPUT.
        DIABATIZATION OF ADIABATIC STATES BEGINS.
     PROGRAMMED BY TAO ZENG (CARLETON UNIVERSITY).
               Email: toby.zeng@carleton.ca
     See T. Zeng, J. Chem. Phys. 2017, 146, 144103
 *******************************************************

 *************************************************************************
     STEP 1: TRANSFORMATION OF ADIABATIC STATES TO THE DMO REPRESENTATION
         See Atchity and Ruedenberg, J. Chem. Phys. 1999, 111, 2910
 *************************************************************************

Read in Diabatic Molecualr Orbitals:

                      1          2          3          4          5

    1  N  1  S    0.008609   0.000000   0.000000  -0.013219   0.279491
    2  N  1  S    0.442914  -0.000000   0.000000  -0.184329   0.867803
    3  N  1  S    0.276913   0.000000  -0.000000  -0.288315   0.144236
    4  N  1  X   -0.000000   0.493155  -0.024636  -0.000000  -0.000000
    5  N  1  Y    0.000000   0.024636   0.493155  -0.000000   0.000000
    6  N  1  Z    0.090197   0.000000   0.000000   0.593421   0.705309
    7  N  1  X   -0.000000   0.210628  -0.010522   0.000000   0.000000
    8  N  1  Y    0.000000   0.010522   0.210628  -0.000000  -0.000000
    9  N  1  Z   -0.004381   0.000000   0.000000   0.381592  -0.106092
   10  N  1 XX   -0.000457   0.010719  -0.000535  -0.012387   0.006153
   11  N  1 YY   -0.000457  -0.010719   0.000535  -0.012387   0.006153
   12  N  1 ZZ    0.000914  -0.000000   0.000000   0.024773  -0.012306
   13  N  1 XY    0.000000  -0.000618  -0.012377  -0.000000   0.000000
   14  N  1 XZ   -0.000000   0.026529  -0.001325  -0.000000   0.000000
   15  N  1 YZ    0.000000   0.001325   0.026529  -0.000000   0.000000
   16  H  2  S    0.194462  -0.176074   0.343485   0.112865  -0.523343
   17  H  2  S    0.003574  -0.023812   0.046452   0.024014  -0.054445
   18  H  2  X    0.018760   0.009101   0.022834   0.009336  -0.039151
   19  H  2  Y   -0.032493   0.022287  -0.020044  -0.016171   0.067811
   20  H  2  Z   -0.009251   0.008464  -0.016511   0.018769  -0.010566
   21  H  3  S    0.194462  -0.209430  -0.324227   0.112865  -0.523343
   22  H  3  S    0.003574  -0.028322  -0.043847   0.024014  -0.054445
   23  H  3  X    0.018760   0.006781  -0.023627   0.009336  -0.039151
   24  H  3  Y    0.032493  -0.024174  -0.017723   0.016171  -0.067811
   25  H  3  Z   -0.009251   0.010067   0.015585   0.018769  -0.010566
   26  H  4  S    0.194462   0.385503  -0.019258   0.112865  -0.523343
   27  H  4  S    0.003574   0.052134  -0.002604   0.024014  -0.054445
   28  H  4  X   -0.037519  -0.032295   0.001613  -0.018672   0.078302
   29  H  4  Y    0.000000   0.001067   0.021353  -0.000000   0.000000
   30  H  4  Z   -0.009251  -0.018530   0.000926   0.018769  -0.010566

                      6          7

    1  N  1  S    0.000000  -0.000000
    2  N  1  S    0.000000  -0.000000
    3  N  1  S   -0.000000   0.000000
    4  N  1  X   -0.930415  -0.002083
    5  N  1  Y   -0.002083   0.930415
    6  N  1  Z   -0.000000   0.000000
    7  N  1  X   -0.046866  -0.000105
    8  N  1  Y   -0.000105   0.046866
    9  N  1  Z   -0.000000   0.000000
   10  N  1 XX    0.001538   0.000003
   11  N  1 YY   -0.001538  -0.000003
   12  N  1 ZZ   -0.000000   0.000000
   13  N  1 XY   -0.000004   0.001776
   14  N  1 XZ    0.039985   0.000090
   15  N  1 YZ    0.000090  -0.039985
   16  H  2  S   -0.362630  -0.631354
   17  H  2  S   -0.065964  -0.114846
   18  H  2  X    0.002763  -0.037520
   19  H  2  Y    0.037435   0.040736
   20  H  2  Z    0.001882   0.003276
   21  H  3  S   -0.365454   0.629724
   22  H  3  S   -0.066477   0.114549
   23  H  3  X    0.002595   0.037532
   24  H  3  Y   -0.037617   0.040567
   25  H  3  Z    0.001896  -0.003268
   26  H  4  S    0.728084   0.001630
   27  H  4  S    0.132441   0.000297
   28  H  4  X   -0.062317  -0.000140
   29  H  4  Y    0.000055  -0.024345
   30  H  4  Z   -0.003778  -0.000008

NUMBER OF SUB ACTIVE SPACES:   1
ROTATE ACTIVE MOS TO DMOS IN EACH SUB-SPACE

SPACE  1:

OVERLAP BETWEEN ORTHONORMAL AND PRE-ORTHONORMAL REF. DMOS

             1           2           3           4           5

    1    0.9827370   0.0017252   0.0196879  -0.0063595  -0.0034280
    2    0.0017252   0.9412053   0.0780370   0.0110990  -0.0317556
    3    0.0196879   0.0780370   0.9899937   0.0351138  -0.0702265
    4   -0.0063595   0.0110990   0.0351138   0.9948627  -0.0076446
    5   -0.0034280  -0.0317556  -0.0702265  -0.0076446   1.1233268
    6   -0.0018895  -0.0417356   0.0650030   0.0201134  -0.0466235
    7    0.0025094  -0.0722134  -0.0109390  -0.0493076   0.0444113

             6           7

    1   -0.0018895   0.0025094
    2   -0.0417356  -0.0722134
    3    0.0650030  -0.0109390
    4    0.0201134  -0.0493076
    5   -0.0466235   0.0444113
    6    1.0366256   0.0127854
    7    0.0127854   1.0358564
REFERENCE DMOS AFTER ORTHONORMALIZATION:

                      1          2          3          4          5

    1  N  1  S    0.009255   0.006864   0.016685  -0.012725   0.250868
    2  N  1  S    0.451418   0.022112   0.048061  -0.181172   0.779515
    3  N  1  S    0.280174   0.005236   0.012462  -0.288723   0.129476
    4  N  1  X   -0.002506   0.487988  -0.007347   0.014595  -0.024833
    5  N  1  Y   -0.012470   0.051598   0.505939   0.027398  -0.004521
    6  N  1  Z    0.097492   0.013398   0.019649   0.600915   0.634464
    7  N  1  X    0.000023   0.225684  -0.025779  -0.000112   0.002713
    8  N  1  Y   -0.004451  -0.003273   0.215470  -0.004917   0.010911
    9  N  1  Z   -0.001986  -0.004953  -0.018958   0.384859  -0.094481
   10  N  1 XX   -0.000526   0.011905  -0.000778  -0.012568   0.005785
   11  N  1 YY   -0.000553  -0.011452   0.002352  -0.012415   0.005211
   12  N  1 ZZ    0.001079  -0.000453  -0.001574   0.024983  -0.010995
   13  N  1 XY    0.000250   0.000519  -0.012654   0.000504  -0.000807
   14  N  1 XZ    0.000146   0.030685  -0.006211  -0.000845   0.002085
   15  N  1 YZ   -0.000446  -0.003726   0.027058  -0.002795   0.003056
   16  H  2  S    0.191091  -0.296102   0.351634   0.080495  -0.443958
   17  H  2  S    0.002825  -0.042658   0.049732   0.018501  -0.044978
   18  H  2  X    0.018713   0.004271   0.019431   0.006825  -0.032046
   19  H  2  Y   -0.032629   0.032280  -0.019645  -0.014632   0.060069
   20  H  2  Z   -0.008972   0.010494  -0.018855   0.019478  -0.010279
   21  H  3  S    0.201678  -0.183940  -0.328948   0.162918  -0.530195
   22  H  3  S    0.004110  -0.023240  -0.042204   0.032438  -0.058797
   23  H  3  X    0.019481   0.011159  -0.027948   0.011959  -0.037581
   24  H  3  Y    0.033203  -0.025216  -0.018832   0.019767  -0.065312
   25  H  3  Z   -0.009616   0.009007   0.013955   0.018080  -0.008115
   26  H  4  S    0.200253   0.439693  -0.138283   0.099301  -0.433239
   27  H  4  S    0.004149   0.061483  -0.019763   0.021517  -0.042670
   28  H  4  X   -0.038385  -0.036001   0.014440  -0.017678   0.067113
   29  H  4  Y   -0.000379  -0.002433   0.021793  -0.001878   0.002172
   30  H  4  Z   -0.009334  -0.020616   0.001717   0.019008  -0.010006

                      6          7

    1  N  1  S    0.010911  -0.010864
    2  N  1  S    0.037787  -0.041556
    3  N  1  S    0.011607  -0.019620
    4  N  1  X   -0.879389   0.044550
    5  N  1  Y   -0.043630   0.909215
    6  N  1  Z    0.016335   0.002106
    7  N  1  X   -0.034576   0.015665
    8  N  1  Y   -0.013743   0.046769
    9  N  1  Z   -0.011002   0.021966
   10  N  1 XX    0.002515  -0.000051
   11  N  1 YY   -0.001598  -0.001570
   12  N  1 ZZ   -0.000917   0.001621
   13  N  1 XY    0.000744   0.001666
   14  N  1 XZ    0.040289   0.001533
   15  N  1 YZ   -0.001091  -0.038825
   16  H  2  S   -0.397581  -0.599119
   17  H  2  S   -0.069493  -0.109659
   18  H  2  X    0.000500  -0.034071
   19  H  2  Y    0.041105   0.037668
   20  H  2  Z    0.002501   0.005054
   21  H  3  S   -0.373684   0.626239
   22  H  3  S   -0.067083   0.113401
   23  H  3  X    0.002340   0.038820
   24  H  3  Y   -0.039892   0.041359
   25  H  3  Z    0.000598  -0.001155
   26  H  4  S    0.707133   0.044855
   27  H  4  S    0.129078   0.005614
   28  H  4  X   -0.059112  -0.005388
   29  H  4  Y   -0.000987  -0.023611
   30  H  4  Z   -0.005418  -0.000004

 -------------------------------------------
       MAXIMIZING MORMO OVERLAP TERM        
 -------------------------------------------
   SWEEP    VALUE       PROGRESS
     0     4.51721
     1     6.89378     2.37657327
     2     6.96192     0.06813934
     3     6.96192     0.00000138
     4     6.96192     0.00000000
     5     6.96192     0.00000000
 THE ROTATION IS DONE
FLIPPING SIGN FOR ORBITAL   7
ACTIVE ORBITALS AFTER MORMO:

                      1          2          3          4          5

    1  N  1  S    0.007886   0.006017   0.021838  -0.012184   0.207985
    2  N  1  S    0.433385   0.007898   0.045485  -0.187217   0.723918
    3  N  1  S    0.322500   0.015056  -0.014313  -0.277253   0.196157
    4  N  1  X   -0.007307   0.455489   0.014149   0.010629  -0.026715
    5  N  1  Y   -0.009923   0.067601   0.487440   0.034676  -0.017591
    6  N  1  Z    0.086678   0.016102   0.035599   0.601699   0.608805
    7  N  1  X    0.004854   0.268807  -0.082781  -0.010196   0.011050
    8  N  1  Y   -0.009301  -0.055432   0.216510  -0.042658   0.040015
    9  N  1  Z    0.020727  -0.014025  -0.051757   0.384590  -0.060063
   10  N  1 XX   -0.001708   0.011603  -0.004682  -0.008958   0.012080
   11  N  1 YY    0.001376  -0.011090   0.005261  -0.013081  -0.016951
   12  N  1 ZZ    0.000332  -0.000513  -0.000578   0.022039   0.004871
   13  N  1 XY    0.005177   0.006071  -0.016959  -0.000446  -0.047560
   14  N  1 XZ    0.001939   0.023451  -0.006027  -0.003007  -0.007007
   15  N  1 YZ    0.002389  -0.004692   0.018359  -0.002476  -0.030619
   16  H  2  S    0.185215  -0.222511   0.335706   0.092069  -0.460900
   17  H  2  S    0.002693  -0.101053   0.083594   0.024126  -0.058471
   18  H  2  X    0.005973   0.015358   0.005351   0.005957  -0.031916
   19  H  2  Y   -0.031975   0.020493  -0.023582  -0.016712   0.047539
   20  H  2  Z   -0.011634   0.007671  -0.025340   0.017472  -0.011428
   21  H  3  S    0.183036  -0.203610  -0.334540   0.132451  -0.523681
   22  H  3  S   -0.001092  -0.016551  -0.039297   0.033445  -0.060942
   23  H  3  X    0.020139  -0.000741  -0.030936   0.008379  -0.036623
   24  H  3  Y    0.029110  -0.029052  -0.020810   0.011104  -0.051864
   25  H  3  Z   -0.003497   0.006460   0.008806   0.021676  -0.010565
   26  H  4  S    0.186090   0.391307  -0.062570   0.098978  -0.436097
   27  H  4  S    0.005004   0.115048  -0.059670   0.029386  -0.053846
   28  H  4  X   -0.028837  -0.028218  -0.003279  -0.014457   0.054003
   29  H  4  Y   -0.013556  -0.023130   0.017920  -0.005419   0.003341
   30  H  4  Z   -0.008614  -0.020733  -0.006210   0.017800  -0.017019

                      6          7

    1  N  1  S    0.039677  -0.070885
    2  N  1  S    0.083215  -0.155525
    3  N  1  S   -0.050797   0.136642
    4  N  1  X   -0.886857   0.023158
    5  N  1  Y   -0.025086   0.885382
    6  N  1  Z    0.014323   0.025455
    7  N  1  X   -0.028709   0.059127
    8  N  1  Y   -0.054566   0.095040
    9  N  1  Z   -0.022446   0.021826
   10  N  1 XX    0.010376   0.037856
   11  N  1 YY   -0.019504  -0.021752
   12  N  1 ZZ    0.009127  -0.016104
   13  N  1 XY    0.031125   0.010899
   14  N  1 XZ    0.029872  -0.020218
   15  N  1 YZ    0.015630  -0.039890
   16  H  2  S   -0.322671  -0.599030
   17  H  2  S   -0.135691  -0.155939
   18  H  2  X    0.028298  -0.031949
   19  H  2  Y    0.033116   0.029162
   20  H  2  Z    0.020085   0.000447
   21  H  3  S   -0.373716   0.612970
   22  H  3  S   -0.068979   0.116918
   23  H  3  X   -0.017785   0.035482
   24  H  3  Y   -0.034369   0.044230
   25  H  3  Z   -0.013049   0.012679
   26  H  4  S    0.666658  -0.027064
   27  H  4  S    0.203234   0.032368
   28  H  4  X   -0.047065   0.014046
   29  H  4  Y   -0.021606  -0.035569
   30  H  4  Z   -0.003215  -0.020640

Actually Used Diabatic Molecualr Orbitals:

                      1          2          3          4          5

    1  N  1  S    0.007886   0.006017   0.021838  -0.012184   0.207985
    2  N  1  S    0.433385   0.007898   0.045485  -0.187217   0.723918
    3  N  1  S    0.322500   0.015056  -0.014313  -0.277253   0.196157
    4  N  1  X   -0.007307   0.455489   0.014149   0.010629  -0.026715
    5  N  1  Y   -0.009923   0.067601   0.487440   0.034676  -0.017591
    6  N  1  Z    0.086678   0.016102   0.035599   0.601699   0.608805
    7  N  1  X    0.004854   0.268807  -0.082781  -0.010196   0.011050
    8  N  1  Y   -0.009301  -0.055432   0.216510  -0.042658   0.040015
    9  N  1  Z    0.020727  -0.014025  -0.051757   0.384590  -0.060063
   10  N  1 XX   -0.001708   0.011603  -0.004682  -0.008958   0.012080
   11  N  1 YY    0.001376  -0.011090   0.005261  -0.013081  -0.016951
   12  N  1 ZZ    0.000332  -0.000513  -0.000578   0.022039   0.004871
   13  N  1 XY    0.005177   0.006071  -0.016959  -0.000446  -0.047560
[...]
      247    0.026250   -0.026250  2++-200
      122    0.025938    0.025938  +2-200+
      285    0.025130   -0.025130  02+2200
      284   -0.023924    0.023924  +-+2200
      144   -0.023650    0.023650  2-++200
      858    0.023622   -0.023622  +-+2002
      859    0.023524   -0.023524  02+2002
      753   -0.022314   -0.022314  202+002
       88   -0.022143    0.022143  202200+
       41   -0.021650    0.021650  22+-0+0
      145   -0.021521   -0.021521  -2++200
       38   -0.021008    0.021008  2202+00
       16    0.020458   -0.020458  222000+

 ---------------------------------------
    -DIABATIC STATES IN PROTOTYPES-     
 ---------------------------------------

     STATE:    1
 Group Ref#    Coefficients
     1    1    0.957056
     2    2   -0.003233
     3    3   -0.001001

WEIGHT OF LISTED PROTOTYPES:   91.60%

     STATE:    2
 Group Ref#    Coefficients
     1    1   -0.003233
     2    2    0.956879
     3    3   -0.001422

WEIGHT OF LISTED PROTOTYPES:   91.56%

     STATE:    3
 Group Ref#    Coefficients
     1    1   -0.001001
     2    2   -0.001422
     3    3    0.955829

WEIGHT OF LISTED PROTOTYPES:   91.36%

 --------------------------------------------------
 IN DIRECT MAX. DIABATIZATION FOR GMC-QDPT

 DIRECT MAXIMIZATION (DM) WITHOUT TRUNCATING ADIABATS
 EXPANSIONS INTO THE REFERENCE CONFIGURATION SPACE
 --------------------------------------------------

 -------------------------------------------
 - DM DIABT PT HAMILTONIAN MATRIX ELEMENTS -
 -------------------------------------------
                                            
 --- DIABATIC ENERGIES (DIAGONAL ELEMENT) ---       HARTREE            EV
 STATE #  1'S GMC-PT-LEVEL DIABATIC ENERGY=     -55.934959855       0.000000000
 STATE #  2'S GMC-PT-LEVEL DIABATIC ENERGY=     -55.796361687       3.771448245
 STATE #  3'S GMC-PT-LEVEL DIABATIC ENERGY=     -55.718934991       5.878335960

 --- DIABATIC COUPLINGS (OFF DIAGONAL ELEMENTS)---  HATREE            EV
 STATE #  1 &  2'S GMC-PT-LEVEL COUPLING  =      -0.015421182      -0.419631736
 STATE #  1 &  3'S GMC-PT-LEVEL COUPLING  =      -0.044708850      -1.216589770
 STATE #  2 &  3'S GMC-PT-LEVEL COUPLING  =       0.091039824       2.477319790

 ---------------------------------------
     - ROTATION TO DIABATIC STATES -    
 ---------------------------------------
 ROWS=ADIABATIC, COLUMNS=DIABATIC STATES

             1           2           3

    1   -0.9786764   0.0236128  -0.2040465
    2   -0.1291126  -0.8433166   0.5216772
    3    0.1597575  -0.5368981  -0.8283827

 ---------------------------------------
          - DIABATIC STATES -           
 ---------------------------------------

 State #    1  Energy =     -55.934959855

      Det      Coef        Coefp    Occupancy (Ignoring core)
      ---      ----        ----    --------- --------- -----
        1    0.937374   -0.937374  222+000
        8   -0.109942    0.109942  2-2+0+0
        3   -0.104448   -0.104448  22-++00
      141    0.101091    0.101091  22++-00
       18   -0.088461    0.088461  2-2+00+
      736    0.085392   -0.085392  2+2+00-
        7    0.083183    0.083183  22-+0+0
      386    0.079786   -0.079786  2+2+0-0
      351   -0.077368   -0.077368  22++0-0
      393   -0.071648   -0.071648  202+020
      717   -0.069196   -0.069196  220+002
       16   -0.069141    0.069141  222000+
       17    0.047448    0.047448  22-+00+
      708    0.038854   -0.038854  2-++0+-
      215   -0.038138   -0.038138  022+200
      402    0.037386   -0.037386  2+-+0-+
        4   -0.036731    0.036731  2-2++00
      176    0.035915   -0.035915  2+2+-00
      218    0.035348   -0.035348  +-2+-+0
      390    0.034714   -0.034714  -+2++-0
      705   -0.033737   -0.033737  -2+++0-
      227   -0.033681   -0.033681  +2-+-0+
      212    0.030308    0.030308  +220200
       76    0.030156    0.030156  2+2-0+0
      179   -0.028197   -0.028197  202+200
     1051   -0.026841   -0.026841  2+++0--
      113   -0.026821    0.026821  +-220+0
      387   -0.025798    0.025798  2+20+-0
       51   -0.025715    0.025715  22+-00+
       13    0.025440    0.025440  2--+++0
      773    0.025018   -0.025018  +2-++0-
      122    0.024904    0.024904  +2-200+
      424   -0.024784   -0.024784  +-2++-0
      184   -0.024307   -0.024307  -+2+-+0
      702    0.023836    0.023836  22+0+0-
       29   -0.023786   -0.023786  2--+0++
      159    0.023416   -0.023416  -2++-0+
      738   -0.022009   -0.022009  2+-++0-
      701   -0.021733   -0.021733  22++00-
      561    0.021581    0.021581  2+++--0
      158   -0.021426   -0.021426  2-++-0+

 State #    2  Energy =     -55.796361687

      Det      Coef        Coefp    Occupancy (Ignoring core)
      ---      ----        ----    --------- --------- -----
       71   -0.940862    0.940862  2+22000
      246    0.118408    0.118408  2++2-00
       73   -0.105096    0.105096  2+-2+00
       77    0.090101   -0.090101  2+-20+0
       88    0.084477   -0.084477  202200+
      736    0.083592   -0.083592  2+2+00-
      456   -0.082030   -0.082030  2++20-0
       86   -0.079500   -0.079500  2+2-00+
      822    0.069468   -0.069468  2+02002
       74    0.064245   -0.064245  2022+00
       78    0.055713   -0.055713  20220+0
       76    0.047182    0.047182  2+2-0+0
       36    0.043887    0.043887  22+2000
      813    0.043810   -0.043810  20+20+-
      320    0.038508    0.038508  0+22200
       72   -0.036605   -0.036605  2+2-+00
      323   -0.035860    0.035860  +022-+0
      111    0.035386   -0.035386  +22-0+0
       99   -0.035304    0.035304  20-20++
      810   -0.034776   -0.034776  -++2+0-
      386   -0.032843    0.032843  2+2+0-0
      332   -0.032573    0.032573  ++-2-0+
      180   -0.032219    0.032219  -+2+200
      317    0.032157   -0.032157  ++2-200
      177    0.031782   -0.031782  2+20200
      183   -0.031232    0.031232  202+-+0
       38   -0.029146    0.029146  2202+00
      113    0.027299   -0.027299  +-220+0
      807   -0.025847    0.025847  2++-+0-
      192   -0.025653    0.025653  2+-+-0+
      526   -0.025286   -0.025286  ++220-0
       81    0.024712    0.024712  202-++0
      878    0.024652    0.024652  ++-2+0-
       83    0.024081   -0.024081  20-2++0
      264    0.023585   -0.023585  -++2-0+
      391    0.023457   -0.023457  2+20020
      263   -0.023182   -0.023182  20+2-0+
      252   -0.022824   -0.022824  2+02-+0
        6    0.022585   -0.022585  22200+0
      529    0.022159    0.022159  +022+-0
       90    0.021574    0.021574  2+--+0+
       51    0.020327   -0.020327  22+-00+
      108   -0.020129   -0.020129  +2-2+00
      176    0.020009   -0.020009  2+2+-00
       89   -0.020006   -0.020006  -+2200+

 State #    3  Energy =     -55.718934991

      Det      Coef        Coefp    Occupancy (Ignoring core)
      ---      ----        ----    --------- --------- -----
       36   -0.941024   -0.941024  22+2000
       38    0.108902   -0.108902  2202+00
       53    0.101007    0.101007  2-+200+
      806   -0.096063   -0.096063  2++200-
       51   -0.086848    0.086848  22+-00+
      701    0.080583    0.080583  22++00-
      456   -0.079201   -0.079201  2++20-0
      463    0.075044   -0.075044  20+2020
       42   -0.073819    0.073819  22020+0
       43    0.071851    0.071851  2-+20+0
      106    0.053644    0.053644  +222000
       71   -0.046578    0.046578  2+22000
      472   -0.044721   -0.044721  2+020-+
      285    0.038548   -0.038548  02+2200
      460   -0.037153   -0.037153  -++2+-0
      121   -0.037018    0.037018  +22-00+
      246   -0.036692   -0.036692  2++2-00
      288   -0.036532   -0.036532  +-+2-+0
       64    0.035327   -0.035327  2-020++
      297    0.034424   -0.034424  +202-0+
      282    0.033353    0.033353  +2+-200
      112   -0.033259   -0.033259  +2-20+0
      145   -0.032740   -0.032740  -2++200
       37   -0.032509    0.032509  22+-+00
      249    0.031821   -0.031821  20+2200
      142    0.031570    0.031570  22+0200
      457   -0.030777    0.030777  2++-+-0
       73    0.029666   -0.029666  2+-2+00
      123    0.029412   -0.029412  +-2200+
      148   -0.029264   -0.029264  2-++-+0
      157    0.026075   -0.026075  220+-0+
      254    0.025488   -0.025488  -++2-+0
      494    0.025420   -0.025420  +-+2+-0
       16   -0.024645    0.024645  222000+
       44    0.023795   -0.023795  -2+20+0
       55   -0.022478   -0.022478  220-+0+
      808    0.022215   -0.022215  2+02+0-
      109   -0.021426    0.021426  +-22+00
      843   -0.021381   -0.021381  +202+0-
       46    0.020034   -0.020034  2-+-++0

 ---------------------------------------
      - DIABATIC STATES IN CMO -        
 ---------------------------------------

 State #    1  Energy =     -55.934959855

      Det      Coef        Coefp    Occupancy (Ignoring core)
      ---      ----        ----    --------- --------- -----
        1    0.946515   -0.946515  222+000
       71   -0.184905    0.184905  2+22000
       36    0.150603    0.150603  22+2000
      753   -0.064141   -0.064141  202+002
      357   -0.059510   -0.059510  220+020
      179   -0.051959   -0.051959  202+200
        7   -0.037204   -0.037204  22-+0+0
       18    0.034916   -0.034916  2-2+00+
      106   -0.034805   -0.034805  +222000
      180   -0.031526    0.031526  -+2+200
      193    0.031068   -0.031068  202+-0+
        2    0.030441   -0.030441  2220+00
      215   -0.028831   -0.028831  022+200
      177    0.028810   -0.028810  2+20200
      788   -0.028454   -0.028454  +-2+002
      143   -0.028395   -0.028395  220+200
      754    0.028282   -0.028282  -+2+002
       86   -0.027902   -0.027902  2+2-00+
      214    0.027499    0.027499  +-2+200
      739   -0.027005   -0.027005  202++0-
      752   -0.026947   -0.026947  2+-+002
      718    0.025669   -0.025669  2-++002
      789   -0.025030   -0.025030  022+002
      178    0.023720    0.023720  2+-+200
      123    0.023654   -0.023654  +-2200+
      717   -0.023029   -0.023029  220+002
      182    0.022692   -0.022692  2+-+-+0
      742   -0.022654   -0.022654  2+-+0+-
      368   -0.022468   -0.022468  2-++0-+
      212    0.021742    0.021742  +220200
       41    0.021621   -0.021621  22+-0+0
      427   -0.021602    0.021602  +2-+020
      355    0.021509    0.021509  -2+++-0
      356   -0.021313   -0.021313  22+0020
       74   -0.021141    0.021141  2022+00
      359    0.020742    0.020742  -2++020
      112   -0.020481   -0.020481  +2-20+0
      217    0.020441    0.020441  +2-+-+0

 State #    2  Energy =     -55.796361687

      Det      Coef        Coefp    Occupancy (Ignoring core)
      ---      ----        ----    --------- --------- -----
       71   -0.828486    0.828486  2+22000
       36   -0.519085   -0.519085  22+2000
        1   -0.078985    0.078985  222+000
      823    0.062655   -0.062655  20+2002
      462    0.044718   -0.044718  2+02020
      822    0.038225   -0.038225  2+02002
      108   -0.034540   -0.034540  +2-2+00
      177    0.029628   -0.029628  2+20200
      111    0.026946   -0.026946  +22-0+0
      320    0.026146    0.026146  0+22200
      809    0.026125   -0.026125  20+2+0-
      824   -0.025850   -0.025850  -++2002
      893    0.024352    0.024352  +022002
      107   -0.024121    0.024121  +22-+00
       93   -0.023515    0.023515  20-2+0+
      319   -0.023162   -0.023162  +022200
       73   -0.022799    0.022799  2+-2+00
       91   -0.022024   -0.022024  202-+0+
      894    0.022012    0.022012  0+22002
      391    0.020498   -0.020498  2+20020

 State #    3  Energy =     -55.718934991

      Det      Coef        Coefp    Occupancy (Ignoring core)
      ---      ----        ----    --------- --------- -----
       36   -0.812142   -0.812142  22+2000
       71    0.494628   -0.494628  2+22000
        1    0.226643   -0.226643  222+000
      249    0.053388   -0.053388  20+2200
      823    0.042085   -0.042085  20+2002
      462   -0.035877    0.035877  2+02020
      248   -0.035372    0.035372  2+02200
      123   -0.034291    0.034291  +-2200+
      109   -0.033222    0.033222  +-22+00
      263   -0.031847   -0.031847  20+2-0+
      250    0.029595    0.029595  -++2200
      142    0.029495    0.029495  22+0200
      111    0.029343   -0.029343  +22-0+0
       74    0.028815   -0.028815  2022+00
      121    0.026919   -0.026919  +22-00+
      247    0.026250   -0.026250  2++-200
      122    0.025938    0.025938  +2-200+
      285    0.025130   -0.025130  02+2200
      284   -0.023924    0.023924  +-+2200
      144   -0.023650    0.023650  2-++200
      858    0.023622   -0.023622  +-+2002
      859    0.023524   -0.023524  02+2002
      753   -0.022314   -0.022314  202+002
       88   -0.022143    0.022143  202200+
       41   -0.021650    0.021650  22+-0+0
      145   -0.021521   -0.021521  -2++200
       38   -0.021008    0.021008  2202+00
       16    0.020458   -0.020458  222000+

 ---------------------------------------
    -DIABATIC STATES IN PROTOTYPES-     
 ---------------------------------------

     STATE:    1
 Group Ref#    Coefficients
     1    1    0.957056
     2    2   -0.003233
     3    3   -0.001000

WEIGHT OF LISTED PROTOTYPES:   91.60%

     STATE:    2
 Group Ref#    Coefficients
     1    1   -0.003233
     2    2    0.956879
     3    3   -0.001421

WEIGHT OF LISTED PROTOTYPES:   91.56%

     STATE:    3
 Group Ref#    Coefficients
     1    1   -0.001002
     2    2   -0.001423
     3    3    0.955829

WEIGHT OF LISTED PROTOTYPES:   91.36%

     DIRECT MAX. DIABATIZATION FINISHED    
 CPU     0: STEP CPU TIME=     0.24 TOTAL CPU TIME=         14.2 (      0.2 MIN)
 TOTAL WALL CLOCK TIME=         14.3 SECONDS, CPU UTILIZATION IS    99.93%

DIABATS FOR SPIN-ORBIT CALCULATION ARE READY

TRANSITION DIPOLES BETWEEN ADIABATS (in A.U.):

STATE PAIR      X         Y         Z
    1    1  0.123097  0.306355  0.718618
    2    1 -0.037292  0.041168  0.063880
    2    2 -0.028620  0.173572  0.275988
    3    1  0.073274  0.100555 -0.076697
    3    2 -0.118547  0.043055 -0.000146
    3    3  0.251910  0.566273  0.240275


TRANSITION DIPOLES BETWEEN DIABATS (in A.U.):

STATE PAIR      X         Y         Z
    1    1  0.096408  0.287959  0.739164
    2    1 -0.011701  0.047500  0.004782
    2    2 -0.055393  0.321645  0.265208
    3    1  0.045686  0.041049  0.002480
    3    2  0.074142  0.208676 -0.013200
    3    3  0.305371  0.436596  0.230509

TRANSITION DIPOLES BETWEEN DIRECT MAX. DIABATS (in A.U.):

STATE PAIR      X         Y         Z
    1    1  0.096408  0.287959  0.739164
    2    1 -0.011701  0.047500  0.004782
    2    2 -0.055392  0.321645  0.265208
    3    1  0.045686  0.041050  0.002479
    3    2  0.074142  0.208676 -0.013200
    3    3  0.305371  0.436596  0.230509
 No $TRANST Group Found.
 Quit without doing spin-orbit coupling
 ..... DONE WITH MP2 ENERGY .....
 CPU     0: STEP CPU TIME=     0.01 TOTAL CPU TIME=         14.3 (      0.2 MIN)
 TOTAL WALL CLOCK TIME=         14.3 SECONDS, CPU UTILIZATION IS    99.93%
            100000000  WORDS OF DYNAMIC MEMORY USED
 EXECUTION OF GAMESS TERMINATED NORMALLY Wed Nov 16 20:10:20 2022
 DDI: 715512 bytes (0.7 MB / 0 MWords) used by master data server.

 ----------------------------------------
 CPU timing information for all processes
 ========================================
 0: 13.971 + 0.296 = 14.268
 ----------------------------------------
Note: The following floating-point exceptions are signalling: IEEE_DENORMAL
 ddikick.x: exited gracefully.
unset echo
----- accounting info -----
Files used on the master node io002 were:
-rw-r--r-- 1 bsonghao nooijen   20728 Nov 16 20:10 /scratch/bsonghao/nh3_diabatization_2d_at_mode_7_8_dist0.6_0.2.F05
-rw-r--r-- 1 bsonghao nooijen  363520 Nov 16 20:10 /scratch/bsonghao/nh3_diabatization_2d_at_mode_7_8_dist0.6_0.2.F09
-rw-r--r-- 1 bsonghao nooijen 1995920 Nov 16 20:10 /scratch/bsonghao/nh3_diabatization_2d_at_mode_7_8_dist0.6_0.2.F10
-rw-r--r-- 1 bsonghao nooijen  131264 Nov 16 20:10 /scratch/bsonghao/nh3_diabatization_2d_at_mode_7_8_dist0.6_0.2.F13
-rw-r--r-- 1 bsonghao nooijen  180312 Nov 16 20:10 /scratch/bsonghao/nh3_diabatization_2d_at_mode_7_8_dist0.6_0.2.F15
-rw-r--r-- 1 bsonghao nooijen       0 Nov 16 20:10 /scratch/bsonghao/nh3_diabatization_2d_at_mode_7_8_dist0.6_0.2.F16
-rw-r--r-- 1 bsonghao nooijen    9808 Nov 16 20:10 /scratch/bsonghao/nh3_diabatization_2d_at_mode_7_8_dist0.6_0.2.F70
-rw-r--r-- 1 bsonghao nooijen    9808 Nov 16 20:10 /scratch/bsonghao/nh3_diabatization_2d_at_mode_7_8_dist0.6_0.2.F71
-rw-r--r-- 1 bsonghao nooijen   19608 Nov 16 20:10 /scratch/bsonghao/nh3_diabatization_2d_at_mode_7_8_dist0.6_0.2.F72
-rw-r--r-- 1 bsonghao nooijen   19608 Nov 16 20:10 /scratch/bsonghao/nh3_diabatization_2d_at_mode_7_8_dist0.6_0.2.F73
-rw-r--r-- 1 bsonghao nooijen 1920824 Nov 16 20:10 /scratch/bsonghao/nh3_diabatization_2d_at_mode_7_8_dist0.6_0.2.F74
-rw-r--r-- 1 bsonghao nooijen       0 Nov 16 20:10 /scratch/bsonghao/nh3_diabatization_2d_at_mode_7_8_dist0.6_0.2.F75
-rw-r--r-- 1 bsonghao nooijen   58848 Nov 16 20:10 /scratch/bsonghao/nh3_diabatization_2d_at_mode_7_8_dist0.6_0.2.F76
-rw-r--r-- 1 bsonghao nooijen       0 Nov 16 20:10 /scratch/bsonghao/nh3_diabatization_2d_at_mode_7_8_dist0.6_0.2.F77
-rw-r--r-- 1 bsonghao nooijen    1864 Nov 16 20:10 /scratch/bsonghao/nh3_diabatization_2d_at_mode_7_8_dist0.6_0.2.F78
-rw-r--r-- 1 bsonghao nooijen   39208 Nov 16 20:10 /scratch/bsonghao/nh3_diabatization_2d_at_mode_7_8_dist0.6_0.2.F79
-rw-r--r-- 1 bsonghao nooijen     104 Nov 16 20:10 /scratch/bsonghao/nh3_diabatization_2d_at_mode_7_8_dist0.6_0.2.F80
-rw-r--r-- 1 bsonghao nooijen   13472 Nov 16 20:10 /scratch/bsonghao/nh3_diabatization_2d_at_mode_7_8_dist0.6_0.2.F81
-rw-r--r-- 1 bsonghao nooijen      16 Nov 16 20:10 /scratch/bsonghao/nh3_diabatization_2d_at_mode_7_8_dist0.6_0.2.F82
-rw-r--r-- 1 bsonghao nooijen   19216 Nov 16 20:10 /scratch/bsonghao/nh3_diabatization_2d_at_mode_7_8_dist0.6_0.2.F83
-rw-r--r-- 1 bsonghao nooijen   29712 Nov 16 20:10 /scratch/bsonghao/nh3_diabatization_2d_at_mode_7_8_dist0.6_0.2.F84
-rw-r--r-- 1 bsonghao nooijen  401576 Nov 16 20:10 /scratch/bsonghao/nh3_diabatization_2d_at_mode_7_8_dist0.6_0.2.F85
-rw-r--r-- 1 bsonghao nooijen  903672 Nov 16 20:10 /scratch/bsonghao/nh3_diabatization_2d_at_mode_7_8_dist0.6_0.2.F86
-rw-r--r-- 1 bsonghao nooijen     656 Nov 16 20:10 /scratch/bsonghao/nh3_diabatization_2d_at_mode_7_8_dist0.6_0.2.F87
-rw-r--r-- 1 bsonghao nooijen   36944 Nov 16 20:10 /scratch/bsonghao/nh3_diabatization_2d_at_mode_7_8_dist0.6_0.2.F88
-rw-r--r-- 1 bsonghao nooijen     240 Nov 16 20:10 /scratch/bsonghao/nh3_diabatization_2d_at_mode_7_8_dist0.6_0.2.F89
-rw-r--r-- 1 bsonghao nooijen       0 Nov 16 20:10 /scratch/bsonghao/nh3_diabatization_2d_at_mode_7_8_dist0.6_0.2.F90
-rw-r--r-- 1 bsonghao nooijen   13760 Nov 16 20:10 /scratch/bsonghao/nh3_diabatization_2d_at_mode_7_8_dist0.6_0.2.F91
-rw-r--r-- 1 bsonghao nooijen   22776 Nov 16 20:10 /scratch/bsonghao/nh3_diabatization_2d_at_mode_7_8_dist0.6_0.2.F92
-rw-r--r-- 1 bsonghao nooijen   23168 Nov 16 20:10 /scratch/bsonghao/nh3_diabatization_2d_at_mode_7_8_dist0.6_0.2.F93
-rw-r--r-- 1 bsonghao nooijen   22776 Nov 16 20:10 /scratch/bsonghao/nh3_diabatization_2d_at_mode_7_8_dist0.6_0.2.F94
-rw-r--r-- 1 bsonghao nooijen   13760 Nov 16 20:10 /scratch/bsonghao/nh3_diabatization_2d_at_mode_7_8_dist0.6_0.2.F95
-rw-r--r-- 1 bsonghao nooijen   29440 Nov 16 20:10 /scratch/bsonghao/nh3_diabatization_2d_at_mode_7_8_dist0.6_0.2.F96
-rw-r--r-- 1 bsonghao nooijen    1184 Nov 16 20:10 /scratch/bsonghao/nh3_diabatization_2d_at_mode_7_8_dist0.6_0.2.F97
-rw-r--r-- 1 bsonghao nooijen    9808 Nov 16 20:10 /scratch/bsonghao/nh3_diabatization_2d_at_mode_7_8_dist0.6_0.2.F98
-rw-r--r-- 1 bsonghao nooijen   30264 Nov 16 20:10 /scratch/bsonghao/nh3_diabatization_2d_at_mode_7_8_dist0.6_0.2.F99
ls: No match.
ls: No match.
ls: No match.
Wed 16 Nov 2022 08:10:23 PM EST
0.298u 0.032s 0:17.64 1.8%	0+0k 48+224io 0pf+0w
