----- GAMESS execution script 'rungms' -----
This job is running on host io002
under operating system Linux at Wed 16 Nov 2022 07:46:58 PM EST
Available scratch disk space (Kbyte units) at beginning of the job is
Filesystem       1K-blocks       Used   Available Use% Mounted on
/dev/sdc1      15378471580 3278917120 11318349060  23% /scratch
GAMESS temporary binary files will be written to /scratch/bsonghao
GAMESS supplementary output files will be written to /home/bsonghao/.gamess_ascii_files/267638
Copying input file nh3_diabatization_2d_at_mode_7_8_dist0.3_0.3.inp to your run's scratch directory...
cp nh3_diabatization_2d_at_mode_7_8_dist0.3_0.3.inp /scratch/bsonghao/nh3_diabatization_2d_at_mode_7_8_dist0.3_0.3.F05
unset echo
/home/bjb2chen/gamess/ddikick.x /home/bjb2chen/gamess/gamess.00.x nh3_diabatization_2d_at_mode_7_8_dist0.3_0.3 -ddi 1 1 io002 -scr /scratch/bsonghao

 Distributed Data Interface kickoff program.
 Initiating 1 compute processes on 1 nodes to run the following command:
 /home/bjb2chen/gamess/gamess.00.x nh3_diabatization_2d_at_mode_7_8_dist0.3_0.3 

          ******************************************************
          *         GAMESS VERSION = 02 AUG 2018 (R2)         *
          *             FROM IOWA STATE UNIVERSITY             *
          * M.W.SCHMIDT, K.K.BALDRIDGE, J.A.BOATZ, S.T.ELBERT, *
          *   M.S.GORDON, J.H.JENSEN, S.KOSEKI, N.MATSUNAGA,   *
          *          K.A.NGUYEN, S.J.SU, T.L.WINDUS,           *
          *       TOGETHER WITH M.DUPUIS, J.A.MONTGOMERY       *
          *         J.COMPUT.CHEM.  14, 1347-1363(1993)        *
          **************** 64 BIT LINUX VERSION ****************

  SINCE 1993, STUDENTS AND POSTDOCS WORKING AT IOWA STATE UNIVERSITY
  AND ALSO IN THEIR VARIOUS JOBS AFTER LEAVING ISU HAVE MADE IMPORTANT
  CONTRIBUTIONS TO THE CODE:
     IVANA ADAMOVIC, CHRISTINE AIKENS, YURI ALEXEEV, POOJA ARORA,
     ANDREY ASADCHEV, ROB BELL, PRADIPTA BANDYOPADHYAY, JONATHAN BENTZ,
     BRETT BODE, KURT BRORSEN, CALEB CARLIN, GALINA CHABAN, WEI CHEN,
     CHEOL HO CHOI, PAUL DAY, ALBERT DEFUSCO, NUWAN DESILVA, TIM DUDLEY,
     DMITRI FEDOROV, ALEX FINDLATER, GRAHAM FLETCHER, MARK FREITAG,
     KURT GLAESEMANN, ANASTASIA GUININA,
     DAN KEMP, GRANT MERRILL, NORIYUKI MINEZAWA, JONATHAN MULLIN,
     TAKESHI NAGATA, SEAN NEDD, HEATHER NETZLOFF, BOSILJKA NJEGIC, RYAN OLSON,
     MIKE PAK, BUU PHAM,
     SPENCER PRUITT, LUKE ROSKOP, JIM SHOEMAKER, LYUDMILA SLIPCHENKO,
     TONY SMITH, SAROM SOK LEANG, JIE SONG, TETSUYA TAKETSUGU, SIMON WEBB,
     PENG XU, SOOHAENG YOO, FEDERICO ZAHARIEV

  ADDITIONAL CODE HAS BEEN PROVIDED BY COLLABORATORS IN OTHER GROUPS:
     IOWA STATE UNIVERSITY:
          JOE IVANIC, AARON WEST, LAIMUTIS BYTAUTAS, KLAUS RUEDENBERG
     UNIVERSITY OF TOKYO: KIMIHIKO HIRAO, TAKAHITO NAKAJIMA,
          TAKAO TSUNEDA, MUNEAKI KAMIYA, SUSUMU YANAGISAWA,
          KIYOSHI YAGI, MAHITO CHIBA, SEIKEN TOKURA, NAOAKI KAWAKAMI
     UNIVERSITY OF AARHUS: FRANK JENSEN
     UNIVERSITY OF IOWA: VISVALDAS KAIRYS, HUI LI
     NATIONAL INST. OF STANDARDS AND TECHNOLOGY: WALT STEVENS, DAVID GARMER
     UNIVERSITY OF PISA: BENEDETTA MENNUCCI, JACOPO TOMASI
     UNIVERSITY OF MEMPHIS: HENRY KURTZ, PRAKASHAN KORAMBATH
     UNIVERSITY OF ALBERTA: TOBY ZENG, MARIUSZ KLOBUKOWSKI
     UNIVERSITY OF NEW ENGLAND: MARK SPACKMAN
     MIE UNIVERSITY: HIROAKI UMEDA
     NAT. INST. OF ADVANCED INDUSTRIAL SCIENCE AND TECHNOLOGY: KAZUO KITAURA
     MICHIGAN STATE UNIVERSITY:
          KAROL KOWALSKI, MARTA WLOCH, JEFFREY GOUR, JESSE LUTZ,
          WEI LI, JUN SHEN, J. EMILIANO DEUSTUA, PIOTR PIECUCH
     UNIVERSITY OF MINNESOTA:
          YINAN SHU
     UNIVERSITY OF SILESIA: MONIKA MUSIAL, STANISLAW KUCHARSKI
     FACULTES UNIVERSITAIRES NOTRE-DAME DE LA PAIX:
          OLIVIER QUINET, BENOIT CHAMPAGNE
     UNIVERSITY OF CALIFORNIA - SANTA BARBARA: BERNARD KIRTMAN
     INSTITUTE FOR MOLECULAR SCIENCE:
          KAZUYA ISHIMURA, MICHIO KATOUDA, AND SHIGERU NAGASE
     UNIVERSITY OF NOTRE DAME: ANNA POMOGAEVA, DAN CHIPMAN
     KYUSHU UNIVERSITY:
          HARUYUKI NAKANO,
          FENG LONG GU, JACEK KORCHOWIEC, MARCIN MAKOWSKI, AND YURIKO AOKI,
          HIROTOSHI MORI AND EISAKU MIYOSHI
     PENNSYLVANIA STATE UNIVERSITY:
          TZVETELIN IORDANOV, CHET SWALINA, JONATHAN SKONE,
          SHARON HAMMES-SCHIFFER
     WASEDA UNIVERSITY:
          MASATO KOBAYASHI, TOMOKO AKAMA, TSUGUKI TOUMA,
          TAKESHI YOSHIKAWA, YASUHIRO IKABATA, JUNJI SEINO,
          YUYA NAKAJIMA, HIROMI NAKAI
     NANJING UNIVERSITY: SHUHUA LI
     UNIVERSITY OF NEBRASKA:
          PEIFENG SU, DEJUN SI, NANDUN THELLAMUREGE, YALI WANG, HUI LI
     UNIVERSITY OF ZURICH: ROBERTO PEVERATI, KIM BALDRIDGE
     N. COPERNICUS UNIVERSITY AND JACKSON STATE UNIVERSITY:
          MARIA BARYSZ
     UNIVERSITY OF COPENHAGEN: Jimmy Kromann, CASPER STEINMANN
     TOKYO INSTITUTE OF TECHNOLOGY: HIROYA NAKATA
     NAGOYA UNIVERSITY: YOSHIO NISHIMOTO, STEPHAN IRLE
     MOSCOW STATE UNIVERSITY: VLADIMIR MIRONOV

 EXECUTION OF GAMESS BEGUN Wed Nov 16 19:46:59 2022

            ECHO OF THE FIRST FEW INPUT CARDS -
 INPUT CARD> $system kdiag=3 mwords=100 memddi=1000 parall=.t. $end                         
 INPUT CARD> $contrl runtyp=energy ispher=1 $end                                            
 INPUT CARD> $contrl icut=9 itol=20 inttyp=rysquad qmttol=1.0d-05 nosym=1 $end              
 INPUT CARD> $scf    npunch=2 conv=1.0d-06 dirscf=.t.      $end                             
 INPUT CARD> $contrl scftyp=mcscf  mult=2 maxit=200 icharg=1 mplevl=2 $end                  
 INPUT CARD> $guess  guess=moread norb=29 purify=.t. $end                                   
 INPUT CARD> $basis  gbasis=ccd $end                                                        
 INPUT CARD> $mcscf  cistep=gmcci fullnr=.t. finci=mos                                      
 INPUT CARD>         acurcy=1.d-6 maxit=100 $end                                            
 INPUT CARD> $trans  dirtrf=.t. $end                                                        
 INPUT CARD> $mrmp   mrpt=gmcpt rdvecs=.f. $end                                             
 INPUT CARD> $gmcpt  nmofzc=0 nmodoc=1 nmoact=7 nelact=7 stsym(1)=A                         
 INPUT CARD>         reftyp=ormas nspace=1 mstart(1)=2 mine(1)=7 maxe(1)=7                  
 INPUT CARD>         kstate(1)=1,1,1                                                        
 INPUT CARD>         wstate(1)=1,1,1                                                        
 INPUT CARD>         iwgt=0 thrwgt=-1.0 krot=.f. kszdoe=.f. knospn=.f.                      
 INPUT CARD>         thrde=-1.0 edshft=0.02 $end                                            
 INPUT CARD> $data                                                                          
 INPUT CARD> NH3+ 3 states calculation at NH3 structure.                                    
 INPUT CARD> c1                                                                             
 INPUT CARD>N 7.0 -0.018686754000000003 -0.018686709000000003 -0.1693808462                 
 INPUT CARD>H 1.0 -0.19794900399999998 0.9409729768 0.28544713110000003                     
 INPUT CARD>H 1.0 -0.427224961 -0.9002420638 0.1482827001                                   
 INPUT CARD>H 1.0 0.884831414 0.21892723800000002 0.33565333410000003                       
 INPUT CARD>$end                                                                            
 INPUT CARD>--- OPTIMIZED RHF      MO-S --- GENERATED AT Mon Nov 14 16:47:08 2022           
 INPUT CARD>E=      -56.3825050291, E(NUC)=   11.8429239490                                 
 INPUT CARD> $VEC                                                                           
 INPUT CARD> 1  1-1.00134066E+00-2.25158504E-03 3.44925845E-03 0.00000000E+00 0.00000000E+00
 INPUT CARD> 1  2-2.13170927E-03 0.00000000E+00 0.00000000E+00 6.57129898E-04-6.87950443E-05
 INPUT CARD> 1  3-6.87950443E-05 1.37590089E-04 0.00000000E+00 0.00000000E+00 0.00000000E+00
 INPUT CARD> 1  4 3.25502815E-04-4.84772356E-04 3.62525460E-04-6.27912517E-04-3.45956485E-04
 INPUT CARD> 1  5 3.25502815E-04-4.84772356E-04 3.62525460E-04 6.27912517E-04-3.45956485E-04
 INPUT CARD> 1  6 3.25502815E-04-4.84772356E-04-7.25050921E-04 0.00000000E+00-3.45956485E-04
 INPUT CARD> 2  1 1.31286642E-02-4.05911371E-01-2.82090992E-01 0.00000000E+00 0.00000000E+00
 INPUT CARD> 2  2-7.71489043E-02 0.00000000E+00 0.00000000E+00 9.73717494E-03 6.62450916E-04
 INPUT CARD> 2  3 6.62450916E-04-1.32490183E-03 0.00000000E+00 0.00000000E+00 0.00000000E+00
 INPUT CARD> 2  4-1.96090317E-01-1.96656153E-02-1.74855877E-02 3.02859263E-02 8.68214399E-03
 INPUT CARD> 2  5-1.96090317E-01-1.96656153E-02-1.74855877E-02-3.02859263E-02 8.68214399E-03
 INPUT CARD> 2  6-1.96090317E-01-1.96656153E-02 3.49711754E-02 0.00000000E+00 8.68214399E-03
 INPUT CARD> 3  1 0.00000000E+00 0.00000000E+00 0.00000000E+00 4.48608762E-01 0.00000000E+00
 INPUT CARD> 3  2 0.00000000E+00 2.18692520E-01 0.00000000E+00 0.00000000E+00 1.30198027E-02
 INPUT CARD> 3  3-1.30198027E-02 0.00000000E+00 0.00000000E+00 2.71832968E-02 0.00000000E+00
 INPUT CARD> 3  4-1.85332726E-01-7.03958951E-02 8.47929477E-03 1.95242443E-02 8.32835058E-03
 INPUT CARD> 3  5-1.85332726E-01-7.03958951E-02 8.47929477E-03-1.95242443E-02 8.32835058E-03
 INPUT CARD> 3  6 3.70665453E-01 1.40791790E-01-2.53376884E-02 0.00000000E+00-1.66567012E-02
 INPUT CARD> 4  1 0.00000000E+00 0.00000000E+00 0.00000000E+00 0.00000000E+00 4.48608762E-01
 INPUT CARD> 4  2 0.00000000E+00 0.00000000E+00 2.18692520E-01 0.00000000E+00 0.00000000E+00
 INPUT CARD> 4  3 0.00000000E+00 0.00000000E+00-1.50339731E-02 0.00000000E+00 2.71832968E-02
 INPUT CARD> 4  4 3.21005698E-01 1.21929267E-01 1.95242443E-02-1.40653607E-02-1.44251263E-02
  100000000 WORDS OF MEMORY AVAILABLE

     BASIS OPTIONS
     -------------
     GBASIS=CCD          IGAUSS=       0      POLAR=NONE    
     NDFUNC=       0     NFFUNC=       0     DIFFSP=       F
     NPFUNC=       0      DIFFS=       F     BASNAM=        


     RUN TITLE
     ---------
  NH3+ 3 states calculation at NH3 structure.                                    

 THE POINT GROUP OF THE MOLECULE IS C1      
 THE ORDER OF THE PRINCIPAL AXIS IS     0

 ATOM      ATOMIC                      COORDINATES (BOHR)
           CHARGE         X                   Y                   Z
 N           7.0    -0.0353128447       -0.0353127596       -0.3200833869
 H           1.0    -0.3740693771        1.7781810880        0.5394168618
 H           1.0    -0.8073381114       -1.7012108232        0.2802136719
 H           1.0     1.6720889178        0.4137124911        0.6342928283

          INTERNUCLEAR DISTANCES (ANGS.)
          ------------------------------

                1 N          2 H          3 H          4 H     

   1 N       0.0000000    1.0770098 *  1.0222296 *  1.0620099 *
   2 H       1.0770098 *  0.0000000    1.8604984 *  1.3024147 *
   3 H       1.0222296 *  1.8604984 *  0.0000000    1.7346872 *
   4 H       1.0620099 *  1.3024147 *  1.7346872 *  0.0000000  

  * ... LESS THAN  3.000


     ATOMIC BASIS SET
     ----------------
 THE CONTRACTED PRIMITIVE FUNCTIONS HAVE BEEN UNNORMALIZED
 THE CONTRACTED BASIS FUNCTIONS ARE NOW NORMALIZED TO UNITY

  SHELL TYPE  PRIMITIVE        EXPONENT          CONTRACTION COEFFICIENT(S)

 N         

      1   S       1          9046.0000000    0.000699617413
      1   S       2          1357.0000000    0.005386054630
      1   S       3           309.3000000    0.027391021189
      1   S       4            87.7300000    0.103150591982
      1   S       5            28.5600000    0.278570663317
      1   S       6            10.2100000    0.448294849454
      1   S       7             3.8380000    0.278085928395
      1   S       8             0.7466000    0.015431561233

      2   S       9          9046.0000000   -0.000304990096
      2   S      10          1357.0000000   -0.002408026379
      2   S      11           309.3000000   -0.011944448725
      2   S      12            87.7300000   -0.048925992909
      2   S      13            28.5600000   -0.134472724725
      2   S      14            10.2100000   -0.315112577700
      2   S      15             3.8380000   -0.242857832550
      2   S      16             0.7466000    1.094382206854

      3   S      17             0.2248000    1.000000000000

      4   P      18            13.5500000    0.058905676772
      4   P      19             2.9170000    0.320461106714
      4   P      20             0.7973000    0.753042061792

      5   P      21             0.2185000    1.000000000000

      6   D      22             0.8170000    1.000000000000

 H         

      7   S      23            13.0100000    0.033498726390
      7   S      24             1.9620000    0.234800801174
      7   S      25             0.4446000    0.813682957883

      8   S      26             0.1220000    1.000000000000

      9   P      27             0.7270000    1.000000000000

 H         

     10   S      28            13.0100000    0.033498726390
     10   S      29             1.9620000    0.234800801174
     10   S      30             0.4446000    0.813682957883

     11   S      31             0.1220000    1.000000000000

     12   P      32             0.7270000    1.000000000000

 H         

     13   S      33            13.0100000    0.033498726390
     13   S      34             1.9620000    0.234800801174
     13   S      35             0.4446000    0.813682957883

     14   S      36             0.1220000    1.000000000000

     15   P      37             0.7270000    1.000000000000

 TOTAL NUMBER OF BASIS SET SHELLS             =   15
 NUMBER OF CARTESIAN GAUSSIAN BASIS FUNCTIONS =   30
 NOTE: THIS RUN WILL RESTRICT THE MO VARIATION SPACE TO SPHERICAL HARMONICS.
 THE NUMBER OF ORBITALS KEPT IN THE VARIATIONAL SPACE WILL BE PRINTED LATER.
 NUMBER OF ELECTRONS                          =    9
 CHARGE OF MOLECULE                           =    1
 SPIN MULTIPLICITY                            =    2
 NUMBER OF OCCUPIED ORBITALS (ALPHA)          =    5
 NUMBER OF OCCUPIED ORBITALS (BETA )          =    4
 TOTAL NUMBER OF ATOMS                        =    4
 THE NUCLEAR REPULSION ENERGY IS       11.5468044275

     $CONTRL OPTIONS
     ---------------
 SCFTYP=MCSCF        RUNTYP=ENERGY       EXETYP=RUN     
 MPLEVL=       2     CITYP =NONE         CCTYP =NONE         VBTYP =NONE    
 DFTTYP=NONE         TDDFT =NONE    
 MULT  =       2     ICHARG=       1     NZVAR =       0     COORD =UNIQUE  
 PP    =NONE         RELWFN=NONE         LOCAL =NONE         NUMGRD=       F
 ISPHER=       1     NOSYM =       1     MAXIT =     200     UNITS =ANGS    
 PLTORB=       F     MOLPLT=       F     AIMPAC=       F     FRIEND=        
 NPRINT=       7     IREST =       0     GEOM  =INPUT   
 NORMF =       0     NORMP =       0     ITOL  =      20     ICUT  =       9
 INTTYP=RYSQUAD      GRDTYP=BEST         QMTTOL= 1.0E-05

     $SYSTEM OPTIONS
     ---------------
  REPLICATED MEMORY=   100000000 WORDS (ON EVERY NODE).
 DISTRIBUTED MEMDDI=        1000 MILLION WORDS IN AGGREGATE,
 MEMDDI DISTRIBUTED OVER   1 PROCESSORS IS  1000000000 WORDS/PROCESSOR.
 TOTAL MEMORY REQUESTED ON EACH PROCESSOR=  1100000000 WORDS.
 TIMLIM=      525600.00 MINUTES, OR     365.0 DAYS.
 PARALL= T  BALTYP=  DLB     KDIAG=    3  COREFL= F
 MXSEQ2=     300 MXSEQ3=     150  mem10=         0

          ----------------
          PROPERTIES INPUT
          ----------------

     MOMENTS            FIELD           POTENTIAL          DENSITY
 IEMOM =       1   IEFLD =       0   IEPOT =       0   IEDEN =       0
 WHERE =COMASS     WHERE =NUCLEI     WHERE =NUCLEI     WHERE =NUCLEI  
 OUTPUT=BOTH       OUTPUT=BOTH       OUTPUT=BOTH       OUTPUT=BOTH    
 IEMINT=       0   IEFINT=       0                     IEDINT=       0
                                                       MORB  =       0

     -------------------------------
     INTEGRAL TRANSFORMATION OPTIONS
     -------------------------------
     NWORD  =            0
     CUTOFF = 1.0E-09     MPTRAN =       0
     DIRTRF =       T     AOINTS =DUP     

          ----------------------
          MCSCF INPUT PARAMETERS
          ----------------------
 CONVERGER SELECTION: FOCAS = F  SOSCF = F  FULLNR = T  QUD = F  JACOBI = F
 SECULAR EQUATION METHOD CISTEP = GMCCI   
 --- GENERAL INPUT OPTIONS:
 MAXIT =     100  MICIT =       1  ACURCY= 1.000E-06
 DAMP  =   0.000  CANONC=       T  ENGTOL= 1.000E-10
 EKT   =       F  NPUNCH=       2  NWORD =         0
 REGENERATE CI AFTER CONVERGENCE = NONE    
 DIABATIZATION AFTER CONVERGENCE =        F
 --- INPUT FOR FULLNR CONVERGER:
 METHOD=DM2       FORS  =       F  DROPC =       T
 LINSER=       F  FCORE =       F  NORB  =      30

          ----------------------
          INTEGRAL INPUT OPTIONS
          ----------------------
 NOPK  =       1 NORDER=       0 SCHWRZ=       T

 ------------------------------------------
 MULTIREFERENCE PERTURBATION THEORY CONTROL
 ------------------------------------------
 MRPT=GMCPT    READ CONVERGED MCSCF VECTORS= F


     ------------------------------------------
     THE POINT GROUP IS C1 , NAXIS= 1, ORDER= 1
     ------------------------------------------

 -- VARIATIONAL SPACE WILL BE RESTRICTED TO PURE SPHERICAL HARMONICS ONLY --
 AFTER EXCLUDING CONTAMINANT COMBINATIONS FROM THE CARTESIAN GAUSSIAN BASIS
 SET, THE NUMBER OF SPHERICAL HARMONICS KEPT IN THE VARIATION SPACE IS   29

     DIMENSIONS OF THE SYMMETRY SUBSPACES ARE
 A   =   29

 ..... DONE SETTING UP THE RUN .....
 CPU     0: STEP CPU TIME=     0.04 TOTAL CPU TIME=          0.0 (      0.0 MIN)
 TOTAL WALL CLOCK TIME=          0.1 SECONDS, CPU UTILIZATION IS    80.00%

          ********************
          1 ELECTRON INTEGRALS
          ********************
 TIME TO DO   DIPOLE INTEGRALS=      0.00
 ...... END OF ONE-ELECTRON INTEGRALS ......
 CPU     0: STEP CPU TIME=     0.00 TOTAL CPU TIME=          0.0 (      0.0 MIN)
 TOTAL WALL CLOCK TIME=          0.1 SECONDS, CPU UTILIZATION IS    80.00%

          -------------
          GUESS OPTIONS
          -------------
          GUESS =MOREAD            NORB  =      29          NORDER=       0
          MIX   =       F          PRTMO =       F          PUNMO =       F
          TOLZ  = 1.0E-08          TOLE  = 1.0E-05
          SYMDEN=       F          PURIFY=       T

 INITIAL GUESS ORBITALS GENERATED BY MOREAD   ROUTINE.

 STATISTICS FOR GENERATION OF SYMMETRY ORBITAL -Q- MATRIX
 NUMBER OF CARTESIAN ATOMIC ORBITALS=         30
 NUMBER OF SPHERICAL CONTAMINANTS DROPPED=     1
 NUMBER OF LINEARLY DEPENDENT MOS DROPPED=     0
 TOTAL NUMBER OF MOS IN VARIATION SPACE=      29
 ORBITAL PURIFICATION WILL OCCUR

 SYMMETRIES FOR INITIAL GUESS ORBITALS FOLLOW.   BOTH SET(S).
     5 ORBITALS ARE OCCUPIED (    1 CORE ORBITALS).
     1=A        2=A        3=A        4=A        5=A        6=A        7=A   
     8=A        9=A       10=A       11=A       12=A       13=A       14=A   
    15=A       16=A       17=A       18=A       19=A       20=A       21=A   
    22=A       23=A       24=A       25=A       26=A       27=A       28=A   
    29=A   
 ...... END OF INITIAL ORBITAL SELECTION ......
 CPU     0: STEP CPU TIME=     0.00 TOTAL CPU TIME=          0.0 (      0.0 MIN)
 TOTAL WALL CLOCK TIME=          0.1 SECONDS, CPU UTILIZATION IS    80.00%

                    ----------------------
                    AO INTEGRAL TECHNOLOGY
                    ----------------------
     S,P,L SHELL ROTATED AXIS INTEGRALS, REPROGRAMMED BY
        KAZUYA ISHIMURA (IMS) AND JOSE SIERRA (SYNSTAR).
     S,P,D,L SHELL ROTATED AXIS INTEGRALS PROGRAMMED BY
        KAZUYA ISHIMURA (INSTITUTE FOR MOLECULAR SCIENCE).
     S,P,D,F,G SHELL TO TOTAL QUARTET ANGULAR MOMENTUM SUM 5,
        ERIC PROGRAM BY GRAHAM FLETCHER (ELORET AND NASA ADVANCED
        SUPERCOMPUTING DIVISION, AMES RESEARCH CENTER).
     S,P,D,F,G,L SHELL GENERAL RYS QUADRATURE PROGRAMMED BY
        MICHEL DUPUIS (PACIFIC NORTHWEST NATIONAL LABORATORY).

          --------------------
          2 ELECTRON INTEGRALS
          --------------------

 DIRECT SCF METHOD SKIPS INTEGRAL STORAGE ON DISK.
 DIRECT TRANSFORMATION SKIPS AO INTEGRAL STORAGE ON DISK.
  ...... END OF TWO-ELECTRON INTEGRALS .....
 STEP CPU TIME =     0.02 TOTAL CPU TIME =          0.1 (      0.0 MIN)
 TOTAL WALL CLOCK TIME=          0.1 SECONDS, CPU UTILIZATION IS    75.00%
 DDI: Creating Array [0] - 900 x 36 = 32400 words.
 DDI: Creating Array [1] - 21 x 288 = 6048 words.
 DDI: Creating Array [2] - 36 x 36 = 1296 words.
 DDI: Creating Array [3] - 465 x 36 = 16740 words.

          -----------------
          MCSCF CALCULATION
          -----------------

 ----- NUCLEAR ENERGY ----- =        11.5468044275

     -------------------------------------------------
     GMC-PT/GMC-QDPT or general MCSCF input parameters
     -------------------------------------------------
 # of frozen core orbs. =         0 ->         0
 # of doubly occ. orbs. =         1
 # of active      orbs. =         7
 # of virtual     orbs. =        21
 # of active electrons  =         7
 # of states in CI      =         3
 Highest state in CI    =         3
 kstate =  1 1 1
 avecoe =  0.333 0.333 0.333
 State symmetry           = A           
 Assigned symmetry number = 1

 <<<Act. MO sym.: 1111111

 <<<Division of 1-ext.:  0
 <<<Division of 2-ext.:  0

 *** Reference space

 Reference type: ORMAS (= Occupation restricted multiple active space)
 # of orbitals          =  7
 # of minimum electrons =  7
 # of maximum electrons =  7
 State symmetry    =    1 (input)
 2*Sz              =    1 (input)
 Spin multiplicity =    2 (input)
 Dimension of reference space =      1225  (from      3432 walks)

 Dimension of reference space =      1225  (from      1225 walks)

 <<<Ionized spaces for Ref-CI:
      0:         1225 /   -1-0:         1960 /  0-1-0:         2891

 EVALUATING EXCHANGE INTEGRALS FOR DIRECT INTEGRAL TRANSFORMATION
 SCHWARZ INEQUALITY OVERHEAD:       465 INTEGRALS, T=        0.00

     --------------------------------------------
     PARTIAL TWO ELECTRON INTEGRAL TRANSFORMATION
     --------------------------------------------

 NUMBER OF CORE MOLECULAR ORBITALS     =    1
 NUMBER OF OCCUPIED MOLECULAR ORBITALS =    8
 TOTAL NUMBER OF MOLECULAR ORBITALS    =   29
 TOTAL NUMBER OF ATOMIC ORBITALS       =   30
 THRESHOLD FOR KEEPING TRANSFORMED 2E- INTEGRALS = 1.000E-09

 -------------------------------     ------------------------------
 DISTRIBUTED DATA TRANSFORMATION     PROGRAM WRITTEN BY G. FLETCHER
 -------------------------------     ------------------------------

 THE DISTRIBUTED MEMORY REQUIRED FOR THIS STEP IS MEMDDI=         1 MWORDS
 CREATING DISTRIBUTED STORAGE FOR [VIR OCC|VIR OCC] INTEGRALS
 CREATING DISTRIBUTED STORAGE FOR [VIR OCC|OCC OCC] INTEGRALS
 CREATING DISTRIBUTED STORAGE FOR [OCC OCC|OCC OCC] INTEGRALS
 CREATING DISTRIBUTED STORAGE FOR [VIR VIR|OCC OCC] INTEGRALS
 FOR    1 PROCESSORS, THE REPLICATED MEMORY NEEDED IS       73700 WORDS.
 SCHWARZ INEQUALITY OVERHEAD:       465 INTEGRALS, T=        0.00

      DIRECT 4-INDEX TRANSFORMATION 
      SCHWARZ INEQUALITY TEST SKIPPED          0 INTEGRAL BLOCKS
 ----- FROZEN CORE ENERGY =       -47.7466529573
 ... END OF INTEGRAL TRANSFORMATION ...
 CPU     0: STEP CPU TIME=     0.23 TOTAL CPU TIME=          0.3 (      0.0 MIN)
 TOTAL WALL CLOCK TIME=          0.3 SECONDS, CPU UTILIZATION IS    96.67%

     --------------------------------     -----------------------------
     MCHF NEWTON-RAPHSON OPTIMIZATION     CODE WRITTEN BY MICHEL DUPUIS
     --------------------------------     -----------------------------
     PARALLEL VERSION WRITTEN BY G. FLETCHER (ELORET)
     NASA ADVANCED SUPERCOMPUTING DIVISION, AMES RESEARCH CENTER

 NUMBER OF INDEPENDENT ORBITAL ROTATION PARAMETERS =   175
 ..... DONE SOLVING NEWTON-RAPHSON EQUATIONS .....
 CPU     0: STEP CPU TIME=     0.72 TOTAL CPU TIME=          1.0 (      0.0 MIN)
 TOTAL WALL CLOCK TIME=          1.0 SECONDS, CPU UTILIZATION IS    99.02%
 ..... DONE WITH NTN-RPH ORBITAL ROTATIONS ..... 
 CPU     0: STEP CPU TIME=     0.00 TOTAL CPU TIME=          1.0 (      0.0 MIN)
 TOTAL WALL CLOCK TIME=          1.0 SECONDS, CPU UTILIZATION IS    99.02%
 MAXIMUM MEMORY USED BY NTN-RPH CODE WAS     57645 WORDS.

 ITER     TOTAL ENERGY      DEL(E)  LAGRANGIAN ASYMMETRY   SQCDF  MICIT   DAMP
   1      -55.654298816 -0.654298816  0.128463   14    4 1.517E-01  1   0.0000
   2      -55.695301910 -0.041003093  0.023066   12    5 4.497E-01  1   0.0000
   3      -55.728524893 -0.033222983  0.012366   11    6 2.179E-01  1   0.0246
   4      -55.742528708 -0.014003815  0.004202   11    6 3.990E-02  1   0.0044
   5      -55.744273555 -0.001744848  0.000751   12    5 1.194E-03  1   0.0000
   6      -55.744325856 -0.000052300  0.000251   12    5 1.060E-04  1   0.0000
   7      -55.744331330 -0.000005474  0.000114   12    5 1.634E-05  1   0.0000
   8      -55.744332216 -0.000000886  0.000050   12    5 2.862E-06  1   0.0000
   9      -55.744332375 -0.000000159  0.000021   12    5 5.576E-07  1   0.0000
  10      -55.744332406 -0.000000032  0.000008   22    5 1.242E-07  1   0.0000
  11      -55.744332414 -0.000000007  0.000004   22    5 3.207E-08  1   0.0000
  12      -55.744332416 -0.000000002  0.000002   12    7 9.465E-09  1   0.0000
  13      -55.744332416 -0.000000001  0.000001   12    7 3.086E-09  1   0.0000
  14      -55.744332416 -0.000000000  0.000001   12    7 1.071E-09  1   0.0000

          --------------------
          LAGRANGIAN CONVERGED
          --------------------

 FINAL MCSCF ENERGY IS      -55.7443324163 AFTER  14 ITERATIONS

 -MCCI- BASED ON OPTIMIZED ORBITALS
 ----------------------------------

 PLEASE NOTE: IF THE ACTIVE ORBITALS ARE CANONICALIZED BELOW,
 THE FOLLOWING CI EXPANSION COEFFICIENTS AND THE DENSITY DO NOT
 CORRESPOND TO THE PRINTED ORBITALS.  THE PRINTED EXPANSIONS MATCH
 THE ORBITALS USED DURING THE LAST ITERATION.  IF YOU WISH TO SEE
 CI EXPANSIONS BASED ON THE CANONICAL (OR NATURAL) ORBITALS, YOU
 MUST RUN A CI CALCULATION WITH THAT ORBITAL CHOICE READ IN $VEC.

 Averaged energy =     -55.744332416

 State #    1  Energy =     -55.883585041  S =  0.500

      Det      Coef    Occupancy (Ignoring core)
      ---      ----    --------- --------- -----
        1    0.946401  11110001110000
        5   -0.063493  01111001110000
        8   -0.125327  10110101110000
       17    0.131871  11010011110000
       71   -0.101414  11110001011000
      386    0.093023  11110001010010
      393    0.067993  10110101010010
      701   -0.107755  11110001100001
      717    0.052494  11010011100001

 State #    2  Energy =     -55.744369645  S =  0.500

      Det      Coef    Occupancy (Ignoring core)
      ---      ----    --------- --------- -----
        1    0.068411  11110001110000
       36    0.462204  11110001101000
       71    0.847542  11110001011000
       75   -0.053173  01111001011000
       78   -0.064611  10110101011000
       87    0.087468  11010011011000
      456    0.052546  11110001001010
      806    0.088980  11110001001001

 State #    3  Energy =     -55.605042563  S =  0.500

      Det      Coef    Occupancy (Ignoring core)
      ---      ----    --------- --------- -----
        1   -0.081420  11110001110000
       36    0.850787  11110001101000
       43   -0.067882  10110101101000
       52    0.056725  11010011101000
       71   -0.456102  11110001011000
      281    0.062388  11110000101100
      456    0.078987  11110001001010
      463    0.064203  10110101001010

 DENSITY MATRIX OVER ACTIVE MO-S

             1           2           3           4           5

    1    1.9779189
    2    0.0082251   1.6346879
    3    0.0035231   0.0006469   1.6354056
    4    0.0027494   0.0010039  -0.0001390   1.6553829
    5    0.0985971  -0.0135726  -0.0045903   0.0296328   0.0263444
    6   -0.0034424  -0.1349073  -0.0167026   0.0172701   0.0017687
    7   -0.0075305  -0.0115594  -0.1494136   0.0072750  -0.0008281

             6           7

    6    0.0361658
    7   -0.0005803   0.0340945

 FORMING THE "STANDARD FOCK OPERATOR" IN DIRECT AO INTEGRAL MODE...
 ONLY THE    1 CORE AND   21 VIRTUAL ORBITALS WILL BE CANONICALIZED

          ----------------------
          MCSCF NATURAL ORBITALS
          ----------------------

                      1          2          3          4          5
                  -15.9867     1.9832     1.6564     1.6508     1.6442
                     A          A          A          A          A   
    1  N  1  S    1.001262   0.008319  -0.010563  -0.002356  -0.000952
    2  N  1  S   -0.001786   0.437197  -0.166752  -0.087221  -0.020480
    3  N  1  S   -0.006315   0.301105  -0.266907  -0.118591  -0.030783
    4  N  1  X   -0.000040   0.020364  -0.091996   0.207073   0.469479
    5  N  1  Y   -0.000119   0.013976  -0.132100   0.405465  -0.242374
    6  N  1  Z    0.001168   0.094157   0.574365   0.143132   0.006415
    7  N  1  X    0.000022  -0.001298  -0.055348   0.070615   0.243740
    8  N  1  Y   -0.000001   0.000586  -0.063905   0.135756  -0.123771
    9  N  1  Z   -0.000485   0.010211   0.376688   0.075885  -0.004655
   10  N  1 XX   -0.000119  -0.001686  -0.012867   0.000791   0.010909
   11  N  1 YY    0.000331   0.000947  -0.010356  -0.007387  -0.011254
   12  N  1 ZZ   -0.000212   0.000739   0.023223   0.006596   0.000344
   13  N  1 XY    0.000290   0.002131   0.001256  -0.004516   0.004644
   14  N  1 XZ    0.000078   0.001260  -0.002187   0.011078   0.022527
   15  N  1 YZ    0.000047   0.001795  -0.004869   0.019842  -0.011219
   16  H  2  S   -0.001809   0.186400   0.054159   0.249776  -0.289859
   17  H  2  S    0.000391   0.001798   0.021362   0.032072  -0.070552
   18  H  2  X   -0.000231   0.007155   0.001606   0.020685   0.007606
   19  H  2  Y    0.000881  -0.032967  -0.011985  -0.020230   0.027534
   20  H  2  Z    0.000457  -0.009641   0.021861  -0.006640   0.014179
   21  H  3  S   -0.002104   0.178527   0.193166  -0.336491  -0.004236
   22  H  3  S    0.000632  -0.000411   0.033862  -0.034711  -0.003770
   23  H  3  X   -0.000491   0.016419   0.009304  -0.013074   0.018089
   24  H  3  Y   -0.000993   0.032436   0.020800  -0.029252  -0.007352
   25  H  3  Z    0.000399  -0.004237   0.015174   0.019393   0.000536
   26  H  4  S   -0.001861   0.199482   0.061472   0.220643   0.316954
   27  H  4  S    0.000337   0.005323   0.019925   0.027917   0.075691
   28  H  4  X    0.000884  -0.033528  -0.014487  -0.022401  -0.022179
   29  H  4  Y    0.000192  -0.008605  -0.004216   0.014115  -0.016209
   30  H  4  Z    0.000483  -0.012668   0.021283  -0.006074  -0.017301

                      6          7          8
                    0.0263     0.0208     0.0182
                     A          A          A   
    1  N  1  S   -0.047626   0.201991  -0.137387
    2  N  1  S   -0.152837   0.674070  -0.407559
    3  N  1  S   -0.001622   0.184904   0.013252
    4  N  1  X    0.745879   0.289436   0.299296
    5  N  1  Y   -0.349004   0.279804   0.820179
    6  N  1  Z   -0.069876   0.631123  -0.189839
    7  N  1  X   -0.009063   0.049663   0.027280
    8  N  1  Y    0.003005   0.060782   0.073024
    9  N  1  Z    0.015213  -0.068871   0.051948
   10  N  1 XX   -0.033828   0.021926  -0.000558
   11  N  1 YY    0.034660  -0.016133   0.007078
   12  N  1 ZZ   -0.000833  -0.005793  -0.006521
   13  N  1 XY   -0.005070  -0.038988  -0.012067
   14  N  1 XZ   -0.019219  -0.030703  -0.010523
   15  N  1 YZ    0.013177  -0.035131  -0.041235
   16  H  2  S    0.649581  -0.491562  -0.247332
   17  H  2  S    0.153505  -0.058889  -0.066920
   18  H  2  X   -0.001301  -0.038832  -0.022056
   19  H  2  Y   -0.060507   0.055681   0.005319
   20  H  2  Z   -0.011104  -0.019806  -0.004245
   21  H  3  S    0.150732  -0.234903   0.863961
   22  H  3  S    0.021724  -0.004242   0.143302
   23  H  3  X   -0.004513  -0.019596   0.039933
   24  H  3  Y    0.018770  -0.036531   0.079429
   25  H  3  Z   -0.001730  -0.004724   0.013934
   26  H  4  S   -0.573946  -0.639780  -0.062942
   27  H  4  S   -0.151438  -0.092477  -0.018937
   28  H  4  X    0.035676   0.077425  -0.003270
   29  H  4  Y    0.020908  -0.008417  -0.030726
   30  H  4  Z    0.017560  -0.011248  -0.003645

          ------------------------
          MCSCF OPTIMIZED ORBITALS
          ------------------------

                      1          2          3          4          5
                  -15.9867     0.0000     0.0000     0.0000     0.0000
                     A          A          A          A          A   
    1  N  1  S    1.001262  -0.003368   0.005476   0.006794  -0.015696
    2  N  1  S   -0.001786   0.401330  -0.009945  -0.006136  -0.193941
    3  N  1  S   -0.006315   0.297128  -0.043553  -0.028064  -0.286981
    4  N  1  X   -0.000040   0.005399   0.446699  -0.049987  -0.021893
    5  N  1  Y   -0.000119   0.001861  -0.008735   0.401482  -0.023664
    6  N  1  Z    0.001168   0.052802  -0.000287  -0.003010   0.581460
    7  N  1  X    0.000022  -0.008136   0.249968  -0.056088  -0.032627
    8  N  1  Y   -0.000001  -0.002587  -0.036216   0.181677  -0.028740
    9  N  1  Z   -0.000485   0.009701  -0.021306  -0.016366   0.385278
   10  N  1 XX   -0.000119  -0.003109   0.013539  -0.003690  -0.012740
   11  N  1 YY    0.000331   0.002517  -0.014265   0.002637  -0.011378
   12  N  1 ZZ   -0.000212   0.000593   0.000726   0.001054   0.024118
   13  N  1 XY    0.000290   0.003856   0.003220  -0.004743   0.000445
   14  N  1 XZ    0.000078   0.001881   0.027386  -0.000848   0.001083
   15  N  1 YZ    0.000047   0.002799   0.002104   0.027811   0.000218
   16  H  2  S   -0.001809   0.209738  -0.158362   0.397396   0.123611
   17  H  2  S    0.000391   0.005146  -0.055009   0.069811   0.029224
   18  H  2  X   -0.000231   0.008111   0.018188   0.015681   0.007185
   19  H  2  Y    0.000881  -0.035838   0.017868  -0.032186  -0.018016
   20  H  2  Z    0.000457  -0.009008   0.007029  -0.017042   0.019607
   21  H  3  S   -0.002104   0.208267  -0.232608  -0.379188   0.119957
   22  H  3  S    0.000632   0.002380  -0.032314  -0.045315   0.026113
   23  H  3  X   -0.000491   0.017788   0.007263  -0.024894   0.006889
   24  H  3  Y   -0.000993   0.035937  -0.026698  -0.029943   0.014746
   25  H  3  Z    0.000399  -0.004442   0.007255   0.011479   0.019785
   26  H  4  S   -0.001861   0.214138   0.429419   0.011131   0.124013
   27  H  4  S    0.000337   0.006387   0.089008  -0.020899   0.026881
   28  H  4  X    0.000884  -0.035981  -0.032373  -0.004798  -0.021114
   29  H  4  Y    0.000192  -0.008474  -0.006737   0.024166  -0.000929
   30  H  4  Z    0.000483  -0.011769  -0.021942   0.000161   0.018907

                      6          7          8          9         10
                    0.0000     0.0000     0.0000     0.1415     0.1971
                     A          A          A          A          A   
    1  N  1  S    0.239758  -0.039691  -0.052323  -0.136257   0.002779
    2  N  1  S    0.801573  -0.106795  -0.134412  -0.206843  -0.003492
    3  N  1  S    0.179531   0.056239   0.050607   1.397752  -0.127368
    4  N  1  X    0.054604   0.891636  -0.036192  -0.024809  -0.039324
    5  N  1  Y    0.056010   0.116791   0.966941  -0.018087  -0.115367
    6  N  1  Z    0.675592   0.034767   0.000170  -0.196633  -0.013905
    7  N  1  X    0.036304   0.038181   0.034888   0.111862   0.334121
    8  N  1  Y    0.032472   0.049060   0.090868   0.120012   0.682272
    9  N  1  Z   -0.075706   0.008939   0.019635   0.452482   0.052729
   10  N  1 XX    0.025569  -0.022190   0.019960  -0.014816   0.027420
   11  N  1 YY   -0.022795   0.027429  -0.013522   0.060048  -0.046135
   12  N  1 ZZ   -0.002774  -0.005239  -0.006438  -0.045232   0.018715
   13  N  1 XY   -0.031712  -0.020255  -0.016600   0.051784  -0.048194
   14  N  1 XZ   -0.022514  -0.027518  -0.006307   0.034025   0.050758
   15  N  1 YZ   -0.021883  -0.015032  -0.046520   0.032609   0.095919
   16  H  2  S   -0.471754   0.313260  -0.588125   0.313851   0.200262
   17  H  2  S   -0.057159   0.085079  -0.136712  -0.892663  -0.774229
   18  H  2  X   -0.028850  -0.019643  -0.024967   0.032358  -0.014394
   19  H  2  Y    0.057844  -0.033289   0.042063   0.092478   0.031819
   20  H  2  Z   -0.015567  -0.016853  -0.004214   0.040431   0.069074
   21  H  3  S   -0.501814   0.395086   0.585826   0.320484  -0.531657
   22  H  3  S   -0.051803   0.073163   0.107562  -0.766692   1.900692
   23  H  3  X   -0.029267   0.007214   0.030140  -0.047743   0.043504
   24  H  3  Y   -0.059957   0.035931   0.048847  -0.088786   0.101391
   25  H  3  Z   -0.008530   0.003385   0.012817  -0.013648  -0.079823
   26  H  4  S   -0.479455  -0.672453   0.087069   0.262436   0.239305
   27  H  4  S   -0.056611  -0.158928   0.034528  -0.816282  -0.875378
   28  H  4  X    0.066031   0.049167  -0.004096   0.070938   0.032946
   29  H  4  Y   -0.001909   0.002842  -0.035945   0.075366  -0.005504
   30  H  4  Z   -0.012219   0.008523  -0.014087   0.050099   0.060688

                     11         12         13         14         15
                    0.2177     0.5391     0.5660     0.6347     0.8144
                     A          A          A          A          A   
    1  N  1  S    0.011421   0.071582  -0.008674   0.043029  -0.373250
    2  N  1  S    0.022609   0.050701   0.041490   0.179240  -0.847328
    3  N  1  S   -0.078931  -0.744888   0.323477   0.132035   1.530649
    4  N  1  X    0.001242  -0.406873  -0.459862  -0.136104  -0.024875
    5  N  1  Y   -0.026573  -0.100033   0.351339  -0.346053  -0.066419
    6  N  1  Z    0.016775   0.529565  -0.258396  -0.359827   0.264348
    7  N  1  X   -0.364585   1.007537   1.180627   0.762671   0.077436
    8  N  1  Y    0.289191   0.452236  -0.996075   1.638630   0.247505
    9  N  1  Z   -0.049096  -0.807305   0.469423   0.746892  -0.066383
   10  N  1 XX   -0.071725   0.008864  -0.001447   0.003856   0.056850
   11  N  1 YY    0.073007   0.016546  -0.017022  -0.024047   0.002295
   12  N  1 ZZ   -0.001282  -0.025410   0.018470   0.020190  -0.059145
   13  N  1 XY   -0.045256   0.031484  -0.035710  -0.004779  -0.112278
   14  N  1 XZ   -0.060700   0.022769   0.010642  -0.024269  -0.007369
   15  N  1 YZ    0.038268   0.008921  -0.011702  -0.043589  -0.063993
   16  H  2  S    0.560136   0.283036   0.257982  -0.696549   0.000599
   17  H  2  S   -1.849174   0.259618   0.856942  -0.349821  -0.352046
   18  H  2  X   -0.029760   0.103917  -0.083711  -0.050647  -0.416649
   19  H  2  Y    0.066645   0.004786  -0.109792   0.160482   0.141741
   20  H  2  Z    0.029513  -0.080572  -0.035892  -0.044226  -0.105422
   21  H  3  S    0.012989   0.667737  -0.350732   0.374517  -0.054138
   22  H  3  S    0.022149   0.529508  -0.107926   0.796716  -0.260180
   23  H  3  X    0.047344   0.044210   0.070074   0.062500   0.058652
   24  H  3  Y   -0.009089   0.080624  -0.067222   0.179781  -0.036580
   25  H  3  Z   -0.006719  -0.073751   0.028961   0.112751   0.204738
   26  H  4  S   -0.564944   0.021607  -0.519377  -0.595307   0.032701
   27  H  4  S    1.887877  -0.534847  -0.804038  -0.266813  -0.273831
   28  H  4  X   -0.079058   0.039006   0.089404   0.141503   0.272706
   29  H  4  Y   -0.008985   0.128089  -0.025715  -0.015013  -0.351000
   30  H  4  Z   -0.034635  -0.003074   0.099003  -0.027561  -0.039614

                     16         17         18         19         20
                    0.9780     1.0510     1.3125     1.3819     1.5026
                     A          A          A          A          A   
    1  N  1  S   -0.458271  -0.098729   0.070728  -0.286295  -0.504475
    2  N  1  S   -0.968259  -0.207124   0.147203  -0.601561  -1.040744
    3  N  1  S    1.941516   0.491416  -0.267726   1.058822   1.935693
    4  N  1  X   -0.044773  -0.065122   0.052575   0.064557  -0.014993
    5  N  1  Y   -0.054571   0.045330  -0.173586   0.043251  -0.087494
    6  N  1  Z    0.134137   0.025928   0.012536  -0.021124  -0.031545
    7  N  1  X    0.222279   0.349914   0.058493  -0.560562   0.453861
    8  N  1  Y    0.245726  -0.243855   0.781313  -0.686750   0.503951
    9  N  1  Z   -0.085133   0.138202  -0.056540   0.368912   0.885955
   10  N  1 XX   -0.149021   0.161997  -0.023414   0.076204   0.067983
   11  N  1 YY   -0.086246  -0.127749  -0.006458   0.076892   0.104053
   12  N  1 ZZ    0.235267  -0.034247   0.029871  -0.153097  -0.172035
   13  N  1 XY    0.057983   0.099363  -0.043119  -0.031705   0.032695
   14  N  1 XZ   -0.018081  -0.254280  -0.053299   0.001535  -0.055490
   15  N  1 YZ   -0.009210   0.127694   0.041607   0.012039   0.011468
   16  H  2  S   -0.385825   0.056263  -0.319520  -0.111478  -0.694382
   17  H  2  S   -0.238739   0.058502  -0.078392   0.012789  -0.124903
   18  H  2  X    0.186264  -0.107503  -0.459553   0.256347   0.063248
   19  H  2  Y   -0.056487  -0.113262  -0.464707   0.050128  -0.034727
   20  H  2  Z    0.365614   0.337949   0.390979  -0.300437  -0.281184
   21  H  3  S   -0.164813  -0.110924   0.399463  -0.649572  -0.273451
   22  H  3  S   -0.250730  -0.093920   0.200316  -0.313831  -0.053425
   23  H  3  X    0.008300  -0.491022   0.431113   0.476095  -0.198488
   24  H  3  Y    0.020221   0.179326  -0.369072  -0.033622  -0.082282
   25  H  3  Z    0.274356   0.017341  -0.264450   0.223690  -0.828530
   26  H  4  S   -0.410373  -0.195654   0.062129  -0.007369  -0.729997
   27  H  4  S   -0.256447  -0.165196  -0.021281   0.004922  -0.270040
   28  H  4  X   -0.168524   0.212230   0.124833   0.146599  -0.032841
   29  H  4  Y    0.138664   0.174279   0.218637   0.579514  -0.053656
   30  H  4  Z    0.359999  -0.431584  -0.000902  -0.471811   0.094182

                     21         22         23         24         25
                    1.6188     1.8737     1.9363     2.0012     2.0964
                     A          A          A          A          A   
    1  N  1  S   -0.074533  -0.004916   0.035699   0.095316  -0.046011
    2  N  1  S   -0.152705   0.014392   0.053945   0.317955  -0.078001
    3  N  1  S    0.267095   0.035931  -0.327658   1.533930   0.454604
    4  N  1  X   -0.257901   0.311742   0.176468   0.090709  -0.088771
    5  N  1  Y    0.065890   0.569586  -0.207545   0.031597  -0.160093
    6  N  1  Z   -0.017629   0.078810  -0.023480   0.329405   0.028962
    7  N  1  X   -0.320397  -0.037872  -0.192087  -0.105463  -0.107464
    8  N  1  Y    0.505324   0.136098   0.111198   0.049527  -0.110231
    9  N  1  Z    0.114538   0.062215  -0.142828   0.569954   0.441528
   10  N  1 XX    0.096820  -0.242110  -0.161605   0.116617  -0.651077
   11  N  1 YY   -0.017086   0.069167   0.186100  -0.192888  -0.142296
   12  N  1 ZZ   -0.079734   0.172943  -0.024495   0.076271   0.793373
   13  N  1 XY    0.005284   0.269301  -0.159930  -0.225764   0.444556
   14  N  1 XZ    0.222468  -0.059465  -0.053978  -0.208370   0.189779
   15  N  1 YZ   -0.133486  -0.153683   0.044697  -0.018640   0.250912
   16  H  2  S   -0.151492   0.001348   0.084686  -0.371176  -0.111420
   17  H  2  S   -0.379404  -0.184023   0.405665  -0.289012   0.028570
   18  H  2  X    0.324894  -0.067780   0.769028   0.299920  -0.142892
   19  H  2  Y    0.282351   0.346254  -0.652984   0.757707   0.070705
   20  H  2  Z    0.586746   0.315486   0.036792   0.107835  -0.424086
   21  H  3  S    0.069155  -0.038856   0.081280  -0.364849  -0.238807
   22  H  3  S   -0.000377   0.387198   0.035892  -0.309755  -0.233139
   23  H  3  X    0.292591   0.399398  -0.024719  -0.217961  -0.121006
   24  H  3  Y   -0.256618   0.620078   0.027359  -0.789084  -0.393258
   25  H  3  Z   -0.166841  -0.445628   0.108341  -0.159784  -0.059963
   26  H  4  S   -0.154120   0.042588   0.076161  -0.351000  -0.111482
   27  H  4  S    0.317415  -0.234838  -0.299335  -0.241839   0.057927
   28  H  4  X   -0.204117   0.520359   0.686251   0.597767   0.209419
   29  H  4  Y   -0.465464  -0.014344  -0.522161   0.316961  -0.143094
   30  H  4  Z   -0.549472   0.160206  -0.021293   0.284485  -0.510877

                     26         27         28         29
                    2.2860     2.6206     2.7353     2.9137
                     A          A          A          A   
    1  N  1  S   -0.039041  -0.061912  -0.071630   0.023252
    2  N  1  S   -0.049897   0.021086  -0.180677   0.094612
    3  N  1  S    0.537381   2.003020  -0.556076   0.604285
    4  N  1  X    0.059887   0.182449   0.067691  -0.492941
    5  N  1  Y   -0.001109   0.111981   0.590126  -0.044070
    6  N  1  Z    0.064084   0.297724  -0.098182   0.071746
    7  N  1  X    0.460152   0.568522   0.190947  -0.823420
    8  N  1  Y   -0.258477   0.589584   1.290236  -0.091211
    9  N  1  Z    0.248397   0.468226  -0.003898   0.019070
   10  N  1 XX   -0.373198   0.168331  -0.166317  -0.978309
   11  N  1 YY    0.303291   0.488698  -0.140726   1.309092
   12  N  1 ZZ    0.069907  -0.657029   0.307043  -0.330783
   13  N  1 XY   -0.483363   0.543448  -0.915027  -0.085937
   14  N  1 XZ    0.717657   0.650899   0.078956  -0.706625
   15  N  1 YZ   -0.460670   0.697879   1.001509   0.043118
   16  H  2  S   -0.017348  -0.818864  -0.818404  -0.841642
   17  H  2  S    0.096602  -0.199968  -0.351939  -0.293455
   18  H  2  X   -0.158817  -0.267248  -0.018683  -0.180885
   19  H  2  Y   -0.093741   0.395955   0.640661   0.734524
   20  H  2  Z    0.200913   0.335064   0.173765   0.460461
   21  H  3  S   -0.157473  -0.300495   1.364015  -0.833582
   22  H  3  S   -0.055710  -0.012440   0.497284  -0.255825
   23  H  3  X   -0.658237  -0.121948   0.361979  -0.368957
   24  H  3  Y    0.167525  -0.201508   0.967232  -0.511809
   25  H  3  Z   -0.124323   0.444606  -0.306708   0.306962
   26  H  4  S   -0.319849  -1.117457   0.091102   0.974962
   27  H  4  S   -0.240044  -0.384472   0.059455   0.361508
   28  H  4  X    0.266127   0.715478  -0.158686  -0.767305
   29  H  4  Y    0.514173   0.020606  -0.057900  -0.230223
   30  H  4  Z   -0.185436   0.497298  -0.184900  -0.413904
 .....DONE WITH MCSCF ITERATIONS.....
 CPU     0: STEP CPU TIME=     8.99 TOTAL CPU TIME=         10.0 (      0.2 MIN)
 TOTAL WALL CLOCK TIME=         10.0 SECONDS, CPU UTILIZATION IS    99.90%

     ----------------------------------------------------------------
     PROPERTY VALUES FOR THE MCSCF SELF-CONSISTENT FIELD WAVEFUNCTION
     ----------------------------------------------------------------

          -----------------
          ENERGY COMPONENTS
          -----------------

         WAVEFUNCTION NORMALIZATION =       1.0000000000

                ONE ELECTRON ENERGY =     -94.5265107264
                TWO ELECTRON ENERGY =      27.2353738825
           NUCLEAR REPULSION ENERGY =      11.5468044275
                                      ------------------
                       TOTAL ENERGY =     -55.7443324163

 ELECTRON-ELECTRON POTENTIAL ENERGY =      27.2353738825
  NUCLEUS-ELECTRON POTENTIAL ENERGY =    -150.3769613096
   NUCLEUS-NUCLEUS POTENTIAL ENERGY =      11.5468044275
                                      ------------------
             TOTAL POTENTIAL ENERGY =    -111.5947829996
               TOTAL KINETIC ENERGY =      55.8504505833
                 VIRIAL RATIO (V/T) =       1.9980999586

          ---------------------------------------
          MULLIKEN AND LOWDIN POPULATION ANALYSES
          ---------------------------------------

     ATOMIC MULLIKEN POPULATION IN EACH MOLECULAR ORBITAL

                      1          2          3          4          5

                  2.000000   1.983202   1.656443   1.650783   1.644217

    1             2.000914   1.321968   1.517822   0.916205   1.093598
    2            -0.000263   0.217440   0.014774   0.202599   0.252294
    3            -0.000358   0.195642   0.105085   0.374291   0.008007
    4            -0.000294   0.248152   0.018762   0.157688   0.290318

                      6          7          8

                  0.026297   0.020835   0.018223

    1             0.012609   0.011107   0.009600
    2             0.007643   0.003469   0.000605
    3             0.000394   0.000667   0.007986
    4             0.005651   0.005592   0.000032
 WARNING! MCSCF POPULATIONS SHOWN ABOVE ARE FOR THE NATURAL ORBITALS.
 IGNORE THE ABOVE DATA FOR MCSCF FUNCTIONS WHICH ARE NOT OF -FORS- TYPE.
 THE FOLLOWING POPULATIONS ARE CORRECT FOR ANY MCSCF WAVEFUNCTION.

               ----- POPULATIONS IN EACH AO -----
                             MULLIKEN      LOWDIN
              1  N  1  S      2.00261     1.89686
              2  N  1  S      0.82358     0.57625
              3  N  1  S      0.64780     0.39554
              4  N  1  X      0.71274     0.64677
              5  N  1  Y      0.66838     0.58778
              6  N  1  Z      0.87863     0.82248
              7  N  1  X      0.34830     0.42367
              8  N  1  Y      0.26404     0.38336
              9  N  1  Z      0.52000     0.55625
             10  N  1 XX      0.00052     0.15845
             11  N  1 YY      0.00376     0.18221
             12  N  1 ZZ      0.00127     0.14196
             13  N  1 XY      0.00590     0.00602
             14  N  1 XZ      0.00629     0.01033
             15  N  1 YZ      0.00000     0.01233
             16  H  2  S      0.59877     0.46279
             17  H  2  S      0.04324     0.14489
             18  H  2  X      0.01025     0.02732
             19  H  2  Y      0.03162     0.05227
             20  H  2  Z      0.01469     0.03569
             21  H  3  S      0.60757     0.47242
             22  H  3  S      0.02661     0.14242
             23  H  3  X      0.01340     0.02831
             24  H  3  Y      0.03178     0.05606
             25  H  3  Z      0.01235     0.03481
             26  H  4  S      0.62142     0.48001
             27  H  4  S      0.04630     0.14381
             28  H  4  X      0.03069     0.05396
             29  H  4  Y      0.01077     0.02522
             30  H  4  Z      0.01672     0.03978

          ----- MULLIKEN ATOMIC OVERLAP POPULATIONS -----
          (OFF-DIAGONAL ELEMENTS NEED TO BE MULTIPLIED BY 2)

             1           2           3           4

    1    5.9784768
    2    0.2907279   0.4229200
    3    0.3198059  -0.0057993   0.3829723
    4    0.2948113  -0.0092867  -0.0052650   0.4456422

          TOTAL MULLIKEN AND LOWDIN ATOMIC POPULATIONS
       ATOM         MULL.POP.    CHARGE          LOW.POP.     CHARGE
    1 N             6.883822    0.116178         6.800259    0.199741
    2 H             0.698562    0.301438         0.722963    0.277037
    3 H             0.691714    0.308286         0.734005    0.265995
    4 H             0.725902    0.274098         0.742773    0.257227

          MULLIKEN SPHERICAL HARMONIC POPULATIONS
       ATOM           S       P       D      F      G      H      I    TOTAL
    1 N             3.47    3.39    0.02   0.00   0.00   0.00   0.00    6.88
    2 H             0.64    0.06    0.00   0.00   0.00   0.00   0.00    0.70
    3 H             0.63    0.06    0.00   0.00   0.00   0.00   0.00    0.69
    4 H             0.67    0.06    0.00   0.00   0.00   0.00   0.00    0.73

          ---------------------
          ELECTROSTATIC MOMENTS
          ---------------------

 POINT   1           X           Y           Z (BOHR)    CHARGE
                 0.000002    0.000002   -0.177185        1.00 (A.U.)
         DX          DY          DZ         /D/  (DEBYE)
     0.327622    0.334183    2.161787    2.211863
 ...... END OF PROPERTY EVALUATION ......
 CPU     0: STEP CPU TIME=     0.00 TOTAL CPU TIME=         10.0 (      0.2 MIN)
 TOTAL WALL CLOCK TIME=         10.0 SECONDS, CPU UTILIZATION IS    99.90%

     -------------------------------------------------
     GMC-PT/GMC-QDPT or general MCSCF input parameters
     -------------------------------------------------
 # of frozen core orbs. =         0 ->         0
 # of doubly occ. orbs. =         1
 # of active      orbs. =         7
 # of virtual     orbs. =        21
 # of active electrons  =         7
 # of states in CI      =         3
 Highest state in CI    =         3
 kstate =  1 1 1
 avecoe =  0.333 0.333 0.333
 State symmetry           = A           
 Assigned symmetry number = 1

 <<<Act. MO sym.: 1111111

 <<<Division of 1-ext.:  0
 <<<Division of 2-ext.:  0

     ------------------------
     Orbital canonicalization
     ------------------------

 MOs are canonicalized for core, virtual, and invariant-active orbital spaces.
 This is a part of the GMC-QDPT calculation.
 SCHWARZ INEQUALITY OVERHEAD:       465 INTEGRALS, T=        0.00
 DIRECT TRANSFORMATION SKIPS AO INTEGRAL STORAGE ON DISK.

 Averaged energy =     -55.744332416

 State #    1  Energy =     -55.883585041  S =  0.500
 State #    2  Energy =     -55.744369645  S =  0.500
 State #    3  Energy =     -55.605042563  S =  0.500

 Orbital energies for filled orbital space
  -15.986718
 Orbital energies for active orbital space
   -1.524436  -0.852209  -0.999977  -0.752661   0.351007
    0.265365   0.420586
 Orbital energies for external orbital space
    0.141452   0.197086   0.217651   0.539087   0.565955
    0.634675   0.814392   0.977955   1.051042   1.312461
    1.381945   1.502558   1.618831   1.873729   1.936294
    2.001156   2.096402   2.285991   2.620559   2.735323
    2.913700

 Zero values mean non-canonical orbitals.
 ... done with orbital canonicalization ...
 CPU     0: STEP CPU TIME=     0.60 TOTAL CPU TIME=         10.6 (      0.2 MIN)
 TOTAL WALL CLOCK TIME=         10.6 SECONDS, CPU UTILIZATION IS    99.81%

     --------------------------------------------
     PARTIAL TWO ELECTRON INTEGRAL TRANSFORMATION
     --------------------------------------------

 NUMBER OF CORE MOLECULAR ORBITALS     =    0
 NUMBER OF OCCUPIED MOLECULAR ORBITALS =    8
 TOTAL NUMBER OF MOLECULAR ORBITALS    =   29
 TOTAL NUMBER OF ATOMIC ORBITALS       =   30
 THRESHOLD FOR KEEPING TRANSFORMED 2E- INTEGRALS = 1.000E-09
 AO INTEGRALS WILL BE CALCULATED IN DIRECT MODE...
 DIRECT TRANSFORMATION SKIPS AO INTEGRAL STORAGE ON DISK.
 SCHWARZ INEQUALITY OVERHEAD:       465 INTEGRALS, T=        0.00

 PLAN A: REQUIREMENTS FOR FULLY IN-MEMORY TRANSFORMATION:
 # OF WORDS AVAILABLE =            100000000
 # OF WORDS NEEDED    =               221798

 PARALLEL ONLY WORKS WITH THE SEGMENTED ALGORITHM.
 ADJUSTING MEMORY TO USE SEGMENTED ALGORITHM.


 PLAN B: REQUIREMENTS FOR THE SEGMENTED TRANSFORMATION:
       MINIMUM=         124148 WORDS FOR 1 MOLECULAR ORBITAL PER PASS
       MAXIMUM=         221798 WORDS FOR ALL MOLECULAR ORBITALS IN 1 PASS
              (          13950 EXTRA WORDS INCLUDES 1 EXTRA ORBITAL/PASS)
 THIS RUN USES=         221798 WORDS,
 DISTRIBUTING   1 PASSES EACH CONTAINING     8 ORBITALS OVER   1 PROCESSORS.

 CHOOSING SEGMENTED PARTIAL TRANSFORMATION...
 DIRECT TRANSFORMATION SKIPS AO INTEGRAL STORAGE ON DISK.
 PASS #   1 TOOK        0.04 SECONDS.
 TOTAL NUMBER OF TRANSFORMED 2E- INTEGRALS KEPT =        29226
 ... END OF INTEGRAL TRANSFORMATION ...
 CPU     0: STEP CPU TIME=     0.04 TOTAL CPU TIME=         10.6 (      0.2 MIN)
 TOTAL WALL CLOCK TIME=         10.7 SECONDS, CPU UTILIZATION IS    99.81%

     --------     ------------------------------------------
     GMC-QDPT     Program written by H.Nakano (Kyushu Univ.)
     --------     ------------------------------------------

 *** Reference space

 Reference type: ORMAS (= Occupation restricted multiple active space)
 # of orbitals          =  7
 # of minimum electrons =  7
 # of maximum electrons =  7
 State symmetry    =    1 (input)
 2*Sz              =    1 (input)
 Spin multiplicity =    2 (input)
 Dimension of reference space =      1225  (from      3432 walks)

 Dimension of reference space =      1225  (from      1225 walks)

 <<<Ionized spaces for Ref-CI:
      0:         1225 /   -1-0:         1960 /  0-1-0:         2891

 ***                    ***
 *** Reference space CI ***
 ***                    ***

 Converged after   34 iterations

 Reference wavefunctions:

 State #    1  Energy =     -55.883585041  S =  0.500

      Det      Coef    Occupancy (Ignoring core)
      ---      ----    --------- --------- -----
        1    0.978255  11110001110000
      393    0.079451  10110101010010
      717    0.062924  11010011100001

 State #    2  Energy =     -55.744369645  S =  0.500

      Det      Coef    Occupancy (Ignoring core)
      ---      ----    --------- --------- -----
       71    0.983760  11110001011000
      822   -0.062512  11010011001001

 State #    3  Energy =     -55.605042563  S =  0.500

      Det      Coef    Occupancy (Ignoring core)
      ---      ----    --------- --------- -----
       36   -0.979972  11110001101000
      463   -0.079892  10110101001010

 Davidson method: CPU/Wall time =           0.45 /           0.45 sec.

 Oscillator strength (invalid if E(1)/=E(GS)):
 -----------------------------------------
   State                        f
 -----------------------------------------
     2     F(REF-CI)=        0.0003381474
     3     F(REF-CI)=        0.0019600801
 -----------------------------------------

 Dipole moment matrix elements, x, y, z, in A.U.

 Dimension of ionized spaces for PT:
 (N-2) space:         1715 /  (N-1) space:         2842 /  N space:         2891
 (N+1) space:         2842 /  (N+2) space:         1715

 <<<Ionized spaces for internal:
         0:         1225 /      -1-0:         1960 /     0-1-0:         2891
  -1-0-1-0:         2842 / 0-1-0-1-0:         3381

 Diagonal elements of averaged one-particle density matrix:
       2       3       4       5       6       7       8
  0.9938  0.9865  0.9889  0.9928  0.0116  0.0155  0.0108
  0.9893  0.6576  0.6618  0.6634  0.0094  0.0109  0.0077

 Orbital energies:
 -------- Doubly-occupied orbitals (highest several orbs.) -------
             1
 -1.598672D+01
 -------- Active orbitals ----------------------------------------
             2            3            4            5            6
 -1.524436D+00-8.522090D-01-9.999775D-01-7.526608D-01 3.510071D-01
             7            8
  2.653647D-01 4.205858D-01
 -------- External orbitals (lowest several orbs.) ---------------
             9           10           11           12           13
  1.414517D-01 1.970857D-01 2.176510D-01 5.390869D-01 5.659550D-01
            14           15           16           17           18
  6.346753D-01 8.143925D-01 9.779549D-01 1.051042D+00 1.312461D+00

 *** Quasi-degeneracy checking

 === Det (|Ci| > 1.0D-01 and dE < 5.0D-03)

 # of small denominators (single excitations)
 State       dEmin  dE < 5.0D-03  dE < 5.0D-04  dE < 5.0D-05  dE < 5.0D-06
 ----- ----------- ------------- ------------- ------------- -------------
     1    5.00D-03             0             0             0             0
     2    5.00D-03             0             0             0             0
     3    5.00D-03             0             0             0             0

 # of small denominators (double excitations)
 State       dEmin  dE < 5.0D-03  dE < 5.0D-04  dE < 5.0D-05  dE < 5.0D-06
 ----- ----------- ------------- ------------- ------------- -------------
     1    5.00D-03             0             0             0             0
     2    5.00D-03             0             0             0             0
     3    5.00D-03             0             0             0             0

 *** Zeroth-Order Setup (Granovsky's zeroth-order vectors)
 Zeroth-order effective Hamiltonian
  (= Sum_i e(i)*<I|a+(i)a(i)|J> ):
                   1            2            3
     1 -7.403217D+00
     2  4.418270D-03-7.326603D+00
     3  2.212229D-03 1.320454D-03-7.168459D+00

 Zeroth-order vectors:
 State #    1
       MC st            1           2           3
       Coeff   -9.983D-01   5.721D-02   9.075D-03
 State #    2
       MC st            2           1           3
       Coeff   -9.983D-01  -5.713D-02   9.149D-03
 State #    3
       MC st            3           1           2
       Coeff    9.999D-01   9.583D-03   8.615D-03

 *** GMC-QDPT computation

 (Integral reading:  CPU/Wall time =           0.00 /           0.00 sec.)

 One-external:
   0 -ionized terms: CPU/Wall time =           0.03 /           0.03 sec.
 (-1)-ionized terms: CPU/Wall time =           0.09 /           0.08 sec.
 (+1)-ionized terms: CPU/Wall time =           0.02 /           0.03 sec.
 (+1)-ionized terms: CPU/Wall time =           0.01 /           0.01 sec.
 (+2)-ionized terms: CPU/Wall time =           0.00 /           0.00 sec.

 Internal:
 # of macro loops for internal contribution =         1 (input)
 Loop:    1
 Dimension of internal CISD space     =         0  (after screening)
 Space construction: CPU/Wall time =           0.02 /           0.02 sec.
 Internal terms:     CPU/Wall time =           0.00 /           0.00 sec.

 Two-external:
   0 -ionized terms: CPU/Wall time =           0.06 /           0.06 sec.
 (-1)-ionized terms: CPU/Wall time =           0.99 /           0.99 sec.
 (-2)-ionized terms: CPU/Wall time =           0.17 /           0.17 sec.

 Total time:         CPU/Wall time =           1.39 /           1.39 sec.

 ***                  ***
 *** GMC-QDPT Results ***
 ***                  ***

 Diagonal elements of effective Hamiltonian:
 Heff(  1) =   -55.98120446
 Heff(  2) =   -55.85329910
 Heff(  3) =   -55.71631081

 Off-diagonal elements of effective Hamiltonian:
                   1            2
     2 -7.049753D-03
     3  2.190419D-03 1.248405D-03

 ******** GMC-QDPT energies ********
 ----------------------------------------------------------------------------
   State                        1st order                           2nd order
 ----------------------------------------------------------------------------
     1     E(REF-CI)=      -55.8835850411   E(GMC-QDPT2)=      -55.9816110236
     2     E(REF-CI)=      -55.7443696445   E(GMC-QDPT2)=      -55.8529209942
     3     E(REF-CI)=      -55.6050425634   E(GMC-QDPT2)=      -55.7162823500
 ----------------------------------------------------------------------------

 Excitation energies (invalid if E(1)/=E(GS)):
 ----------------------------------------------------------------------------
   State                        1st order                           2nd order
 ----------------------------------------------------------------------------

     TZ Sorted GMC-PT ENERGIES:
         1      -55.9816110236
         2      -55.8529209942
         3      -55.7162823500
     2     E(REF-CI)=        3.7882458 eV   E(GMC-QDPT2)=        3.5018359 eV
     3     E(REF-CI)=        7.5795308 eV   E(GMC-QDPT2)=        7.2199647 eV
 ----------------------------------------------------------------------------

 Main characters of perturbed GMC-QDPT states:

 State #    1  Energy =     -55.981611024  S =  0.500

      Det      Coef    Occupancy (Ignoring core)
      ---      ----    --------- --------- -----
        1    0.978311  11110001110000
      393    0.079432  10110101010010
      717    0.062909  11010011100001

 State #    2  Energy =     -55.852920994  S =  0.500

      Det      Coef    Occupancy (Ignoring core)
      ---      ----    --------- --------- -----
       71    0.983814  11110001011000
      822   -0.062514  11010011001001

 State #    3  Energy =     -55.716282350  S =  0.500

      Det      Coef    Occupancy (Ignoring core)
      ---      ----    --------- --------- -----
       36   -0.979976  11110001101000
      463   -0.079895  10110101001010

 <<<Max |V/de| = 2.285D-02  Thresh = 1.000D+00

 Oscillator strength (invalid if E(1)/=E(GS)):
 ----------------------------------------------------------------------------
   State                        1st order                           2nd order
 ----------------------------------------------------------------------------
     2     F(REF-CI)=        0.0003381474     F(GMC-PT2)=        0.0003225256
     3     F(REF-CI)=        0.0019600801     F(GMC-PT2)=        0.0018927918
 ----------------------------------------------------------------------------

 Dipole moment matrix elements, x, y, z, in A.U.
States    1    1        0.1570962720        0.1701086257        0.7502811241
States    1    2        0.0394217394       -0.0097130123        0.0459446906
States    1    3       -0.0309782442       -0.0782023531        0.0602111672
States    2    1        0.0394217394       -0.0097130123        0.0459446906
States    2    2        0.0674309660       -0.0326658703        0.2621120594
States    2    3       -0.1248841962        0.1307544733       -0.0009682430
States    3    1       -0.0309782442       -0.0782023531        0.0602111672
States    3    2       -0.1248841962        0.1307544733       -0.0009682430
States    3    3        0.3311812553        0.4105414163        0.2482459878

 Oscillator strength (valid only when positive): 
 ----------------------------------------------------------------------------
  States                        1st order                           2nd order
 ----------------------------------------------------------------------------
  1  1     F(REF-CI)=        0.0000000000     F(GMC-PT2)=        0.0000000000
  1  2     F(REF-CI)=       -0.0003381474     F(GMC-PT2)=       -0.0003225256
  1  3     F(REF-CI)=       -0.0019600801     F(GMC-PT2)=       -0.0018927918
  2  1     F(REF-CI)=        0.0003381474     F(GMC-PT2)=        0.0003225256
  2  2     F(REF-CI)=        0.0000000000     F(GMC-PT2)=        0.0000000000
  2  3     F(REF-CI)=       -0.0030424262     F(GMC-PT2)=       -0.0029781515
  3  1     F(REF-CI)=        0.0019600801     F(GMC-PT2)=        0.0018927918
  3  2     F(REF-CI)=        0.0030424262     F(GMC-PT2)=        0.0029781515
  3  3     F(REF-CI)=        0.0000000000     F(GMC-PT2)=        0.0000000000
 CPU     0: STEP CPU TIME=     1.92 TOTAL CPU TIME=         12.6 (      0.2 MIN)
 TOTAL WALL CLOCK TIME=         12.6 SECONDS, CPU UTILIZATION IS    99.92%

     !!! DIABATIZATION FOR REF CI STATES !!!

 *******************************************************
          $DMO GROUP FOUND IN THE INPUT.
        DIABATIZATION OF ADIABATIC STATES BEGINS.
     PROGRAMMED BY TAO ZENG (CARLETON UNIVERSITY).
               Email: toby.zeng@carleton.ca
     See T. Zeng, J. Chem. Phys. 2017, 146, 144103
 *******************************************************

 *************************************************************************
     STEP 1: TRANSFORMATION OF ADIABATIC STATES TO THE DMO REPRESENTATION
         See Atchity and Ruedenberg, J. Chem. Phys. 1999, 111, 2910
 *************************************************************************

Read in Diabatic Molecualr Orbitals:

                      1          2          3          4          5

    1  N  1  S    0.008609   0.000000   0.000000  -0.013219   0.279491
    2  N  1  S    0.442914  -0.000000   0.000000  -0.184329   0.867803
    3  N  1  S    0.276913   0.000000  -0.000000  -0.288315   0.144236
    4  N  1  X   -0.000000   0.493155  -0.024636  -0.000000  -0.000000
    5  N  1  Y    0.000000   0.024636   0.493155  -0.000000   0.000000
    6  N  1  Z    0.090197   0.000000   0.000000   0.593421   0.705309
    7  N  1  X   -0.000000   0.210628  -0.010522   0.000000   0.000000
    8  N  1  Y    0.000000   0.010522   0.210628  -0.000000  -0.000000
    9  N  1  Z   -0.004381   0.000000   0.000000   0.381592  -0.106092
   10  N  1 XX   -0.000457   0.010719  -0.000535  -0.012387   0.006153
   11  N  1 YY   -0.000457  -0.010719   0.000535  -0.012387   0.006153
   12  N  1 ZZ    0.000914  -0.000000   0.000000   0.024773  -0.012306
   13  N  1 XY    0.000000  -0.000618  -0.012377  -0.000000   0.000000
   14  N  1 XZ   -0.000000   0.026529  -0.001325  -0.000000   0.000000
   15  N  1 YZ    0.000000   0.001325   0.026529  -0.000000   0.000000
   16  H  2  S    0.194462  -0.176074   0.343485   0.112865  -0.523343
   17  H  2  S    0.003574  -0.023812   0.046452   0.024014  -0.054445
   18  H  2  X    0.018760   0.009101   0.022834   0.009336  -0.039151
   19  H  2  Y   -0.032493   0.022287  -0.020044  -0.016171   0.067811
   20  H  2  Z   -0.009251   0.008464  -0.016511   0.018769  -0.010566
   21  H  3  S    0.194462  -0.209430  -0.324227   0.112865  -0.523343
   22  H  3  S    0.003574  -0.028322  -0.043847   0.024014  -0.054445
   23  H  3  X    0.018760   0.006781  -0.023627   0.009336  -0.039151
   24  H  3  Y    0.032493  -0.024174  -0.017723   0.016171  -0.067811
   25  H  3  Z   -0.009251   0.010067   0.015585   0.018769  -0.010566
   26  H  4  S    0.194462   0.385503  -0.019258   0.112865  -0.523343
   27  H  4  S    0.003574   0.052134  -0.002604   0.024014  -0.054445
   28  H  4  X   -0.037519  -0.032295   0.001613  -0.018672   0.078302
   29  H  4  Y    0.000000   0.001067   0.021353  -0.000000   0.000000
   30  H  4  Z   -0.009251  -0.018530   0.000926   0.018769  -0.010566

                      6          7

    1  N  1  S    0.000000  -0.000000
    2  N  1  S    0.000000  -0.000000
    3  N  1  S   -0.000000   0.000000
    4  N  1  X   -0.930415  -0.002083
    5  N  1  Y   -0.002083   0.930415
    6  N  1  Z   -0.000000   0.000000
    7  N  1  X   -0.046866  -0.000105
    8  N  1  Y   -0.000105   0.046866
    9  N  1  Z   -0.000000   0.000000
   10  N  1 XX    0.001538   0.000003
   11  N  1 YY   -0.001538  -0.000003
   12  N  1 ZZ   -0.000000   0.000000
   13  N  1 XY   -0.000004   0.001776
   14  N  1 XZ    0.039985   0.000090
   15  N  1 YZ    0.000090  -0.039985
   16  H  2  S   -0.362630  -0.631354
   17  H  2  S   -0.065964  -0.114846
   18  H  2  X    0.002763  -0.037520
   19  H  2  Y    0.037435   0.040736
   20  H  2  Z    0.001882   0.003276
   21  H  3  S   -0.365454   0.629724
   22  H  3  S   -0.066477   0.114549
   23  H  3  X    0.002595   0.037532
   24  H  3  Y   -0.037617   0.040567
   25  H  3  Z    0.001896  -0.003268
   26  H  4  S    0.728084   0.001630
   27  H  4  S    0.132441   0.000297
   28  H  4  X   -0.062317  -0.000140
   29  H  4  Y    0.000055  -0.024345
   30  H  4  Z   -0.003778  -0.000008

NUMBER OF SUB ACTIVE SPACES:   1
ROTATE ACTIVE MOS TO DMOS IN EACH SUB-SPACE

SPACE  1:

OVERLAP BETWEEN ORTHONORMAL AND PRE-ORTHONORMAL REF. DMOS

             1           2           3           4           5

    1    0.9916076   0.0140082   0.0082267  -0.0030288  -0.0009278
    2    0.0140082   0.9531882   0.0437243   0.0206577  -0.0394687
    3    0.0082267   0.0437243   1.0150404   0.0167535  -0.0390661
    4   -0.0030288   0.0206577   0.0167535   0.9976296  -0.0038774
    5   -0.0009278  -0.0394687  -0.0390661  -0.0038774   1.0587739
    6   -0.0023548  -0.0342713   0.0398698   0.0232050  -0.0030331
    7    0.0031530  -0.0356181  -0.0221504  -0.0259815   0.0297648

             6           7

    1   -0.0023548   0.0031530
    2   -0.0342713  -0.0356181
    3    0.0398698  -0.0221504
    4    0.0232050  -0.0259815
    5   -0.0030331   0.0297648
    6    1.0326237   0.0108299
    7    0.0108299   1.0061371
REFERENCE DMOS AFTER ORTHONORMALIZATION:

                      1          2          3          4          5

    1  N  1  S    0.008690   0.010431   0.009676  -0.012798   0.264901
    2  N  1  S    0.446332   0.029317   0.028846  -0.182238   0.822344
    3  N  1  S    0.278399   0.007312   0.006873  -0.288382   0.136303
    4  N  1  X   -0.008937   0.487396  -0.009525   0.011317   0.014630
    5  N  1  Y   -0.007717   0.036116   0.505518   0.015857  -0.006410
    6  N  1  Z    0.093100   0.012169   0.014993   0.597378   0.669506
    7  N  1  X   -0.003091   0.221143  -0.017906  -0.003197   0.007252
    8  N  1  Y   -0.001966   0.003388   0.209107  -0.002032   0.006370
    9  N  1  Z   -0.003160  -0.011846  -0.009007   0.383030  -0.099949
   10  N  1 XX   -0.000650   0.011892  -0.000676  -0.012683   0.006193
   11  N  1 YY   -0.000352  -0.010907   0.001456  -0.012178   0.005432
   12  N  1 ZZ    0.001002  -0.000986  -0.000779   0.024862  -0.011625
   13  N  1 XY    0.000098  -0.000044  -0.012200   0.000233  -0.000492
   14  N  1 XZ   -0.000294   0.029552  -0.004067  -0.001454   0.001045
   15  N  1 YZ   -0.000073  -0.001149   0.025447  -0.001409   0.001995
   16  H  2  S    0.197995  -0.260729   0.329220   0.104481  -0.475234
   17  H  2  S    0.003962  -0.036151   0.045233   0.022518  -0.048064
   18  H  2  X    0.018786   0.005500   0.019767   0.007857  -0.034994
   19  H  2  Y   -0.033066   0.030515  -0.018737  -0.016261   0.063430
   20  H  2  Z   -0.009275   0.009204  -0.017299   0.018897  -0.010320
   21  H  3  S    0.198877  -0.223059  -0.306321   0.146330  -0.532055
   22  H  3  S    0.003858  -0.029035  -0.039574   0.029655  -0.057277
   23  H  3  X    0.018896   0.007685  -0.024701   0.010450  -0.038617
   24  H  3  Y    0.033078  -0.028042  -0.017016   0.018879  -0.066903
   25  H  3  Z   -0.009523   0.009250   0.014300   0.018243  -0.008994
   26  H  4  S    0.192480   0.410423  -0.085904   0.088659  -0.480239
   27  H  4  S    0.003210   0.057511  -0.012348   0.019949  -0.049359
   28  H  4  X   -0.037567  -0.032661   0.008722  -0.016669   0.072872
   29  H  4  Y   -0.000089  -0.000656   0.020634  -0.000937   0.001402
   30  H  4  Z   -0.009015  -0.020396   0.001332   0.019263  -0.010648

                      6          7

    1  N  1  S    0.001138  -0.007624
    2  N  1  S    0.007690  -0.028842
    3  N  1  S    0.007619  -0.012024
    4  N  1  X   -0.884964   0.024387
    5  N  1  Y   -0.030568   0.938100
    6  N  1  Z   -0.011381  -0.003788
    7  N  1  X   -0.037346   0.007445
    8  N  1  Y   -0.008540   0.051161
    9  N  1  Z   -0.009083   0.012338
   10  N  1 XX    0.002213  -0.000123
   11  N  1 YY   -0.001610  -0.000814
   12  N  1 ZZ   -0.000603   0.000937
   13  N  1 XY    0.000443   0.001510
   14  N  1 XZ    0.039889   0.000549
   15  N  1 YZ   -0.000484  -0.039312
   16  H  2  S   -0.369439  -0.609372
   17  H  2  S   -0.066292  -0.111725
   18  H  2  X    0.002231  -0.035506
   19  H  2  Y    0.038060   0.038552
   20  H  2  Z    0.002278   0.003999
   21  H  3  S   -0.360531   0.634019
   22  H  3  S   -0.065846   0.115108
   23  H  3  X    0.003015   0.038351
   24  H  3  Y   -0.037685   0.041721
   25  H  3  Z    0.001153  -0.001851
   26  H  4  S    0.718821   0.022415
   27  H  4  S    0.130029   0.002625
   28  H  4  X   -0.061235  -0.002912
   29  H  4  Y   -0.000491  -0.023825
   30  H  4  Z   -0.004874   0.000192

 -------------------------------------------
       MAXIMIZING MORMO OVERLAP TERM        
 -------------------------------------------
   SWEEP    VALUE       PROGRESS
     0     5.89110
     1     6.97722     1.08612313
     2     6.98182     0.00459369
     3     6.98182     0.00000005
     4     6.98182     0.00000000
     5     6.98182     0.00000000
     6     6.98182     0.00000000
 THE ROTATION IS DONE
FLIPPING SIGN FOR ORBITAL   7
ACTIVE ORBITALS AFTER MORMO:

                      1          2          3          4          5

    1  N  1  S    0.007903   0.014342   0.011745  -0.012502   0.242337
    2  N  1  S    0.437563   0.031592   0.022526  -0.185367   0.793541
    3  N  1  S    0.302753  -0.019288  -0.002008  -0.282382   0.169506
    4  N  1  X   -0.004131   0.467803  -0.000474   0.018105   0.006500
    5  N  1  Y   -0.007231   0.045049   0.500316   0.017384  -0.011743
    6  N  1  Z    0.088027   0.021063   0.021219   0.597807   0.656589
    7  N  1  X   -0.010512   0.254494  -0.049325  -0.024735   0.024835
    8  N  1  Y   -0.003478  -0.028554   0.194211  -0.021404   0.020656
    9  N  1  Z    0.009677  -0.033204  -0.025500   0.382869  -0.083233
   10  N  1 XX   -0.002220   0.015556  -0.001635  -0.011987   0.025175
   11  N  1 YY    0.001496  -0.015103   0.002152  -0.011666  -0.022302
   12  N  1 ZZ    0.000723  -0.000453  -0.000517   0.023653  -0.002873
   13  N  1 XY    0.002661   0.000351  -0.009059  -0.001588  -0.030181
   14  N  1 XZ    0.000680   0.025200  -0.004372  -0.000072  -0.022507
   15  N  1 YZ    0.001946  -0.001745   0.021206  -0.001835  -0.020468
   16  H  2  S    0.189965  -0.205269   0.333385   0.105442  -0.474232
   17  H  2  S    0.003405  -0.063454   0.058214   0.026360  -0.054546
   18  H  2  X    0.006734   0.014844   0.010386   0.005565  -0.028895
   19  H  2  Y   -0.033370   0.022120  -0.027029  -0.016228   0.059296
   20  H  2  Z   -0.009351   0.005053  -0.019610   0.018442  -0.014263
   21  H  3  S    0.186418  -0.217615  -0.321936   0.126737  -0.525661
   22  H  3  S   -0.000108  -0.028194  -0.033380   0.029254  -0.056377
   23  H  3  X    0.016348   0.007584  -0.022933   0.006964  -0.031039
   24  H  3  Y    0.033383  -0.026141  -0.025814   0.014675  -0.062651
   25  H  3  Z   -0.004996   0.006945   0.011877   0.020416  -0.010267
   26  H  4  S    0.190180   0.392256  -0.047881   0.098755  -0.491235
   27  H  4  S    0.003648   0.083359  -0.030722   0.022493  -0.056613
   28  H  4  X   -0.032858  -0.027939   0.001410  -0.018323   0.068045
   29  H  4  Y   -0.008438  -0.008712   0.020634  -0.001689  -0.000597
   30  H  4  Z   -0.011775  -0.023626  -0.001637   0.018071  -0.010582

                      6          7

    1  N  1  S    0.028742  -0.044891
    2  N  1  S    0.065389  -0.097455
    3  N  1  S   -0.069249   0.077331
    4  N  1  X   -0.884572   0.012649
    5  N  1  Y   -0.017994   0.927587
    6  N  1  Z   -0.034721   0.013974
    7  N  1  X   -0.034663   0.031822
    8  N  1  Y   -0.034222   0.079170
    9  N  1  Z    0.005521   0.007651
   10  N  1 XX    0.022716   0.019244
   11  N  1 YY   -0.028301  -0.011476
   12  N  1 ZZ    0.005584  -0.007768
   13  N  1 XY    0.019442  -0.018942
   14  N  1 XZ    0.028014  -0.010648
   15  N  1 YZ    0.013237  -0.050996
   16  H  2  S   -0.326225  -0.614037
   17  H  2  S   -0.090826  -0.136490
   18  H  2  X    0.019673  -0.030151
   19  H  2  Y    0.033243   0.044382
   20  H  2  Z    0.016727  -0.005359
   21  H  3  S   -0.353528   0.635329
   22  H  3  S   -0.064820   0.115092
   23  H  3  X   -0.004939   0.031086
   24  H  3  Y   -0.031957   0.052576
   25  H  3  Z   -0.000679   0.010351
   26  H  4  S    0.701356  -0.011021
   27  H  4  S    0.163967   0.016600
   28  H  4  X   -0.052454   0.005130
   29  H  4  Y   -0.004576  -0.037535
   30  H  4  Z   -0.009120  -0.013290

Actually Used Diabatic Molecualr Orbitals:

                      1          2          3          4          5

    1  N  1  S    0.007903   0.014342   0.011745  -0.012502   0.242337
    2  N  1  S    0.437563   0.031592   0.022526  -0.185367   0.793541
    3  N  1  S    0.302753  -0.019288  -0.002008  -0.282382   0.169506
    4  N  1  X   -0.004131   0.467803  -0.000474   0.018105   0.006500
    5  N  1  Y   -0.007231   0.045049   0.500316   0.017384  -0.011743
    6  N  1  Z    0.088027   0.021063   0.021219   0.597807   0.656589
    7  N  1  X   -0.010512   0.254494  -0.049325  -0.024735   0.024835
    8  N  1  Y   -0.003478  -0.028554   0.194211  -0.021404   0.020656
    9  N  1  Z    0.009677  -0.033204  -0.025500   0.382869  -0.083233
   10  N  1 XX   -0.002220   0.015556  -0.001635  -0.011987   0.025175
   11  N  1 YY    0.001496  -0.015103   0.002152  -0.011666  -0.022302
   12  N  1 ZZ    0.000723  -0.000453  -0.000517   0.023653  -0.002873
   13  N  1 XY    0.002661   0.000351  -0.009059  -0.001588  -0.030181
   14  N  1 XZ    0.000680   0.025200  -0.004372  -0.000072  -0.022507
   15  N  1 YZ    0.001946  -0.001745   0.021206  -0.001835  -0.020468
   16  H  2  S    0.189965  -0.205269   0.333385   0.105442  -0.474232
   17  H  2  S    0.003405  -0.063454   0.058214   0.026360  -0.054546
   18  H  2  X    0.006734   0.014844   0.010386   0.005565  -0.028895
   19  H  2  Y   -0.033370   0.022120  -0.027029  -0.016228   0.059296
   20  H  2  Z   -0.009351   0.005053  -0.019610   0.018442  -0.014263
   21  H  3  S    0.186418  -0.217615  -0.321936   0.126737  -0.525661
   22  H  3  S   -0.000108  -0.028194  -0.033380   0.029254  -0.056377
[...]
        1    0.055621   -0.055621  222+000
      121    0.039787   -0.039787  +22-00+
      249    0.034045   -0.034045  20+2200
      472    0.032501    0.032501  2+020-+
      285    0.030419   -0.030419  02+2200
      253    0.029043    0.029043  20+2-+0
      112   -0.028413   -0.028413  +2-20+0
      113    0.028243   -0.028243  +-220+0
      460   -0.027699   -0.027699  -++2+-0
      288   -0.026654   -0.026654  +-+2-+0
      716    0.023983    0.023983  22+0002
      142    0.023620    0.023620  22+0200
      822   -0.022917    0.022917  2+02002
      771   -0.022873   -0.022873  +22+00-
       74    0.022786   -0.022786  2022+00
       51   -0.022313    0.022313  22+-00+
      148   -0.021842   -0.021842  2-++-+0
      297   -0.021388    0.021388  +202-0+
      457   -0.021329    0.021329  2++-+-0
       76    0.021204    0.021204  2+2-0+0
       52   -0.020828    0.020828  220200+
      248   -0.020623    0.020623  2+02200
      145   -0.020454   -0.020454  -2++200
      459   -0.020444    0.020444  20+2+-0
      458    0.020421   -0.020421  2+02+-0
      250    0.020234    0.020234  -++2200

 ---------------------------------------
    -DIABATIC STATES IN PROTOTYPES-     
 ---------------------------------------

     STATE:    1
 Group Ref#    Coefficients
     1    1    0.981836
     2    2    0.000917
     3    3   -0.000800

WEIGHT OF LISTED PROTOTYPES:   96.40%

     STATE:    2
 Group Ref#    Coefficients
     1    1    0.000917
     2    2    0.982347
     3    3   -0.000387

WEIGHT OF LISTED PROTOTYPES:   96.50%

     STATE:    3
 Group Ref#    Coefficients
     1    1   -0.000800
     2    2   -0.000387
     3    3    0.980113

WEIGHT OF LISTED PROTOTYPES:   96.06%

 --------------------------------------------------
 IN DIRECT MAX. DIABATIZATION FOR GMC-QDPT

 DIRECT MAXIMIZATION (DM) WITHOUT TRUNCATING ADIABATS
 EXPANSIONS INTO THE REFERENCE CONFIGURATION SPACE
 --------------------------------------------------

 -------------------------------------------
 - DM DIABT PT HAMILTONIAN MATRIX ELEMENTS -
 -------------------------------------------
                                            
 --- DIABATIC ENERGIES (DIAGONAL ELEMENT) ---       HARTREE            EV
 STATE #  1'S GMC-PT-LEVEL DIABATIC ENERGY=     -55.977124579       0.000000000
 STATE #  2'S GMC-PT-LEVEL DIABATIC ENERGY=     -55.830021222       4.002886224
 STATE #  3'S GMC-PT-LEVEL DIABATIC ENERGY=     -55.743668567       6.352661641

 --- DIABATIC COUPLINGS (OFF DIAGONAL ELEMENTS)---  HATREE            EV
 STATE #  1 &  2'S GMC-PT-LEVEL COUPLING  =      -0.023035527      -0.626828620
 STATE #  1 &  3'S GMC-PT-LEVEL COUPLING  =      -0.022544915      -0.613478394
 STATE #  2 &  3'S GMC-PT-LEVEL COUPLING  =       0.051314728       1.396344862

 ---------------------------------------
     - ROTATION TO DIABATIC STATES -    
 ---------------------------------------
 ROWS=ADIABATIC, COLUMNS=DIABATIC STATES

             1           2           3

    1   -0.9895677  -0.1279781  -0.0661612
    2   -0.0864268   0.8947638  -0.4380960
    3   -0.1152653   0.4278075   0.8964902

 ---------------------------------------
          - DIABATIC STATES -           
 ---------------------------------------

 State #    1  Energy =     -55.977124579

      Det      Coef        Coefp    Occupancy (Ignoring core)
      ---      ----        ----    --------- --------- -----
        1    0.963834   -0.963834  222+000
        8   -0.094239    0.094239  2-2+0+0
      393   -0.075136   -0.075136  202+020
      717   -0.066648   -0.066648  220+002
      386    0.064472   -0.064472  2+2+0-0
        4   -0.055609    0.055609  2-2++00
      176    0.053966   -0.053966  2+2+-00
        7    0.048972    0.048972  22-+0+0
        3   -0.047986   -0.047986  22-++00
      141    0.047048    0.047048  22++-00
      351   -0.044937   -0.044937  22++0-0
      708    0.039806   -0.039806  2-++0+-
      402    0.038080   -0.038080  2+-+0-+
       18   -0.037673    0.037673  2-2+00+
      736    0.036274   -0.036274  2+2+00-
      215   -0.035797   -0.035797  022+200
        6    0.034792   -0.034792  22200+0
      218    0.034038   -0.034038  +-2+-+0
      390    0.033651   -0.033651  -+2++-0
      227   -0.033024   -0.033024  +2-+-0+
      705   -0.032944   -0.032944  -2+++0-
       16   -0.031058    0.031058  222000+
       76    0.029767    0.029767  2+2-0+0
      212    0.028746    0.028746  +220200
      113   -0.027552    0.027552  +-220+0
       17    0.027144    0.027144  22-+00+
       51   -0.026335    0.026335  22+-00+
      143   -0.024357   -0.024357  220+200
      424   -0.024339   -0.024339  +-2++-0
      122    0.023965    0.023965  +2-200+
      184   -0.023358   -0.023358  -+2+-+0
      387   -0.023299    0.023299  2+20+-0
        2    0.022762   -0.022762  2220+00
      773    0.022088   -0.022088  +2-++0-
      702    0.022006    0.022006  22+0+0-
      159    0.021535   -0.021535  -2++-0+
      179   -0.021230   -0.021230  202+200
     1051   -0.021081   -0.021081  2+++0--

 State #    2  Energy =     -55.830021222

      Det      Coef        Coefp    Occupancy (Ignoring core)
      ---      ----        ----    --------- --------- -----
       71   -0.966707    0.966707  2+22000
       74    0.082593   -0.082593  2022+00
      822    0.065246   -0.065246  2+02002
       76    0.062808    0.062808  2+2-0+0
      246    0.057827    0.057827  2++2-00
       77    0.050933   -0.050933  2+-20+0
      386   -0.050581    0.050581  2+2+0-0
       73   -0.047942    0.047942  2+-2+00
      456   -0.046781   -0.046781  2++20-0
       36    0.045969    0.045969  22+2000
      813    0.042708   -0.042708  20+20+-
      736    0.038030   -0.038030  2+2+00-
       78    0.037413   -0.037413  20220+0
      323   -0.035856    0.035856  +022-+0
       86   -0.035758   -0.035758  2+2-00+
       88    0.035473   -0.035473  202200+
      320    0.035318    0.035318  0+22200
      111    0.034541   -0.034541  +22-0+0
      106    0.034416    0.034416  +222000
      810   -0.033371   -0.033371  -++2+0-
      113    0.031923   -0.031923  +-220+0
      332   -0.031530    0.031530  ++-2-0+
      180   -0.029737    0.029737  -+2+200
      317    0.029473   -0.029473  ++2-200
       38   -0.028989    0.028989  2202+00
      177    0.028034   -0.028034  2+20200
      183   -0.027918    0.027918  202+-+0
       99   -0.027855    0.027855  20-20++
      248    0.024878   -0.024878  2+02200
       81    0.023967    0.023967  202-++0
        6    0.023938   -0.023938  22200+0
      526   -0.023384   -0.023384  ++220-0
      807   -0.023018    0.023018  2++-+0-
      192   -0.022596    0.022596  2+-+-0+
      529    0.022339    0.022339  +022+-0
      391    0.022129   -0.022129  2+20020
       51    0.021836   -0.021836  22+-00+
      878    0.021307    0.021307  ++-2+0-
      751    0.020824   -0.020824  2+20002
      534    0.020626    0.020626  0+22020
      264    0.020591   -0.020591  -++2-0+

 State #    3  Energy =     -55.743668567

      Det      Coef        Coefp    Occupancy (Ignoring core)
      ---      ----        ----    --------- --------- -----
       36   -0.967397   -0.967397  22+2000
      463    0.077312   -0.077312  20+2020
      456   -0.065851   -0.065851  2++20-0
      246   -0.059406   -0.059406  2++2-00
       43    0.051074    0.051074  2-+20+0
       38    0.050364   -0.050364  2202+00
       71   -0.047047    0.047047  2+22000
      472   -0.043851   -0.043851  2+020-+
       53    0.042888    0.042888  2-+200+
       42   -0.042125    0.042125  22020+0
      121   -0.041430    0.041430  +22-00+
      806   -0.040786   -0.040786  2++200-
       51   -0.039352    0.039352  22+-00+
      701    0.036745    0.036745  22++00-
      285    0.036107   -0.036107  02+2200
      460   -0.035326   -0.035326  -++2+-0
      112   -0.035087   -0.035087  +2-20+0
      288   -0.033881   -0.033881  +-+2-+0
       52    0.033801   -0.033801  220200+
      297    0.032830   -0.032830  +202-0+
      351   -0.032278   -0.032278  22++0-0
       39    0.031488    0.031488  2-+2+00
      282    0.029719    0.029719  +2+-200
      145   -0.029545   -0.029545  -2++200
       64    0.028091   -0.028091  2-020++
      142    0.028070    0.028070  22+0200
       73    0.027918   -0.027918  2+-2+00
      457   -0.026459    0.026459  2++-+-0
       16   -0.026351    0.026351  222000+
      148   -0.025889   -0.025889  2-++-+0
      106    0.025766    0.025766  +222000
      254    0.024560   -0.024560  -++2-+0
      249    0.023954   -0.023954  20+2200
      157    0.023735   -0.023735  220+-0+
      494    0.023511   -0.023511  +-+2+-0
      716    0.023013    0.023013  22+0002
      771    0.022078    0.022078  +22+00-
       44    0.021065   -0.021065  -2+20+0
      123    0.021031   -0.021031  +-2200+
      356    0.020691    0.020691  22+0020
       86    0.020089    0.020089  2+2-00+

 ---------------------------------------
      - DIABATIC STATES IN CMO -        
 ---------------------------------------

 State #    1  Energy =     -55.977124579

      Det      Coef        Coefp    Occupancy (Ignoring core)
      ---      ----        ----    --------- --------- -----
        1    0.965922   -0.965922  222+000
       36    0.114215    0.114215  22+2000
       71    0.106406   -0.106406  2+22000
      393   -0.079393   -0.079393  202+020
      717   -0.064033   -0.064033  220+002
       17   -0.040767   -0.040767  22-+00+
        8   -0.040660    0.040660  2-2+0+0
      215   -0.033822   -0.033822  022+200
      402   -0.033644    0.033644  2+-+0-+
      390    0.031494   -0.031494  -+2++-0
      708   -0.031189    0.031189  2-++0+-
      179   -0.030491   -0.030491  202+200
      218    0.029427   -0.029427  +-2+-+0
       76    0.028962    0.028962  2+2-0+0
      106   -0.028821   -0.028821  +222000
      113   -0.027009    0.027009  +-220+0
        2    0.025933   -0.025933  2220+00
      388   -0.025823   -0.025823  2+-++-0
      705    0.025238    0.025238  -2+++0-
      227    0.024655    0.024655  +2-+-0+
       51    0.023527   -0.023527  22+-00+
      387   -0.023225    0.023225  2+20+-0
      122   -0.022316   -0.022316  +2-200+
      143   -0.022267   -0.022267  220+200
      148   -0.021791   -0.021791  2-++-+0
      212    0.021553    0.021553  +220200
      357   -0.021317   -0.021317  220+020
      184   -0.020139   -0.020139  -+2+-+0

 State #    2  Energy =     -55.830021222

      Det      Coef        Coefp    Occupancy (Ignoring core)
      ---      ----        ----    --------- --------- -----
       71   -0.875013    0.875013  2+22000
       36   -0.423973   -0.423973  22+2000
        1    0.146795   -0.146795  222+000
      822    0.057911   -0.057911  2+02002
      463    0.039175   -0.039175  20+2020
      813   -0.034480    0.034480  20+20+-
      320    0.030356    0.030356  0+22200
      113    0.029856   -0.029856  +-220+0
      177    0.027267   -0.027267  2+20200
      323   -0.027019    0.027019  +022-+0
      183   -0.026404    0.026404  202+-+0
        6    0.025175   -0.025175  22200+0
      810    0.024057    0.024057  -++2+0-
      462    0.023929   -0.023929  2+02020
      111    0.023559   -0.023559  +22-0+0
      112    0.021831    0.021831  +2-20+0
      180   -0.021664    0.021664  -+2+200
      332    0.021629   -0.021629  ++-2-0+
       74    0.021625   -0.021625  2022+00
      751    0.020926   -0.020926  2+20002
       42   -0.020587    0.020587  22020+0
       73   -0.020193    0.020193  2+-2+00

 State #    3  Energy =     -55.743668567

      Det      Coef        Coefp    Occupancy (Ignoring core)
      ---      ----        ----    --------- --------- -----
       36   -0.876119   -0.876119  22+2000
       71    0.437546   -0.437546  2+22000
      463    0.069057   -0.069057  20+2020
        1    0.055620   -0.055620  222+000
      121    0.039787   -0.039787  +22-00+
      249    0.034045   -0.034045  20+2200
      472    0.032501    0.032501  2+020-+
      285    0.030419   -0.030419  02+2200
      253    0.029043    0.029043  20+2-+0
      112   -0.028413   -0.028413  +2-20+0
      113    0.028243   -0.028243  +-220+0
      460   -0.027699   -0.027699  -++2+-0
      288   -0.026654   -0.026654  +-+2-+0
      716    0.023983    0.023983  22+0002
      142    0.023620    0.023620  22+0200
      822   -0.022917    0.022917  2+02002
      771   -0.022873   -0.022873  +22+00-
       74    0.022786   -0.022786  2022+00
       51   -0.022313    0.022313  22+-00+
      148   -0.021842   -0.021842  2-++-+0
      297   -0.021388    0.021388  +202-0+
      457   -0.021329    0.021329  2++-+-0
       76    0.021204    0.021204  2+2-0+0
       52   -0.020828    0.020828  220200+
      248   -0.020623    0.020623  2+02200
      145   -0.020454   -0.020454  -2++200
      459   -0.020444    0.020444  20+2+-0
      458    0.020421   -0.020421  2+02+-0
      250    0.020234    0.020234  -++2200

 ---------------------------------------
    -DIABATIC STATES IN PROTOTYPES-     
 ---------------------------------------

     STATE:    1
 Group Ref#    Coefficients
     1    1    0.981836
     2    2    0.000917
     3    3   -0.000799

WEIGHT OF LISTED PROTOTYPES:   96.40%

     STATE:    2
 Group Ref#    Coefficients
     1    1    0.000917
     2    2    0.982347
     3    3   -0.000386

WEIGHT OF LISTED PROTOTYPES:   96.50%

     STATE:    3
 Group Ref#    Coefficients
     1    1   -0.000800
     2    2   -0.000387
     3    3    0.980113

WEIGHT OF LISTED PROTOTYPES:   96.06%

     DIRECT MAX. DIABATIZATION FINISHED    
 CPU     0: STEP CPU TIME=     0.25 TOTAL CPU TIME=         12.8 (      0.2 MIN)
 TOTAL WALL CLOCK TIME=         12.8 SECONDS, CPU UTILIZATION IS    99.92%

DIABATS FOR SPIN-ORBIT CALCULATION ARE READY

TRANSITION DIPOLES BETWEEN ADIABATS (in A.U.):

STATE PAIR      X         Y         Z
    1    1  0.157096  0.170109  0.750281
    2    1  0.039422 -0.009713  0.045945
    2    2  0.067431 -0.032666  0.262112
    3    1 -0.030978 -0.078202  0.060211
    3    2 -0.124884  0.130754 -0.000968
    3    3  0.331181  0.410541  0.248246


TRANSITION DIPOLES BETWEEN DIABATS (in A.U.):

STATE PAIR      X         Y         Z
    1    1  0.155927  0.154892  0.761540
    2    1 -0.005965  0.025950 -0.002132
    2    2  0.015927  0.162660  0.249713
    3    1  0.026547  0.028463  0.000645
    3    2  0.029452  0.263292 -0.010536
    3    3  0.383855  0.230432  0.249386

TRANSITION DIPOLES BETWEEN DIRECT MAX. DIABATS (in A.U.):

STATE PAIR      X         Y         Z
    1    1  0.155927  0.154892  0.761540
    2    1 -0.005965  0.025951 -0.002132
    2    2  0.015927  0.162661  0.249713
    3    1  0.026547  0.028463  0.000644
    3    2  0.029452  0.263292 -0.010536
    3    3  0.383854  0.230431  0.249386
 No $TRANST Group Found.
 Quit without doing spin-orbit coupling
 ..... DONE WITH MP2 ENERGY .....
 CPU     0: STEP CPU TIME=     0.00 TOTAL CPU TIME=         12.8 (      0.2 MIN)
 TOTAL WALL CLOCK TIME=         12.8 SECONDS, CPU UTILIZATION IS    99.84%
            100000000  WORDS OF DYNAMIC MEMORY USED
 EXECUTION OF GAMESS TERMINATED NORMALLY Wed Nov 16 19:47:12 2022
 DDI: 715512 bytes (0.7 MB / 0 MWords) used by master data server.

 ----------------------------------------
 CPU timing information for all processes
 ========================================
 0: 12.544 + 0.276 = 12.820
 ----------------------------------------
Note: The following floating-point exceptions are signalling: IEEE_DENORMAL
 ddikick.x: exited gracefully.
unset echo
----- accounting info -----
Files used on the master node io002 were:
-rw-r--r-- 1 bsonghao nooijen   20728 Nov 16 19:46 /scratch/bsonghao/nh3_diabatization_2d_at_mode_7_8_dist0.3_0.3.F05
-rw-r--r-- 1 bsonghao nooijen  363520 Nov 16 19:47 /scratch/bsonghao/nh3_diabatization_2d_at_mode_7_8_dist0.3_0.3.F09
-rw-r--r-- 1 bsonghao nooijen 1995920 Nov 16 19:47 /scratch/bsonghao/nh3_diabatization_2d_at_mode_7_8_dist0.3_0.3.F10
-rw-r--r-- 1 bsonghao nooijen  131264 Nov 16 19:47 /scratch/bsonghao/nh3_diabatization_2d_at_mode_7_8_dist0.3_0.3.F13
-rw-r--r-- 1 bsonghao nooijen  180312 Nov 16 19:47 /scratch/bsonghao/nh3_diabatization_2d_at_mode_7_8_dist0.3_0.3.F15
-rw-r--r-- 1 bsonghao nooijen       0 Nov 16 19:46 /scratch/bsonghao/nh3_diabatization_2d_at_mode_7_8_dist0.3_0.3.F16
-rw-r--r-- 1 bsonghao nooijen    9808 Nov 16 19:47 /scratch/bsonghao/nh3_diabatization_2d_at_mode_7_8_dist0.3_0.3.F70
-rw-r--r-- 1 bsonghao nooijen    9808 Nov 16 19:47 /scratch/bsonghao/nh3_diabatization_2d_at_mode_7_8_dist0.3_0.3.F71
-rw-r--r-- 1 bsonghao nooijen   19608 Nov 16 19:47 /scratch/bsonghao/nh3_diabatization_2d_at_mode_7_8_dist0.3_0.3.F72
-rw-r--r-- 1 bsonghao nooijen   19608 Nov 16 19:47 /scratch/bsonghao/nh3_diabatization_2d_at_mode_7_8_dist0.3_0.3.F73
-rw-r--r-- 1 bsonghao nooijen 1920824 Nov 16 19:47 /scratch/bsonghao/nh3_diabatization_2d_at_mode_7_8_dist0.3_0.3.F74
-rw-r--r-- 1 bsonghao nooijen       0 Nov 16 19:46 /scratch/bsonghao/nh3_diabatization_2d_at_mode_7_8_dist0.3_0.3.F75
-rw-r--r-- 1 bsonghao nooijen   58848 Nov 16 19:47 /scratch/bsonghao/nh3_diabatization_2d_at_mode_7_8_dist0.3_0.3.F76
-rw-r--r-- 1 bsonghao nooijen       0 Nov 16 19:46 /scratch/bsonghao/nh3_diabatization_2d_at_mode_7_8_dist0.3_0.3.F77
-rw-r--r-- 1 bsonghao nooijen    1864 Nov 16 19:47 /scratch/bsonghao/nh3_diabatization_2d_at_mode_7_8_dist0.3_0.3.F78
-rw-r--r-- 1 bsonghao nooijen   39208 Nov 16 19:47 /scratch/bsonghao/nh3_diabatization_2d_at_mode_7_8_dist0.3_0.3.F79
-rw-r--r-- 1 bsonghao nooijen     104 Nov 16 19:47 /scratch/bsonghao/nh3_diabatization_2d_at_mode_7_8_dist0.3_0.3.F80
-rw-r--r-- 1 bsonghao nooijen   13472 Nov 16 19:47 /scratch/bsonghao/nh3_diabatization_2d_at_mode_7_8_dist0.3_0.3.F81
-rw-r--r-- 1 bsonghao nooijen      16 Nov 16 19:47 /scratch/bsonghao/nh3_diabatization_2d_at_mode_7_8_dist0.3_0.3.F82
-rw-r--r-- 1 bsonghao nooijen   19216 Nov 16 19:47 /scratch/bsonghao/nh3_diabatization_2d_at_mode_7_8_dist0.3_0.3.F83
-rw-r--r-- 1 bsonghao nooijen   29712 Nov 16 19:47 /scratch/bsonghao/nh3_diabatization_2d_at_mode_7_8_dist0.3_0.3.F84
-rw-r--r-- 1 bsonghao nooijen  401576 Nov 16 19:47 /scratch/bsonghao/nh3_diabatization_2d_at_mode_7_8_dist0.3_0.3.F85
-rw-r--r-- 1 bsonghao nooijen  903672 Nov 16 19:47 /scratch/bsonghao/nh3_diabatization_2d_at_mode_7_8_dist0.3_0.3.F86
-rw-r--r-- 1 bsonghao nooijen     656 Nov 16 19:47 /scratch/bsonghao/nh3_diabatization_2d_at_mode_7_8_dist0.3_0.3.F87
-rw-r--r-- 1 bsonghao nooijen   29392 Nov 16 19:47 /scratch/bsonghao/nh3_diabatization_2d_at_mode_7_8_dist0.3_0.3.F88
-rw-r--r-- 1 bsonghao nooijen     240 Nov 16 19:47 /scratch/bsonghao/nh3_diabatization_2d_at_mode_7_8_dist0.3_0.3.F89
-rw-r--r-- 1 bsonghao nooijen       0 Nov 16 19:46 /scratch/bsonghao/nh3_diabatization_2d_at_mode_7_8_dist0.3_0.3.F90
-rw-r--r-- 1 bsonghao nooijen   13760 Nov 16 19:47 /scratch/bsonghao/nh3_diabatization_2d_at_mode_7_8_dist0.3_0.3.F91
-rw-r--r-- 1 bsonghao nooijen   22776 Nov 16 19:47 /scratch/bsonghao/nh3_diabatization_2d_at_mode_7_8_dist0.3_0.3.F92
-rw-r--r-- 1 bsonghao nooijen   23168 Nov 16 19:47 /scratch/bsonghao/nh3_diabatization_2d_at_mode_7_8_dist0.3_0.3.F93
-rw-r--r-- 1 bsonghao nooijen   22776 Nov 16 19:47 /scratch/bsonghao/nh3_diabatization_2d_at_mode_7_8_dist0.3_0.3.F94
-rw-r--r-- 1 bsonghao nooijen   13760 Nov 16 19:47 /scratch/bsonghao/nh3_diabatization_2d_at_mode_7_8_dist0.3_0.3.F95
-rw-r--r-- 1 bsonghao nooijen   29440 Nov 16 19:47 /scratch/bsonghao/nh3_diabatization_2d_at_mode_7_8_dist0.3_0.3.F96
-rw-r--r-- 1 bsonghao nooijen    1184 Nov 16 19:47 /scratch/bsonghao/nh3_diabatization_2d_at_mode_7_8_dist0.3_0.3.F97
-rw-r--r-- 1 bsonghao nooijen    9808 Nov 16 19:47 /scratch/bsonghao/nh3_diabatization_2d_at_mode_7_8_dist0.3_0.3.F98
-rw-r--r-- 1 bsonghao nooijen   30264 Nov 16 19:47 /scratch/bsonghao/nh3_diabatization_2d_at_mode_7_8_dist0.3_0.3.F99
ls: No match.
ls: No match.
ls: No match.
Wed 16 Nov 2022 07:47:15 PM EST
0.281u 0.047s 0:16.19 1.9%	0+0k 48+224io 0pf+0w
