----- GAMESS execution script 'rungms' -----
This job is running on host io002
under operating system Linux at Wed 16 Nov 2022 07:16:15 PM EST
Available scratch disk space (Kbyte units) at beginning of the job is
Filesystem       1K-blocks       Used   Available Use% Mounted on
/dev/sdc1      15378471580 3278917120 11318349060  23% /scratch
GAMESS temporary binary files will be written to /scratch/bsonghao
GAMESS supplementary output files will be written to /home/bsonghao/.gamess_ascii_files/267638
Copying input file nh3_diabatization_2d_at_mode_7_8_dist-0.1_0.1.inp to your run's scratch directory...
cp nh3_diabatization_2d_at_mode_7_8_dist-0.1_0.1.inp /scratch/bsonghao/nh3_diabatization_2d_at_mode_7_8_dist-0.1_0.1.F05
unset echo
/home/bjb2chen/gamess/ddikick.x /home/bjb2chen/gamess/gamess.00.x nh3_diabatization_2d_at_mode_7_8_dist-0.1_0.1 -ddi 1 1 io002 -scr /scratch/bsonghao

 Distributed Data Interface kickoff program.
 Initiating 1 compute processes on 1 nodes to run the following command:
 /home/bjb2chen/gamess/gamess.00.x nh3_diabatization_2d_at_mode_7_8_dist-0.1_0.1 

          ******************************************************
          *         GAMESS VERSION = 02 AUG 2018 (R2)         *
          *             FROM IOWA STATE UNIVERSITY             *
          * M.W.SCHMIDT, K.K.BALDRIDGE, J.A.BOATZ, S.T.ELBERT, *
          *   M.S.GORDON, J.H.JENSEN, S.KOSEKI, N.MATSUNAGA,   *
          *          K.A.NGUYEN, S.J.SU, T.L.WINDUS,           *
          *       TOGETHER WITH M.DUPUIS, J.A.MONTGOMERY       *
          *         J.COMPUT.CHEM.  14, 1347-1363(1993)        *
          **************** 64 BIT LINUX VERSION ****************

  SINCE 1993, STUDENTS AND POSTDOCS WORKING AT IOWA STATE UNIVERSITY
  AND ALSO IN THEIR VARIOUS JOBS AFTER LEAVING ISU HAVE MADE IMPORTANT
  CONTRIBUTIONS TO THE CODE:
     IVANA ADAMOVIC, CHRISTINE AIKENS, YURI ALEXEEV, POOJA ARORA,
     ANDREY ASADCHEV, ROB BELL, PRADIPTA BANDYOPADHYAY, JONATHAN BENTZ,
     BRETT BODE, KURT BRORSEN, CALEB CARLIN, GALINA CHABAN, WEI CHEN,
     CHEOL HO CHOI, PAUL DAY, ALBERT DEFUSCO, NUWAN DESILVA, TIM DUDLEY,
     DMITRI FEDOROV, ALEX FINDLATER, GRAHAM FLETCHER, MARK FREITAG,
     KURT GLAESEMANN, ANASTASIA GUININA,
     DAN KEMP, GRANT MERRILL, NORIYUKI MINEZAWA, JONATHAN MULLIN,
     TAKESHI NAGATA, SEAN NEDD, HEATHER NETZLOFF, BOSILJKA NJEGIC, RYAN OLSON,
     MIKE PAK, BUU PHAM,
     SPENCER PRUITT, LUKE ROSKOP, JIM SHOEMAKER, LYUDMILA SLIPCHENKO,
     TONY SMITH, SAROM SOK LEANG, JIE SONG, TETSUYA TAKETSUGU, SIMON WEBB,
     PENG XU, SOOHAENG YOO, FEDERICO ZAHARIEV

  ADDITIONAL CODE HAS BEEN PROVIDED BY COLLABORATORS IN OTHER GROUPS:
     IOWA STATE UNIVERSITY:
          JOE IVANIC, AARON WEST, LAIMUTIS BYTAUTAS, KLAUS RUEDENBERG
     UNIVERSITY OF TOKYO: KIMIHIKO HIRAO, TAKAHITO NAKAJIMA,
          TAKAO TSUNEDA, MUNEAKI KAMIYA, SUSUMU YANAGISAWA,
          KIYOSHI YAGI, MAHITO CHIBA, SEIKEN TOKURA, NAOAKI KAWAKAMI
     UNIVERSITY OF AARHUS: FRANK JENSEN
     UNIVERSITY OF IOWA: VISVALDAS KAIRYS, HUI LI
     NATIONAL INST. OF STANDARDS AND TECHNOLOGY: WALT STEVENS, DAVID GARMER
     UNIVERSITY OF PISA: BENEDETTA MENNUCCI, JACOPO TOMASI
     UNIVERSITY OF MEMPHIS: HENRY KURTZ, PRAKASHAN KORAMBATH
     UNIVERSITY OF ALBERTA: TOBY ZENG, MARIUSZ KLOBUKOWSKI
     UNIVERSITY OF NEW ENGLAND: MARK SPACKMAN
     MIE UNIVERSITY: HIROAKI UMEDA
     NAT. INST. OF ADVANCED INDUSTRIAL SCIENCE AND TECHNOLOGY: KAZUO KITAURA
     MICHIGAN STATE UNIVERSITY:
          KAROL KOWALSKI, MARTA WLOCH, JEFFREY GOUR, JESSE LUTZ,
          WEI LI, JUN SHEN, J. EMILIANO DEUSTUA, PIOTR PIECUCH
     UNIVERSITY OF MINNESOTA:
          YINAN SHU
     UNIVERSITY OF SILESIA: MONIKA MUSIAL, STANISLAW KUCHARSKI
     FACULTES UNIVERSITAIRES NOTRE-DAME DE LA PAIX:
          OLIVIER QUINET, BENOIT CHAMPAGNE
     UNIVERSITY OF CALIFORNIA - SANTA BARBARA: BERNARD KIRTMAN
     INSTITUTE FOR MOLECULAR SCIENCE:
          KAZUYA ISHIMURA, MICHIO KATOUDA, AND SHIGERU NAGASE
     UNIVERSITY OF NOTRE DAME: ANNA POMOGAEVA, DAN CHIPMAN
     KYUSHU UNIVERSITY:
          HARUYUKI NAKANO,
          FENG LONG GU, JACEK KORCHOWIEC, MARCIN MAKOWSKI, AND YURIKO AOKI,
          HIROTOSHI MORI AND EISAKU MIYOSHI
     PENNSYLVANIA STATE UNIVERSITY:
          TZVETELIN IORDANOV, CHET SWALINA, JONATHAN SKONE,
          SHARON HAMMES-SCHIFFER
     WASEDA UNIVERSITY:
          MASATO KOBAYASHI, TOMOKO AKAMA, TSUGUKI TOUMA,
          TAKESHI YOSHIKAWA, YASUHIRO IKABATA, JUNJI SEINO,
          YUYA NAKAJIMA, HIROMI NAKAI
     NANJING UNIVERSITY: SHUHUA LI
     UNIVERSITY OF NEBRASKA:
          PEIFENG SU, DEJUN SI, NANDUN THELLAMUREGE, YALI WANG, HUI LI
     UNIVERSITY OF ZURICH: ROBERTO PEVERATI, KIM BALDRIDGE
     N. COPERNICUS UNIVERSITY AND JACKSON STATE UNIVERSITY:
          MARIA BARYSZ
     UNIVERSITY OF COPENHAGEN: Jimmy Kromann, CASPER STEINMANN
     TOKYO INSTITUTE OF TECHNOLOGY: HIROYA NAKATA
     NAGOYA UNIVERSITY: YOSHIO NISHIMOTO, STEPHAN IRLE
     MOSCOW STATE UNIVERSITY: VLADIMIR MIRONOV

 EXECUTION OF GAMESS BEGUN Wed Nov 16 19:16:15 2022

            ECHO OF THE FIRST FEW INPUT CARDS -
 INPUT CARD> $system kdiag=3 mwords=100 memddi=1000 parall=.t. $end                         
 INPUT CARD> $contrl runtyp=energy ispher=1 $end                                            
 INPUT CARD> $contrl icut=9 itol=20 inttyp=rysquad qmttol=1.0d-05 nosym=1 $end              
 INPUT CARD> $scf    npunch=2 conv=1.0d-06 dirscf=.t.      $end                             
 INPUT CARD> $contrl scftyp=mcscf  mult=2 maxit=200 icharg=1 mplevl=2 $end                  
 INPUT CARD> $guess  guess=moread norb=29 purify=.t. $end                                   
 INPUT CARD> $basis  gbasis=ccd $end                                                        
 INPUT CARD> $mcscf  cistep=gmcci fullnr=.t. finci=mos                                      
 INPUT CARD>         acurcy=1.d-6 maxit=100 $end                                            
 INPUT CARD> $trans  dirtrf=.t. $end                                                        
 INPUT CARD> $mrmp   mrpt=gmcpt rdvecs=.f. $end                                             
 INPUT CARD> $gmcpt  nmofzc=0 nmodoc=1 nmoact=7 nelact=7 stsym(1)=A                         
 INPUT CARD>         reftyp=ormas nspace=1 mstart(1)=2 mine(1)=7 maxe(1)=7                  
 INPUT CARD>         kstate(1)=1,1,1                                                        
 INPUT CARD>         wstate(1)=1,1,1                                                        
 INPUT CARD>         iwgt=0 thrwgt=-1.0 krot=.f. kszdoe=.f. knospn=.f.                      
 INPUT CARD>         thrde=-1.0 edshft=0.02 $end                                            
 INPUT CARD> $data                                                                          
 INPUT CARD> NH3+ 3 states calculation at NH3 structure.                                    
 INPUT CARD> c1                                                                             
 INPUT CARD>N 7.0 -0.006228917999999998 0.006228902999999999 -0.1693807382                  
 INPUT CARD>H 1.0 -0.452626162 0.8373937628 0.22040105310000002                             
 INPUT CARD>H 1.0 -0.376200847 -0.8509707318 0.26612252610000003                            
 INPUT CARD>H 1.0 0.915379498 -0.07297574199999998 0.2828579321                             
 INPUT CARD>$end                                                                            
 INPUT CARD>--- OPTIMIZED RHF      MO-S --- GENERATED AT Mon Nov 14 16:47:08 2022           
 INPUT CARD>E=      -56.3825050291, E(NUC)=   11.8429239490                                 
 INPUT CARD> $VEC                                                                           
 INPUT CARD> 1  1-1.00134066E+00-2.25158504E-03 3.44925845E-03 0.00000000E+00 0.00000000E+00
 INPUT CARD> 1  2-2.13170927E-03 0.00000000E+00 0.00000000E+00 6.57129898E-04-6.87950443E-05
 INPUT CARD> 1  3-6.87950443E-05 1.37590089E-04 0.00000000E+00 0.00000000E+00 0.00000000E+00
 INPUT CARD> 1  4 3.25502815E-04-4.84772356E-04 3.62525460E-04-6.27912517E-04-3.45956485E-04
 INPUT CARD> 1  5 3.25502815E-04-4.84772356E-04 3.62525460E-04 6.27912517E-04-3.45956485E-04
 INPUT CARD> 1  6 3.25502815E-04-4.84772356E-04-7.25050921E-04 0.00000000E+00-3.45956485E-04
 INPUT CARD> 2  1 1.31286642E-02-4.05911371E-01-2.82090992E-01 0.00000000E+00 0.00000000E+00
 INPUT CARD> 2  2-7.71489043E-02 0.00000000E+00 0.00000000E+00 9.73717494E-03 6.62450916E-04
 INPUT CARD> 2  3 6.62450916E-04-1.32490183E-03 0.00000000E+00 0.00000000E+00 0.00000000E+00
 INPUT CARD> 2  4-1.96090317E-01-1.96656153E-02-1.74855877E-02 3.02859263E-02 8.68214399E-03
 INPUT CARD> 2  5-1.96090317E-01-1.96656153E-02-1.74855877E-02-3.02859263E-02 8.68214399E-03
 INPUT CARD> 2  6-1.96090317E-01-1.96656153E-02 3.49711754E-02 0.00000000E+00 8.68214399E-03
 INPUT CARD> 3  1 0.00000000E+00 0.00000000E+00 0.00000000E+00 4.48608762E-01 0.00000000E+00
 INPUT CARD> 3  2 0.00000000E+00 2.18692520E-01 0.00000000E+00 0.00000000E+00 1.30198027E-02
 INPUT CARD> 3  3-1.30198027E-02 0.00000000E+00 0.00000000E+00 2.71832968E-02 0.00000000E+00
 INPUT CARD> 3  4-1.85332726E-01-7.03958951E-02 8.47929477E-03 1.95242443E-02 8.32835058E-03
 INPUT CARD> 3  5-1.85332726E-01-7.03958951E-02 8.47929477E-03-1.95242443E-02 8.32835058E-03
 INPUT CARD> 3  6 3.70665453E-01 1.40791790E-01-2.53376884E-02 0.00000000E+00-1.66567012E-02
 INPUT CARD> 4  1 0.00000000E+00 0.00000000E+00 0.00000000E+00 0.00000000E+00 4.48608762E-01
 INPUT CARD> 4  2 0.00000000E+00 0.00000000E+00 2.18692520E-01 0.00000000E+00 0.00000000E+00
 INPUT CARD> 4  3 0.00000000E+00 0.00000000E+00-1.50339731E-02 0.00000000E+00 2.71832968E-02
 INPUT CARD> 4  4 3.21005698E-01 1.21929267E-01 1.95242443E-02-1.40653607E-02-1.44251263E-02
  100000000 WORDS OF MEMORY AVAILABLE

     BASIS OPTIONS
     -------------
     GBASIS=CCD          IGAUSS=       0      POLAR=NONE    
     NDFUNC=       0     NFFUNC=       0     DIFFSP=       F
     NPFUNC=       0      DIFFS=       F     BASNAM=        


     RUN TITLE
     ---------
  NH3+ 3 states calculation at NH3 structure.                                    

 THE POINT GROUP OF THE MOLECULE IS C1      
 THE ORDER OF THE PRINCIPAL AXIS IS     0

 ATOM      ATOMIC                      COORDINATES (BOHR)
           CHARGE         X                   Y                   Z
 N           7.0    -0.0117709482        0.0117709199       -0.3200831828
 H           1.0    -0.8553394211        1.5824447555        0.4164975978
 H           1.0    -0.7109165172       -1.6081015067        0.5028986535
 H           1.0     1.7298164260       -0.1379041561        0.5345239851

          INTERNUCLEAR DISTANCES (ANGS.)
          ------------------------------

                1 N          2 H          3 H          4 H     

   1 N       0.0000000    1.0208013 *  1.0302104 *  1.0296384 *
   2 H       1.0208013 *  0.0000000    1.6907117 *  1.6444187 *
   3 H       1.0302104 *  1.6907117 *  0.0000000    1.5078913 *
   4 H       1.0296384 *  1.6444187 *  1.5078913 *  0.0000000  

  * ... LESS THAN  3.000


     ATOMIC BASIS SET
     ----------------
 THE CONTRACTED PRIMITIVE FUNCTIONS HAVE BEEN UNNORMALIZED
 THE CONTRACTED BASIS FUNCTIONS ARE NOW NORMALIZED TO UNITY

  SHELL TYPE  PRIMITIVE        EXPONENT          CONTRACTION COEFFICIENT(S)

 N         

      1   S       1          9046.0000000    0.000699617413
      1   S       2          1357.0000000    0.005386054630
      1   S       3           309.3000000    0.027391021189
      1   S       4            87.7300000    0.103150591982
      1   S       5            28.5600000    0.278570663317
      1   S       6            10.2100000    0.448294849454
      1   S       7             3.8380000    0.278085928395
      1   S       8             0.7466000    0.015431561233

      2   S       9          9046.0000000   -0.000304990096
      2   S      10          1357.0000000   -0.002408026379
      2   S      11           309.3000000   -0.011944448725
      2   S      12            87.7300000   -0.048925992909
      2   S      13            28.5600000   -0.134472724725
      2   S      14            10.2100000   -0.315112577700
      2   S      15             3.8380000   -0.242857832550
      2   S      16             0.7466000    1.094382206854

      3   S      17             0.2248000    1.000000000000

      4   P      18            13.5500000    0.058905676772
      4   P      19             2.9170000    0.320461106714
      4   P      20             0.7973000    0.753042061792

      5   P      21             0.2185000    1.000000000000

      6   D      22             0.8170000    1.000000000000

 H         

      7   S      23            13.0100000    0.033498726390
      7   S      24             1.9620000    0.234800801174
      7   S      25             0.4446000    0.813682957883

      8   S      26             0.1220000    1.000000000000

      9   P      27             0.7270000    1.000000000000

 H         

     10   S      28            13.0100000    0.033498726390
     10   S      29             1.9620000    0.234800801174
     10   S      30             0.4446000    0.813682957883

     11   S      31             0.1220000    1.000000000000

     12   P      32             0.7270000    1.000000000000

 H         

     13   S      33            13.0100000    0.033498726390
     13   S      34             1.9620000    0.234800801174
     13   S      35             0.4446000    0.813682957883

     14   S      36             0.1220000    1.000000000000

     15   P      37             0.7270000    1.000000000000

 TOTAL NUMBER OF BASIS SET SHELLS             =   15
 NUMBER OF CARTESIAN GAUSSIAN BASIS FUNCTIONS =   30
 NOTE: THIS RUN WILL RESTRICT THE MO VARIATION SPACE TO SPHERICAL HARMONICS.
 THE NUMBER OF ORBITALS KEPT IN THE VARIATIONAL SPACE WILL BE PRINTED LATER.
 NUMBER OF ELECTRONS                          =    9
 CHARGE OF MOLECULE                           =    1
 SPIN MULTIPLICITY                            =    2
 NUMBER OF OCCUPIED ORBITALS (ALPHA)          =    5
 NUMBER OF OCCUPIED ORBITALS (BETA )          =    4
 TOTAL NUMBER OF ATOMS                        =    4
 THE NUCLEAR REPULSION ENERGY IS       11.8077180081

     $CONTRL OPTIONS
     ---------------
 SCFTYP=MCSCF        RUNTYP=ENERGY       EXETYP=RUN     
 MPLEVL=       2     CITYP =NONE         CCTYP =NONE         VBTYP =NONE    
 DFTTYP=NONE         TDDFT =NONE    
 MULT  =       2     ICHARG=       1     NZVAR =       0     COORD =UNIQUE  
 PP    =NONE         RELWFN=NONE         LOCAL =NONE         NUMGRD=       F
 ISPHER=       1     NOSYM =       1     MAXIT =     200     UNITS =ANGS    
 PLTORB=       F     MOLPLT=       F     AIMPAC=       F     FRIEND=        
 NPRINT=       7     IREST =       0     GEOM  =INPUT   
 NORMF =       0     NORMP =       0     ITOL  =      20     ICUT  =       9
 INTTYP=RYSQUAD      GRDTYP=BEST         QMTTOL= 1.0E-05

     $SYSTEM OPTIONS
     ---------------
  REPLICATED MEMORY=   100000000 WORDS (ON EVERY NODE).
 DISTRIBUTED MEMDDI=        1000 MILLION WORDS IN AGGREGATE,
 MEMDDI DISTRIBUTED OVER   1 PROCESSORS IS  1000000000 WORDS/PROCESSOR.
 TOTAL MEMORY REQUESTED ON EACH PROCESSOR=  1100000000 WORDS.
 TIMLIM=      525600.00 MINUTES, OR     365.0 DAYS.
 PARALL= T  BALTYP=  DLB     KDIAG=    3  COREFL= F
 MXSEQ2=     300 MXSEQ3=     150  mem10=         0

          ----------------
          PROPERTIES INPUT
          ----------------

     MOMENTS            FIELD           POTENTIAL          DENSITY
 IEMOM =       1   IEFLD =       0   IEPOT =       0   IEDEN =       0
 WHERE =COMASS     WHERE =NUCLEI     WHERE =NUCLEI     WHERE =NUCLEI  
 OUTPUT=BOTH       OUTPUT=BOTH       OUTPUT=BOTH       OUTPUT=BOTH    
 IEMINT=       0   IEFINT=       0                     IEDINT=       0
                                                       MORB  =       0

     -------------------------------
     INTEGRAL TRANSFORMATION OPTIONS
     -------------------------------
     NWORD  =            0
     CUTOFF = 1.0E-09     MPTRAN =       0
     DIRTRF =       T     AOINTS =DUP     

          ----------------------
          MCSCF INPUT PARAMETERS
          ----------------------
 CONVERGER SELECTION: FOCAS = F  SOSCF = F  FULLNR = T  QUD = F  JACOBI = F
 SECULAR EQUATION METHOD CISTEP = GMCCI   
 --- GENERAL INPUT OPTIONS:
 MAXIT =     100  MICIT =       1  ACURCY= 1.000E-06
 DAMP  =   0.000  CANONC=       T  ENGTOL= 1.000E-10
 EKT   =       F  NPUNCH=       2  NWORD =         0
 REGENERATE CI AFTER CONVERGENCE = NONE    
 DIABATIZATION AFTER CONVERGENCE =        F
 --- INPUT FOR FULLNR CONVERGER:
 METHOD=DM2       FORS  =       F  DROPC =       T
 LINSER=       F  FCORE =       F  NORB  =      30

          ----------------------
          INTEGRAL INPUT OPTIONS
          ----------------------
 NOPK  =       1 NORDER=       0 SCHWRZ=       T

 ------------------------------------------
 MULTIREFERENCE PERTURBATION THEORY CONTROL
 ------------------------------------------
 MRPT=GMCPT    READ CONVERGED MCSCF VECTORS= F


     ------------------------------------------
     THE POINT GROUP IS C1 , NAXIS= 1, ORDER= 1
     ------------------------------------------

 -- VARIATIONAL SPACE WILL BE RESTRICTED TO PURE SPHERICAL HARMONICS ONLY --
 AFTER EXCLUDING CONTAMINANT COMBINATIONS FROM THE CARTESIAN GAUSSIAN BASIS
 SET, THE NUMBER OF SPHERICAL HARMONICS KEPT IN THE VARIATION SPACE IS   29

     DIMENSIONS OF THE SYMMETRY SUBSPACES ARE
 A   =   29

 ..... DONE SETTING UP THE RUN .....
 CPU     0: STEP CPU TIME=     0.03 TOTAL CPU TIME=          0.0 (      0.0 MIN)
 TOTAL WALL CLOCK TIME=          0.0 SECONDS, CPU UTILIZATION IS    75.00%

          ********************
          1 ELECTRON INTEGRALS
          ********************
 TIME TO DO   DIPOLE INTEGRALS=      0.00
 ...... END OF ONE-ELECTRON INTEGRALS ......
 CPU     0: STEP CPU TIME=     0.00 TOTAL CPU TIME=          0.0 (      0.0 MIN)
 TOTAL WALL CLOCK TIME=          0.0 SECONDS, CPU UTILIZATION IS    75.00%

          -------------
          GUESS OPTIONS
          -------------
          GUESS =MOREAD            NORB  =      29          NORDER=       0
          MIX   =       F          PRTMO =       F          PUNMO =       F
          TOLZ  = 1.0E-08          TOLE  = 1.0E-05
          SYMDEN=       F          PURIFY=       T

 INITIAL GUESS ORBITALS GENERATED BY MOREAD   ROUTINE.

 STATISTICS FOR GENERATION OF SYMMETRY ORBITAL -Q- MATRIX
 NUMBER OF CARTESIAN ATOMIC ORBITALS=         30
 NUMBER OF SPHERICAL CONTAMINANTS DROPPED=     1
 NUMBER OF LINEARLY DEPENDENT MOS DROPPED=     0
 TOTAL NUMBER OF MOS IN VARIATION SPACE=      29
 ORBITAL PURIFICATION WILL OCCUR

 SYMMETRIES FOR INITIAL GUESS ORBITALS FOLLOW.   BOTH SET(S).
     5 ORBITALS ARE OCCUPIED (    1 CORE ORBITALS).
     1=A        2=A        3=A        4=A        5=A        6=A        7=A   
     8=A        9=A       10=A       11=A       12=A       13=A       14=A   
    15=A       16=A       17=A       18=A       19=A       20=A       21=A   
    22=A       23=A       24=A       25=A       26=A       27=A       28=A   
    29=A   
 ...... END OF INITIAL ORBITAL SELECTION ......
 CPU     0: STEP CPU TIME=     0.02 TOTAL CPU TIME=          0.0 (      0.0 MIN)
 TOTAL WALL CLOCK TIME=          0.0 SECONDS, CPU UTILIZATION IS   100.00%

                    ----------------------
                    AO INTEGRAL TECHNOLOGY
                    ----------------------
     S,P,L SHELL ROTATED AXIS INTEGRALS, REPROGRAMMED BY
        KAZUYA ISHIMURA (IMS) AND JOSE SIERRA (SYNSTAR).
     S,P,D,L SHELL ROTATED AXIS INTEGRALS PROGRAMMED BY
        KAZUYA ISHIMURA (INSTITUTE FOR MOLECULAR SCIENCE).
     S,P,D,F,G SHELL TO TOTAL QUARTET ANGULAR MOMENTUM SUM 5,
        ERIC PROGRAM BY GRAHAM FLETCHER (ELORET AND NASA ADVANCED
        SUPERCOMPUTING DIVISION, AMES RESEARCH CENTER).
     S,P,D,F,G,L SHELL GENERAL RYS QUADRATURE PROGRAMMED BY
        MICHEL DUPUIS (PACIFIC NORTHWEST NATIONAL LABORATORY).

          --------------------
          2 ELECTRON INTEGRALS
          --------------------

 DIRECT SCF METHOD SKIPS INTEGRAL STORAGE ON DISK.
 DIRECT TRANSFORMATION SKIPS AO INTEGRAL STORAGE ON DISK.
  ...... END OF TWO-ELECTRON INTEGRALS .....
 STEP CPU TIME =     0.02 TOTAL CPU TIME =          0.1 (      0.0 MIN)
 TOTAL WALL CLOCK TIME=          0.1 SECONDS, CPU UTILIZATION IS    87.50%
 DDI: Creating Array [0] - 900 x 36 = 32400 words.
 DDI: Creating Array [1] - 21 x 288 = 6048 words.
 DDI: Creating Array [2] - 36 x 36 = 1296 words.
 DDI: Creating Array [3] - 465 x 36 = 16740 words.

          -----------------
          MCSCF CALCULATION
          -----------------

 ----- NUCLEAR ENERGY ----- =        11.8077180081

     -------------------------------------------------
     GMC-PT/GMC-QDPT or general MCSCF input parameters
     -------------------------------------------------
 # of frozen core orbs. =         0 ->         0
 # of doubly occ. orbs. =         1
 # of active      orbs. =         7
 # of virtual     orbs. =        21
 # of active electrons  =         7
 # of states in CI      =         3
 Highest state in CI    =         3
 kstate =  1 1 1
 avecoe =  0.333 0.333 0.333
 State symmetry           = A           
 Assigned symmetry number = 1

 <<<Act. MO sym.: 1111111

 <<<Division of 1-ext.:  0
 <<<Division of 2-ext.:  0

 *** Reference space

 Reference type: ORMAS (= Occupation restricted multiple active space)
 # of orbitals          =  7
 # of minimum electrons =  7
 # of maximum electrons =  7
 State symmetry    =    1 (input)
 2*Sz              =    1 (input)
 Spin multiplicity =    2 (input)
 Dimension of reference space =      1225  (from      3432 walks)

 Dimension of reference space =      1225  (from      1225 walks)

 <<<Ionized spaces for Ref-CI:
      0:         1225 /   -1-0:         1960 /  0-1-0:         2891

 EVALUATING EXCHANGE INTEGRALS FOR DIRECT INTEGRAL TRANSFORMATION
 SCHWARZ INEQUALITY OVERHEAD:       465 INTEGRALS, T=        0.00

     --------------------------------------------
     PARTIAL TWO ELECTRON INTEGRAL TRANSFORMATION
     --------------------------------------------

 NUMBER OF CORE MOLECULAR ORBITALS     =    1
 NUMBER OF OCCUPIED MOLECULAR ORBITALS =    8
 TOTAL NUMBER OF MOLECULAR ORBITALS    =   29
 TOTAL NUMBER OF ATOMIC ORBITALS       =   30
 THRESHOLD FOR KEEPING TRANSFORMED 2E- INTEGRALS = 1.000E-09

 -------------------------------     ------------------------------
 DISTRIBUTED DATA TRANSFORMATION     PROGRAM WRITTEN BY G. FLETCHER
 -------------------------------     ------------------------------

 THE DISTRIBUTED MEMORY REQUIRED FOR THIS STEP IS MEMDDI=         1 MWORDS
 CREATING DISTRIBUTED STORAGE FOR [VIR OCC|VIR OCC] INTEGRALS
 CREATING DISTRIBUTED STORAGE FOR [VIR OCC|OCC OCC] INTEGRALS
 CREATING DISTRIBUTED STORAGE FOR [OCC OCC|OCC OCC] INTEGRALS
 CREATING DISTRIBUTED STORAGE FOR [VIR VIR|OCC OCC] INTEGRALS
 FOR    1 PROCESSORS, THE REPLICATED MEMORY NEEDED IS       73700 WORDS.
 SCHWARZ INEQUALITY OVERHEAD:       465 INTEGRALS, T=        0.00

      DIRECT 4-INDEX TRANSFORMATION 
      SCHWARZ INEQUALITY TEST SKIPPED          0 INTEGRAL BLOCKS
 ----- FROZEN CORE ENERGY =       -47.8241457086
 ... END OF INTEGRAL TRANSFORMATION ...
 CPU     0: STEP CPU TIME=     0.22 TOTAL CPU TIME=          0.3 (      0.0 MIN)
 TOTAL WALL CLOCK TIME=          0.3 SECONDS, CPU UTILIZATION IS    96.67%

     --------------------------------     -----------------------------
     MCHF NEWTON-RAPHSON OPTIMIZATION     CODE WRITTEN BY MICHEL DUPUIS
     --------------------------------     -----------------------------
     PARALLEL VERSION WRITTEN BY G. FLETCHER (ELORET)
     NASA ADVANCED SUPERCOMPUTING DIVISION, AMES RESEARCH CENTER

 NUMBER OF INDEPENDENT ORBITAL ROTATION PARAMETERS =   175
 ..... DONE SOLVING NEWTON-RAPHSON EQUATIONS .....
 CPU     0: STEP CPU TIME=     0.99 TOTAL CPU TIME=          1.3 (      0.0 MIN)
 TOTAL WALL CLOCK TIME=          1.3 SECONDS, CPU UTILIZATION IS    99.22%
 ..... DONE WITH NTN-RPH ORBITAL ROTATIONS ..... 
 CPU     0: STEP CPU TIME=     0.00 TOTAL CPU TIME=          1.3 (      0.0 MIN)
 TOTAL WALL CLOCK TIME=          1.3 SECONDS, CPU UTILIZATION IS    99.22%
 MAXIMUM MEMORY USED BY NTN-RPH CODE WAS     57645 WORDS.

 ITER     TOTAL ENERGY      DEL(E)  LAGRANGIAN ASYMMETRY   SQCDF  MICIT   DAMP
   1      -55.684674546 -0.684674546  0.134075   14    4 1.731E-01  1   0.0000
   2      -55.720123318 -0.035448772  0.025354   12    5 4.520E-01  1   0.0000
   3      -55.751628031 -0.031504713  0.012386   12    5 2.110E-01  1   0.0266
   4      -55.764686196 -0.013058164  0.004055   11    6 3.723E-02  1   0.0046
   5      -55.766266721 -0.001580525  0.000755   12    5 1.156E-03  1   0.0000
   6      -55.766316398 -0.000049678  0.000251   12    5 9.557E-05  1   0.0000
   7      -55.766321348 -0.000004950  0.000111   12    5 1.265E-05  1   0.0000
   8      -55.766322047 -0.000000699  0.000049   12    5 1.812E-06  1   0.0000
   9      -55.766322150 -0.000000103  0.000021   12    5 2.675E-07  1   0.0000
  10      -55.766322165 -0.000000015  0.000008   12    5 4.069E-08  1   0.0000
  11      -55.766322168 -0.000000002  0.000003   12    5 6.555E-09  1   0.0000
  12      -55.766322168 -0.000000000  0.000001   12    5 1.159E-09  1   0.0000
  13      -55.766322168 -0.000000000  0.000001   12    5 2.325E-10  1   0.0000

          --------------------
          LAGRANGIAN CONVERGED
          --------------------

 FINAL MCSCF ENERGY IS      -55.7663221683 AFTER  13 ITERATIONS

 -MCCI- BASED ON OPTIMIZED ORBITALS
 ----------------------------------

 PLEASE NOTE: IF THE ACTIVE ORBITALS ARE CANONICALIZED BELOW,
 THE FOLLOWING CI EXPANSION COEFFICIENTS AND THE DENSITY DO NOT
 CORRESPOND TO THE PRINTED ORBITALS.  THE PRINTED EXPANSIONS MATCH
 THE ORBITALS USED DURING THE LAST ITERATION.  IF YOU WISH TO SEE
 CI EXPANSIONS BASED ON THE CANONICAL (OR NATURAL) ORBITALS, YOU
 MUST RUN A CI CALCULATION WITH THAT ORBITAL CHOICE READ IN $VEC.

 Averaged energy =     -55.766322168

 State #    1  Energy =     -55.909761737  S =  0.500

      Det      Coef    Occupancy (Ignoring core)
      ---      ----    --------- --------- -----
        1   -0.954528  11110001110000
        2   -0.056860  11101001110000
        5    0.058641  01111001110000
        8    0.123991  10110101110000
       17    0.129098  11010011110000
      386   -0.095960  11110001010010
      393   -0.062368  10110101010010
      701   -0.103800  11110001100001
      717   -0.055786  11010011100001

 State #    2  Energy =     -55.717510442  S =  0.500

      Det      Coef    Occupancy (Ignoring core)
      ---      ----    --------- --------- -----
       36    0.402659  11110001101000
       71   -0.883522  11110001011000
       78    0.056877  10110101011000
       87    0.083876  11010011011000
      316   -0.051594  11110000011100
      806    0.090590  11110001001001
      822    0.053702  11010011001001

 State #    3  Energy =     -55.671694326  S =  0.500

      Det      Coef    Occupancy (Ignoring core)
      ---      ----    --------- --------- -----
       36    0.883906  11110001101000
       43   -0.074907  10110101101000
       52   -0.058393  11010011101000
       71    0.402030  11110001011000
      281    0.056344  11110000101100
      456    0.084533  11110001001010
      463    0.060157  10110101001010

 DENSITY MATRIX OVER ACTIVE MO-S

             1           2           3           4           5

    1    1.9804112
    2    0.0026485   1.6381755
    3   -0.0021009   0.0002452   1.6376835
    4    0.0040712   0.0001412  -0.0000256   1.6559256
    5    0.0921825  -0.0015641   0.0007685   0.0456706   0.0230892
    6   -0.0017417  -0.1333457   0.0072796   0.0037457   0.0003248
    7   -0.0021805  -0.0049564   0.1435487   0.0027815   0.0000376

             6           7

    6    0.0323484
    7    0.0001089   0.0323666

 FORMING THE "STANDARD FOCK OPERATOR" IN DIRECT AO INTEGRAL MODE...
 ONLY THE    1 CORE AND   21 VIRTUAL ORBITALS WILL BE CANONICALIZED

          ----------------------
          MCSCF NATURAL ORBITALS
          ----------------------

                      1          2          3          4          5
                  -15.9877     1.9849     1.6571     1.6508     1.6488
                     A          A          A          A          A   
    1  N  1  S    1.001377   0.008333  -0.011645   0.000679  -0.000273
    2  N  1  S   -0.001738   0.439470  -0.184492   0.026322  -0.008854
    3  N  1  S   -0.006427   0.276132  -0.289374   0.037239  -0.012975
    4  N  1  X   -0.000017   0.007371  -0.028970  -0.203689   0.465890
    5  N  1  Y    0.000027  -0.006650   0.034382   0.452210   0.210429
    6  N  1  Z    0.001169   0.098535   0.594429  -0.034876   0.007866
    7  N  1  X    0.000021  -0.001578  -0.018838  -0.079823   0.209297
    8  N  1  Y   -0.000018   0.001260   0.020079   0.176756   0.094291
    9  N  1  Z   -0.000424   0.002655   0.381171  -0.015120   0.001869
   10  N  1 XX   -0.000006  -0.000885  -0.012590  -0.003139   0.010611
   11  N  1 YY    0.000179  -0.000372  -0.011982   0.004823  -0.011004
   12  N  1 ZZ   -0.000173   0.001257   0.024572  -0.001684   0.000393
   13  N  1 XY   -0.000110  -0.000407  -0.000402  -0.009471  -0.005336
   14  N  1 XZ    0.000035   0.000351  -0.000689  -0.010551   0.023875
   15  N  1 YZ   -0.000031  -0.000445   0.001080   0.023160   0.010691
   16  H  2  S   -0.002122   0.190465   0.127896   0.368263  -0.032821
   17  H  2  S    0.000539   0.002341   0.026271   0.044544  -0.005129
   18  H  2  X   -0.000520   0.018269   0.008872   0.016692   0.016702
   19  H  2  Y    0.000941  -0.033359  -0.016319  -0.027250   0.011898
   20  H  2  Z    0.000429  -0.007125   0.017911  -0.018564   0.001834
   21  H  3  S   -0.002064   0.196027   0.097881  -0.235494  -0.297766
   22  H  3  S    0.000459   0.003875   0.023106  -0.029526  -0.046174
   23  H  3  X   -0.000440   0.015227   0.007001  -0.023660   0.001750
   24  H  3  Y   -0.000917   0.033875   0.015455  -0.011747  -0.027836
   25  H  3  Z    0.000446  -0.009430   0.019383   0.010323   0.015021
   26  H  4  S   -0.002061   0.199301   0.094524  -0.169154   0.341698
   27  H  4  S    0.000432   0.004827   0.022206  -0.021270   0.052928
   28  H  4  X    0.001002  -0.036927  -0.017119   0.015680  -0.027210
   29  H  4  Y   -0.000058   0.002905   0.001262   0.018344   0.011295
   30  H  4  Z    0.000452  -0.010365   0.019506   0.007223  -0.017049

                      6          7          8
                    0.0217     0.0192     0.0175
                     A          A          A   
    1  N  1  S   -0.015699   0.027207   0.273530
    2  N  1  S   -0.047066   0.075689   0.855417
    3  N  1  S    0.004144  -0.021293   0.149855
    4  N  1  X    0.828779  -0.360961   0.062005
    5  N  1  Y    0.348282   0.867679  -0.033309
    6  N  1  Z   -0.014896   0.002311   0.697376
    7  N  1  X    0.026980  -0.023519   0.015500
    8  N  1  Y    0.011172   0.055392  -0.014174
    9  N  1  Z    0.003694  -0.005134  -0.105496
   10  N  1 XX   -0.012707  -0.003729   0.014721
   11  N  1 YY    0.012954   0.002129  -0.003355
   12  N  1 ZZ   -0.000247   0.001600  -0.011365
   13  N  1 XY    0.005010  -0.010159   0.012132
   14  N  1 XZ   -0.031246   0.017702  -0.011214
   15  N  1 YZ   -0.013448  -0.042837   0.010325
   16  H  2  S    0.112355  -0.747387  -0.500051
   17  H  2  S    0.018663  -0.131753  -0.049083
   18  H  2  X   -0.012088  -0.034780  -0.037094
   19  H  2  Y   -0.018763   0.058031   0.064904
   20  H  2  Z   -0.001228  -0.000852  -0.010218
   21  H  3  S    0.599577   0.422555  -0.509039
   22  H  3  S    0.112802   0.079302  -0.053496
   23  H  3  X    0.008454   0.034566  -0.037584
   24  H  3  Y    0.053225   0.022490  -0.066473
   25  H  3  Z   -0.007302   0.001986  -0.011711
   26  H  4  S   -0.652384   0.260240  -0.549971
   27  H  4  S   -0.126441   0.048795  -0.061584
   28  H  4  X    0.052029  -0.021976   0.079878
   29  H  4  Y   -0.013268  -0.025566  -0.000591
   30  H  4  Z    0.008441   0.001634  -0.010827

          ------------------------
          MCSCF OPTIMIZED ORBITALS
          ------------------------

                      1          2          3          4          5
                  -15.9877     0.0000     0.0000     0.0000     0.0000
                     A          A          A          A          A   
    1  N  1  S    1.001377  -0.004276   0.001417  -0.001717  -0.019171
    2  N  1  S   -0.001738   0.402662  -0.004404   0.003652  -0.201401
    3  N  1  S   -0.006427   0.274848  -0.015387   0.013556  -0.289945
    4  N  1  X   -0.000017   0.001824   0.432973   0.015828  -0.008058
    5  N  1  Y    0.000027  -0.001460   0.003569   0.415201   0.008189
    6  N  1  Z    0.001169   0.053719  -0.001219   0.001480   0.577755
    7  N  1  X    0.000021  -0.003734   0.220315   0.016947  -0.011180
    8  N  1  Y   -0.000018   0.002993   0.011000   0.195096   0.010722
    9  N  1  Z   -0.000424  -0.000006  -0.006959   0.006317   0.384133
   10  N  1 XX   -0.000006  -0.001429   0.012145   0.001772  -0.012652
   11  N  1 YY    0.000179   0.000141  -0.012367  -0.001502  -0.012297
   12  N  1 ZZ   -0.000173   0.001288   0.000223  -0.000270   0.024949
   13  N  1 XY   -0.000110  -0.001036  -0.001578  -0.010118  -0.000190
   14  N  1 XZ    0.000035   0.000619   0.028993   0.000107   0.000489
   15  N  1 YZ   -0.000031  -0.000768  -0.000746   0.029403  -0.000386
   16  H  2  S   -0.002122   0.215426  -0.222325   0.380468   0.124434
   17  H  2  S    0.000539   0.004658  -0.030423   0.049460   0.025248
   18  H  2  X   -0.000520   0.019893   0.007564   0.025651   0.009510
   19  H  2  Y    0.000941  -0.036412   0.025905  -0.024230  -0.017077
   20  H  2  Z    0.000429  -0.007195   0.008812  -0.014895   0.019185
   21  H  3  S   -0.002064   0.217381  -0.199284  -0.388844   0.125719
   22  H  3  S    0.000459   0.005978  -0.035403  -0.055189   0.025770
   23  H  3  X   -0.000440   0.016579   0.012125  -0.023455   0.009701
   24  H  3  Y   -0.000917   0.036719  -0.023436  -0.025415   0.018270
   25  H  3  Z    0.000446  -0.009217   0.009011   0.016740   0.019031
   26  H  4  S   -0.002061   0.218607   0.436501  -0.005168   0.126140
   27  H  4  S    0.000432   0.006617   0.067151   0.004311   0.025548
   28  H  4  X    0.001002  -0.039915  -0.035630   0.002187  -0.021137
   29  H  4  Y   -0.000058   0.003030   0.002489   0.023872   0.000410
   30  H  4  Z    0.000452  -0.010055  -0.019805  -0.000093   0.018883

                      6          7          8          9         10
                    0.0000     0.0000     0.0000     0.1566     0.1966
                     A          A          A          A          A   
    1  N  1  S    0.274238  -0.013230   0.015443  -0.166932  -0.011100
    2  N  1  S    0.872901  -0.035802   0.040673  -0.261424  -0.020508
    3  N  1  S    0.154051   0.018651  -0.018951   1.638502   0.067486
    4  N  1  X    0.021580   0.944538   0.006898  -0.008639  -0.034403
    5  N  1  Y   -0.021455  -0.038162   0.975134   0.007032   0.071895
    6  N  1  Z    0.716852   0.014821  -0.010319  -0.246749  -0.024434
    7  N  1  X    0.013175   0.053101  -0.009892   0.036847   0.328245
    8  N  1  Y   -0.012517  -0.012982   0.072799  -0.037515  -0.571476
    9  N  1  Z   -0.095146  -0.000669  -0.000842   0.581111   0.064064
   10  N  1 XX    0.014652  -0.008442  -0.008666   0.005490   0.036951
   11  N  1 YY   -0.004087   0.009859   0.007162   0.040463  -0.040482
   12  N  1 ZZ   -0.010565  -0.001417   0.001504  -0.045952   0.003531
   13  N  1 XY    0.011617   0.009183  -0.008291  -0.020796   0.066509
   14  N  1 XZ   -0.009590  -0.033938   0.003513   0.012029   0.053273
   15  N  1 YZ    0.009597   0.005427  -0.042275  -0.011690  -0.089984
   16  H  2  S   -0.511039   0.365576  -0.599757   0.280736  -0.547561
   17  H  2  S   -0.052451   0.065893  -0.108160  -0.916155   1.883766
   18  H  2  X   -0.036436   0.001986  -0.034188  -0.055541   0.043091
   19  H  2  Y    0.064995  -0.035735   0.042643   0.105816  -0.082611
   20  H  2  Z   -0.010024  -0.000485  -0.002482   0.011688  -0.074468
   21  H  3  S   -0.505479   0.339295   0.603896   0.231352   0.240517
   22  H  3  S   -0.054384   0.065841   0.114612  -0.854003  -0.901751
   23  H  3  X   -0.035926  -0.006926   0.033433  -0.030571  -0.055483
   24  H  3  Y   -0.065557   0.034791   0.040880  -0.107683  -0.028460
   25  H  3  Z   -0.011303  -0.007396   0.000463   0.028334   0.048672
   26  H  4  S   -0.506206  -0.691922  -0.023737   0.203487   0.284679
   27  H  4  S   -0.054752  -0.132939  -0.006024  -0.803264  -1.032490
   28  H  4  X    0.075010   0.057204   0.000554   0.107123   0.054966
   29  H  4  Y   -0.000658  -0.001644  -0.026750  -0.022821   0.033735
   30  H  4  Z   -0.011017   0.004900   0.005155   0.033158   0.048102

                     11         12         13         14         15
                    0.1986     0.5501     0.5599     0.6204     0.8538
                     A          A          A          A          A   
    1  N  1  S   -0.004688   0.012549  -0.014021   0.094531  -0.118049
    2  N  1  S   -0.008524   0.003416   0.016446   0.356313  -0.261204
    3  N  1  S    0.034898  -0.147894   0.255885   0.166377   0.565301
    4  N  1  X   -0.023288  -0.560724   0.059670  -0.092457  -0.032674
    5  N  1  Y   -0.024682  -0.119672  -0.495507   0.121961   0.077699
    6  N  1  Z   -0.007960   0.116239  -0.216929  -0.645515   0.073103
    7  N  1  X    0.434819   1.776039  -0.268139   0.439330   0.220921
    8  N  1  Y    0.298045   0.334855   1.796399  -0.590602  -0.518921
    9  N  1  Z    0.021197  -0.166252   0.327396   1.049174   0.070794
   10  N  1 XX    0.071311   0.000753   0.000494  -0.031831   0.069002
   11  N  1 YY   -0.071617   0.006663  -0.017072  -0.041978  -0.041247
   12  N  1 ZZ    0.000306  -0.007417   0.016578   0.073809  -0.027754
   13  N  1 XY   -0.048628  -0.004258   0.028894   0.004009   0.152048
   14  N  1 XZ    0.073726   0.036595  -0.004547  -0.012634  -0.062084
   15  N  1 YZ    0.048423   0.006916   0.027805   0.014348   0.148196
   16  H  2  S    0.011507   0.274693  -0.758381  -0.220702   0.093178
   17  H  2  S   -0.065829   0.337583  -0.864042   0.442787   0.099490
   18  H  2  X   -0.048096   0.084095  -0.026431   0.051852   0.132300
   19  H  2  Y   -0.018499  -0.006628   0.135798  -0.098872  -0.111212
   20  H  2  Z    0.006409  -0.036233   0.075105   0.063367   0.327078
   21  H  3  S   -0.520151   0.435384   0.350168  -0.618822  -0.132961
   22  H  3  S    1.739087   0.717084   0.722623  -0.014583  -0.216660
   23  H  3  X    0.017128   0.067641  -0.036817   0.005419  -0.460586
   24  H  3  Y    0.079068   0.064060   0.143353   0.007880  -0.028783
   25  H  3  Z   -0.052332  -0.075493  -0.032455   0.041790  -0.208881
   26  H  4  S    0.506564  -0.491646  -0.038386  -0.672187  -0.099815
   27  H  4  S   -1.707665  -1.013886   0.091423  -0.100905  -0.169800
   28  H  4  X    0.078032   0.132998  -0.021470  -0.000422   0.200245
   29  H  4  Y   -0.026102  -0.028545   0.094233   0.000242   0.441576
   30  H  4  Z    0.050731   0.082713   0.016714   0.044383  -0.139037

                     16         17         18         19         20
                    0.9555     0.9574     1.3745     1.5030     1.5361
                     A          A          A          A          A   
    1  N  1  S   -0.535397  -0.064111   0.003137  -0.538703  -0.369699
    2  N  1  S   -1.138060  -0.135791   0.006470  -1.105413  -0.750513
    3  N  1  S    2.310416   0.239415  -0.010984   2.128044   1.561581
    4  N  1  X   -0.031221   0.060495   0.048602   0.010299  -0.007151
    5  N  1  Y    0.013536   0.033017   0.064721  -0.022558   0.033673
    6  N  1  Z    0.174546   0.016227   0.000624  -0.022649  -0.002722
    7  N  1  X    0.155901  -0.400964  -0.153784  -0.288481   0.470881
    8  N  1  Y   -0.037642  -0.202114  -0.253612   0.489481  -0.799696
    9  N  1  Z   -0.063566  -0.063518  -0.002309   0.856656   0.668434
   10  N  1 XX   -0.089189  -0.168918  -0.013331   0.124560   0.082429
   11  N  1 YY   -0.120886   0.115820   0.011871   0.143408   0.068405
   12  N  1 ZZ    0.210075   0.053098   0.001461  -0.267968  -0.150834
   13  N  1 XY   -0.030095   0.070995   0.022154  -0.015673   0.016439
   14  N  1 XZ   -0.045196   0.210363   0.000450   0.026969  -0.053864
   15  N  1 YZ   -0.016025   0.095320   0.003864  -0.041024   0.075124
   16  H  2  S   -0.299168  -0.039141   0.072295  -0.826612  -0.072738
   17  H  2  S   -0.320159  -0.045076   0.031951  -0.318486   0.074489
   18  H  2  X   -0.054612   0.422390   0.606828   0.139644  -0.191564
   19  H  2  Y   -0.079605   0.212735   0.387321  -0.071837   0.217176
   20  H  2  Z    0.302054   0.021890  -0.067245  -0.009360  -0.849316
   21  H  3  S   -0.331048  -0.144096  -0.147066  -0.467634  -0.639805
   22  H  3  S   -0.292456  -0.159926  -0.050550  -0.114290  -0.232109
   23  H  3  X    0.041636   0.174562  -0.457707   0.256396  -0.248303
   24  H  3  Y    0.099746  -0.232297   0.380469  -0.238939   0.188284
   25  H  3  Z    0.385238  -0.260872   0.158051  -0.472783   0.066404
   26  H  4  S   -0.388952   0.077474   0.080806  -0.470666  -0.630437
   27  H  4  S   -0.347385   0.110729   0.022586  -0.117992  -0.246133
   28  H  4  X   -0.048776  -0.243151   0.071274   0.110984  -0.033132
   29  H  4  Y   -0.067835   0.176481  -0.491450  -0.369532   0.422039
   30  H  4  Z    0.251656   0.442602  -0.085502  -0.465227   0.125311

                     21         22         23         24         25
                    1.5958     1.8311     1.8529     2.1061     2.2981
                     A          A          A          A          A   
    1  N  1  S   -0.008823   0.021087  -0.016700   0.019972   0.097767
    2  N  1  S   -0.016232   0.043321  -0.040091   0.169864   0.252460
    3  N  1  S    0.064450  -0.090719   0.043248   2.202042   0.611474
    4  N  1  X    0.124891   0.478138  -0.191977   0.009098   0.061182
    5  N  1  Y    0.054255   0.127862   0.581245  -0.001307  -0.091512
    6  N  1  Z    0.004693   0.011787  -0.027772   0.392029   0.159133
    7  N  1  X    0.683144  -0.143108  -0.016051  -0.054175  -0.172888
    8  N  1  Y    0.447291  -0.065374   0.005547   0.036285   0.083440
    9  N  1  Z    0.032971  -0.030691  -0.000416   0.990032  -0.065252
   10  N  1 XX    0.000105  -0.226310   0.113042  -0.205331   0.748190
   11  N  1 YY   -0.009823   0.190439  -0.041280  -0.244247  -0.093382
   12  N  1 ZZ    0.009719   0.035871  -0.071762   0.449578  -0.654807
   13  N  1 XY   -0.008818   0.067574   0.273817   0.010658   0.489078
   14  N  1 XZ   -0.165795  -0.157498   0.052353  -0.009609  -0.410797
   15  N  1 YZ   -0.092734  -0.045765  -0.176490  -0.019959   0.306378
   16  H  2  S   -0.047202  -0.004160   0.075830  -0.668786  -0.198288
   17  H  2  S   -0.009578   0.107785  -0.410128  -0.370858  -0.076481
   18  H  2  X   -0.406002   0.102794  -0.403322  -0.373790   0.064490
   19  H  2  Y   -0.233339  -0.162738   0.660443   0.806364   0.220937
   20  H  2  Z    0.002982  -0.062005   0.394244  -0.142224   0.069996
   21  H  3  S    0.194498  -0.086707  -0.076260  -0.651282  -0.207337
   22  H  3  S    0.232878   0.325234   0.285166  -0.298857  -0.136337
   23  H  3  X   -0.458248   0.442310   0.322122  -0.190301   0.338069
   24  H  3  Y    0.100819   0.498992   0.482731  -0.806544  -0.420049
   25  H  3  Z   -0.626238  -0.143589  -0.276897  -0.102773   0.444319
   26  H  4  S   -0.205208   0.167682  -0.036753  -0.643501  -0.155288
   27  H  4  S   -0.243084  -0.406105   0.116471  -0.264470  -0.086727
   28  H  4  X   -0.092971   0.837661  -0.244484   0.777635   0.149233
   29  H  4  Y   -0.463355   0.133113   0.038454  -0.157740  -0.325790
   30  H  4  Z    0.602961   0.245122  -0.143438  -0.072103   0.596539

                     26         27         28         29
                    2.3636     2.4968     2.8198     2.8957
                     A          A          A          A   
    1  N  1  S    0.001349   0.039141  -0.036493   0.014236
    2  N  1  S    0.015702   0.198885  -0.081474   0.035454
    3  N  1  S    0.204609   1.741378  -0.099063   0.075224
    4  N  1  X    0.022375   0.042915   0.218140  -0.630716
    5  N  1  Y   -0.031240  -0.006772  -0.661701  -0.197357
    6  N  1  Z    0.034119   0.295085  -0.021337   0.011065
    7  N  1  X    0.385256   0.294870   0.447179  -1.122894
    8  N  1  Y    0.293154  -0.282954  -1.338124  -0.347254
    9  N  1  Z    0.051430   0.290301   0.044993  -0.018993
   10  N  1 XX   -0.418731   0.092876   0.185440  -0.939247
   11  N  1 YY    0.482049   0.701874  -0.298082   1.009017
   12  N  1 ZZ   -0.063318  -0.794750   0.112642  -0.069769
   13  N  1 XY    0.612630  -0.495475   0.889843   0.366962
   14  N  1 XZ    0.612510   0.404489   0.354353  -0.939578
   15  N  1 YZ    0.537289  -0.425881  -1.081768  -0.300596
   16  H  2  S   -0.069515  -0.497559   1.434875  -0.329344
   17  H  2  S   -0.016738  -0.111825   0.537491  -0.115987
   18  H  2  X   -0.604102  -0.239159   0.498489  -0.115994
   19  H  2  Y   -0.291672   0.295077  -0.928800   0.224126
   20  H  2  Z   -0.065818   0.616287  -0.421771   0.130112
   21  H  3  S    0.058246  -0.656547  -0.910904  -1.053822
   22  H  3  S    0.081767  -0.197120  -0.343921  -0.390699
   23  H  3  X   -0.132552  -0.503049  -0.276586  -0.279547
   24  H  3  Y    0.117449  -0.221121  -0.564582  -0.768648
   25  H  3  Z    0.341147   0.395361   0.236886   0.422629
   26  H  4  S   -0.191057  -0.754592  -0.406532   1.292653
   27  H  4  S   -0.141911  -0.272905  -0.147077   0.479081
   28  H  4  X    0.148862   0.512494   0.257757  -0.958436
   29  H  4  Y   -0.478122   0.253835   0.060333   0.124243
   30  H  4  Z   -0.164095   0.388317   0.080363  -0.481743
 .....DONE WITH MCSCF ITERATIONS.....
 CPU     0: STEP CPU TIME=     8.40 TOTAL CPU TIME=          9.7 (      0.2 MIN)
 TOTAL WALL CLOCK TIME=          9.7 SECONDS, CPU UTILIZATION IS    99.90%

     ----------------------------------------------------------------
     PROPERTY VALUES FOR THE MCSCF SELF-CONSISTENT FIELD WAVEFUNCTION
     ----------------------------------------------------------------

          -----------------
          ENERGY COMPONENTS
          -----------------

         WAVEFUNCTION NORMALIZATION =       1.0000000000

                ONE ELECTRON ENERGY =     -94.9940461807
                TWO ELECTRON ENERGY =      27.4200060043
           NUCLEAR REPULSION ENERGY =      11.8077180081
                                      ------------------
                       TOTAL ENERGY =     -55.7663221683

 ELECTRON-ELECTRON POTENTIAL ENERGY =      27.4200060043
  NUCLEUS-ELECTRON POTENTIAL ENERGY =    -150.9470160119
   NUCLEUS-NUCLEUS POTENTIAL ENERGY =      11.8077180081
                                      ------------------
             TOTAL POTENTIAL ENERGY =    -111.7192919995
               TOTAL KINETIC ENERGY =      55.9529698312
                 VIRIAL RATIO (V/T) =       1.9966642045

          ---------------------------------------
          MULLIKEN AND LOWDIN POPULATION ANALYSES
          ---------------------------------------

     ATOMIC MULLIKEN POPULATION IN EACH MOLECULAR ORBITAL

                      1          2          3          4          5

                  2.000000   1.984901   1.657107   1.650777   1.648801

    1             2.001078   1.284772   1.545354   0.954346   1.014517
    2            -0.000371   0.221611   0.048349   0.425049   0.011551
    3            -0.000353   0.235312   0.032154   0.176410   0.271039
    4            -0.000355   0.243205   0.031250   0.094971   0.351694

                      6          7          8

                  0.021738   0.019188   0.017489

    1             0.011138   0.010159   0.009390
    2             0.000134   0.006281   0.002465
    3             0.004804   0.001999   0.002601
    4             0.005662   0.000748   0.003032
 WARNING! MCSCF POPULATIONS SHOWN ABOVE ARE FOR THE NATURAL ORBITALS.
 IGNORE THE ABOVE DATA FOR MCSCF FUNCTIONS WHICH ARE NOT OF -FORS- TYPE.
 THE FOLLOWING POPULATIONS ARE CORRECT FOR ANY MCSCF WAVEFUNCTION.

               ----- POPULATIONS IN EACH AO -----
                             MULLIKEN      LOWDIN
              1  N  1  S      2.00284     1.89182
              2  N  1  S      0.82890     0.57615
              3  N  1  S      0.60313     0.38563
              4  N  1  X      0.69806     0.62597
              5  N  1  Y      0.68595     0.60872
              6  N  1  Z      0.89222     0.83236
              7  N  1  X      0.30773     0.39472
              8  N  1  Y      0.27801     0.38212
              9  N  1  Z      0.51410     0.55116
             10  N  1 XX      0.00057     0.16396
             11  N  1 YY      0.00333     0.17295
             12  N  1 ZZ      0.00227     0.14178
             13  N  1 XY      0.00673     0.00869
             14  N  1 XZ      0.00692     0.01206
             15  N  1 YZ      0.00000     0.01299
             16  H  2  S      0.62531     0.48599
             17  H  2  S      0.03077     0.14023
             18  H  2  X      0.01474     0.02822
             19  H  2  Y      0.03019     0.05095
             20  H  2  Z      0.01404     0.03838
             21  H  3  S      0.62899     0.48806
             22  H  3  S      0.03579     0.14044
             23  H  3  X      0.01324     0.02564
             24  H  3  Y      0.03077     0.05136
             25  H  3  Z      0.01517     0.03973
             26  H  4  S      0.63328     0.49203
             27  H  4  S      0.03745     0.14032
             28  H  4  X      0.03460     0.05714
             29  H  4  Y      0.00917     0.01955
             30  H  4  Z      0.01570     0.04086

          ----- MULLIKEN ATOMIC OVERLAP POPULATIONS -----
          (OFF-DIAGONAL ELEMENTS NEED TO BE MULTIPLIED BY 2)

             1           2           3           4

    1    5.8731096
    2    0.3232132   0.4017682
    3    0.3173944  -0.0050545   0.4167015
    4    0.3170387  -0.0048583  -0.0050750   0.4231038

          TOTAL MULLIKEN AND LOWDIN ATOMIC POPULATIONS
       ATOM         MULL.POP.    CHARGE          LOW.POP.     CHARGE
    1 N             6.830756    0.169244         6.761090    0.238910
    2 H             0.715068    0.284932         0.743775    0.256225
    3 H             0.723966    0.276034         0.745238    0.254762
    4 H             0.730209    0.269791         0.749896    0.250104

          MULLIKEN SPHERICAL HARMONIC POPULATIONS
       ATOM           S       P       D      F      G      H      I    TOTAL
    1 N             3.43    3.38    0.02   0.00   0.00   0.00   0.00    6.83
    2 H             0.66    0.06    0.00   0.00   0.00   0.00   0.00    0.72
    3 H             0.66    0.06    0.00   0.00   0.00   0.00   0.00    0.72
    4 H             0.67    0.06    0.00   0.00   0.00   0.00   0.00    0.73

          ---------------------
          ELECTROSTATIC MOMENTS
          ---------------------

 POINT   1           X           Y           Z (BOHR)    CHARGE
                 0.000001   -0.000001   -0.177185        1.00 (A.U.)
         DX          DY          DZ         /D/  (DEBYE)
     0.100252   -0.101345    2.145588    2.150318
 ...... END OF PROPERTY EVALUATION ......
 CPU     0: STEP CPU TIME=     0.01 TOTAL CPU TIME=          9.7 (      0.2 MIN)
 TOTAL WALL CLOCK TIME=          9.7 SECONDS, CPU UTILIZATION IS    99.90%

     -------------------------------------------------
     GMC-PT/GMC-QDPT or general MCSCF input parameters
     -------------------------------------------------
 # of frozen core orbs. =         0 ->         0
 # of doubly occ. orbs. =         1
 # of active      orbs. =         7
 # of virtual     orbs. =        21
 # of active electrons  =         7
 # of states in CI      =         3
 Highest state in CI    =         3
 kstate =  1 1 1
 avecoe =  0.333 0.333 0.333
 State symmetry           = A           
 Assigned symmetry number = 1

 <<<Act. MO sym.: 1111111

 <<<Division of 1-ext.:  0
 <<<Division of 2-ext.:  0

     ------------------------
     Orbital canonicalization
     ------------------------

 MOs are canonicalized for core, virtual, and invariant-active orbital spaces.
 This is a part of the GMC-QDPT calculation.
 SCHWARZ INEQUALITY OVERHEAD:       465 INTEGRALS, T=        0.00
 DIRECT TRANSFORMATION SKIPS AO INTEGRAL STORAGE ON DISK.

 Averaged energy =     -55.766322168

 State #    1  Energy =     -55.909761737  S =  0.500
 State #    2  Energy =     -55.717510442  S =  0.500
 State #    3  Energy =     -55.671694326  S =  0.500

 Orbital energies for filled orbital space
  -15.987671
 Orbital energies for active orbital space
   -1.539395  -0.919178  -0.968006  -0.763126   0.441343
    0.345753   0.402605
 Orbital energies for external orbital space
    0.156588   0.196556   0.198586   0.550076   0.559920
    0.620446   0.853849   0.955475   0.957427   1.374530
    1.503021   1.536075   1.595820   1.831055   1.852939
    2.106137   2.298147   2.363594   2.496847   2.819758
    2.895651

 Zero values mean non-canonical orbitals.
 ... done with orbital canonicalization ...
 CPU     0: STEP CPU TIME=     0.61 TOTAL CPU TIME=         10.3 (      0.2 MIN)
 TOTAL WALL CLOCK TIME=         10.3 SECONDS, CPU UTILIZATION IS    99.90%

     --------------------------------------------
     PARTIAL TWO ELECTRON INTEGRAL TRANSFORMATION
     --------------------------------------------

 NUMBER OF CORE MOLECULAR ORBITALS     =    0
 NUMBER OF OCCUPIED MOLECULAR ORBITALS =    8
 TOTAL NUMBER OF MOLECULAR ORBITALS    =   29
 TOTAL NUMBER OF ATOMIC ORBITALS       =   30
 THRESHOLD FOR KEEPING TRANSFORMED 2E- INTEGRALS = 1.000E-09
 AO INTEGRALS WILL BE CALCULATED IN DIRECT MODE...
 DIRECT TRANSFORMATION SKIPS AO INTEGRAL STORAGE ON DISK.
 SCHWARZ INEQUALITY OVERHEAD:       465 INTEGRALS, T=        0.00

 PLAN A: REQUIREMENTS FOR FULLY IN-MEMORY TRANSFORMATION:
 # OF WORDS AVAILABLE =            100000000
 # OF WORDS NEEDED    =               221798

 PARALLEL ONLY WORKS WITH THE SEGMENTED ALGORITHM.
 ADJUSTING MEMORY TO USE SEGMENTED ALGORITHM.


 PLAN B: REQUIREMENTS FOR THE SEGMENTED TRANSFORMATION:
       MINIMUM=         124148 WORDS FOR 1 MOLECULAR ORBITAL PER PASS
       MAXIMUM=         221798 WORDS FOR ALL MOLECULAR ORBITALS IN 1 PASS
              (          13950 EXTRA WORDS INCLUDES 1 EXTRA ORBITAL/PASS)
 THIS RUN USES=         221798 WORDS,
 DISTRIBUTING   1 PASSES EACH CONTAINING     8 ORBITALS OVER   1 PROCESSORS.

 CHOOSING SEGMENTED PARTIAL TRANSFORMATION...
 DIRECT TRANSFORMATION SKIPS AO INTEGRAL STORAGE ON DISK.
 PASS #   1 TOOK        0.04 SECONDS.
 TOTAL NUMBER OF TRANSFORMED 2E- INTEGRALS KEPT =        29226
 ... END OF INTEGRAL TRANSFORMATION ...
 CPU     0: STEP CPU TIME=     0.05 TOTAL CPU TIME=         10.3 (      0.2 MIN)
 TOTAL WALL CLOCK TIME=         10.4 SECONDS, CPU UTILIZATION IS    99.90%

     --------     ------------------------------------------
     GMC-QDPT     Program written by H.Nakano (Kyushu Univ.)
     --------     ------------------------------------------

 *** Reference space

 Reference type: ORMAS (= Occupation restricted multiple active space)
 # of orbitals          =  7
 # of minimum electrons =  7
 # of maximum electrons =  7
 State symmetry    =    1 (input)
 2*Sz              =    1 (input)
 Spin multiplicity =    2 (input)
 Dimension of reference space =      1225  (from      3432 walks)

 Dimension of reference space =      1225  (from      1225 walks)

 <<<Ionized spaces for Ref-CI:
      0:         1225 /   -1-0:         1960 /  0-1-0:         2891

 ***                    ***
 *** Reference space CI ***
 ***                    ***

 Converged after   33 iterations

 Reference wavefunctions:

 State #    1  Energy =     -55.909761737  S =  0.500

      Det      Coef    Occupancy (Ignoring core)
      ---      ----    --------- --------- -----
        1    0.980410  11110001110000
      393    0.075010  10110101010010
      717    0.069149  11010011100001

 State #    2  Energy =     -55.717510442  S =  0.500

      Det      Coef    Occupancy (Ignoring core)
      ---      ----    --------- --------- -----
       71   -0.984611  11110001011000
      822    0.068512  11010011001001

 State #    3  Energy =     -55.671694326  S =  0.500

      Det      Coef    Occupancy (Ignoring core)
      ---      ----    --------- --------- -----
       36    0.983391  11110001101000
      463    0.074457  10110101001010

 Davidson method: CPU/Wall time =           0.44 /           0.43 sec.

 Oscillator strength (invalid if E(1)/=E(GS)):
 -----------------------------------------
   State                        f
 -----------------------------------------
     2     F(REF-CI)=        0.0000376145
     3     F(REF-CI)=        0.0002608876
 -----------------------------------------

 Dipole moment matrix elements, x, y, z, in A.U.

 Dimension of ionized spaces for PT:
 (N-2) space:         1715 /  (N-1) space:         2842 /  N space:         2891
 (N+1) space:         2842 /  (N+2) space:         1715

 <<<Ionized spaces for internal:
         0:         1225 /      -1-0:         1960 /     0-1-0:         2891
  -1-0-1-0:         2842 / 0-1-0-1-0:         3381

 Diagonal elements of averaged one-particle density matrix:
       2       3       4       5       6       7       8
  0.9944  0.9888  0.9895  0.9934  0.0095  0.0129  0.0114
  0.9904  0.6598  0.6610  0.6637  0.0080  0.0090  0.0080

 Orbital energies:
 -------- Doubly-occupied orbitals (highest several orbs.) -------
             1
 -1.598767D+01
 -------- Active orbitals ----------------------------------------
             2            3            4            5            6
 -1.539395D+00-9.191778D-01-9.680061D-01-7.631259D-01 4.413426D-01
             7            8
  3.457531D-01 4.026047D-01
 -------- External orbitals (lowest several orbs.) ---------------
             9           10           11           12           13
  1.565882D-01 1.965564D-01 1.985860D-01 5.500759D-01 5.599197D-01
            14           15           16           17           18
  6.204463D-01 8.538487D-01 9.554755D-01 9.574275D-01 1.374530D+00

 *** Quasi-degeneracy checking

 === Det (|Ci| > 1.0D-01 and dE < 5.0D-03)

 # of small denominators (single excitations)
 State       dEmin  dE < 5.0D-03  dE < 5.0D-04  dE < 5.0D-05  dE < 5.0D-06
 ----- ----------- ------------- ------------- ------------- -------------
     1    5.00D-03             0             0             0             0
     2    5.00D-03             0             0             0             0
     3    5.00D-03             0             0             0             0

 # of small denominators (double excitations)
 State       dEmin  dE < 5.0D-03  dE < 5.0D-04  dE < 5.0D-05  dE < 5.0D-06
 ----- ----------- ------------- ------------- ------------- -------------
     1    5.00D-03             0             0             0             0
     2    5.00D-03             0             0             0             0
     3    5.00D-03             0             0             0             0

 *** Zeroth-Order Setup (Granovsky's zeroth-order vectors)
 Zeroth-order effective Hamiltonian
  (= Sum_i e(i)*<I|a+(i)a(i)|J> ):
                   1            2            3
     1 -7.517916D+00
     2 -1.011753D-03-7.382081D+00
     3  1.542814D-03-1.617770D-04-7.329929D+00

 Zeroth-order vectors:
 State #    1
       MC st            1           3           2
       Coeff    9.999D-01  -8.199D-03   7.437D-03
 State #    2
       MC st            2           1           3
       Coeff    1.000D+00  -7.410D-03   3.322D-03
 State #    3
       MC st            3           1           2
       Coeff    1.000D+00   8.224D-03  -3.261D-03

 *** GMC-QDPT computation

 (Integral reading:  CPU/Wall time =           0.00 /           0.00 sec.)

 One-external:
   0 -ionized terms: CPU/Wall time =           0.03 /           0.03 sec.
 (-1)-ionized terms: CPU/Wall time =           0.09 /           0.09 sec.
 (+1)-ionized terms: CPU/Wall time =           0.02 /           0.02 sec.
 (+1)-ionized terms: CPU/Wall time =           0.01 /           0.00 sec.
 (+2)-ionized terms: CPU/Wall time =           0.00 /           0.01 sec.

 Internal:
 # of macro loops for internal contribution =         1 (input)
 Loop:    1
 Dimension of internal CISD space     =         0  (after screening)
 Space construction: CPU/Wall time =           0.02 /           0.01 sec.
 Internal terms:     CPU/Wall time =           0.00 /           0.00 sec.

 Two-external:
   0 -ionized terms: CPU/Wall time =           0.06 /           0.06 sec.
 (-1)-ionized terms: CPU/Wall time =           0.96 /           0.96 sec.
 (-2)-ionized terms: CPU/Wall time =           0.17 /           0.17 sec.

 Total time:         CPU/Wall time =           1.36 /           1.35 sec.

 ***                  ***
 *** GMC-QDPT Results ***
 ***                  ***

 Diagonal elements of effective Hamiltonian:
 Heff(  1) =   -56.00715202
 Heff(  2) =   -55.82713401
 Heff(  3) =   -55.78222218

 Off-diagonal elements of effective Hamiltonian:
                   1            2
     2  1.270613D-03
     3 -1.747218D-03 1.472545D-04

 ******** GMC-QDPT energies ********
 ----------------------------------------------------------------------------
   State                        1st order                           2nd order
 ----------------------------------------------------------------------------
     1     E(REF-CI)=      -55.9097617374   E(GMC-QDPT2)=      -56.0071745692
     2     E(REF-CI)=      -55.7175104416   E(GMC-QDPT2)=      -55.8271254474
     3     E(REF-CI)=      -55.6716943260   E(GMC-QDPT2)=      -55.7822081859
 ----------------------------------------------------------------------------

 Excitation energies (invalid if E(1)/=E(GS)):
 ----------------------------------------------------------------------------
   State                        1st order                           2nd order
 ----------------------------------------------------------------------------

     TZ Sorted GMC-PT ENERGIES:
         1      -56.0071745692
         2      -55.8271254474
         3      -55.7822081859
     2     E(REF-CI)=        5.2314269 eV   E(GMC-QDPT2)=        4.8993887 eV
     3     E(REF-CI)=        6.4781476 eV   E(GMC-QDPT2)=        6.1216502 eV
 ----------------------------------------------------------------------------

 Main characters of perturbed GMC-QDPT states:

 State #    1  Energy =     -56.007174569  S =  0.500

      Det      Coef    Occupancy (Ignoring core)
      ---      ----    --------- --------- -----
        1    0.980413  11110001110000
      393    0.075011  10110101010010
      717    0.069142  11010011100001

 State #    2  Energy =     -55.827125447  S =  0.500

      Det      Coef    Occupancy (Ignoring core)
      ---      ----    --------- --------- -----
       71   -0.984613  11110001011000
      822    0.068512  11010011001001

 State #    3  Energy =     -55.782208186  S =  0.500

      Det      Coef    Occupancy (Ignoring core)
      ---      ----    --------- --------- -----
       36    0.983392  11110001101000
      463    0.074457  10110101001010

 <<<Max |V/de| = 3.124D-02  Thresh = 1.000D+00

 Oscillator strength (invalid if E(1)/=E(GS)):
 ----------------------------------------------------------------------------
   State                        1st order                           2nd order
 ----------------------------------------------------------------------------
     2     F(REF-CI)=        0.0000376145     F(GMC-PT2)=        0.0000361072
     3     F(REF-CI)=        0.0002608876     F(GMC-PT2)=        0.0002497887
 ----------------------------------------------------------------------------

 Dipole moment matrix elements, x, y, z, in A.U.
States    1    1        0.0563467188       -0.0576905310        0.7777665635
States    1    2       -0.0111365540       -0.0038641076       -0.0127223126
States    1    3       -0.0120555777        0.0296264986        0.0253464086
States    2    1       -0.0111365540       -0.0038641076       -0.0127223126
States    2    2       -0.0955695152        0.1293464737        0.2518269811
States    2    3        0.1614962502        0.1652255612        0.0001969832
States    3    1       -0.0120555777        0.0296264986        0.0253464086
States    3    2        0.1614962502        0.1652255612        0.0001969832
States    3    3        0.2350368819       -0.2661822014        0.2502239723

 Oscillator strength (valid only when positive): 
 ----------------------------------------------------------------------------
  States                        1st order                           2nd order
 ----------------------------------------------------------------------------
  1  1     F(REF-CI)=        0.0000000000     F(GMC-PT2)=        0.0000000000
  1  2     F(REF-CI)=       -0.0000376145     F(GMC-PT2)=       -0.0000361072
  1  3     F(REF-CI)=       -0.0002608876     F(GMC-PT2)=       -0.0002497887
  2  1     F(REF-CI)=        0.0000376145     F(GMC-PT2)=        0.0000361072
  2  2     F(REF-CI)=        0.0000000000     F(GMC-PT2)=        0.0000000000
  2  3     F(REF-CI)=       -0.0016307797     F(GMC-PT2)=       -0.0015984725
  3  1     F(REF-CI)=        0.0002608876     F(GMC-PT2)=        0.0002497887
  3  2     F(REF-CI)=        0.0016307797     F(GMC-PT2)=        0.0015984725
  3  3     F(REF-CI)=        0.0000000000     F(GMC-PT2)=        0.0000000000
 CPU     0: STEP CPU TIME=     1.85 TOTAL CPU TIME=         12.2 (      0.2 MIN)
 TOTAL WALL CLOCK TIME=         12.2 SECONDS, CPU UTILIZATION IS    99.84%

     !!! DIABATIZATION FOR REF CI STATES !!!

 *******************************************************
          $DMO GROUP FOUND IN THE INPUT.
        DIABATIZATION OF ADIABATIC STATES BEGINS.
     PROGRAMMED BY TAO ZENG (CARLETON UNIVERSITY).
               Email: toby.zeng@carleton.ca
     See T. Zeng, J. Chem. Phys. 2017, 146, 144103
 *******************************************************

 *************************************************************************
     STEP 1: TRANSFORMATION OF ADIABATIC STATES TO THE DMO REPRESENTATION
         See Atchity and Ruedenberg, J. Chem. Phys. 1999, 111, 2910
 *************************************************************************

Read in Diabatic Molecualr Orbitals:

                      1          2          3          4          5

    1  N  1  S    0.008609   0.000000   0.000000  -0.013219   0.279491
    2  N  1  S    0.442914  -0.000000   0.000000  -0.184329   0.867803
    3  N  1  S    0.276913   0.000000  -0.000000  -0.288315   0.144236
    4  N  1  X   -0.000000   0.493155  -0.024636  -0.000000  -0.000000
    5  N  1  Y    0.000000   0.024636   0.493155  -0.000000   0.000000
    6  N  1  Z    0.090197   0.000000   0.000000   0.593421   0.705309
    7  N  1  X   -0.000000   0.210628  -0.010522   0.000000   0.000000
    8  N  1  Y    0.000000   0.010522   0.210628  -0.000000  -0.000000
    9  N  1  Z   -0.004381   0.000000   0.000000   0.381592  -0.106092
   10  N  1 XX   -0.000457   0.010719  -0.000535  -0.012387   0.006153
   11  N  1 YY   -0.000457  -0.010719   0.000535  -0.012387   0.006153
   12  N  1 ZZ    0.000914  -0.000000   0.000000   0.024773  -0.012306
   13  N  1 XY    0.000000  -0.000618  -0.012377  -0.000000   0.000000
   14  N  1 XZ   -0.000000   0.026529  -0.001325  -0.000000   0.000000
   15  N  1 YZ    0.000000   0.001325   0.026529  -0.000000   0.000000
   16  H  2  S    0.194462  -0.176074   0.343485   0.112865  -0.523343
   17  H  2  S    0.003574  -0.023812   0.046452   0.024014  -0.054445
   18  H  2  X    0.018760   0.009101   0.022834   0.009336  -0.039151
   19  H  2  Y   -0.032493   0.022287  -0.020044  -0.016171   0.067811
   20  H  2  Z   -0.009251   0.008464  -0.016511   0.018769  -0.010566
   21  H  3  S    0.194462  -0.209430  -0.324227   0.112865  -0.523343
   22  H  3  S    0.003574  -0.028322  -0.043847   0.024014  -0.054445
   23  H  3  X    0.018760   0.006781  -0.023627   0.009336  -0.039151
   24  H  3  Y    0.032493  -0.024174  -0.017723   0.016171  -0.067811
   25  H  3  Z   -0.009251   0.010067   0.015585   0.018769  -0.010566
   26  H  4  S    0.194462   0.385503  -0.019258   0.112865  -0.523343
   27  H  4  S    0.003574   0.052134  -0.002604   0.024014  -0.054445
   28  H  4  X   -0.037519  -0.032295   0.001613  -0.018672   0.078302
   29  H  4  Y    0.000000   0.001067   0.021353  -0.000000   0.000000
   30  H  4  Z   -0.009251  -0.018530   0.000926   0.018769  -0.010566

                      6          7

    1  N  1  S    0.000000  -0.000000
    2  N  1  S    0.000000  -0.000000
    3  N  1  S   -0.000000   0.000000
    4  N  1  X   -0.930415  -0.002083
    5  N  1  Y   -0.002083   0.930415
    6  N  1  Z   -0.000000   0.000000
    7  N  1  X   -0.046866  -0.000105
    8  N  1  Y   -0.000105   0.046866
    9  N  1  Z   -0.000000   0.000000
   10  N  1 XX    0.001538   0.000003
   11  N  1 YY   -0.001538  -0.000003
   12  N  1 ZZ   -0.000000   0.000000
   13  N  1 XY   -0.000004   0.001776
   14  N  1 XZ    0.039985   0.000090
   15  N  1 YZ    0.000090  -0.039985
   16  H  2  S   -0.362630  -0.631354
   17  H  2  S   -0.065964  -0.114846
   18  H  2  X    0.002763  -0.037520
   19  H  2  Y    0.037435   0.040736
   20  H  2  Z    0.001882   0.003276
   21  H  3  S   -0.365454   0.629724
   22  H  3  S   -0.066477   0.114549
   23  H  3  X    0.002595   0.037532
   24  H  3  Y   -0.037617   0.040567
   25  H  3  Z    0.001896  -0.003268
   26  H  4  S    0.728084   0.001630
   27  H  4  S    0.132441   0.000297
   28  H  4  X   -0.062317  -0.000140
   29  H  4  Y    0.000055  -0.024345
   30  H  4  Z   -0.003778  -0.000008

NUMBER OF SUB ACTIVE SPACES:   1
ROTATE ACTIVE MOS TO DMOS IN EACH SUB-SPACE

SPACE  1:

OVERLAP BETWEEN ORTHONORMAL AND PRE-ORTHONORMAL REF. DMOS

             1           2           3           4           5

    1    0.9990049   0.0045109  -0.0044115  -0.0003532  -0.0000181
    2    0.0045109   0.9849866  -0.0113481   0.0064722  -0.0128967
    3   -0.0044115  -0.0113481   1.0114149  -0.0069012   0.0146832
    4   -0.0003532   0.0064722  -0.0069012   0.9997330  -0.0004765
    5   -0.0000181  -0.0128967   0.0146832  -0.0004765   1.0067781
    6   -0.0012334  -0.0113864  -0.0104456   0.0077625  -0.0000131
    7   -0.0013315   0.0103536  -0.0101751   0.0081418  -0.0032978

             6           7

    1   -0.0012334  -0.0013315
    2   -0.0113864   0.0103536
    3   -0.0104456  -0.0101751
    4    0.0077625   0.0081418
    5   -0.0000131  -0.0032978
    6    1.0083818  -0.0056220
    7   -0.0056220   0.9965415
REFERENCE DMOS AFTER ORTHONORMALIZATION:

                      1          2          3          4          5

    1  N  1  S    0.008585   0.003628  -0.004032  -0.013147   0.277712
    2  N  1  S    0.443216   0.010307  -0.011655  -0.184012   0.862199
    3  N  1  S    0.277073   0.002466  -0.002752  -0.288307   0.143216
    4  N  1  X   -0.003487   0.489947  -0.028549   0.003860   0.006641
    5  N  1  Y    0.003362   0.020938   0.497397  -0.004413  -0.003914
    6  N  1  Z    0.090454   0.004770  -0.005748   0.593931   0.700979
    7  N  1  X   -0.001059   0.213306  -0.008546  -0.001075   0.002847
    8  N  1  Y    0.000935   0.012557   0.208960   0.000942  -0.002726
    9  N  1  Z   -0.004226  -0.003820   0.004007   0.381745  -0.105315
   10  N  1 XX   -0.000512   0.011062  -0.000565  -0.012476   0.006256
   11  N  1 YY   -0.000414  -0.010739   0.000223  -0.012306   0.005966
   12  N  1 ZZ    0.000925  -0.000323   0.000343   0.024782  -0.012222
   13  N  1 XY   -0.000048  -0.000785  -0.012234  -0.000092   0.000174
   14  N  1 XZ   -0.000077   0.027396  -0.000599  -0.000492   0.000360
   15  N  1 YZ    0.000052   0.002055   0.025864   0.000489  -0.000481
   16  H  2  S    0.195704  -0.181054   0.336850   0.124177  -0.529066
   17  H  2  S    0.003658  -0.024122   0.044812   0.025913  -0.055407
   18  H  2  X    0.018794   0.009271   0.023048   0.009711  -0.039223
   19  H  2  Y   -0.032624   0.023552  -0.020001  -0.017069   0.068074
   20  H  2  Z   -0.009355   0.008186  -0.015954   0.018567  -0.010140
   21  H  3  S    0.194756  -0.235396  -0.311585   0.109824  -0.516187
   22  H  3  S    0.003614  -0.032078  -0.042296   0.023497  -0.053488
   23  H  3  X    0.018710   0.005621  -0.022198   0.008814  -0.038365
   24  H  3  Y    0.032584  -0.026729  -0.016576   0.016177  -0.067316
   25  H  3  Z   -0.009232   0.010241   0.015752   0.018821  -0.010596
   26  H  4  S    0.193819   0.391484   0.001874   0.104566  -0.514771
   27  H  4  S    0.003507   0.053591   0.000333   0.022627  -0.053383
   28  H  4  X   -0.037496  -0.032214  -0.000815  -0.017970   0.077365
   29  H  4  Y    0.000053   0.001573   0.020895   0.000330  -0.000364
   30  H  4  Z   -0.009169  -0.019073   0.000904   0.018928  -0.010744

                      6          7

    1  N  1  S    0.000120   0.000960
    2  N  1  S    0.001992   0.004734
    3  N  1  S    0.002577   0.003160
    4  N  1  X   -0.917549  -0.012663
    5  N  1  Y    0.008593   0.938581
    6  N  1  Z   -0.004472  -0.002545
    7  N  1  X   -0.044164  -0.002641
    8  N  1  Y    0.002469   0.049030
    9  N  1  Z   -0.002966  -0.003409
   10  N  1 XX    0.001740   0.000015
   11  N  1 YY   -0.001548   0.000221
   12  N  1 ZZ   -0.000191  -0.000236
   13  N  1 XY   -0.000130   0.001666
   14  N  1 XZ    0.039960   0.000030
   15  N  1 YZ    0.000154  -0.039886
   16  H  2  S   -0.362422  -0.632773
   17  H  2  S   -0.066062  -0.115299
   18  H  2  X    0.002821  -0.037679
   19  H  2  Y    0.037503   0.040961
   20  H  2  Z    0.001655   0.002851
   21  H  3  S   -0.365421   0.626767
   22  H  3  S   -0.066266   0.114110
   23  H  3  X    0.002569   0.037217
   24  H  3  Y   -0.037638   0.040293
   25  H  3  Z    0.001984  -0.003415
   26  H  4  S    0.725894  -0.000616
   27  H  4  S    0.131779   0.000131
   28  H  4  X   -0.062077   0.000189
   29  H  4  Y    0.000151  -0.024235
   30  H  4  Z   -0.004110  -0.000027

 -------------------------------------------
       MAXIMIZING MORMO OVERLAP TERM        
 -------------------------------------------
   SWEEP    VALUE       PROGRESS
     0     6.40247
     1     6.99580     0.59333169
     2     6.99770     0.00189358
     3     6.99770     0.00000001
     4     6.99770     0.00000000
 THE ROTATION IS DONE
ACTIVE ORBITALS AFTER MORMO:

                      1          2          3          4          5

    1  N  1  S    0.008500   0.004931  -0.005341  -0.013098   0.274696
    2  N  1  S    0.442223   0.010730  -0.011177  -0.184394   0.858201
    3  N  1  S    0.280364  -0.007314   0.006024  -0.287633   0.147552
    4  N  1  X   -0.001696   0.486071  -0.030680   0.006018   0.004076
    5  N  1  Y    0.002045   0.018617   0.498257  -0.005953  -0.001694
    6  N  1  Z    0.089898   0.007130  -0.008201   0.594006   0.699602
    7  N  1  X   -0.004391   0.223931   0.000735  -0.008700   0.009515
    8  N  1  Y    0.003496   0.021997   0.200086   0.008316  -0.008842
    9  N  1  Z   -0.002515  -0.011022   0.011580   0.381674  -0.103547
   10  N  1 XX   -0.000861   0.012145   0.000052  -0.012227   0.014795
   11  N  1 YY   -0.000058  -0.011899  -0.000324  -0.012430  -0.003646
   12  N  1 ZZ    0.000920  -0.000246   0.000272   0.024657  -0.011148
   13  N  1 XY   -0.000575  -0.001450  -0.011073   0.000332   0.011299
   14  N  1 XZ    0.000116   0.026776  -0.000540   0.000043  -0.009650
   15  N  1 YZ   -0.000308   0.002052   0.025314   0.000172   0.009487
   16  H  2  S    0.192323  -0.178270   0.342038   0.118039  -0.525456
   17  H  2  S    0.002263  -0.023302   0.041483   0.025399  -0.054048
   18  H  2  X    0.018198   0.009084   0.022672   0.008834  -0.037707
   19  H  2  Y   -0.033462   0.022798  -0.022453  -0.015891   0.067136
   20  H  2  Z   -0.007680   0.007461  -0.015189   0.019164  -0.010517
   21  H  3  S    0.194157  -0.218751  -0.319109   0.111044  -0.516512
   22  H  3  S    0.003628  -0.037309  -0.042845   0.024066  -0.054704
   23  H  3  X    0.014865   0.009246  -0.020363   0.008560  -0.036912
   24  H  3  Y    0.033732  -0.024470  -0.019756   0.016479  -0.067459
   25  H  3  Z   -0.009594   0.009280   0.016666   0.018683  -0.011076
   26  H  4  S    0.194696   0.387378  -0.011090   0.108609  -0.518001
   27  H  4  S    0.004161   0.058660   0.003448   0.023232  -0.055130
   28  H  4  X   -0.036415  -0.030922   0.001912  -0.018782   0.077195
   29  H  4  Y    0.003027   0.004207   0.021284   0.000516  -0.000802
   30  H  4  Z   -0.010363  -0.019871   0.001900   0.018540  -0.010625

                      6          7

    1  N  1  S    0.010016   0.012494
    2  N  1  S    0.022976   0.028026
    3  N  1  S   -0.024260  -0.026113
    4  N  1  X   -0.918194  -0.010350
    5  N  1  Y    0.006272   0.936263
    6  N  1  Z   -0.015476  -0.012985
    7  N  1  X   -0.040517  -0.009107
    8  N  1  Y    0.008972   0.056338
    9  N  1  Z    0.005257   0.003731
   10  N  1 XX    0.009052  -0.008672
   11  N  1 YY   -0.010812   0.006726
   12  N  1 ZZ    0.001760   0.001947
   13  N  1 XY   -0.008995  -0.007763
   14  N  1 XZ    0.035535   0.004922
   15  N  1 YZ   -0.004857  -0.044898
   16  H  2  S   -0.361152  -0.635898
   17  H  2  S   -0.064555  -0.113224
   18  H  2  X   -0.000584  -0.035691
   19  H  2  Y    0.035604   0.044993
   20  H  2  Z    0.001595  -0.000684
   21  H  3  S   -0.354506   0.630178
   22  H  3  S   -0.069189   0.117592
   23  H  3  X    0.007489   0.036189
   24  H  3  Y   -0.036005   0.042554
   25  H  3  Z    0.007968  -0.000305
   26  H  4  S    0.722183   0.007903
   27  H  4  S    0.137407  -0.001103
   28  H  4  X   -0.060072  -0.002663
   29  H  4  Y    0.002153  -0.028613
   30  H  4  Z   -0.005840   0.005031

Actually Used Diabatic Molecualr Orbitals:

                      1          2          3          4          5

    1  N  1  S    0.008500   0.004931  -0.005341  -0.013098   0.274696
    2  N  1  S    0.442223   0.010730  -0.011177  -0.184394   0.858201
    3  N  1  S    0.280364  -0.007314   0.006024  -0.287633   0.147552
    4  N  1  X   -0.001696   0.486071  -0.030680   0.006018   0.004076
    5  N  1  Y    0.002045   0.018617   0.498257  -0.005953  -0.001694
    6  N  1  Z    0.089898   0.007130  -0.008201   0.594006   0.699602
    7  N  1  X   -0.004391   0.223931   0.000735  -0.008700   0.009515
    8  N  1  Y    0.003496   0.021997   0.200086   0.008316  -0.008842
    9  N  1  Z   -0.002515  -0.011022   0.011580   0.381674  -0.103547
   10  N  1 XX   -0.000861   0.012145   0.000052  -0.012227   0.014795
   11  N  1 YY   -0.000058  -0.011899  -0.000324  -0.012430  -0.003646
   12  N  1 ZZ    0.000920  -0.000246   0.000272   0.024657  -0.011148
   13  N  1 XY   -0.000575  -0.001450  -0.011073   0.000332   0.011299
   14  N  1 XZ    0.000116   0.026776  -0.000540   0.000043  -0.009650
   15  N  1 YZ   -0.000308   0.002052   0.025314   0.000172   0.009487
   16  H  2  S    0.192323  -0.178270   0.342038   0.118039  -0.525456
   17  H  2  S    0.002263  -0.023302   0.041483   0.025399  -0.054048
   18  H  2  X    0.018198   0.009084   0.022672   0.008834  -0.037707
   19  H  2  Y   -0.033462   0.022798  -0.022453  -0.015891   0.067136
   20  H  2  Z   -0.007680   0.007461  -0.015189   0.019164  -0.010517
   21  H  3  S    0.194157  -0.218751  -0.319109   0.111044  -0.516512
   22  H  3  S    0.003628  -0.037309  -0.042845   0.024066  -0.054704
   23  H  3  X    0.014865   0.009246  -0.020363   0.008560  -0.036912
   24  H  3  Y    0.033732  -0.024470  -0.019756   0.016479  -0.067459
   25  H  3  Z   -0.009594   0.009280   0.016666   0.018683  -0.011076
[...]
       71    0.025321   -0.025321  2+22000
      106   -0.025185   -0.025185  +222000
      179   -0.024705   -0.024705  202+200
      122    0.024148    0.024148  +2-200+
      387   -0.023069    0.023069  2+20+-0
      424   -0.022616   -0.022616  +-2++-0
      184   -0.022125   -0.022125  -+2+-+0
      143   -0.020092   -0.020092  220+200

 State #    2  Energy =     -55.820255014

      Det      Coef        Coefp    Occupancy (Ignoring core)
      ---      ----        ----    --------- --------- -----
       71   -0.901129    0.901129  2+22000
       36    0.393997    0.393997  22+2000
      822    0.063245   -0.063245  2+02002
        1    0.042737   -0.042737  222+000
      813    0.036166   -0.036166  20+20+-
      111    0.034160   -0.034160  +22-0+0
      320    0.030276    0.030276  0+22200
      323   -0.030121    0.030121  +022-+0
      463   -0.029470    0.029470  20+2020
      810   -0.027611   -0.027611  -++2+0-
      332   -0.026561    0.026561  ++-2-0+
        6    0.025097   -0.025097  22200+0
      177    0.024412   -0.024412  2+20200
      183   -0.024352    0.024352  202+-+0
      180   -0.024271    0.024271  -+2+200
      317    0.023680   -0.023680  ++2-200
      113    0.021595   -0.021595  +-220+0
      112   -0.021263   -0.021263  +2-20+0
      391    0.020801   -0.020801  2+20020
       99   -0.020720    0.020720  20-20++
      751    0.020271   -0.020271  2+20002

 State #    3  Energy =     -55.789644317

      Det      Coef        Coefp    Occupancy (Ignoring core)
      ---      ----        ----    --------- --------- -----
       36   -0.899740   -0.899740  22+2000
       71   -0.395980    0.395980  2+22000
      463    0.068265   -0.068265  20+2020
      121   -0.038605    0.038605  +22-00+
      472   -0.035463   -0.035463  2+020-+
        1   -0.033994    0.033994  222+000
      460   -0.031104   -0.031104  -++2+-0
      285    0.030244   -0.030244  02+2200
      288   -0.030055   -0.030055  +-+2-+0
      297    0.026404   -0.026404  +202-0+
      822    0.026304   -0.026304  2+02002
      145   -0.024494   -0.024494  -2++200
      249    0.024478   -0.024478  20+2200
      282    0.024080    0.024080  +2+-200
      716    0.023454    0.023454  22+0002
      142    0.023059    0.023059  22+0200
      148   -0.022478   -0.022478  2-++-+0
      113   -0.022183    0.022183  +-220+0
      457   -0.022089    0.022089  2++-+-0
       16   -0.021564    0.021564  222000+
      112   -0.021539   -0.021539  +2-20+0
      771    0.021168    0.021168  +22+00-
      494    0.020479   -0.020479  +-+2+-0
       74   -0.020475    0.020475  2022+00
       64    0.020293   -0.020293  2-020++
      254    0.020014   -0.020014  -++2-+0

 ---------------------------------------
    -DIABATIC STATES IN PROTOTYPES-     
 ---------------------------------------

     STATE:    1
 Group Ref#    Coefficients
     1    1    0.995329
     2    2    0.000374
     3    3   -0.000120

WEIGHT OF LISTED PROTOTYPES:   99.07%

     STATE:    2
 Group Ref#    Coefficients
     1    1    0.000374
     2    2    0.995063
     3    3    0.000314

WEIGHT OF LISTED PROTOTYPES:   99.01%

     STATE:    3
 Group Ref#    Coefficients
     1    1   -0.000120
     2    2    0.000314
     3    3    0.994584

WEIGHT OF LISTED PROTOTYPES:   98.92%

 --------------------------------------------------
 IN DIRECT MAX. DIABATIZATION FOR GMC-QDPT

 DIRECT MAXIMIZATION (DM) WITHOUT TRUNCATING ADIABATS
 EXPANSIONS INTO THE REFERENCE CONFIGURATION SPACE
 --------------------------------------------------

 -------------------------------------------
 - DM DIABT PT HAMILTONIAN MATRIX ELEMENTS -
 -------------------------------------------
                                            
 --- DIABATIC ENERGIES (DIAGONAL ELEMENT) ---       HARTREE            EV
 STATE #  1'S GMC-PT-LEVEL DIABATIC ENERGY=     -56.006608870       0.000000000
 STATE #  2'S GMC-PT-LEVEL DIABATIC ENERGY=     -55.820255012       5.070946758
 STATE #  3'S GMC-PT-LEVEL DIABATIC ENERGY=     -55.789644320       5.903906113

 --- DIABATIC COUPLINGS (OFF DIAGONAL ELEMENTS)---  HATREE            EV
 STATE #  1 &  2'S GMC-PT-LEVEL COUPLING  =      -0.007867476      -0.214084920
 STATE #  1 &  3'S GMC-PT-LEVEL COUPLING  =       0.007800916       0.212273727
 STATE #  2 &  3'S GMC-PT-LEVEL COUPLING  =      -0.016177252      -0.440205440

 ---------------------------------------
     - ROTATION TO DIABATIC STATES -    
 ---------------------------------------
 ROWS=ADIABATIC, COLUMNS=DIABATIC STATES

             1           2           3

    1   -0.9986901  -0.0391877   0.0329000
    2    0.0227666  -0.9161611  -0.4001632
    3   -0.0458232   0.3988900  -0.9158531

 ---------------------------------------
          - DIABATIC STATES -           
 ---------------------------------------

 State #    1  Energy =     -56.006608870

      Det      Coef        Coefp    Occupancy (Ignoring core)
      ---      ----        ----    --------- --------- -----
        1    0.979019   -0.979019  222+000
      393   -0.073164   -0.073164  202+020
      717   -0.069012   -0.069012  220+002
        8   -0.058691    0.058691  2-2+0+0
      708    0.037575   -0.037575  2-++0+-
      402    0.036979   -0.036979  2+-+0-+
       17    0.035217    0.035217  22-+00+
      215   -0.033838   -0.033838  022+200
      218    0.032908   -0.032908  +-2+-+0
      390    0.032628   -0.032628  -+2++-0
      227   -0.032255   -0.032255  +2-+-0+
      705   -0.032048   -0.032048  -2+++0-
      386    0.030774   -0.030774  2+2+0-0
        2    0.029216   -0.029216  2220+00
       76    0.027917    0.027917  2+2-0+0
      212    0.027750    0.027750  +220200
       51   -0.026538    0.026538  22+-00+
      113   -0.026096    0.026096  +-220+0
      122    0.024693    0.024693  +2-200+
      106   -0.024123   -0.024123  +222000
      143   -0.022414   -0.022414  220+200
      424   -0.022121   -0.022121  +-2++-0
      387   -0.021826    0.021826  2+20+-0
      184   -0.021537   -0.021537  -+2+-+0
      179   -0.021503   -0.021503  202+200
      702    0.021457    0.021457  22+0+0-
      773    0.021061   -0.021061  +2-++0-
      742   -0.020778   -0.020778  2+-+0+-
      368   -0.020618   -0.020618  2-++0-+
      159    0.020603   -0.020603  -2++-0+

 State #    2  Energy =     -55.820255012

      Det      Coef        Coefp    Occupancy (Ignoring core)
      ---      ----        ----    --------- --------- -----
       71   -0.981443    0.981443  2+22000
      822    0.068007   -0.068007  2+02002
       36    0.047395    0.047395  22+2000
       74    0.041772   -0.041772  2022+00
      813    0.040292   -0.040292  20+20+-
      111    0.038652   -0.038652  +22-0+0
       76    0.034932    0.034932  2+2-0+0
      320    0.033325    0.033325  0+22200
      323   -0.032962    0.032962  +022-+0
      810   -0.032454   -0.032454  -++2+0-
      332   -0.031381    0.031381  ++-2-0+
      180   -0.027953    0.027953  -+2+200
      317    0.027695   -0.027695  ++2-200
      113    0.027418   -0.027418  +-220+0
      177    0.025731   -0.025731  2+20200
        6    0.025285   -0.025285  22200+0
      183   -0.025080    0.025080  202+-+0
       38   -0.024834    0.024834  2202+00
      391    0.023854   -0.023854  2+20020
      248    0.023740   -0.023740  2+02200
      386   -0.023683    0.023683  2+2+0-0
       99   -0.023336    0.023336  20-20++
      122    0.022733    0.022733  +2-200+
      807   -0.022596    0.022596  2++-+0-
      192   -0.022387    0.022387  2+-+-0+
       73    0.021621   -0.021621  2+-2+00
      751    0.021570   -0.021570  2+20002
       51    0.021136   -0.021136  22+-00+
      878    0.020636    0.020636  ++-2+0-
      421   -0.020135   -0.020135  +22+0-0

 State #    3  Energy =     -55.789644320

      Det      Coef        Coefp    Occupancy (Ignoring core)
      ---      ----        ----    --------- --------- -----
       36   -0.981622   -0.981622  22+2000
      463    0.073140   -0.073140  20+2020
       71   -0.047140    0.047140  2+22000
      121   -0.040907    0.040907  +22-00+
      472   -0.040426   -0.040426  2+020-+
      285    0.033603   -0.033603  02+2200
      460   -0.033308   -0.033308  -++2+-0
      288   -0.032552   -0.032552  +-+2-+0
      297    0.031675   -0.031675  +202-0+
      112   -0.028555   -0.028555  +2-20+0
      145   -0.027896   -0.027896  -2++200
      456   -0.027847   -0.027847  2++20-0
      282    0.027696    0.027696  +2+-200
       73    0.027433   -0.027433  2+-2+00
       52    0.026560   -0.026560  220200+
       16   -0.025811    0.025811  222000+
      142    0.025732    0.025732  22+0200
      123    0.024206   -0.024206  +-2200+
      716    0.024044    0.024044  22+0002
      157    0.023780   -0.023780  220+-0+
      249    0.023525   -0.023525  20+2200
       64    0.023471   -0.023471  2-020++
      457   -0.023461    0.023461  2++-+-0
      148   -0.023406   -0.023406  2-++-+0
       86    0.022957    0.022957  2+2-00+
      771    0.021958    0.021958  +22+00-
      494    0.021675   -0.021675  +-+2+-0
      356    0.021594    0.021594  22+0020
      254    0.021443   -0.021443  -++2-+0

 ---------------------------------------
      - DIABATIC STATES IN CMO -        
 ---------------------------------------

 State #    1  Energy =     -56.006608870

      Det      Coef        Coefp    Occupancy (Ignoring core)
      ---      ----        ----    --------- --------- -----
        1    0.978902   -0.978902  222+000
      393   -0.074843   -0.074843  202+020
      717   -0.069716   -0.069716  220+002
       36   -0.048037   -0.048037  22+2000
        8   -0.045281    0.045281  2-2+0+0
       17    0.043730    0.043730  22-+00+
      402    0.035202   -0.035202  2+-+0-+
      708    0.034618   -0.034618  2-++0+-
      215   -0.033378   -0.033378  022+200
      390    0.033228   -0.033228  -+2++-0
      218    0.033107   -0.033107  +-2+-+0
      227   -0.029450   -0.029450  +2-+-0+
      705   -0.029355   -0.029355  -2+++0-
        2    0.029101   -0.029101  2220+00
       76    0.028233    0.028233  2+2-0+0
      212    0.026253    0.026253  +220200
      113   -0.026048    0.026048  +-220+0
       51   -0.025624    0.025624  22+-00+
       71    0.025321   -0.025321  2+22000
      106   -0.025185   -0.025185  +222000
      179   -0.024705   -0.024705  202+200
      122    0.024148    0.024148  +2-200+
      387   -0.023069    0.023069  2+20+-0
      424   -0.022616   -0.022616  +-2++-0
      184   -0.022125   -0.022125  -+2+-+0
      143   -0.020092   -0.020092  220+200

 State #    2  Energy =     -55.820255012

      Det      Coef        Coefp    Occupancy (Ignoring core)
      ---      ----        ----    --------- --------- -----
       71   -0.901129    0.901129  2+22000
       36    0.393997    0.393997  22+2000
      822    0.063245   -0.063245  2+02002
        1    0.042737   -0.042737  222+000
      813    0.036166   -0.036166  20+20+-
      111    0.034160   -0.034160  +22-0+0
      320    0.030276    0.030276  0+22200
      323   -0.030121    0.030121  +022-+0
      463   -0.029470    0.029470  20+2020
      810   -0.027611   -0.027611  -++2+0-
      332   -0.026561    0.026561  ++-2-0+
        6    0.025097   -0.025097  22200+0
      177    0.024412   -0.024412  2+20200
      183   -0.024352    0.024352  202+-+0
      180   -0.024271    0.024271  -+2+200
      317    0.023680   -0.023680  ++2-200
      113    0.021595   -0.021595  +-220+0
      112   -0.021263   -0.021263  +2-20+0
      391    0.020801   -0.020801  2+20020
       99   -0.020720    0.020720  20-20++
      751    0.020271   -0.020271  2+20002

 State #    3  Energy =     -55.789644320

      Det      Coef        Coefp    Occupancy (Ignoring core)
      ---      ----        ----    --------- --------- -----
       36   -0.899740   -0.899740  22+2000
       71   -0.395980    0.395980  2+22000
      463    0.068265   -0.068265  20+2020
      121   -0.038605    0.038605  +22-00+
      472   -0.035463   -0.035463  2+020-+
        1   -0.033994    0.033994  222+000
      460   -0.031104   -0.031104  -++2+-0
      285    0.030244   -0.030244  02+2200
      288   -0.030055   -0.030055  +-+2-+0
      297    0.026404   -0.026404  +202-0+
      822    0.026304   -0.026304  2+02002
      145   -0.024494   -0.024494  -2++200
      249    0.024478   -0.024478  20+2200
      282    0.024080    0.024080  +2+-200
      716    0.023454    0.023454  22+0002
      142    0.023059    0.023059  22+0200
      148   -0.022478   -0.022478  2-++-+0
      113   -0.022183    0.022183  +-220+0
      457   -0.022089    0.022089  2++-+-0
       16   -0.021564    0.021564  222000+
      112   -0.021539   -0.021539  +2-20+0
      771    0.021168    0.021168  +22+00-
      494    0.020479   -0.020479  +-+2+-0
       74   -0.020475    0.020475  2022+00
       64    0.020293   -0.020293  2-020++
      254    0.020014   -0.020014  -++2-+0

 ---------------------------------------
    -DIABATIC STATES IN PROTOTYPES-     
 ---------------------------------------

     STATE:    1
 Group Ref#    Coefficients
     1    1    0.995329
     2    2    0.000374
     3    3   -0.000119

WEIGHT OF LISTED PROTOTYPES:   99.07%

     STATE:    2
 Group Ref#    Coefficients
     1    1    0.000374
     2    2    0.995063
     3    3    0.000314

WEIGHT OF LISTED PROTOTYPES:   99.01%

     STATE:    3
 Group Ref#    Coefficients
     1    1   -0.000120
     2    2    0.000314
     3    3    0.994584

WEIGHT OF LISTED PROTOTYPES:   98.92%

     DIRECT MAX. DIABATIZATION FINISHED    
 CPU     0: STEP CPU TIME=     0.25 TOTAL CPU TIME=         12.4 (      0.2 MIN)
 TOTAL WALL CLOCK TIME=         12.5 SECONDS, CPU UTILIZATION IS    99.92%

DIABATS FOR SPIN-ORBIT CALCULATION ARE READY

TRANSITION DIPOLES BETWEEN ADIABATS (in A.U.):

STATE PAIR      X         Y         Z
    1    1  0.056347 -0.057691  0.777767
    2    1 -0.011137 -0.003864 -0.012722
    2    2 -0.095570  0.129346  0.251827
    3    1 -0.012056  0.029626  0.025346
    3    2  0.161496  0.165226  0.000197
    3    3  0.235037 -0.266182  0.250224


TRANSITION DIPOLES BETWEEN DIABATS (in A.U.):

STATE PAIR      X         Y         Z
    1    1  0.055709 -0.055489  0.779284
    2    1  0.002750 -0.006935 -0.001058
    2    2 -0.161192 -0.055841  0.250530
    3    1 -0.006990  0.014637  0.000703
    3    2 -0.011676  0.258508  0.001468
    3    3  0.301297 -0.083197  0.250004

TRANSITION DIPOLES BETWEEN DIRECT MAX. DIABATS (in A.U.):

STATE PAIR      X         Y         Z
    1    1  0.055709 -0.055489  0.779284
    2    1  0.002750 -0.006935 -0.001058
    2    2 -0.161192 -0.055841  0.250530
    3    1 -0.006990  0.014637  0.000703
    3    2 -0.011676  0.258508  0.001468
    3    3  0.301297 -0.083197  0.250004
 No $TRANST Group Found.
 Quit without doing spin-orbit coupling
 ..... DONE WITH MP2 ENERGY .....
 CPU     0: STEP CPU TIME=     0.00 TOTAL CPU TIME=         12.4 (      0.2 MIN)
 TOTAL WALL CLOCK TIME=         12.5 SECONDS, CPU UTILIZATION IS    99.84%
            100000000  WORDS OF DYNAMIC MEMORY USED
 EXECUTION OF GAMESS TERMINATED NORMALLY Wed Nov 16 19:16:27 2022
 DDI: 715512 bytes (0.7 MB / 0 MWords) used by master data server.

 ----------------------------------------
 CPU timing information for all processes
 ========================================
 0: 12.158 + 0.307 = 12.466
 ----------------------------------------
Note: The following floating-point exceptions are signalling: IEEE_DENORMAL
 ddikick.x: exited gracefully.
unset echo
----- accounting info -----
Files used on the master node io002 were:
-rw-r--r-- 1 bsonghao nooijen   20720 Nov 16 19:16 /scratch/bsonghao/nh3_diabatization_2d_at_mode_7_8_dist-0.1_0.1.F05
-rw-r--r-- 1 bsonghao nooijen  363520 Nov 16 19:16 /scratch/bsonghao/nh3_diabatization_2d_at_mode_7_8_dist-0.1_0.1.F09
-rw-r--r-- 1 bsonghao nooijen 1995920 Nov 16 19:16 /scratch/bsonghao/nh3_diabatization_2d_at_mode_7_8_dist-0.1_0.1.F10
-rw-r--r-- 1 bsonghao nooijen  131264 Nov 16 19:16 /scratch/bsonghao/nh3_diabatization_2d_at_mode_7_8_dist-0.1_0.1.F13
-rw-r--r-- 1 bsonghao nooijen  180312 Nov 16 19:16 /scratch/bsonghao/nh3_diabatization_2d_at_mode_7_8_dist-0.1_0.1.F15
-rw-r--r-- 1 bsonghao nooijen       0 Nov 16 19:16 /scratch/bsonghao/nh3_diabatization_2d_at_mode_7_8_dist-0.1_0.1.F16
-rw-r--r-- 1 bsonghao nooijen    9808 Nov 16 19:16 /scratch/bsonghao/nh3_diabatization_2d_at_mode_7_8_dist-0.1_0.1.F70
-rw-r--r-- 1 bsonghao nooijen    9808 Nov 16 19:16 /scratch/bsonghao/nh3_diabatization_2d_at_mode_7_8_dist-0.1_0.1.F71
-rw-r--r-- 1 bsonghao nooijen   19608 Nov 16 19:16 /scratch/bsonghao/nh3_diabatization_2d_at_mode_7_8_dist-0.1_0.1.F72
-rw-r--r-- 1 bsonghao nooijen   19608 Nov 16 19:16 /scratch/bsonghao/nh3_diabatization_2d_at_mode_7_8_dist-0.1_0.1.F73
-rw-r--r-- 1 bsonghao nooijen 1920824 Nov 16 19:16 /scratch/bsonghao/nh3_diabatization_2d_at_mode_7_8_dist-0.1_0.1.F74
-rw-r--r-- 1 bsonghao nooijen       0 Nov 16 19:16 /scratch/bsonghao/nh3_diabatization_2d_at_mode_7_8_dist-0.1_0.1.F75
-rw-r--r-- 1 bsonghao nooijen   58848 Nov 16 19:16 /scratch/bsonghao/nh3_diabatization_2d_at_mode_7_8_dist-0.1_0.1.F76
-rw-r--r-- 1 bsonghao nooijen       0 Nov 16 19:16 /scratch/bsonghao/nh3_diabatization_2d_at_mode_7_8_dist-0.1_0.1.F77
-rw-r--r-- 1 bsonghao nooijen    1864 Nov 16 19:16 /scratch/bsonghao/nh3_diabatization_2d_at_mode_7_8_dist-0.1_0.1.F78
-rw-r--r-- 1 bsonghao nooijen   39208 Nov 16 19:16 /scratch/bsonghao/nh3_diabatization_2d_at_mode_7_8_dist-0.1_0.1.F79
-rw-r--r-- 1 bsonghao nooijen     104 Nov 16 19:16 /scratch/bsonghao/nh3_diabatization_2d_at_mode_7_8_dist-0.1_0.1.F80
-rw-r--r-- 1 bsonghao nooijen   13472 Nov 16 19:16 /scratch/bsonghao/nh3_diabatization_2d_at_mode_7_8_dist-0.1_0.1.F81
-rw-r--r-- 1 bsonghao nooijen      16 Nov 16 19:16 /scratch/bsonghao/nh3_diabatization_2d_at_mode_7_8_dist-0.1_0.1.F82
-rw-r--r-- 1 bsonghao nooijen   19216 Nov 16 19:16 /scratch/bsonghao/nh3_diabatization_2d_at_mode_7_8_dist-0.1_0.1.F83
-rw-r--r-- 1 bsonghao nooijen   29712 Nov 16 19:16 /scratch/bsonghao/nh3_diabatization_2d_at_mode_7_8_dist-0.1_0.1.F84
-rw-r--r-- 1 bsonghao nooijen  401576 Nov 16 19:16 /scratch/bsonghao/nh3_diabatization_2d_at_mode_7_8_dist-0.1_0.1.F85
-rw-r--r-- 1 bsonghao nooijen  903672 Nov 16 19:16 /scratch/bsonghao/nh3_diabatization_2d_at_mode_7_8_dist-0.1_0.1.F86
-rw-r--r-- 1 bsonghao nooijen     656 Nov 16 19:16 /scratch/bsonghao/nh3_diabatization_2d_at_mode_7_8_dist-0.1_0.1.F87
-rw-r--r-- 1 bsonghao nooijen   24112 Nov 16 19:16 /scratch/bsonghao/nh3_diabatization_2d_at_mode_7_8_dist-0.1_0.1.F88
-rw-r--r-- 1 bsonghao nooijen     240 Nov 16 19:16 /scratch/bsonghao/nh3_diabatization_2d_at_mode_7_8_dist-0.1_0.1.F89
-rw-r--r-- 1 bsonghao nooijen       0 Nov 16 19:16 /scratch/bsonghao/nh3_diabatization_2d_at_mode_7_8_dist-0.1_0.1.F90
-rw-r--r-- 1 bsonghao nooijen   13760 Nov 16 19:16 /scratch/bsonghao/nh3_diabatization_2d_at_mode_7_8_dist-0.1_0.1.F91
-rw-r--r-- 1 bsonghao nooijen   22776 Nov 16 19:16 /scratch/bsonghao/nh3_diabatization_2d_at_mode_7_8_dist-0.1_0.1.F92
-rw-r--r-- 1 bsonghao nooijen   23168 Nov 16 19:16 /scratch/bsonghao/nh3_diabatization_2d_at_mode_7_8_dist-0.1_0.1.F93
-rw-r--r-- 1 bsonghao nooijen   22776 Nov 16 19:16 /scratch/bsonghao/nh3_diabatization_2d_at_mode_7_8_dist-0.1_0.1.F94
-rw-r--r-- 1 bsonghao nooijen   13760 Nov 16 19:16 /scratch/bsonghao/nh3_diabatization_2d_at_mode_7_8_dist-0.1_0.1.F95
-rw-r--r-- 1 bsonghao nooijen   29440 Nov 16 19:16 /scratch/bsonghao/nh3_diabatization_2d_at_mode_7_8_dist-0.1_0.1.F96
-rw-r--r-- 1 bsonghao nooijen    1184 Nov 16 19:16 /scratch/bsonghao/nh3_diabatization_2d_at_mode_7_8_dist-0.1_0.1.F97
-rw-r--r-- 1 bsonghao nooijen    9808 Nov 16 19:16 /scratch/bsonghao/nh3_diabatization_2d_at_mode_7_8_dist-0.1_0.1.F98
-rw-r--r-- 1 bsonghao nooijen   30264 Nov 16 19:16 /scratch/bsonghao/nh3_diabatization_2d_at_mode_7_8_dist-0.1_0.1.F99
ls: No match.
ls: No match.
ls: No match.
Wed 16 Nov 2022 07:16:30 PM EST
0.262u 0.071s 0:15.83 2.0%	0+0k 48+224io 0pf+0w
