----- GAMESS execution script 'rungms' -----
This job is running on host io002
under operating system Linux at Wed 16 Nov 2022 07:06:29 PM EST
Available scratch disk space (Kbyte units) at beginning of the job is
Filesystem       1K-blocks       Used   Available Use% Mounted on
/dev/sdc1      15378471580 3278917120 11318349060  23% /scratch
GAMESS temporary binary files will be written to /scratch/bsonghao
GAMESS supplementary output files will be written to /home/bsonghao/.gamess_ascii_files/267638
Copying input file nh3_diabatization_2d_at_mode_7_8_dist-0.2_-0.4.inp to your run's scratch directory...
cp nh3_diabatization_2d_at_mode_7_8_dist-0.2_-0.4.inp /scratch/bsonghao/nh3_diabatization_2d_at_mode_7_8_dist-0.2_-0.4.F05
unset echo
/home/bjb2chen/gamess/ddikick.x /home/bjb2chen/gamess/gamess.00.x nh3_diabatization_2d_at_mode_7_8_dist-0.2_-0.4 -ddi 1 1 io002 -scr /scratch/bsonghao

 Distributed Data Interface kickoff program.
 Initiating 1 compute processes on 1 nodes to run the following command:
 /home/bjb2chen/gamess/gamess.00.x nh3_diabatization_2d_at_mode_7_8_dist-0.2_-0.4 

          ******************************************************
          *         GAMESS VERSION = 02 AUG 2018 (R2)         *
          *             FROM IOWA STATE UNIVERSITY             *
          * M.W.SCHMIDT, K.K.BALDRIDGE, J.A.BOATZ, S.T.ELBERT, *
          *   M.S.GORDON, J.H.JENSEN, S.KOSEKI, N.MATSUNAGA,   *
          *          K.A.NGUYEN, S.J.SU, T.L.WINDUS,           *
          *       TOGETHER WITH M.DUPUIS, J.A.MONTGOMERY       *
          *         J.COMPUT.CHEM.  14, 1347-1363(1993)        *
          **************** 64 BIT LINUX VERSION ****************

  SINCE 1993, STUDENTS AND POSTDOCS WORKING AT IOWA STATE UNIVERSITY
  AND ALSO IN THEIR VARIOUS JOBS AFTER LEAVING ISU HAVE MADE IMPORTANT
  CONTRIBUTIONS TO THE CODE:
     IVANA ADAMOVIC, CHRISTINE AIKENS, YURI ALEXEEV, POOJA ARORA,
     ANDREY ASADCHEV, ROB BELL, PRADIPTA BANDYOPADHYAY, JONATHAN BENTZ,
     BRETT BODE, KURT BRORSEN, CALEB CARLIN, GALINA CHABAN, WEI CHEN,
     CHEOL HO CHOI, PAUL DAY, ALBERT DEFUSCO, NUWAN DESILVA, TIM DUDLEY,
     DMITRI FEDOROV, ALEX FINDLATER, GRAHAM FLETCHER, MARK FREITAG,
     KURT GLAESEMANN, ANASTASIA GUININA,
     DAN KEMP, GRANT MERRILL, NORIYUKI MINEZAWA, JONATHAN MULLIN,
     TAKESHI NAGATA, SEAN NEDD, HEATHER NETZLOFF, BOSILJKA NJEGIC, RYAN OLSON,
     MIKE PAK, BUU PHAM,
     SPENCER PRUITT, LUKE ROSKOP, JIM SHOEMAKER, LYUDMILA SLIPCHENKO,
     TONY SMITH, SAROM SOK LEANG, JIE SONG, TETSUYA TAKETSUGU, SIMON WEBB,
     PENG XU, SOOHAENG YOO, FEDERICO ZAHARIEV

  ADDITIONAL CODE HAS BEEN PROVIDED BY COLLABORATORS IN OTHER GROUPS:
     IOWA STATE UNIVERSITY:
          JOE IVANIC, AARON WEST, LAIMUTIS BYTAUTAS, KLAUS RUEDENBERG
     UNIVERSITY OF TOKYO: KIMIHIKO HIRAO, TAKAHITO NAKAJIMA,
          TAKAO TSUNEDA, MUNEAKI KAMIYA, SUSUMU YANAGISAWA,
          KIYOSHI YAGI, MAHITO CHIBA, SEIKEN TOKURA, NAOAKI KAWAKAMI
     UNIVERSITY OF AARHUS: FRANK JENSEN
     UNIVERSITY OF IOWA: VISVALDAS KAIRYS, HUI LI
     NATIONAL INST. OF STANDARDS AND TECHNOLOGY: WALT STEVENS, DAVID GARMER
     UNIVERSITY OF PISA: BENEDETTA MENNUCCI, JACOPO TOMASI
     UNIVERSITY OF MEMPHIS: HENRY KURTZ, PRAKASHAN KORAMBATH
     UNIVERSITY OF ALBERTA: TOBY ZENG, MARIUSZ KLOBUKOWSKI
     UNIVERSITY OF NEW ENGLAND: MARK SPACKMAN
     MIE UNIVERSITY: HIROAKI UMEDA
     NAT. INST. OF ADVANCED INDUSTRIAL SCIENCE AND TECHNOLOGY: KAZUO KITAURA
     MICHIGAN STATE UNIVERSITY:
          KAROL KOWALSKI, MARTA WLOCH, JEFFREY GOUR, JESSE LUTZ,
          WEI LI, JUN SHEN, J. EMILIANO DEUSTUA, PIOTR PIECUCH
     UNIVERSITY OF MINNESOTA:
          YINAN SHU
     UNIVERSITY OF SILESIA: MONIKA MUSIAL, STANISLAW KUCHARSKI
     FACULTES UNIVERSITAIRES NOTRE-DAME DE LA PAIX:
          OLIVIER QUINET, BENOIT CHAMPAGNE
     UNIVERSITY OF CALIFORNIA - SANTA BARBARA: BERNARD KIRTMAN
     INSTITUTE FOR MOLECULAR SCIENCE:
          KAZUYA ISHIMURA, MICHIO KATOUDA, AND SHIGERU NAGASE
     UNIVERSITY OF NOTRE DAME: ANNA POMOGAEVA, DAN CHIPMAN
     KYUSHU UNIVERSITY:
          HARUYUKI NAKANO,
          FENG LONG GU, JACEK KORCHOWIEC, MARCIN MAKOWSKI, AND YURIKO AOKI,
          HIROTOSHI MORI AND EISAKU MIYOSHI
     PENNSYLVANIA STATE UNIVERSITY:
          TZVETELIN IORDANOV, CHET SWALINA, JONATHAN SKONE,
          SHARON HAMMES-SCHIFFER
     WASEDA UNIVERSITY:
          MASATO KOBAYASHI, TOMOKO AKAMA, TSUGUKI TOUMA,
          TAKESHI YOSHIKAWA, YASUHIRO IKABATA, JUNJI SEINO,
          YUYA NAKAJIMA, HIROMI NAKAI
     NANJING UNIVERSITY: SHUHUA LI
     UNIVERSITY OF NEBRASKA:
          PEIFENG SU, DEJUN SI, NANDUN THELLAMUREGE, YALI WANG, HUI LI
     UNIVERSITY OF ZURICH: ROBERTO PEVERATI, KIM BALDRIDGE
     N. COPERNICUS UNIVERSITY AND JACKSON STATE UNIVERSITY:
          MARIA BARYSZ
     UNIVERSITY OF COPENHAGEN: Jimmy Kromann, CASPER STEINMANN
     TOKYO INSTITUTE OF TECHNOLOGY: HIROYA NAKATA
     NAGOYA UNIVERSITY: YOSHIO NISHIMOTO, STEPHAN IRLE
     MOSCOW STATE UNIVERSITY: VLADIMIR MIRONOV

 EXECUTION OF GAMESS BEGUN Wed Nov 16 19:06:29 2022

            ECHO OF THE FIRST FEW INPUT CARDS -
 INPUT CARD> $system kdiag=3 mwords=100 memddi=1000 parall=.t. $end                         
 INPUT CARD> $contrl runtyp=energy ispher=1 $end                                            
 INPUT CARD> $contrl icut=9 itol=20 inttyp=rysquad qmttol=1.0d-05 nosym=1 $end              
 INPUT CARD> $scf    npunch=2 conv=1.0d-06 dirscf=.t.      $end                             
 INPUT CARD> $contrl scftyp=mcscf  mult=2 maxit=200 icharg=1 mplevl=2 $end                  
 INPUT CARD> $guess  guess=moread norb=29 purify=.t. $end                                   
 INPUT CARD> $basis  gbasis=ccd $end                                                        
 INPUT CARD> $mcscf  cistep=gmcci fullnr=.t. finci=mos                                      
 INPUT CARD>         acurcy=1.d-6 maxit=100 $end                                            
 INPUT CARD> $trans  dirtrf=.t. $end                                                        
 INPUT CARD> $mrmp   mrpt=gmcpt rdvecs=.f. $end                                             
 INPUT CARD> $gmcpt  nmofzc=0 nmodoc=1 nmoact=7 nelact=7 stsym(1)=A                         
 INPUT CARD>         reftyp=ormas nspace=1 mstart(1)=2 mine(1)=7 maxe(1)=7                  
 INPUT CARD>         kstate(1)=1,1,1                                                        
 INPUT CARD>         wstate(1)=1,1,1                                                        
 INPUT CARD>         iwgt=0 thrwgt=-1.0 krot=.f. kszdoe=.f. knospn=.f.                      
 INPUT CARD>         thrde=-1.0 edshft=0.02 $end                                            
 INPUT CARD> $data                                                                          
 INPUT CARD> NH3+ 3 states calculation at NH3 structure.                                    
 INPUT CARD> c1                                                                             
 INPUT CARD>N 7.0 0.024915672 0.012457805999999998 -0.1693804682                            
 INPUT CARD>H 1.0 -0.745405144 0.6395420838000001 0.2635325001                              
 INPUT CARD>H 1.0 -0.592554502 -0.6666960278 0.35497545810000003                            
 INPUT CARD>H 1.0 0.991749708 -0.14595149599999996 0.1508694181                             
 INPUT CARD>$end                                                                            
 INPUT CARD>--- OPTIMIZED RHF      MO-S --- GENERATED AT Mon Nov 14 16:47:08 2022           
 INPUT CARD>E=      -56.3825050291, E(NUC)=   11.8429239490                                 
 INPUT CARD> $VEC                                                                           
 INPUT CARD> 1  1-1.00134066E+00-2.25158504E-03 3.44925845E-03 0.00000000E+00 0.00000000E+00
 INPUT CARD> 1  2-2.13170927E-03 0.00000000E+00 0.00000000E+00 6.57129898E-04-6.87950443E-05
 INPUT CARD> 1  3-6.87950443E-05 1.37590089E-04 0.00000000E+00 0.00000000E+00 0.00000000E+00
 INPUT CARD> 1  4 3.25502815E-04-4.84772356E-04 3.62525460E-04-6.27912517E-04-3.45956485E-04
 INPUT CARD> 1  5 3.25502815E-04-4.84772356E-04 3.62525460E-04 6.27912517E-04-3.45956485E-04
 INPUT CARD> 1  6 3.25502815E-04-4.84772356E-04-7.25050921E-04 0.00000000E+00-3.45956485E-04
 INPUT CARD> 2  1 1.31286642E-02-4.05911371E-01-2.82090992E-01 0.00000000E+00 0.00000000E+00
 INPUT CARD> 2  2-7.71489043E-02 0.00000000E+00 0.00000000E+00 9.73717494E-03 6.62450916E-04
 INPUT CARD> 2  3 6.62450916E-04-1.32490183E-03 0.00000000E+00 0.00000000E+00 0.00000000E+00
 INPUT CARD> 2  4-1.96090317E-01-1.96656153E-02-1.74855877E-02 3.02859263E-02 8.68214399E-03
 INPUT CARD> 2  5-1.96090317E-01-1.96656153E-02-1.74855877E-02-3.02859263E-02 8.68214399E-03
 INPUT CARD> 2  6-1.96090317E-01-1.96656153E-02 3.49711754E-02 0.00000000E+00 8.68214399E-03
 INPUT CARD> 3  1 0.00000000E+00 0.00000000E+00 0.00000000E+00 4.48608762E-01 0.00000000E+00
 INPUT CARD> 3  2 0.00000000E+00 2.18692520E-01 0.00000000E+00 0.00000000E+00 1.30198027E-02
 INPUT CARD> 3  3-1.30198027E-02 0.00000000E+00 0.00000000E+00 2.71832968E-02 0.00000000E+00
 INPUT CARD> 3  4-1.85332726E-01-7.03958951E-02 8.47929477E-03 1.95242443E-02 8.32835058E-03
 INPUT CARD> 3  5-1.85332726E-01-7.03958951E-02 8.47929477E-03-1.95242443E-02 8.32835058E-03
 INPUT CARD> 3  6 3.70665453E-01 1.40791790E-01-2.53376884E-02 0.00000000E+00-1.66567012E-02
 INPUT CARD> 4  1 0.00000000E+00 0.00000000E+00 0.00000000E+00 0.00000000E+00 4.48608762E-01
 INPUT CARD> 4  2 0.00000000E+00 0.00000000E+00 2.18692520E-01 0.00000000E+00 0.00000000E+00
 INPUT CARD> 4  3 0.00000000E+00 0.00000000E+00-1.50339731E-02 0.00000000E+00 2.71832968E-02
 INPUT CARD> 4  4 3.21005698E-01 1.21929267E-01 1.95242443E-02-1.40653607E-02-1.44251263E-02
  100000000 WORDS OF MEMORY AVAILABLE

     BASIS OPTIONS
     -------------
     GBASIS=CCD          IGAUSS=       0      POLAR=NONE    
     NDFUNC=       0     NFFUNC=       0     DIFFSP=       F
     NPFUNC=       0      DIFFS=       F     BASNAM=        


     RUN TITLE
     ---------
  NH3+ 3 states calculation at NH3 structure.                                    

 THE POINT GROUP OF THE MOLECULE IS C1      
 THE ORDER OF THE PRINCIPAL AXIS IS     0

 ATOM      ATOMIC                      COORDINATES (BOHR)
           CHARGE         X                   Y                   Z
 N           7.0     0.0470837929        0.0235418397       -0.3200826726
 H           1.0    -1.4086114720        1.2085592960        0.4980042140
 H           1.0    -1.1197656416       -1.2598728096        0.6708063482
 H           1.0     1.8741351965       -0.2758083349        0.2851018601

          INTERNUCLEAR DISTANCES (ANGS.)
          ------------------------------

                1 N          2 H          3 H          4 H     

   1 N       0.0000000    1.0835324 *  1.0571038 *  1.0307384 *
   2 H       1.0835324 *  0.0000000    1.3183259 *  1.9098168 *
   3 H       1.0571038 *  1.3183259 *  0.0000000    1.6801351 *
   4 H       1.0307384 *  1.9098168 *  1.6801351 *  0.0000000  

  * ... LESS THAN  3.000


     ATOMIC BASIS SET
     ----------------
 THE CONTRACTED PRIMITIVE FUNCTIONS HAVE BEEN UNNORMALIZED
 THE CONTRACTED BASIS FUNCTIONS ARE NOW NORMALIZED TO UNITY

  SHELL TYPE  PRIMITIVE        EXPONENT          CONTRACTION COEFFICIENT(S)

 N         

      1   S       1          9046.0000000    0.000699617413
      1   S       2          1357.0000000    0.005386054630
      1   S       3           309.3000000    0.027391021189
      1   S       4            87.7300000    0.103150591982
      1   S       5            28.5600000    0.278570663317
      1   S       6            10.2100000    0.448294849454
      1   S       7             3.8380000    0.278085928395
      1   S       8             0.7466000    0.015431561233

      2   S       9          9046.0000000   -0.000304990096
      2   S      10          1357.0000000   -0.002408026379
      2   S      11           309.3000000   -0.011944448725
      2   S      12            87.7300000   -0.048925992909
      2   S      13            28.5600000   -0.134472724725
      2   S      14            10.2100000   -0.315112577700
      2   S      15             3.8380000   -0.242857832550
      2   S      16             0.7466000    1.094382206854

      3   S      17             0.2248000    1.000000000000

      4   P      18            13.5500000    0.058905676772
      4   P      19             2.9170000    0.320461106714
      4   P      20             0.7973000    0.753042061792

      5   P      21             0.2185000    1.000000000000

      6   D      22             0.8170000    1.000000000000

 H         

      7   S      23            13.0100000    0.033498726390
      7   S      24             1.9620000    0.234800801174
      7   S      25             0.4446000    0.813682957883

      8   S      26             0.1220000    1.000000000000

      9   P      27             0.7270000    1.000000000000

 H         

     10   S      28            13.0100000    0.033498726390
     10   S      29             1.9620000    0.234800801174
     10   S      30             0.4446000    0.813682957883

     11   S      31             0.1220000    1.000000000000

     12   P      32             0.7270000    1.000000000000

 H         

     13   S      33            13.0100000    0.033498726390
     13   S      34             1.9620000    0.234800801174
     13   S      35             0.4446000    0.813682957883

     14   S      36             0.1220000    1.000000000000

     15   P      37             0.7270000    1.000000000000

 TOTAL NUMBER OF BASIS SET SHELLS             =   15
 NUMBER OF CARTESIAN GAUSSIAN BASIS FUNCTIONS =   30
 NOTE: THIS RUN WILL RESTRICT THE MO VARIATION SPACE TO SPHERICAL HARMONICS.
 THE NUMBER OF ORBITALS KEPT IN THE VARIATIONAL SPACE WILL BE PRINTED LATER.
 NUMBER OF ELECTRONS                          =    9
 CHARGE OF MOLECULE                           =    1
 SPIN MULTIPLICITY                            =    2
 NUMBER OF OCCUPIED ORBITALS (ALPHA)          =    5
 NUMBER OF OCCUPIED ORBITALS (BETA )          =    4
 TOTAL NUMBER OF ATOMS                        =    4
 THE NUCLEAR REPULSION ENERGY IS       11.5100306870

     $CONTRL OPTIONS
     ---------------
 SCFTYP=MCSCF        RUNTYP=ENERGY       EXETYP=RUN     
 MPLEVL=       2     CITYP =NONE         CCTYP =NONE         VBTYP =NONE    
 DFTTYP=NONE         TDDFT =NONE    
 MULT  =       2     ICHARG=       1     NZVAR =       0     COORD =UNIQUE  
 PP    =NONE         RELWFN=NONE         LOCAL =NONE         NUMGRD=       F
 ISPHER=       1     NOSYM =       1     MAXIT =     200     UNITS =ANGS    
 PLTORB=       F     MOLPLT=       F     AIMPAC=       F     FRIEND=        
 NPRINT=       7     IREST =       0     GEOM  =INPUT   
 NORMF =       0     NORMP =       0     ITOL  =      20     ICUT  =       9
 INTTYP=RYSQUAD      GRDTYP=BEST         QMTTOL= 1.0E-05

     $SYSTEM OPTIONS
     ---------------
  REPLICATED MEMORY=   100000000 WORDS (ON EVERY NODE).
 DISTRIBUTED MEMDDI=        1000 MILLION WORDS IN AGGREGATE,
 MEMDDI DISTRIBUTED OVER   1 PROCESSORS IS  1000000000 WORDS/PROCESSOR.
 TOTAL MEMORY REQUESTED ON EACH PROCESSOR=  1100000000 WORDS.
 TIMLIM=      525600.00 MINUTES, OR     365.0 DAYS.
 PARALL= T  BALTYP=  DLB     KDIAG=    3  COREFL= F
 MXSEQ2=     300 MXSEQ3=     150  mem10=         0

          ----------------
          PROPERTIES INPUT
          ----------------

     MOMENTS            FIELD           POTENTIAL          DENSITY
 IEMOM =       1   IEFLD =       0   IEPOT =       0   IEDEN =       0
 WHERE =COMASS     WHERE =NUCLEI     WHERE =NUCLEI     WHERE =NUCLEI  
 OUTPUT=BOTH       OUTPUT=BOTH       OUTPUT=BOTH       OUTPUT=BOTH    
 IEMINT=       0   IEFINT=       0                     IEDINT=       0
                                                       MORB  =       0

     -------------------------------
     INTEGRAL TRANSFORMATION OPTIONS
     -------------------------------
     NWORD  =            0
     CUTOFF = 1.0E-09     MPTRAN =       0
     DIRTRF =       T     AOINTS =DUP     

          ----------------------
          MCSCF INPUT PARAMETERS
          ----------------------
 CONVERGER SELECTION: FOCAS = F  SOSCF = F  FULLNR = T  QUD = F  JACOBI = F
 SECULAR EQUATION METHOD CISTEP = GMCCI   
 --- GENERAL INPUT OPTIONS:
 MAXIT =     100  MICIT =       1  ACURCY= 1.000E-06
 DAMP  =   0.000  CANONC=       T  ENGTOL= 1.000E-10
 EKT   =       F  NPUNCH=       2  NWORD =         0
 REGENERATE CI AFTER CONVERGENCE = NONE    
 DIABATIZATION AFTER CONVERGENCE =        F
 --- INPUT FOR FULLNR CONVERGER:
 METHOD=DM2       FORS  =       F  DROPC =       T
 LINSER=       F  FCORE =       F  NORB  =      30

          ----------------------
          INTEGRAL INPUT OPTIONS
          ----------------------
 NOPK  =       1 NORDER=       0 SCHWRZ=       T

 ------------------------------------------
 MULTIREFERENCE PERTURBATION THEORY CONTROL
 ------------------------------------------
 MRPT=GMCPT    READ CONVERGED MCSCF VECTORS= F


     ------------------------------------------
     THE POINT GROUP IS C1 , NAXIS= 1, ORDER= 1
     ------------------------------------------

 -- VARIATIONAL SPACE WILL BE RESTRICTED TO PURE SPHERICAL HARMONICS ONLY --
 AFTER EXCLUDING CONTAMINANT COMBINATIONS FROM THE CARTESIAN GAUSSIAN BASIS
 SET, THE NUMBER OF SPHERICAL HARMONICS KEPT IN THE VARIATION SPACE IS   29

     DIMENSIONS OF THE SYMMETRY SUBSPACES ARE
 A   =   29

 ..... DONE SETTING UP THE RUN .....
 CPU     0: STEP CPU TIME=     0.04 TOTAL CPU TIME=          0.0 (      0.0 MIN)
 TOTAL WALL CLOCK TIME=          0.0 SECONDS, CPU UTILIZATION IS    80.00%

          ********************
          1 ELECTRON INTEGRALS
          ********************
 TIME TO DO   DIPOLE INTEGRALS=      0.00
 ...... END OF ONE-ELECTRON INTEGRALS ......
 CPU     0: STEP CPU TIME=     0.00 TOTAL CPU TIME=          0.0 (      0.0 MIN)
 TOTAL WALL CLOCK TIME=          0.0 SECONDS, CPU UTILIZATION IS    80.00%

          -------------
          GUESS OPTIONS
          -------------
          GUESS =MOREAD            NORB  =      29          NORDER=       0
          MIX   =       F          PRTMO =       F          PUNMO =       F
          TOLZ  = 1.0E-08          TOLE  = 1.0E-05
          SYMDEN=       F          PURIFY=       T

 INITIAL GUESS ORBITALS GENERATED BY MOREAD   ROUTINE.

 STATISTICS FOR GENERATION OF SYMMETRY ORBITAL -Q- MATRIX
 NUMBER OF CARTESIAN ATOMIC ORBITALS=         30
 NUMBER OF SPHERICAL CONTAMINANTS DROPPED=     1
 NUMBER OF LINEARLY DEPENDENT MOS DROPPED=     0
 TOTAL NUMBER OF MOS IN VARIATION SPACE=      29
 ORBITAL PURIFICATION WILL OCCUR

 SYMMETRIES FOR INITIAL GUESS ORBITALS FOLLOW.   BOTH SET(S).
     5 ORBITALS ARE OCCUPIED (    1 CORE ORBITALS).
     1=A        2=A        3=A        4=A        5=A        6=A        7=A   
     8=A        9=A       10=A       11=A       12=A       13=A       14=A   
    15=A       16=A       17=A       18=A       19=A       20=A       21=A   
    22=A       23=A       24=A       25=A       26=A       27=A       28=A   
    29=A   
 ...... END OF INITIAL ORBITAL SELECTION ......
 CPU     0: STEP CPU TIME=     0.01 TOTAL CPU TIME=          0.1 (      0.0 MIN)
 TOTAL WALL CLOCK TIME=          0.0 SECONDS, CPU UTILIZATION IS   100.00%

                    ----------------------
                    AO INTEGRAL TECHNOLOGY
                    ----------------------
     S,P,L SHELL ROTATED AXIS INTEGRALS, REPROGRAMMED BY
        KAZUYA ISHIMURA (IMS) AND JOSE SIERRA (SYNSTAR).
     S,P,D,L SHELL ROTATED AXIS INTEGRALS PROGRAMMED BY
        KAZUYA ISHIMURA (INSTITUTE FOR MOLECULAR SCIENCE).
     S,P,D,F,G SHELL TO TOTAL QUARTET ANGULAR MOMENTUM SUM 5,
        ERIC PROGRAM BY GRAHAM FLETCHER (ELORET AND NASA ADVANCED
        SUPERCOMPUTING DIVISION, AMES RESEARCH CENTER).
     S,P,D,F,G,L SHELL GENERAL RYS QUADRATURE PROGRAMMED BY
        MICHEL DUPUIS (PACIFIC NORTHWEST NATIONAL LABORATORY).

          --------------------
          2 ELECTRON INTEGRALS
          --------------------

 DIRECT SCF METHOD SKIPS INTEGRAL STORAGE ON DISK.
 DIRECT TRANSFORMATION SKIPS AO INTEGRAL STORAGE ON DISK.
  ...... END OF TWO-ELECTRON INTEGRALS .....
 STEP CPU TIME =     0.02 TOTAL CPU TIME =          0.1 (      0.0 MIN)
 TOTAL WALL CLOCK TIME=          0.1 SECONDS, CPU UTILIZATION IS    87.50%
 DDI: Creating Array [0] - 900 x 36 = 32400 words.
 DDI: Creating Array [1] - 21 x 288 = 6048 words.
 DDI: Creating Array [2] - 36 x 36 = 1296 words.
 DDI: Creating Array [3] - 465 x 36 = 16740 words.

          -----------------
          MCSCF CALCULATION
          -----------------

 ----- NUCLEAR ENERGY ----- =        11.5100306870

     -------------------------------------------------
     GMC-PT/GMC-QDPT or general MCSCF input parameters
     -------------------------------------------------
 # of frozen core orbs. =         0 ->         0
 # of doubly occ. orbs. =         1
 # of active      orbs. =         7
 # of virtual     orbs. =        21
 # of active electrons  =         7
 # of states in CI      =         3
 Highest state in CI    =         3
 kstate =  1 1 1
 avecoe =  0.333 0.333 0.333
 State symmetry           = A           
 Assigned symmetry number = 1

 <<<Act. MO sym.: 1111111

 <<<Division of 1-ext.:  0
 <<<Division of 2-ext.:  0

 *** Reference space

 Reference type: ORMAS (= Occupation restricted multiple active space)
 # of orbitals          =  7
 # of minimum electrons =  7
 # of maximum electrons =  7
 State symmetry    =    1 (input)
 2*Sz              =    1 (input)
 Spin multiplicity =    2 (input)
 Dimension of reference space =      1225  (from      3432 walks)

 Dimension of reference space =      1225  (from      1225 walks)

 <<<Ionized spaces for Ref-CI:
      0:         1225 /   -1-0:         1960 /  0-1-0:         2891

 EVALUATING EXCHANGE INTEGRALS FOR DIRECT INTEGRAL TRANSFORMATION
 SCHWARZ INEQUALITY OVERHEAD:       465 INTEGRALS, T=        0.00

     --------------------------------------------
     PARTIAL TWO ELECTRON INTEGRAL TRANSFORMATION
     --------------------------------------------

 NUMBER OF CORE MOLECULAR ORBITALS     =    1
 NUMBER OF OCCUPIED MOLECULAR ORBITALS =    8
 TOTAL NUMBER OF MOLECULAR ORBITALS    =   29
 TOTAL NUMBER OF ATOMIC ORBITALS       =   30
 THRESHOLD FOR KEEPING TRANSFORMED 2E- INTEGRALS = 1.000E-09

 -------------------------------     ------------------------------
 DISTRIBUTED DATA TRANSFORMATION     PROGRAM WRITTEN BY G. FLETCHER
 -------------------------------     ------------------------------

 THE DISTRIBUTED MEMORY REQUIRED FOR THIS STEP IS MEMDDI=         1 MWORDS
 CREATING DISTRIBUTED STORAGE FOR [VIR OCC|VIR OCC] INTEGRALS
 CREATING DISTRIBUTED STORAGE FOR [VIR OCC|OCC OCC] INTEGRALS
 CREATING DISTRIBUTED STORAGE FOR [OCC OCC|OCC OCC] INTEGRALS
 CREATING DISTRIBUTED STORAGE FOR [VIR VIR|OCC OCC] INTEGRALS
 FOR    1 PROCESSORS, THE REPLICATED MEMORY NEEDED IS       73700 WORDS.
 SCHWARZ INEQUALITY OVERHEAD:       465 INTEGRALS, T=        0.00

      DIRECT 4-INDEX TRANSFORMATION 
      SCHWARZ INEQUALITY TEST SKIPPED          0 INTEGRAL BLOCKS
 ----- FROZEN CORE ENERGY =       -47.7368083179
 ... END OF INTEGRAL TRANSFORMATION ...
 CPU     0: STEP CPU TIME=     0.21 TOTAL CPU TIME=          0.3 (      0.0 MIN)
 TOTAL WALL CLOCK TIME=          0.3 SECONDS, CPU UTILIZATION IS    93.33%

     --------------------------------     -----------------------------
     MCHF NEWTON-RAPHSON OPTIMIZATION     CODE WRITTEN BY MICHEL DUPUIS
     --------------------------------     -----------------------------
     PARALLEL VERSION WRITTEN BY G. FLETCHER (ELORET)
     NASA ADVANCED SUPERCOMPUTING DIVISION, AMES RESEARCH CENTER

 NUMBER OF INDEPENDENT ORBITAL ROTATION PARAMETERS =   175
 ..... DONE SOLVING NEWTON-RAPHSON EQUATIONS .....
 CPU     0: STEP CPU TIME=     0.86 TOTAL CPU TIME=          1.1 (      0.0 MIN)
 TOTAL WALL CLOCK TIME=          1.1 SECONDS, CPU UTILIZATION IS    99.13%
 ..... DONE WITH NTN-RPH ORBITAL ROTATIONS ..... 
 CPU     0: STEP CPU TIME=     0.00 TOTAL CPU TIME=          1.1 (      0.0 MIN)
 TOTAL WALL CLOCK TIME=          1.1 SECONDS, CPU UTILIZATION IS    99.13%
 MAXIMUM MEMORY USED BY NTN-RPH CODE WAS     57645 WORDS.

 ITER     TOTAL ENERGY      DEL(E)  LAGRANGIAN ASYMMETRY   SQCDF  MICIT   DAMP
   1      -55.652289972 -0.652289972  0.133839   13    3 1.469E-01  1   0.0000
   2      -55.694137371 -0.041847399  0.022618   12    5 4.515E-01  1   0.0000
   3      -55.727600100 -0.033462729  0.012491   11    6 2.176E-01  1   0.0243
   4      -55.741761212 -0.014161112  0.004258   11    6 3.968E-02  1   0.0045
   5      -55.743520222 -0.001759010  0.000726   12    5 1.116E-03  1   0.0000
   6      -55.743570559 -0.000050337  0.000236   12    5 9.227E-05  1   0.0000
   7      -55.743575590 -0.000005031  0.000107   12    5 1.420E-05  1   0.0000
   8      -55.743576415 -0.000000825  0.000047   12    5 2.575E-06  1   0.0000
   9      -55.743576570 -0.000000155  0.000019   12    5 5.367E-07  1   0.0000
  10      -55.743576604 -0.000000033  0.000010   22    5 1.298E-07  1   0.0000
  11      -55.743576612 -0.000000008  0.000005   22    5 3.601E-08  1   0.0000
  12      -55.743576614 -0.000000002  0.000003   22    5 1.107E-08  1   0.0000
  13      -55.743576615 -0.000000001  0.000002   22    5 3.639E-09  1   0.0000
  14      -55.743576615 -0.000000000  0.000001   22    5 1.241E-09  1   0.0000
  15      -55.743576615 -0.000000000  0.000001   12    7 4.342E-10  1   0.0000

          --------------------
          LAGRANGIAN CONVERGED
          --------------------

 FINAL MCSCF ENERGY IS      -55.7435766151 AFTER  15 ITERATIONS

 -MCCI- BASED ON OPTIMIZED ORBITALS
 ----------------------------------

 PLEASE NOTE: IF THE ACTIVE ORBITALS ARE CANONICALIZED BELOW,
 THE FOLLOWING CI EXPANSION COEFFICIENTS AND THE DENSITY DO NOT
 CORRESPOND TO THE PRINTED ORBITALS.  THE PRINTED EXPANSIONS MATCH
 THE ORBITALS USED DURING THE LAST ITERATION.  IF YOU WISH TO SEE
 CI EXPANSIONS BASED ON THE CANONICAL (OR NATURAL) ORBITALS, YOU
 MUST RUN A CI CALCULATION WITH THAT ORBITAL CHOICE READ IN $VEC.

 Averaged energy =     -55.743576615

 State #    1  Energy =     -55.883072860  S =  0.500

      Det      Coef    Occupancy (Ignoring core)
      ---      ----    --------- --------- -----
        1    0.940614  11110001110000
        2    0.050028  11101001110000
        5   -0.064062  01111001110000
        8   -0.134823  10110101110000
       17   -0.123514  11010011110000
       36   -0.114836  11110001101000
       71    0.092196  11110001011000
      386    0.111727  11110001010010
      701    0.089029  11110001100001
      717    0.073154  11010011100001

 State #    2  Energy =     -55.741020465  S =  0.500

      Det      Coef    Occupancy (Ignoring core)
      ---      ----    --------- --------- -----
        1   -0.121898  11110001110000
       36   -0.952055  11110001101000
       40    0.060242  01111001101000
       43    0.102825  10110101101000
       52    0.070401  11010011101000
       71    0.113461  11110001011000
      281   -0.054556  11110000101100
      456   -0.101027  11110001001010
      463   -0.052677  10110101001010

 State #    3  Energy =     -55.606636520  S =  0.500

      Det      Coef    Occupancy (Ignoring core)
      ---      ----    --------- --------- -----
        1    0.075780  11110001110000
       36   -0.125703  11110001101000
       71   -0.956929  11110001011000
       78    0.069111  10110101011000
       87    0.074508  11010011011000
      316   -0.070494  11110000011100
      806    0.091649  11110001001001
      822    0.077962  11010011001001

 DENSITY MATRIX OVER ACTIVE MO-S

             1           2           3           4           5

    1    1.9776307
    2   -0.0078988   1.6355623
    3   -0.0092148  -0.0002152   1.6334407
    4    0.0023283  -0.0007033  -0.0018080   1.6549871
    5    0.0994730   0.0126087   0.0167691   0.0317522   0.0268720
    6    0.0069279  -0.1566713  -0.0005453  -0.0172339  -0.0008034
    7    0.0024619  -0.0023295   0.1308469   0.0195818   0.0036083

             6           7

    6    0.0342969
    7   -0.0014657   0.0372103

 FORMING THE "STANDARD FOCK OPERATOR" IN DIRECT AO INTEGRAL MODE...
 ONLY THE    1 CORE AND   21 VIRTUAL ORBITALS WILL BE CANONICALIZED

          ----------------------
          MCSCF NATURAL ORBITALS
          ----------------------

                      1          2          3          4          5
                  -15.9860     1.9831     1.6563     1.6504     1.6441
                     A          A          A          A          A   
    1  N  1  S    1.001243   0.008570  -0.010405   0.002091   0.001682
    2  N  1  S   -0.001818   0.437221  -0.168425   0.079344   0.037415
    3  N  1  S   -0.006312   0.302507  -0.268760   0.108098   0.056252
    4  N  1  X    0.000103  -0.022940   0.145109   0.458566   0.049106
    5  N  1  Y   -0.000043  -0.019141   0.025825  -0.045758   0.524667
    6  N  1  Z    0.001156   0.093840   0.578581  -0.124071  -0.012263
    7  N  1  X   -0.000011  -0.000084   0.078769   0.158398   0.028455
    8  N  1  Y   -0.000033   0.002270   0.029151  -0.013623   0.270757
    9  N  1  Z   -0.000480   0.010238   0.379658  -0.064146   0.008090
   10  N  1 XX    0.000404   0.001742  -0.010321   0.007988   0.004035
   11  N  1 YY   -0.000200  -0.002468  -0.013043  -0.002213  -0.003361
   12  N  1 ZZ   -0.000204   0.000726   0.023363  -0.005775  -0.000674
   13  N  1 XY   -0.000138  -0.000463  -0.000991  -0.003024  -0.013876
   14  N  1 XZ   -0.000082  -0.002153   0.004318   0.022380   0.002957
   15  N  1 YZ   -0.000079  -0.000414  -0.000968  -0.000857   0.024884
   16  H  2  S   -0.001786   0.181168   0.059315  -0.260424   0.275537
   17  H  2  S    0.000414   0.000583   0.022887  -0.034009   0.067954
   18  H  2  X   -0.000660   0.024855   0.009337  -0.010553   0.028106
   19  H  2  Y    0.000628  -0.022021  -0.006895   0.028377  -0.004998
   20  H  2  Z    0.000440  -0.008478   0.021807   0.007321  -0.012806
   21  H  3  S   -0.001884   0.204528   0.071792  -0.201542  -0.328574
   22  H  3  S    0.000317   0.006625   0.020176  -0.025967  -0.078081
   23  H  3  X   -0.000588   0.023315   0.011350   0.004684  -0.023738
   24  H  3  Y   -0.000685   0.025661   0.012313  -0.025213  -0.012520
   25  H  3  Z    0.000493  -0.013915   0.020789   0.006110   0.018532
   26  H  4  S   -0.002056   0.177145   0.180549   0.341431   0.010781
   27  H  4  S    0.000618  -0.000384   0.033841   0.037466   0.007463
   28  H  4  X    0.001077  -0.035707  -0.021262  -0.032666   0.004506
   29  H  4  Y   -0.000129   0.003682   0.003984   0.005926   0.019335
   30  H  4  Z    0.000391  -0.004301   0.016050  -0.018540  -0.001099

                      6          7          8
                    0.0270     0.0207     0.0184
                     A          A          A   
    1  N  1  S    0.078030  -0.193232  -0.129094
    2  N  1  S    0.250744  -0.647268  -0.386909
    3  N  1  S   -0.001106  -0.184740   0.001850
    4  N  1  X    0.129784   0.414144  -0.835067
    5  N  1  Y    0.780342   0.168495   0.265825
    6  N  1  Z    0.109163  -0.624991  -0.200551
    7  N  1  X   -0.003126   0.077495  -0.071470
    8  N  1  Y   -0.013967   0.022190   0.023469
    9  N  1  Z   -0.026473   0.070070   0.052442
   10  N  1 XX   -0.022465   0.032116  -0.008645
   11  N  1 YY    0.020946  -0.037916   0.014141
   12  N  1 ZZ    0.001519   0.005800  -0.005496
   13  N  1 XY    0.040180   0.000495  -0.017191
   14  N  1 XZ    0.002391  -0.045653   0.039513
   15  N  1 YZ   -0.019863  -0.015347  -0.020477
   16  H  2  S   -0.642218   0.455414  -0.306300
   17  H  2  S   -0.147145   0.053354  -0.083258
   18  H  2  X   -0.056328   0.028072  -0.002715
   19  H  2  Y    0.028688  -0.057829   0.024258
   20  H  2  Z    0.007991   0.022301  -0.004661
   21  H  3  S    0.533353   0.678281   0.017881
   22  H  3  S    0.146954   0.103052  -0.000010
   23  H  3  X    0.028435   0.029391   0.035537
   24  H  3  Y    0.016426   0.073074  -0.008416
   25  H  3  Z   -0.018727   0.008106  -0.002989
   26  H  4  S   -0.255909   0.194616   0.836951
   27  H  4  S   -0.038939  -0.001303   0.142821
   28  H  4  X    0.023131  -0.036990  -0.086720
   29  H  4  Y   -0.016386   0.002001   0.008733
   30  H  4  Z    0.002795   0.005901   0.015858

          ------------------------
          MCSCF OPTIMIZED ORBITALS
          ------------------------

                      1          2          3          4          5
                  -15.9860     0.0000     0.0000     0.0000     0.0000
                     A          A          A          A          A   
    1  N  1  S    1.001243  -0.003181  -0.008003  -0.002024  -0.015867
    2  N  1  S   -0.001818   0.401284   0.010627   0.008929  -0.194499
    3  N  1  S   -0.006312   0.299137   0.047272   0.039688  -0.285760
    4  N  1  X    0.000103  -0.004920   0.389781   0.019966   0.030050
    5  N  1  Y   -0.000043  -0.006802   0.002186   0.457735   0.012726
    6  N  1  Z    0.001156   0.052652   0.001795  -0.002491   0.580899
    7  N  1  X   -0.000011   0.006619   0.163892   0.019310   0.041030
    8  N  1  Y   -0.000033   0.010075   0.011981   0.270940   0.025248
    9  N  1  Z   -0.000480   0.010566   0.025097   0.016933   0.386048
   10  N  1 XX    0.000404   0.003823   0.004343   0.005086  -0.011242
   11  N  1 YY   -0.000200  -0.004408  -0.003154  -0.004957  -0.012796
   12  N  1 ZZ   -0.000204   0.000585  -0.001189  -0.000129   0.024038
   13  N  1 XY   -0.000138  -0.001642  -0.006226  -0.016552  -0.000890
   14  N  1 XZ   -0.000082  -0.003245   0.027700   0.000973  -0.000897
   15  N  1 YZ   -0.000079  -0.000514  -0.000597   0.026784  -0.001487
   16  H  2  S   -0.001786   0.207657  -0.256489   0.341504   0.123288
   17  H  2  S    0.000414   0.004821  -0.030392   0.082858   0.030266
   18  H  2  X   -0.000660   0.027278  -0.007111   0.032560   0.012308
   19  H  2  Y    0.000628  -0.024196   0.029528  -0.008788  -0.013995
   20  H  2  Z    0.000440  -0.007883   0.010114  -0.013490   0.019915
   21  H  3  S   -0.001884   0.215307  -0.230413  -0.363906   0.123843
   22  H  3  S    0.000317   0.006685  -0.030950  -0.088163   0.026029
   23  H  3  X   -0.000588   0.024155   0.006981  -0.027340   0.011204
   24  H  3  Y   -0.000685   0.027717  -0.026145  -0.012816   0.018637
   25  H  3  Z    0.000493  -0.012818   0.011785   0.020058   0.018657
   26  H  4  S   -0.002056   0.207625   0.442012  -0.008075   0.120080
   27  H  4  S    0.000618   0.002805   0.057910   0.006188   0.027050
   28  H  4  X    0.001077  -0.039355  -0.042457   0.006995  -0.016015
   29  H  4  Y   -0.000129   0.004712   0.008748   0.019941   0.002549
   30  H  4  Z    0.000391  -0.004430  -0.013143  -0.000072   0.019940

                      6          7          8          9         10
                    0.0000     0.0000     0.0000     0.1441     0.1987
                     A          A          A          A          A   
    1  N  1  S    0.237470   0.059114   0.008058  -0.138285   0.001081
    2  N  1  S    0.796764   0.155234   0.027756  -0.210161  -0.006856
    3  N  1  S    0.178258  -0.069249  -0.034677   1.407623  -0.108646
    4  N  1  X   -0.072216   0.980548   0.005421   0.028314   0.121186
    5  N  1  Y   -0.033668  -0.060739   0.878540   0.021735  -0.041390
    6  N  1  Z    0.677102  -0.021984  -0.051771  -0.202300  -0.013024
    7  N  1  X   -0.045887   0.110218  -0.003629  -0.152785  -0.762348
    8  N  1  Y   -0.027380  -0.014137   0.018657  -0.067229   0.100381
    9  N  1  Z   -0.079250  -0.020188   0.006074   0.461855   0.052973
   10  N  1 XX   -0.032250   0.016577  -0.017316   0.076903  -0.059596
   11  N  1 YY    0.034901  -0.024153   0.015799  -0.031565   0.042057
   12  N  1 ZZ   -0.002650   0.007575   0.001516  -0.045338   0.017540
   13  N  1 XY    0.015093   0.021682   0.033151  -0.021102   0.020610
   14  N  1 XZ    0.029624  -0.050168   0.003176  -0.044350  -0.107446
   15  N  1 YZ    0.015717   0.010068  -0.024533  -0.023810   0.008038
   16  H  2  S   -0.467856   0.325725  -0.572737   0.330867   0.199229
   17  H  2  S   -0.058298   0.070827  -0.143477  -0.916900  -0.781059
   18  H  2  X   -0.037328   0.003417  -0.046510  -0.092301  -0.026936
   19  H  2  Y    0.051006  -0.036385   0.021505   0.020228   0.029010
   20  H  2  Z   -0.016880   0.014962   0.009802   0.036882   0.070574
   21  H  3  S   -0.480088   0.294515   0.613172   0.238795   0.248862
   22  H  3  S   -0.056604   0.058080   0.152993  -0.783206  -0.893954
   23  H  3  X   -0.029742  -0.016797   0.039003  -0.098403  -0.010391
   24  H  3  Y   -0.058347   0.034786   0.026554  -0.030369  -0.031775
   25  H  3  Z   -0.011237   0.004206  -0.015309   0.054915   0.054753
   26  H  4  S   -0.496526  -0.696347  -0.010831   0.319185  -0.530813
   27  H  4  S   -0.053598  -0.132314  -0.003054  -0.779799   1.900800
   28  H  4  X    0.065051   0.065776  -0.004814   0.100395  -0.106181
   29  H  4  Y   -0.008280  -0.009002  -0.011605  -0.006842   0.022410
   30  H  4  Z   -0.009717  -0.013059   0.007759  -0.010959  -0.078608

                     11         12         13         14         15
                    0.2181     0.5376     0.5781     0.6397     0.8061
                     A          A          A          A          A   
    1  N  1  S    0.019985  -0.070856  -0.000320  -0.045734  -0.337335
    2  N  1  S    0.039699  -0.065876  -0.089989  -0.178801  -0.770048
    3  N  1  S   -0.135008   0.632873  -0.411683  -0.095093   1.356176
    4  N  1  X    0.037451  -0.286665   0.085113  -0.375689   0.066102
    5  N  1  Y   -0.018032  -0.428569  -0.475785   0.101424  -0.021500
    6  N  1  Z    0.030128  -0.470683   0.376256   0.334245   0.252131
    7  N  1  X   -0.106297   0.821335  -0.299359   1.809976  -0.262797
    8  N  1  Y    0.473414   0.896721   1.358715  -0.302595   0.112920
    9  N  1  Z   -0.088917   0.672765  -0.692877  -0.690093  -0.093857
   10  N  1 XX    0.007571  -0.025820   0.062250   0.012418  -0.077049
   11  N  1 YY   -0.004635   0.004762  -0.033328   0.006554   0.131667
   12  N  1 ZZ   -0.002936   0.021059  -0.028922  -0.018971  -0.054618
   13  N  1 XY   -0.091880  -0.018333   0.016432  -0.021480  -0.051697
   14  N  1 XZ   -0.002952   0.018523  -0.006863  -0.053954   0.059120
   15  N  1 YZ    0.074454   0.021701   0.004004   0.002352  -0.045159
   16  H  2  S    0.549211  -0.297047  -0.156674   0.728859   0.004074
   17  H  2  S   -1.811658  -0.407970  -0.741503   0.385068  -0.362131
   18  H  2  X   -0.042811   0.025298  -0.144793   0.139762   0.068197
   19  H  2  Y    0.054381   0.080111  -0.055856  -0.110004   0.434096
   20  H  2  Z    0.028246   0.083053   0.009241   0.055841  -0.135473
   21  H  3  S   -0.564991   0.059220   0.587059   0.532142   0.064496
   22  H  3  S    1.911955   0.692678   0.683224   0.224033  -0.219297
   23  H  3  X    0.049999   0.123196  -0.019151   0.039206   0.221392
   24  H  3  Y    0.065452   0.003692   0.107582   0.119898  -0.395786
   25  H  3  Z   -0.040122  -0.026070  -0.096697   0.024910  -0.016939
   26  H  4  S    0.034153  -0.557240   0.486086  -0.410792  -0.026091
   27  H  4  S   -0.001473  -0.503983   0.085537  -0.794945  -0.222966
   28  H  4  X   -0.025013   0.077961  -0.016598   0.185189  -0.032021
   29  H  4  Y   -0.039425  -0.007533   0.107327  -0.068019  -0.125933
   30  H  4  Z   -0.011098   0.068976  -0.041504  -0.113352   0.201964

                     16         17         18         19         20
                    0.9784     1.0417     1.2878     1.4007     1.4920
                     A          A          A          A          A   
    1  N  1  S   -0.475503  -0.172522  -0.049780  -0.337157  -0.440945
    2  N  1  S   -1.005835  -0.362495  -0.102860  -0.709165  -0.908553
    3  N  1  S    2.011712   0.854984   0.184492   1.232810   1.726772
    4  N  1  X    0.070178  -0.011057  -0.168354  -0.018345   0.036898
    5  N  1  Y    0.022430   0.074798   0.140160  -0.014264  -0.060320
    6  N  1  Z    0.138957   0.046213  -0.015576  -0.026251  -0.021990
    7  N  1  X   -0.317822   0.049538   0.849635   0.671335  -0.605827
    8  N  1  Y   -0.133969  -0.437620  -0.363475   0.144238  -0.257665
    9  N  1  Z   -0.072070   0.245307   0.018376   0.465790   0.805461
   10  N  1 XX   -0.060809   0.031122   0.058522   0.055986   0.108889
   11  N  1 YY   -0.171343   0.032032  -0.041723   0.128537   0.008482
   12  N  1 ZZ    0.232152  -0.063154  -0.016799  -0.184523  -0.117371
   13  N  1 XY   -0.003610   0.185265   0.033788  -0.015616  -0.006557
   14  N  1 XZ    0.018354   0.031181   0.019692  -0.014079   0.023711
   15  N  1 YZ    0.021684   0.267400  -0.071127  -0.008289   0.091214
   16  H  2  S   -0.376011   0.006786   0.399733  -0.201747  -0.600641
   17  H  2  S   -0.242478   0.013325   0.114183  -0.014951  -0.059474
   18  H  2  X   -0.044403   0.115661  -0.608355  -0.181900   0.016384
   19  H  2  Y   -0.165708   0.092094  -0.187023  -0.255644  -0.034503
   20  H  2  Z    0.365121   0.274628  -0.397378  -0.301157  -0.392766
   21  H  3  S   -0.425676  -0.249002  -0.012642  -0.140294  -0.654711
   22  H  3  S   -0.276140  -0.206458   0.030108  -0.030850  -0.320038
   23  H  3  X   -0.030372  -0.287760   0.219704  -0.506544   0.079566
   24  H  3  Y    0.210968  -0.166580  -0.007640   0.127091  -0.052148
   25  H  3  Z    0.351704  -0.446703  -0.016875  -0.448309   0.273496
   26  H  4  S   -0.180922  -0.185515  -0.457663  -0.597225  -0.257058
   27  H  4  S   -0.259478  -0.158400  -0.226817  -0.277855  -0.026468
   28  H  4  X   -0.012769   0.157473  -0.109284  -0.199543   0.165802
   29  H  4  Y    0.007146   0.479872   0.492214  -0.519245   0.238873
   30  H  4  Z    0.277527   0.026772   0.331360   0.090432  -0.789808

                     21         22         23         24         25
                    1.6172     1.8737     1.9254     1.9707     2.1070
                     A          A          A          A          A   
    1  N  1  S   -0.120051  -0.017581  -0.029203   0.133058   0.054526
    2  N  1  S   -0.244023  -0.047853  -0.007235   0.381738   0.100058
    3  N  1  S    0.447431   0.152417   0.723354   1.194309  -0.373742
    4  N  1  X    0.099423   0.608388  -0.220414  -0.032879  -0.159454
    5  N  1  Y    0.236749   0.000485   0.240264  -0.164921  -0.002581
    6  N  1  Z   -0.026588  -0.063938   0.096363   0.304025  -0.012298
    7  N  1  X   -0.500399   0.132329  -0.006454   0.050830  -0.121545
    8  N  1  Y    0.501406  -0.178877  -0.136836   0.200226  -0.048053
    9  N  1  Z    0.195311   0.026085   0.300615   0.436023  -0.416387
   10  N  1 XX    0.031583  -0.178957   0.011012  -0.250826  -0.082646
   11  N  1 YY    0.086127   0.314847  -0.075339   0.134497   0.875437
   12  N  1 ZZ   -0.117710  -0.135890   0.064326   0.116329  -0.792792
   13  N  1 XY    0.065759   0.058589   0.250007  -0.005845   0.069092
   14  N  1 XZ    0.012371  -0.168501   0.060298   0.098688   0.310028
   15  N  1 YZ   -0.217222   0.035972  -0.021260   0.243143   0.099635
   16  H  2  S   -0.261704  -0.015066  -0.166619  -0.264297   0.099116
   17  H  2  S   -0.389384   0.105469  -0.500875  -0.175349  -0.024443
   18  H  2  X   -0.407751   0.194109  -0.467121  -0.717652  -0.052131
   19  H  2  Y   -0.174813  -0.050717   0.990491  -0.135279  -0.145197
   20  H  2  Z    0.551038  -0.384550   0.018031   0.045372   0.377614
   21  H  3  S   -0.253459  -0.098094  -0.165134  -0.240160   0.100367
   22  H  3  S    0.266916   0.275310   0.209020  -0.258361  -0.068238
   23  H  3  X    0.597330   0.210666  -0.267449  -0.426453  -0.035323
   24  H  3  Y   -0.072351   0.562954   0.624812  -0.578925   0.272238
   25  H  3  Z   -0.449484  -0.129751   0.078753   0.306375   0.553973
   26  H  4  S    0.127413  -0.029492  -0.168857  -0.281701   0.204443
   27  H  4  S    0.010408  -0.430719  -0.067940  -0.285383   0.193673
   28  H  4  X    0.138716   0.783873   0.066085   0.733840  -0.317692
   29  H  4  Y   -0.284494   0.020975  -0.144330  -0.296806   0.128132
   30  H  4  Z   -0.317035   0.397630  -0.228753  -0.069107   0.076966

                     26         27         28         29
                    2.3071     2.6062     2.6929     2.9724
                     A          A          A          A   
    1  N  1  S    0.064469  -0.065798   0.067189  -0.012482
    2  N  1  S    0.093733   0.019589   0.141376  -0.087059
    3  N  1  S   -0.705761   2.140919   0.150929  -0.744025
    4  N  1  X    0.051394  -0.114531   0.518796  -0.317597
    5  N  1  Y    0.032748  -0.195536  -0.246198  -0.366235
    6  N  1  Z   -0.074434   0.318524   0.039207  -0.072882
    7  N  1  X    0.003563  -0.579417   1.289891  -0.523210
    8  N  1  Y    0.471397  -0.417272  -0.554542  -0.575982
    9  N  1  Z   -0.346074   0.521326  -0.049850  -0.017108
   10  N  1 XX    0.416290   0.846772   0.550575  -0.816089
   11  N  1 YY   -0.290534  -0.186633  -0.422209   0.397940
   12  N  1 ZZ   -0.125756  -0.660139  -0.128366   0.418149
   13  N  1 XY    0.615872   0.171830   0.427974   1.188324
   14  N  1 XZ   -0.075919  -0.742321   1.043929  -0.342124
   15  N  1 YZ    0.779035  -0.453452  -0.493411  -0.564745
   16  H  2  S    0.097113  -0.632895   0.979085   0.809268
   17  H  2  S   -0.027896  -0.097311   0.411283   0.259679
   18  H  2  X    0.011181  -0.088161   0.641038   0.533998
   19  H  2  Y   -0.080195   0.350163  -0.401284  -0.507780
   20  H  2  Z   -0.177569   0.277549  -0.209505  -0.444002
   21  H  3  S    0.356237  -1.216654   0.032854  -0.930438
   22  H  3  S    0.220583  -0.457313  -0.029469  -0.322142
   23  H  3  X    0.605872  -0.444663  -0.132272  -0.512594
   24  H  3  Y   -0.040216  -0.663837  -0.002127  -0.547018
   25  H  3  Z    0.185637   0.555068   0.095048   0.411760
   26  H  4  S    0.203082  -0.516289  -1.177935   0.971443
   27  H  4  S    0.058918  -0.095099  -0.465842   0.288743
   28  H  4  X   -0.227898   0.395189   0.877124  -0.737482
   29  H  4  Y   -0.604872  -0.003917  -0.230535   0.028390
   30  H  4  Z    0.201753   0.430335   0.156196  -0.379012
 .....DONE WITH MCSCF ITERATIONS.....
 CPU     0: STEP CPU TIME=     9.67 TOTAL CPU TIME=         10.8 (      0.2 MIN)
 TOTAL WALL CLOCK TIME=         10.8 SECONDS, CPU UTILIZATION IS   100.00%

     ----------------------------------------------------------------
     PROPERTY VALUES FOR THE MCSCF SELF-CONSISTENT FIELD WAVEFUNCTION
     ----------------------------------------------------------------

          -----------------
          ENERGY COMPONENTS
          -----------------

         WAVEFUNCTION NORMALIZATION =       1.0000000000

                ONE ELECTRON ENERGY =     -94.4693751683
                TWO ELECTRON ENERGY =      27.2157678662
           NUCLEAR REPULSION ENERGY =      11.5100306870
                                      ------------------
                       TOTAL ENERGY =     -55.7435766151

 ELECTRON-ELECTRON POTENTIAL ENERGY =      27.2157678662
  NUCLEUS-ELECTRON POTENTIAL ENERGY =    -150.3058354094
   NUCLEUS-NUCLEUS POTENTIAL ENERGY =      11.5100306870
                                      ------------------
             TOTAL POTENTIAL ENERGY =    -111.5800368563
               TOTAL KINETIC ENERGY =      55.8364602412
                 VIRIAL RATIO (V/T) =       1.9983365058

          ---------------------------------------
          MULLIKEN AND LOWDIN POPULATION ANALYSES
          ---------------------------------------

     ATOMIC MULLIKEN POPULATION IN EACH MOLECULAR ORBITAL

                      1          2          3          4          5

                  2.000000   1.983142   1.656266   1.650404   1.644058

    1             2.000892   1.324410   1.524934   0.912318   1.093878
    2            -0.000249   0.205525   0.015685   0.221110   0.232909
    3            -0.000305   0.260134   0.023371   0.132448   0.308839
    4            -0.000338   0.193073   0.092276   0.384528   0.008431

                      6          7          8

                  0.027000   0.020743   0.018387

    1             0.012780   0.011114   0.009745
    2             0.007961   0.003014   0.000958
    3             0.004998   0.006174   0.000004
    4             0.001262   0.000440   0.007681
 WARNING! MCSCF POPULATIONS SHOWN ABOVE ARE FOR THE NATURAL ORBITALS.
 IGNORE THE ABOVE DATA FOR MCSCF FUNCTIONS WHICH ARE NOT OF -FORS- TYPE.
 THE FOLLOWING POPULATIONS ARE CORRECT FOR ANY MCSCF WAVEFUNCTION.

               ----- POPULATIONS IN EACH AO -----
                             MULLIKEN      LOWDIN
              1  N  1  S      2.00257     1.89761
              2  N  1  S      0.82369     0.57637
              3  N  1  S      0.65162     0.39723
              4  N  1  X      0.65850     0.57523
              5  N  1  Y      0.72117     0.65888
              6  N  1  Z      0.87815     0.82227
              7  N  1  X      0.24573     0.37468
              8  N  1  Y      0.36997     0.43633
              9  N  1  Z      0.52090     0.55751
             10  N  1 XX      0.00054     0.18304
             11  N  1 YY      0.00143     0.15223
             12  N  1 ZZ      0.00383     0.14222
             13  N  1 XY      0.00658     0.01251
             14  N  1 XZ      0.00542     0.01361
             15  N  1 YZ      0.00000     0.00895
             16  H  2  S      0.58843     0.45434
             17  H  2  S      0.04245     0.14564
             18  H  2  X      0.02266     0.04004
             19  H  2  Y      0.01948     0.03912
             20  H  2  Z      0.01391     0.03404
             21  H  3  S      0.62882     0.48482
             22  H  3  S      0.04789     0.14371
             23  H  3  X      0.01898     0.03353
             24  H  3  Y      0.02240     0.04463
             25  H  3  Z      0.01756     0.04109
             26  H  4  S      0.60182     0.46902
             27  H  4  S      0.02814     0.14330
             28  H  4  X      0.03651     0.06164
             29  H  4  Y      0.00864     0.02235
             30  H  4  Z      0.01225     0.03409

          ----- MULLIKEN ATOMIC OVERLAP POPULATIONS -----
          (OFF-DIAGONAL ELEMENTS NEED TO BE MULTIPLIED BY 2)

             1           2           3           4

    1    5.9893503
    2    0.2888746   0.4131243
    3    0.2955080  -0.0091275   0.4544577
    4    0.3163384  -0.0059578  -0.0051749   0.3821461

          TOTAL MULLIKEN AND LOWDIN ATOMIC POPULATIONS
       ATOM         MULL.POP.    CHARGE          LOW.POP.     CHARGE
    1 N             6.890071    0.109929         6.808644    0.191356
    2 H             0.686914    0.313086         0.713183    0.286817
    3 H             0.735663    0.264337         0.747771    0.252229
    4 H             0.687352    0.312648         0.730402    0.269598

          MULLIKEN SPHERICAL HARMONIC POPULATIONS
       ATOM           S       P       D      F      G      H      I    TOTAL
    1 N             3.48    3.39    0.02   0.00   0.00   0.00   0.00    6.89
    2 H             0.63    0.06    0.00   0.00   0.00   0.00   0.00    0.69
    3 H             0.68    0.06    0.00   0.00   0.00   0.00   0.00    0.74
    4 H             0.63    0.06    0.00   0.00   0.00   0.00   0.00    0.69

          ---------------------
          ELECTROSTATIC MOMENTS
          ---------------------

 POINT   1           X           Y           Z (BOHR)    CHARGE
                -0.000003   -0.000001   -0.177185        1.00 (A.U.)
         DX          DY          DZ         /D/  (DEBYE)
    -0.445559   -0.214632    2.155734    2.211737
 ...... END OF PROPERTY EVALUATION ......
 CPU     0: STEP CPU TIME=     0.00 TOTAL CPU TIME=         10.8 (      0.2 MIN)
 TOTAL WALL CLOCK TIME=         10.8 SECONDS, CPU UTILIZATION IS    99.91%

     -------------------------------------------------
     GMC-PT/GMC-QDPT or general MCSCF input parameters
     -------------------------------------------------
 # of frozen core orbs. =         0 ->         0
 # of doubly occ. orbs. =         1
 # of active      orbs. =         7
 # of virtual     orbs. =        21
 # of active electrons  =         7
 # of states in CI      =         3
 Highest state in CI    =         3
 kstate =  1 1 1
 avecoe =  0.333 0.333 0.333
 State symmetry           = A           
 Assigned symmetry number = 1

 <<<Act. MO sym.: 1111111

 <<<Division of 1-ext.:  0
 <<<Division of 2-ext.:  0

     ------------------------
     Orbital canonicalization
     ------------------------

 MOs are canonicalized for core, virtual, and invariant-active orbital spaces.
 This is a part of the GMC-QDPT calculation.
 SCHWARZ INEQUALITY OVERHEAD:       465 INTEGRALS, T=        0.00
 DIRECT TRANSFORMATION SKIPS AO INTEGRAL STORAGE ON DISK.

 Averaged energy =     -55.743576615

 State #    1  Energy =     -55.883072860  S =  0.500
 State #    2  Energy =     -55.741020465  S =  0.500
 State #    3  Energy =     -55.606636520  S =  0.500

 Orbital energies for filled orbital space
  -15.985958
 Orbital energies for active orbital space
   -1.522222  -0.994319  -0.853316  -0.749635   0.358700
    0.418614   0.247449
 Orbital energies for external orbital space
    0.144073   0.198719   0.218075   0.537565   0.578067
    0.639750   0.806084   0.978417   1.041661   1.287767
    1.400680   1.491988   1.617192   1.873697   1.925434
    1.970656   2.107022   2.307057   2.606213   2.692931
    2.972441

 Zero values mean non-canonical orbitals.
 ... done with orbital canonicalization ...
 CPU     0: STEP CPU TIME=     0.60 TOTAL CPU TIME=         11.4 (      0.2 MIN)
 TOTAL WALL CLOCK TIME=         11.4 SECONDS, CPU UTILIZATION IS    99.83%

     --------------------------------------------
     PARTIAL TWO ELECTRON INTEGRAL TRANSFORMATION
     --------------------------------------------

 NUMBER OF CORE MOLECULAR ORBITALS     =    0
 NUMBER OF OCCUPIED MOLECULAR ORBITALS =    8
 TOTAL NUMBER OF MOLECULAR ORBITALS    =   29
 TOTAL NUMBER OF ATOMIC ORBITALS       =   30
 THRESHOLD FOR KEEPING TRANSFORMED 2E- INTEGRALS = 1.000E-09
 AO INTEGRALS WILL BE CALCULATED IN DIRECT MODE...
 DIRECT TRANSFORMATION SKIPS AO INTEGRAL STORAGE ON DISK.
 SCHWARZ INEQUALITY OVERHEAD:       465 INTEGRALS, T=        0.00

 PLAN A: REQUIREMENTS FOR FULLY IN-MEMORY TRANSFORMATION:
 # OF WORDS AVAILABLE =            100000000
 # OF WORDS NEEDED    =               221798

 PARALLEL ONLY WORKS WITH THE SEGMENTED ALGORITHM.
 ADJUSTING MEMORY TO USE SEGMENTED ALGORITHM.


 PLAN B: REQUIREMENTS FOR THE SEGMENTED TRANSFORMATION:
       MINIMUM=         124148 WORDS FOR 1 MOLECULAR ORBITAL PER PASS
       MAXIMUM=         221798 WORDS FOR ALL MOLECULAR ORBITALS IN 1 PASS
              (          13950 EXTRA WORDS INCLUDES 1 EXTRA ORBITAL/PASS)
 THIS RUN USES=         221798 WORDS,
 DISTRIBUTING   1 PASSES EACH CONTAINING     8 ORBITALS OVER   1 PROCESSORS.

 CHOOSING SEGMENTED PARTIAL TRANSFORMATION...
 DIRECT TRANSFORMATION SKIPS AO INTEGRAL STORAGE ON DISK.
 PASS #   1 TOOK        0.04 SECONDS.
 TOTAL NUMBER OF TRANSFORMED 2E- INTEGRALS KEPT =        29226
 ... END OF INTEGRAL TRANSFORMATION ...
 CPU     0: STEP CPU TIME=     0.04 TOTAL CPU TIME=         11.4 (      0.2 MIN)
 TOTAL WALL CLOCK TIME=         11.5 SECONDS, CPU UTILIZATION IS    99.83%

     --------     ------------------------------------------
     GMC-QDPT     Program written by H.Nakano (Kyushu Univ.)
     --------     ------------------------------------------

 *** Reference space

 Reference type: ORMAS (= Occupation restricted multiple active space)
 # of orbitals          =  7
 # of minimum electrons =  7
 # of maximum electrons =  7
 State symmetry    =    1 (input)
 2*Sz              =    1 (input)
 Spin multiplicity =    2 (input)
 Dimension of reference space =      1225  (from      3432 walks)

 Dimension of reference space =      1225  (from      1225 walks)

 <<<Ionized spaces for Ref-CI:
      0:         1225 /   -1-0:         1960 /  0-1-0:         2891

 ***                    ***
 *** Reference space CI ***
 ***                    ***

 Converged after   29 iterations

 Reference wavefunctions:

 State #    1  Energy =     -55.883072860  S =  0.500

      Det      Coef    Occupancy (Ignoring core)
      ---      ----    --------- --------- -----
        1   -0.977561  11110001110000
      393   -0.061327  10110101010010
      717   -0.072846  11010011100001

 State #    2  Energy =     -55.741020465  S =  0.500

      Det      Coef    Occupancy (Ignoring core)
      ---      ----    --------- --------- -----
       36   -0.982731  11110001101000
      463   -0.061303  10110101001010

 State #    3  Energy =     -55.606636520  S =  0.500

      Det      Coef    Occupancy (Ignoring core)
      ---      ----    --------- --------- -----
       71    0.979810  11110001011000
      822   -0.073372  11010011001001

 Davidson method: CPU/Wall time =           0.41 /           0.42 sec.

 Oscillator strength (invalid if E(1)/=E(GS)):
 -----------------------------------------
   State                        f
 -----------------------------------------
     2     F(REF-CI)=        0.0007247573
     3     F(REF-CI)=        0.0020410623
 -----------------------------------------

 Dipole moment matrix elements, x, y, z, in A.U.

 Dimension of ionized spaces for PT:
 (N-2) space:         1715 /  (N-1) space:         2842 /  N space:         2891
 (N+1) space:         2842 /  (N+2) space:         1715

 <<<Ionized spaces for internal:
         0:         1225 /      -1-0:         1960 /     0-1-0:         2891
  -1-0-1-0:         2842 / 0-1-0-1-0:         3381

 Diagonal elements of averaged one-particle density matrix:
       2       3       4       5       6       7       8
  0.9938  0.9887  0.9865  0.9927  0.0116  0.0109  0.0158
  0.9893  0.6616  0.6576  0.6632  0.0093  0.0077  0.0112

 Orbital energies:
 -------- Doubly-occupied orbitals (highest several orbs.) -------
             1
 -1.598596D+01
 -------- Active orbitals ----------------------------------------
             2            3            4            5            6
 -1.522222D+00-9.943189D-01-8.533158D-01-7.496346D-01 3.587002D-01
             7            8
  4.186143D-01 2.474491D-01
 -------- External orbitals (lowest several orbs.) ---------------
             9           10           11           12           13
  1.440730D-01 1.987194D-01 2.180748D-01 5.375650D-01 5.780675D-01
            14           15           16           17           18
  6.397500D-01 8.060841D-01 9.784173D-01 1.041661D+00 1.287767D+00

 *** Quasi-degeneracy checking

 === Det (|Ci| > 1.0D-01 and dE < 5.0D-03)

 # of small denominators (single excitations)
 State       dEmin  dE < 5.0D-03  dE < 5.0D-04  dE < 5.0D-05  dE < 5.0D-06
 ----- ----------- ------------- ------------- ------------- -------------
     1    5.00D-03             0             0             0             0
     2    5.00D-03             0             0             0             0
     3    5.00D-03             0             0             0             0

 # of small denominators (double excitations)
 State       dEmin  dE < 5.0D-03  dE < 5.0D-04  dE < 5.0D-05  dE < 5.0D-06
 ----- ----------- ------------- ------------- ------------- -------------
     1    5.00D-03             0             0             0             0
     2    5.00D-03             0             0             0             0
     3    5.00D-03             0             0             0             0

 *** Zeroth-Order Setup (Granovsky's zeroth-order vectors)
 Zeroth-order effective Hamiltonian
  (= Sum_i e(i)*<I|a+(i)a(i)|J> ):
                   1            2            3
     1 -7.386282D+00
     2  7.730036D-03-7.304957D+00
     3  2.068478D-03 2.215187D-03-7.154451D+00

 Zeroth-order vectors:
 State #    1
       MC st            1           2           3
       Coeff    9.956D-01  -9.356D-02  -7.963D-03
 State #    2
       MC st            2           1           3
       Coeff   -9.955D-01  -9.342D-02   1.601D-02
 State #    3
       MC st            3           2           1
       Coeff    9.998D-01   1.519D-02   9.425D-03

 *** GMC-QDPT computation

 (Integral reading:  CPU/Wall time =           0.00 /           0.00 sec.)

 One-external:
   0 -ionized terms: CPU/Wall time =           0.03 /           0.03 sec.
 (-1)-ionized terms: CPU/Wall time =           0.09 /           0.09 sec.
 (+1)-ionized terms: CPU/Wall time =           0.02 /           0.02 sec.
 (+1)-ionized terms: CPU/Wall time =           0.01 /           0.00 sec.
 (+2)-ionized terms: CPU/Wall time =           0.00 /           0.01 sec.

 Internal:
 # of macro loops for internal contribution =         1 (input)
 Loop:    1
 Dimension of internal CISD space     =         0  (after screening)
 Space construction: CPU/Wall time =           0.02 /           0.01 sec.
 Internal terms:     CPU/Wall time =           0.00 /           0.00 sec.

 Two-external:
   0 -ionized terms: CPU/Wall time =           0.06 /           0.06 sec.
 (-1)-ionized terms: CPU/Wall time =           0.99 /           1.00 sec.
 (-2)-ionized terms: CPU/Wall time =           0.17 /           0.17 sec.

 Total time:         CPU/Wall time =           1.39 /           1.39 sec.

 ***                  ***
 *** GMC-QDPT Results ***
 ***                  ***

 Diagonal elements of effective Hamiltonian:
 Heff(  1) =   -55.98002816
 Heff(  2) =   -55.85055002
 Heff(  3) =   -55.71786334

 Off-diagonal elements of effective Hamiltonian:
                   1            2
     2  1.173495D-02
     3 -2.000134D-03 2.107069D-03

 ******** GMC-QDPT energies ********
 ----------------------------------------------------------------------------
   State                        1st order                           2nd order
 ----------------------------------------------------------------------------
     1     E(REF-CI)=      -55.8830728603   E(GMC-QDPT2)=      -55.9811012024
     2     E(REF-CI)=      -55.7410204655   E(GMC-QDPT2)=      -55.8495230281
     3     E(REF-CI)=      -55.6066365196   E(GMC-QDPT2)=      -55.7178172988
 ----------------------------------------------------------------------------

 Excitation energies (invalid if E(1)/=E(GS)):
 ----------------------------------------------------------------------------
   State                        1st order                           2nd order
 ----------------------------------------------------------------------------

     TZ Sorted GMC-PT ENERGIES:
         1      -55.9811012024
         2      -55.8495230281
         3      -55.7178172988
     2     E(REF-CI)=        3.8654445 eV   E(GMC-QDPT2)=        3.5804263 eV
     3     E(REF-CI)=        7.5222198 eV   E(GMC-QDPT2)=        7.1643236 eV
 ----------------------------------------------------------------------------

 Main characters of perturbed GMC-QDPT states:

 State #    1  Energy =     -55.981101202  S =  0.500

      Det      Coef    Occupancy (Ignoring core)
      ---      ----    --------- --------- -----
        1   -0.977719  11110001110000
      393   -0.061316  10110101010010
      717   -0.072801  11010011100001

 State #    2  Energy =     -55.849523028  S =  0.500

      Det      Coef    Occupancy (Ignoring core)
      ---      ----    --------- --------- -----
       36    0.982886  11110001101000
      463    0.061308  10110101001010

 State #    3  Energy =     -55.717817299  S =  0.500

      Det      Coef    Occupancy (Ignoring core)
      ---      ----    --------- --------- -----
       71    0.979818  11110001011000
      822   -0.073377  11010011001001

 <<<Max |V/de| = 2.273D-02  Thresh = 1.000D+00

 Oscillator strength (invalid if E(1)/=E(GS)):
 ----------------------------------------------------------------------------
   State                        1st order                           2nd order
 ----------------------------------------------------------------------------
     2     F(REF-CI)=        0.0007247573     F(GMC-PT2)=        0.0006986192
     3     F(REF-CI)=        0.0020410623     F(GMC-PT2)=        0.0019802271
 ----------------------------------------------------------------------------

 Dipole moment matrix elements, x, y, z, in A.U.
States    1    1       -0.2166683014       -0.0936851338        0.7427065006
States    1    2        0.0181163111        0.0322274914       -0.0812249576
States    1    3        0.0875265620       -0.0222780771        0.0558988407
States    2    1        0.0181163111        0.0322274914       -0.0812249576
States    2    2       -0.0145392279       -0.1305778089        0.2703970967
States    2    3        0.0941765951       -0.1729361343        0.0016135583
States    3    1        0.0875265620       -0.0222780771        0.0558988407
States    3    2        0.0941765951       -0.1729361343        0.0016135583
States    3    3       -0.4994428747       -0.1506589449        0.2546657159

 Oscillator strength (valid only when positive): 
 ----------------------------------------------------------------------------
  States                        1st order                           2nd order
 ----------------------------------------------------------------------------
  1  1     F(REF-CI)=        0.0000000000     F(GMC-PT2)=        0.0000000000
  1  2     F(REF-CI)=       -0.0007247573     F(GMC-PT2)=       -0.0006986192
  1  3     F(REF-CI)=       -0.0020410623     F(GMC-PT2)=       -0.0019802271
  2  1     F(REF-CI)=        0.0007247573     F(GMC-PT2)=        0.0006986192
  2  2     F(REF-CI)=        0.0000000000     F(GMC-PT2)=        0.0000000000
  2  3     F(REF-CI)=       -0.0034881746     F(GMC-PT2)=       -0.0034049216
  3  1     F(REF-CI)=        0.0020410623     F(GMC-PT2)=        0.0019802271
  3  2     F(REF-CI)=        0.0034881746     F(GMC-PT2)=        0.0034049216
  3  3     F(REF-CI)=        0.0000000000     F(GMC-PT2)=        0.0000000000
 CPU     0: STEP CPU TIME=     1.89 TOTAL CPU TIME=         13.3 (      0.2 MIN)
 TOTAL WALL CLOCK TIME=         13.3 SECONDS, CPU UTILIZATION IS    99.93%

     !!! DIABATIZATION FOR REF CI STATES !!!

 *******************************************************
          $DMO GROUP FOUND IN THE INPUT.
        DIABATIZATION OF ADIABATIC STATES BEGINS.
     PROGRAMMED BY TAO ZENG (CARLETON UNIVERSITY).
               Email: toby.zeng@carleton.ca
     See T. Zeng, J. Chem. Phys. 2017, 146, 144103
 *******************************************************

 *************************************************************************
     STEP 1: TRANSFORMATION OF ADIABATIC STATES TO THE DMO REPRESENTATION
         See Atchity and Ruedenberg, J. Chem. Phys. 1999, 111, 2910
 *************************************************************************

Read in Diabatic Molecualr Orbitals:

                      1          2          3          4          5

    1  N  1  S    0.008609   0.000000   0.000000  -0.013219   0.279491
    2  N  1  S    0.442914  -0.000000   0.000000  -0.184329   0.867803
    3  N  1  S    0.276913   0.000000  -0.000000  -0.288315   0.144236
    4  N  1  X   -0.000000   0.493155  -0.024636  -0.000000  -0.000000
    5  N  1  Y    0.000000   0.024636   0.493155  -0.000000   0.000000
    6  N  1  Z    0.090197   0.000000   0.000000   0.593421   0.705309
    7  N  1  X   -0.000000   0.210628  -0.010522   0.000000   0.000000
    8  N  1  Y    0.000000   0.010522   0.210628  -0.000000  -0.000000
    9  N  1  Z   -0.004381   0.000000   0.000000   0.381592  -0.106092
   10  N  1 XX   -0.000457   0.010719  -0.000535  -0.012387   0.006153
   11  N  1 YY   -0.000457  -0.010719   0.000535  -0.012387   0.006153
   12  N  1 ZZ    0.000914  -0.000000   0.000000   0.024773  -0.012306
   13  N  1 XY    0.000000  -0.000618  -0.012377  -0.000000   0.000000
   14  N  1 XZ   -0.000000   0.026529  -0.001325  -0.000000   0.000000
   15  N  1 YZ    0.000000   0.001325   0.026529  -0.000000   0.000000
   16  H  2  S    0.194462  -0.176074   0.343485   0.112865  -0.523343
   17  H  2  S    0.003574  -0.023812   0.046452   0.024014  -0.054445
   18  H  2  X    0.018760   0.009101   0.022834   0.009336  -0.039151
   19  H  2  Y   -0.032493   0.022287  -0.020044  -0.016171   0.067811
   20  H  2  Z   -0.009251   0.008464  -0.016511   0.018769  -0.010566
   21  H  3  S    0.194462  -0.209430  -0.324227   0.112865  -0.523343
   22  H  3  S    0.003574  -0.028322  -0.043847   0.024014  -0.054445
   23  H  3  X    0.018760   0.006781  -0.023627   0.009336  -0.039151
   24  H  3  Y    0.032493  -0.024174  -0.017723   0.016171  -0.067811
   25  H  3  Z   -0.009251   0.010067   0.015585   0.018769  -0.010566
   26  H  4  S    0.194462   0.385503  -0.019258   0.112865  -0.523343
   27  H  4  S    0.003574   0.052134  -0.002604   0.024014  -0.054445
   28  H  4  X   -0.037519  -0.032295   0.001613  -0.018672   0.078302
   29  H  4  Y    0.000000   0.001067   0.021353  -0.000000   0.000000
   30  H  4  Z   -0.009251  -0.018530   0.000926   0.018769  -0.010566

                      6          7

    1  N  1  S    0.000000  -0.000000
    2  N  1  S    0.000000  -0.000000
    3  N  1  S   -0.000000   0.000000
    4  N  1  X   -0.930415  -0.002083
    5  N  1  Y   -0.002083   0.930415
    6  N  1  Z   -0.000000   0.000000
    7  N  1  X   -0.046866  -0.000105
    8  N  1  Y   -0.000105   0.046866
    9  N  1  Z   -0.000000   0.000000
   10  N  1 XX    0.001538   0.000003
   11  N  1 YY   -0.001538  -0.000003
   12  N  1 ZZ   -0.000000   0.000000
   13  N  1 XY   -0.000004   0.001776
   14  N  1 XZ    0.039985   0.000090
   15  N  1 YZ    0.000090  -0.039985
   16  H  2  S   -0.362630  -0.631354
   17  H  2  S   -0.065964  -0.114846
   18  H  2  X    0.002763  -0.037520
   19  H  2  Y    0.037435   0.040736
   20  H  2  Z    0.001882   0.003276
   21  H  3  S   -0.365454   0.629724
   22  H  3  S   -0.066477   0.114549
   23  H  3  X    0.002595   0.037532
   24  H  3  Y   -0.037617   0.040567
   25  H  3  Z    0.001896  -0.003268
   26  H  4  S    0.728084   0.001630
   27  H  4  S    0.132441   0.000297
   28  H  4  X   -0.062317  -0.000140
   29  H  4  Y    0.000055  -0.024345
   30  H  4  Z   -0.003778  -0.000008

NUMBER OF SUB ACTIVE SPACES:   1
ROTATE ACTIVE MOS TO DMOS IN EACH SUB-SPACE

SPACE  1:

OVERLAP BETWEEN ORTHONORMAL AND PRE-ORTHONORMAL REF. DMOS

             1           2           3           4           5

    1    0.9903052  -0.0156025  -0.0123806  -0.0034187   0.0000365
    2   -0.0156025   1.0308606  -0.0234897  -0.0256060   0.0528237
    3   -0.0123806  -0.0234897   0.9349262  -0.0136436   0.0189786
    4   -0.0034187  -0.0256060  -0.0136436   0.9974850  -0.0045241
    5    0.0000365   0.0528237   0.0189786  -0.0045241   1.0624627
    6    0.0035174   0.0369345  -0.0195074  -0.0326670   0.0215363
    7   -0.0007564   0.0141780   0.0491497   0.0127719   0.0215819

             6           7

    1    0.0035174  -0.0007564
    2    0.0369345   0.0141780
    3   -0.0195074   0.0491497
    4   -0.0326670   0.0127719
    5    0.0215363   0.0215819
    6    1.0077081  -0.0108026
    7   -0.0108026   1.0383440
REFERENCE DMOS AFTER ORTHONORMALIZATION:

                      1          2          3          4          5

    1  N  1  S    0.008372  -0.013568  -0.005633  -0.012576   0.263998
    2  N  1  S    0.445877  -0.039000  -0.014135  -0.181357   0.818948
    3  N  1  S    0.278472  -0.009517  -0.003832  -0.288208   0.135301
    4  N  1  X    0.010934   0.511688  -0.032294  -0.017971  -0.005474
    5  N  1  Y    0.007012   0.023757   0.483094  -0.003540  -0.027902
    6  N  1  Z    0.092769  -0.017914  -0.002847   0.598200   0.667645
    7  N  1  X    0.003374   0.206740  -0.006750   0.003457  -0.008989
    8  N  1  Y    0.003062   0.015096   0.224144   0.003137  -0.005527
    9  N  1  Z   -0.002820   0.014288   0.008386   0.383079  -0.099307
   10  N  1 XX   -0.000359   0.009786  -0.000599  -0.012130   0.005252
   11  N  1 YY   -0.000673  -0.010992  -0.000069  -0.012731   0.006316
   12  N  1 ZZ    0.001032   0.001206   0.000668   0.024861  -0.011567
   13  N  1 XY   -0.000181  -0.000951  -0.013402  -0.000244   0.000242
   14  N  1 XZ    0.000255   0.024494   0.000072   0.001893  -0.002003
   15  N  1 YZ    0.000395   0.002549   0.030564   0.001004   0.000140
   16  H  2  S    0.200813  -0.110719   0.404016   0.111130  -0.474291
   17  H  2  S    0.004287  -0.014916   0.055301   0.023620  -0.047812
   18  H  2  X    0.019483   0.012312   0.027915   0.010543  -0.037237
   19  H  2  Y   -0.033024   0.015221  -0.024320  -0.015349   0.061932
   20  H  2  Z   -0.009362   0.008530  -0.017249   0.018742  -0.010102
   21  H  3  S    0.190834  -0.178478  -0.378183   0.082487  -0.482467
   22  H  3  S    0.002927  -0.024910  -0.053472   0.018966  -0.049991
   23  H  3  X    0.018792   0.007777  -0.025867   0.008718  -0.037574
   24  H  3  Y    0.032458  -0.019194  -0.020429   0.013597  -0.062576
   25  H  3  Z   -0.008893   0.011023   0.017602   0.019401  -0.010695
   26  H  4  S    0.200576   0.381879   0.018917   0.145074  -0.526219
   27  H  4  S    0.004061   0.049569   0.002750   0.029439  -0.056338
   28  H  4  X   -0.038314  -0.034159  -0.002739  -0.021456   0.076661
   29  H  4  Y    0.000316   0.001941   0.024202   0.000704  -0.000030
   30  H  4  Z   -0.009529  -0.017107   0.000829   0.018239  -0.008987

                      6          7

    1  N  1  S   -0.005744  -0.004934
    2  N  1  S   -0.023927  -0.013514
    3  N  1  S   -0.012920   0.001113
    4  N  1  X   -0.943363  -0.016936
    5  N  1  Y    0.016236   0.873663
    6  N  1  Z    0.005179  -0.020734
    7  N  1  X   -0.053955  -0.003019
    8  N  1  Y    0.004260   0.034442
    9  N  1  Z    0.014156  -0.003095
   10  N  1 XX    0.000651  -0.000055
   11  N  1 YY   -0.001668   0.000158
   12  N  1 ZZ    0.001017  -0.000102
   13  N  1 XY   -0.000216   0.002353
   14  N  1 XZ    0.038888   0.000171
   15  N  1 YZ    0.000186  -0.040003
   16  H  2  S   -0.341592  -0.620568
   17  H  2  S   -0.063280  -0.112971
   18  H  2  X    0.003505  -0.036929
   19  H  2  Y    0.034836   0.039414
   20  H  2  Z    0.002118   0.003850
   21  H  3  S   -0.344340   0.632378
   22  H  3  S   -0.063203   0.113341
   23  H  3  X    0.003217   0.037985
   24  H  3  Y   -0.034915   0.041092
   25  H  3  Z    0.002663  -0.004126
   26  H  4  S    0.724265   0.012295
   27  H  4  S    0.131826   0.001662
   28  H  4  X   -0.062858  -0.001550
   29  H  4  Y    0.000210  -0.024623
   30  H  4  Z   -0.002288   0.000118

 -------------------------------------------
       MAXIMIZING MORMO OVERLAP TERM        
 -------------------------------------------
   SWEEP    VALUE       PROGRESS
     0     6.19394
     1     6.97585     0.78191214
     2     6.98043     0.00457747
     3     6.98043     0.00000007
     4     6.98043     0.00000000
     5     6.98043     0.00000000
 THE ROTATION IS DONE
ACTIVE ORBITALS AFTER MORMO:

                      1          2          3          4          5

    1  N  1  S    0.007599  -0.017679  -0.009291  -0.012392   0.239428
    2  N  1  S    0.436143  -0.037058  -0.023757  -0.185500   0.787778
    3  N  1  S    0.304803   0.016098   0.026279  -0.281502   0.169762
    4  N  1  X    0.007357   0.508856  -0.035690  -0.023644   0.004198
    5  N  1  Y   -0.000056   0.017139   0.458136  -0.012796  -0.019501
    6  N  1  Z    0.087347  -0.028863  -0.009878   0.598200   0.657889
    7  N  1  X    0.008815   0.180644   0.006135   0.030834  -0.030548
    8  N  1  Y    0.013012   0.031269   0.270564   0.019470  -0.020136
    9  N  1  Z    0.010879   0.040760   0.023531   0.383063  -0.086432
   10  N  1 XX    0.002535   0.008642   0.004825  -0.012587  -0.030801
   11  N  1 YY   -0.003260  -0.009262  -0.004966  -0.011006   0.033628
   12  N  1 ZZ    0.000725   0.000620   0.000141   0.023593  -0.002827
   13  N  1 XY   -0.001041  -0.006219  -0.017147  -0.001701   0.015539
   14  N  1 XZ   -0.001906   0.019411  -0.000049   0.001275   0.028656
   15  N  1 YZ    0.000568   0.001721   0.026045  -0.001457   0.016898
   16  H  2  S    0.189846  -0.150076   0.359113   0.108019  -0.467616
   17  H  2  S    0.003442  -0.008929   0.084406   0.028020  -0.054983
   18  H  2  X    0.025955  -0.001181   0.033653   0.011564  -0.038107
   19  H  2  Y   -0.021938   0.020375  -0.010831  -0.011940   0.051795
   20  H  2  Z   -0.008320   0.012576  -0.013816   0.018672  -0.015806
   21  H  3  S    0.190029  -0.193369  -0.345764   0.095920  -0.496595
   22  H  3  S    0.003530  -0.027415  -0.086037   0.021031  -0.057936
   23  H  3  X    0.022577   0.004432  -0.026631   0.010433  -0.032078
   24  H  3  Y    0.025022  -0.018825  -0.010726   0.015695  -0.059695
   25  H  3  Z   -0.012664   0.015295   0.019772   0.017962  -0.009514
   26  H  4  S    0.187270   0.387390  -0.005080   0.125402  -0.517230
   27  H  4  S    0.000514   0.046339   0.008041   0.029891  -0.057475
   28  H  4  X   -0.036580  -0.037848   0.006467  -0.015855   0.068040
   29  H  4  Y    0.004677   0.009691   0.019752   0.002367  -0.007919
   30  H  4  Z   -0.004991  -0.013298   0.001833   0.020406  -0.011338

                      6          7

    1  N  1  S   -0.048181   0.004897
    2  N  1  S   -0.106558   0.015327
    3  N  1  S    0.096526  -0.038611
    4  N  1  X   -0.926675  -0.020200
    5  N  1  Y    0.018087   0.880532
    6  N  1  Z    0.030908  -0.040992
    7  N  1  X   -0.092648  -0.003515
    8  N  1  Y    0.006900   0.020113
    9  N  1  Z    0.002827   0.015405
   10  N  1 XX   -0.016353  -0.017932
   11  N  1 YY    0.025169   0.016191
   12  N  1 ZZ   -0.008816   0.001740
   13  N  1 XY   -0.022316   0.032203
   14  N  1 XZ    0.054342   0.005268
   15  N  1 YZ   -0.008962  -0.024917
   16  H  2  S   -0.367015  -0.584113
   17  H  2  S   -0.074526  -0.145433
   18  H  2  X   -0.005412  -0.046387
   19  H  2  Y    0.041916   0.022855
   20  H  2  Z   -0.015248   0.009933
   21  H  3  S   -0.359922   0.601672
   22  H  3  S   -0.068456   0.150950
   23  H  3  X    0.015003   0.039895
   24  H  3  Y   -0.041644   0.025363
   25  H  3  Z   -0.003941  -0.014765
   26  H  4  S    0.718002   0.023977
   27  H  4  S    0.134541   0.003172
   28  H  4  X   -0.066916  -0.008204
   29  H  4  Y    0.009524  -0.011054
   30  H  4  Z    0.009707   0.008417

Actually Used Diabatic Molecualr Orbitals:

                      1          2          3          4          5

    1  N  1  S    0.007599  -0.017679  -0.009291  -0.012392   0.239428
    2  N  1  S    0.436143  -0.037058  -0.023757  -0.185500   0.787778
    3  N  1  S    0.304803   0.016098   0.026279  -0.281502   0.169762
    4  N  1  X    0.007357   0.508856  -0.035690  -0.023644   0.004198
    5  N  1  Y   -0.000056   0.017139   0.458136  -0.012796  -0.019501
    6  N  1  Z    0.087347  -0.028863  -0.009878   0.598200   0.657889
    7  N  1  X    0.008815   0.180644   0.006135   0.030834  -0.030548
    8  N  1  Y    0.013012   0.031269   0.270564   0.019470  -0.020136
    9  N  1  Z    0.010879   0.040760   0.023531   0.383063  -0.086432
   10  N  1 XX    0.002535   0.008642   0.004825  -0.012587  -0.030801
   11  N  1 YY   -0.003260  -0.009262  -0.004966  -0.011006   0.033628
   12  N  1 ZZ    0.000725   0.000620   0.000141   0.023593  -0.002827
   13  N  1 XY   -0.001041  -0.006219  -0.017147  -0.001701   0.015539
   14  N  1 XZ   -0.001906   0.019411  -0.000049   0.001275   0.028656
   15  N  1 YZ    0.000568   0.001721   0.026045  -0.001457   0.016898
   16  H  2  S    0.189846  -0.150076   0.359113   0.108019  -0.467616
   17  H  2  S    0.003442  -0.008929   0.084406   0.028020  -0.054983
   18  H  2  X    0.025955  -0.001181   0.033653   0.011564  -0.038107
   19  H  2  Y   -0.021938   0.020375  -0.010831  -0.011940   0.051795
   20  H  2  Z   -0.008320   0.012576  -0.013816   0.018672  -0.015806
[...]
       36   -0.958501   -0.958501  22+2000
        1   -0.172239    0.172239  222+000
       71    0.139804   -0.139804  2+22000
      463    0.058412   -0.058412  20+2020
      123    0.032111   -0.032111  +-2200+
      285    0.031796   -0.031796  02+2200
      262   -0.030488   -0.030488  2+02-0+
      472   -0.030438   -0.030438  2+020-+
      823    0.028424   -0.028424  20+2002
      142    0.028203    0.028203  22+0200
      157    0.027858   -0.027858  220+-0+
       16   -0.024749    0.024749  222000+
      249    0.024246   -0.024246  20+2200
      297    0.024032   -0.024032  +202-0+
      121   -0.023722    0.023722  +22-00+
      356    0.022739    0.022739  22+0020
      859    0.021918   -0.021918  02+2002
       55   -0.021053   -0.021053  220-+0+
      288   -0.020983   -0.020983  +-+2-+0
      716    0.020974    0.020974  22+0002

 ---------------------------------------
    -DIABATIC STATES IN PROTOTYPES-     
 ---------------------------------------

     STATE:    1
 Group Ref#    Coefficients
     1    1    0.980527
     2    2    0.000226
     3    3   -0.002139

WEIGHT OF LISTED PROTOTYPES:   96.14%

     STATE:    2
 Group Ref#    Coefficients
     1    1    0.000226
     2    2    0.978150
     3    3    0.001054

WEIGHT OF LISTED PROTOTYPES:   95.68%

     STATE:    3
 Group Ref#    Coefficients
     1    1   -0.002139
     2    2    0.001054
     3    3    0.980666

WEIGHT OF LISTED PROTOTYPES:   96.17%

 --------------------------------------------------
 IN DIRECT MAX. DIABATIZATION FOR GMC-QDPT

 DIRECT MAXIMIZATION (DM) WITHOUT TRUNCATING ADIABATS
 EXPANSIONS INTO THE REFERENCE CONFIGURATION SPACE
 --------------------------------------------------

 -------------------------------------------
 - DM DIABT PT HAMILTONIAN MATRIX ELEMENTS -
 -------------------------------------------
                                            
 --- DIABATIC ENERGIES (DIAGONAL ELEMENT) ---       HARTREE            EV
 STATE #  1'S GMC-PT-LEVEL DIABATIC ENERGY=     -55.974949743       0.000000000
 STATE #  2'S GMC-PT-LEVEL DIABATIC ENERGY=     -55.724548388       6.813767917
 STATE #  3'S GMC-PT-LEVEL DIABATIC ENERGY=     -55.848943398       3.428807282

 --- DIABATIC COUPLINGS (OFF DIAGONAL ELEMENTS)---  HATREE            EV
 STATE #  1 &  2'S GMC-PT-LEVEL COUPLING  =       0.030469748       0.829124064
 STATE #  1 &  3'S GMC-PT-LEVEL COUPLING  =       0.015551536       0.423178862
 STATE #  2 &  3'S GMC-PT-LEVEL COUPLING  =      -0.021998251      -0.598602895

 ---------------------------------------
     - ROTATION TO DIABATIC STATES -    
 ---------------------------------------
 ROWS=ADIABATIC, COLUMNS=DIABATIC STATES

             1           2           3

    1    0.9822207  -0.1283976  -0.1369542
    2   -0.1540928  -0.1347260  -0.9788280
    3    0.1072279   0.9825289  -0.1521158

 ---------------------------------------
          - DIABATIC STATES -           
 ---------------------------------------

 State #    1  Energy =     -55.974949743

      Det      Coef        Coefp    Occupancy (Ignoring core)
      ---      ----        ----    --------- --------- -----
        1    0.962302   -0.962302  222+000
       17    0.113219    0.113219  22-+00+
      701   -0.081953   -0.081953  22++00-
      717   -0.076312   -0.076312  220+002
        4    0.070722   -0.070722  2-2++00
      176   -0.068918    0.068918  2+2+-00
      393   -0.064529   -0.064529  202+020
        6   -0.044221    0.044221  22200+0
      402    0.040986   -0.040986  2+-+0-+
      708    0.038384   -0.038384  2-++0+-
      215   -0.035864   -0.035864  022+200
      227   -0.034491   -0.034491  +2-+-0+
      705   -0.034008   -0.034008  -2+++0-
        3    0.033920    0.033920  22-++00
      390    0.032634   -0.032634  -+2++-0
      218    0.032495   -0.032495  +-2+-+0
      141   -0.032434   -0.032434  22++-00
       51   -0.031266    0.031266  22+-00+
      212    0.028846    0.028846  +220200
      122    0.028248    0.028248  +2-200+
       16    0.026434   -0.026434  222000+
       76    0.025291    0.025291  2+2-0+0
      773    0.024491   -0.024491  +2-++0-
      702    0.023749    0.023749  22+0+0-
        2    0.023716   -0.023716  2220+00
      351    0.023709    0.023709  22++0-0
      159    0.023646   -0.023646  -2++-0+
      113   -0.023316    0.023316  +-220+0
      192    0.023265   -0.023265  2+-+-0+
        7   -0.023051   -0.023051  22-+0+0
      143   -0.022771   -0.022771  220+200
      179   -0.022361   -0.022361  202+200
      424   -0.022103   -0.022103  +-2++-0
      704    0.022071   -0.022071  2-+++0-
      387   -0.021839    0.021839  2+20+-0
     1051   -0.021277   -0.021277  2+++0--
      184   -0.021266   -0.021266  -+2+-+0
       18    0.020138   -0.020138  2-2+00+

 State #    2  Energy =     -55.724548388

      Det      Coef        Coefp    Occupancy (Ignoring core)
      ---      ----        ----    --------- --------- -----
       71   -0.965559    0.965559  2+22000
      806   -0.083445   -0.083445  2++200-
      822    0.079062   -0.079062  2+02002
       87    0.070407   -0.070407  2+-200+
       78   -0.050357    0.050357  20220+0
       36    0.046557    0.046557  22+2000
      813    0.044990   -0.044990  20+20+-
       74   -0.043473    0.043473  2022+00
      111    0.041316   -0.041316  +22-0+0
      386    0.041131   -0.041131  2+2+0-0
      122    0.040598    0.040598  +2-200+
      246   -0.040374   -0.040374  2++2-00
      106   -0.040152   -0.040152  +222000
       73    0.039254   -0.039254  2+-2+00
      332   -0.036859    0.036859  ++-2-0+
      320    0.036213    0.036213  0+22200
      810   -0.035947   -0.035947  -++2+0-
      736   -0.032351    0.032351  2+2+00-
       76   -0.032147   -0.032147  2+2-0+0
       86    0.031480    0.031480  2+2-00+
      323   -0.030639    0.030639  +022-+0
       77   -0.030133    0.030133  2+-20+0
      317    0.030083   -0.030083  ++2-200
      180   -0.029797    0.029797  -+2+200
       99   -0.028399    0.028399  20-20++
      177    0.028227   -0.028227  2+20200
      807   -0.027396    0.027396  2++-+0-
        6    0.026995   -0.026995  22200+0
      192   -0.026941    0.026941  2+-+-0+
       38   -0.026904    0.026904  2202+00
      456    0.026431    0.026431  2++20-0
      248    0.026061   -0.026061  2+02200
      264    0.025165   -0.025165  -++2-0+
      878    0.024875    0.024875  ++-2+0-
      391    0.023409   -0.023409  2+20020
       51    0.023043   -0.023043  22+-00+
      841   -0.023013    0.023013  +2+200-
      183   -0.022644    0.022644  202+-+0
      421   -0.021662   -0.021662  +22+0-0
       90    0.021126    0.021126  2+--+0+

 State #    3  Energy =     -55.848943398

      Det      Coef        Coefp    Occupancy (Ignoring core)
      ---      ----        ----    --------- --------- -----
       36   -0.964797   -0.964797  22+2000
       39   -0.101620   -0.101620  2-+2+00
      246    0.077878    0.077878  2++2-00
       41   -0.073063    0.073063  22+-0+0
      351    0.064463    0.064463  22++0-0
      463    0.062290   -0.062290  20+2020
       52   -0.055509    0.055509  220200+
       71   -0.046322    0.046322  2+22000
      472   -0.043693   -0.043693  2+020-+
      285    0.035306   -0.035306  02+2200
      297    0.034623   -0.034623  +202-0+
      121   -0.033358    0.033358  +22-00+
      460   -0.032897   -0.032897  -++2+-0
      288   -0.032301   -0.032301  +-+2-+0
       38   -0.031423    0.031423  2202+00
      123    0.030276   -0.030276  +-2200+
      106   -0.030256   -0.030256  +222000
      701   -0.029863   -0.029863  22++00-
      145   -0.029802   -0.029802  -2++200
      282    0.029398    0.029398  +2+-200
       51    0.029015   -0.029015  22+-00+
      157    0.028982   -0.028982  220+-0+
      142    0.028332    0.028332  22+0200
       64    0.028060   -0.028060  2-020++
      456    0.026514    0.026514  2++20-0
       43   -0.025606   -0.025606  2-+20+0
      716    0.024107    0.024107  22+0002
       73    0.023742   -0.023742  2+-2+00
       16   -0.023623    0.023623  222000+
       53   -0.023354   -0.023354  2-+200+
       55   -0.023303   -0.023303  220-+0+
      262   -0.022594   -0.022594  2+02-0+
      457   -0.022498    0.022498  2++-+-0
      148   -0.022314   -0.022314  2-++-+0
      249    0.022257   -0.022257  20+2200
      494    0.022165   -0.022165  +-+2+-0
       86    0.021722    0.021722  2+2-00+
      843   -0.021596   -0.021596  +202+0-
       42    0.021501   -0.021501  22020+0
      367    0.021392   -0.021392  220+0-+
      859    0.020694   -0.020694  02+2002
      491    0.020358   -0.020358  +2+20-0
      254    0.020164   -0.020164  -++2-+0

 ---------------------------------------
      - DIABATIC STATES IN CMO -        
 ---------------------------------------

 State #    1  Energy =     -55.974949743

      Det      Coef        Coefp    Occupancy (Ignoring core)
      ---      ----        ----    --------- --------- -----
        1    0.954159   -0.954159  222+000
       36   -0.186917   -0.186917  22+2000
       71   -0.107406    0.107406  2+22000
      717   -0.073376   -0.073376  220+002
      393   -0.061610   -0.061610  202+020
        8   -0.039737    0.039737  2-2+0+0
       17    0.035508    0.035508  22-+00+
      143   -0.035070   -0.035070  220+200
      708    0.033107   -0.033107  2-++0+-
      215   -0.031988   -0.031988  022+200
      106   -0.028946   -0.028946  +222000
      402    0.028712   -0.028712  2+-+0-+
      705   -0.027208   -0.027208  -2+++0-
      753   -0.026083   -0.026083  202+002
       51   -0.025674    0.025674  22+-00+
      122    0.025530    0.025530  +2-200+
      704    0.024592   -0.024592  2-+++0-
      703    0.023980    0.023980  220++0-
        3   -0.023866   -0.023866  22-++00
      227   -0.023141   -0.023141  +2-+-0+
       76    0.023060    0.023060  2+2-0+0
      390    0.021848   -0.021848  -+2++-0
      113   -0.021600    0.021600  +-220+0
        2    0.021490   -0.021490  2220+00
      218    0.021367   -0.021367  +-2+-+0
      213   -0.021171    0.021171  +2-+200
       16    0.021108   -0.021108  222000+
      702    0.021005    0.021005  22+0+0-
      719   -0.020994   -0.020994  -2++002
      192    0.020769   -0.020769  2+-+-0+
      787    0.020401   -0.020401  +2-+002
      157   -0.020269    0.020269  220+-0+

 State #    2  Energy =     -55.724548388

      Det      Coef        Coefp    Occupancy (Ignoring core)
      ---      ----        ----    --------- --------- -----
       71   -0.963875    0.963875  2+22000
        1   -0.131902    0.131902  222+000
       36   -0.117835   -0.117835  22+2000
      822    0.072907   -0.072907  2+02002
      111    0.039096   -0.039096  +22-0+0
      122    0.037136    0.037136  +2-200+
      248    0.036236   -0.036236  2+02200
      320    0.032253    0.032253  0+22200
      813    0.029657   -0.029657  20+20+-
       38   -0.027746    0.027746  2202+00
      177    0.025123   -0.025123  2+20200
      391    0.025004   -0.025004  2+20020
      810   -0.024879   -0.024879  -++2+0-
       76    0.024786    0.024786  2+2-0+0
      809    0.024483   -0.024483  20+2+0-
      192   -0.023465    0.023465  2+-+-0+
      751    0.023423   -0.023423  2+20002
      332   -0.023387    0.023387  ++-2-0+
      421   -0.022914   -0.022914  +22+0-0
      808   -0.022501    0.022501  2+02+0-
       51    0.022285   -0.022285  22+-00+
       78   -0.022067    0.022067  20220+0
      123   -0.021547    0.021547  +-2200+
      262    0.021508    0.021508  2+02-0+
      107    0.021453   -0.021453  +22-+00
      824   -0.021310   -0.021310  -++2002
      894    0.021210    0.021210  0+22002
      323   -0.021039    0.021039  +022-+0
      892    0.021018    0.021018  ++-2002
      318   -0.020935   -0.020935  ++-2200
      807   -0.020314    0.020314  2++-+0-

 State #    3  Energy =     -55.848943398

      Det      Coef        Coefp    Occupancy (Ignoring core)
      ---      ----        ----    --------- --------- -----
       36   -0.958501   -0.958501  22+2000
        1   -0.172238    0.172238  222+000
       71    0.139805   -0.139805  2+22000
      463    0.058412   -0.058412  20+2020
      123    0.032111   -0.032111  +-2200+
      285    0.031796   -0.031796  02+2200
      262   -0.030488   -0.030488  2+02-0+
      472   -0.030438   -0.030438  2+020-+
      823    0.028424   -0.028424  20+2002
      142    0.028203    0.028203  22+0200
      157    0.027858   -0.027858  220+-0+
       16   -0.024749    0.024749  222000+
      249    0.024246   -0.024246  20+2200
      297    0.024032   -0.024032  +202-0+
      121   -0.023722    0.023722  +22-00+
      356    0.022739    0.022739  22+0020
      859    0.021918   -0.021918  02+2002
       55   -0.021053   -0.021053  220-+0+
      288   -0.020983   -0.020983  +-+2-+0
      716    0.020974    0.020974  22+0002

 ---------------------------------------
    -DIABATIC STATES IN PROTOTYPES-     
 ---------------------------------------

     STATE:    1
 Group Ref#    Coefficients
     1    1    0.980527
     2    2    0.000226
     3    3   -0.002139

WEIGHT OF LISTED PROTOTYPES:   96.14%

     STATE:    2
 Group Ref#    Coefficients
     1    1    0.000227
     2    2    0.978150
     3    3    0.001056

WEIGHT OF LISTED PROTOTYPES:   95.68%

     STATE:    3
 Group Ref#    Coefficients
     1    1   -0.002138
     2    2    0.001053
     3    3    0.980666

WEIGHT OF LISTED PROTOTYPES:   96.17%

     DIRECT MAX. DIABATIZATION FINISHED    
 CPU     0: STEP CPU TIME=     0.25 TOTAL CPU TIME=         13.6 (      0.2 MIN)
 TOTAL WALL CLOCK TIME=         13.6 SECONDS, CPU UTILIZATION IS   100.00%

DIABATS FOR SPIN-ORBIT CALCULATION ARE READY

TRANSITION DIPOLES BETWEEN ADIABATS (in A.U.):

STATE PAIR      X         Y         Z
    1    1 -0.216668 -0.093685  0.742707
    2    1  0.018116  0.032227 -0.081225
    2    2 -0.014539 -0.130578  0.270397
    3    1  0.087527 -0.022278  0.055899
    3    2  0.094177 -0.172936  0.001614
    3    3 -0.499443 -0.150659  0.254666


TRANSITION DIPOLES BETWEEN DIABATS (in A.U.):

STATE PAIR      X         Y         Z
    1    1 -0.205279 -0.103950  0.762189
    2    1  0.040010 -0.002907  0.000827
    2    2 -0.532369 -0.096836  0.245656
    3    1 -0.003975 -0.017186  0.003795
    3    2 -0.027181  0.173631 -0.008999
    3    3  0.006998 -0.174136  0.259924

TRANSITION DIPOLES BETWEEN DIRECT MAX. DIABATS (in A.U.):

STATE PAIR      X         Y         Z
    1    1 -0.205279 -0.103950  0.762189
    2    1  0.040010 -0.002907  0.000827
    2    2 -0.532369 -0.096835  0.245656
    3    1 -0.003975 -0.017186  0.003795
    3    2 -0.027181  0.173631 -0.008999
    3    3  0.006998 -0.174137  0.259924
 No $TRANST Group Found.
 Quit without doing spin-orbit coupling
 ..... DONE WITH MP2 ENERGY .....
 CPU     0: STEP CPU TIME=     0.00 TOTAL CPU TIME=         13.6 (      0.2 MIN)
 TOTAL WALL CLOCK TIME=         13.6 SECONDS, CPU UTILIZATION IS    99.93%
            100000000  WORDS OF DYNAMIC MEMORY USED
 EXECUTION OF GAMESS TERMINATED NORMALLY Wed Nov 16 19:06:43 2022
 DDI: 715512 bytes (0.7 MB / 0 MWords) used by master data server.

 ----------------------------------------
 CPU timing information for all processes
 ========================================
 0: 13.294 + 0.300 = 13.595
 ----------------------------------------
Note: The following floating-point exceptions are signalling: IEEE_DENORMAL
 ddikick.x: exited gracefully.
unset echo
----- accounting info -----
Files used on the master node io002 were:
-rw-r--r-- 1 bsonghao nooijen   20709 Nov 16 19:06 /scratch/bsonghao/nh3_diabatization_2d_at_mode_7_8_dist-0.2_-0.4.F05
-rw-r--r-- 1 bsonghao nooijen  363520 Nov 16 19:06 /scratch/bsonghao/nh3_diabatization_2d_at_mode_7_8_dist-0.2_-0.4.F09
-rw-r--r-- 1 bsonghao nooijen 1995920 Nov 16 19:06 /scratch/bsonghao/nh3_diabatization_2d_at_mode_7_8_dist-0.2_-0.4.F10
-rw-r--r-- 1 bsonghao nooijen  131264 Nov 16 19:06 /scratch/bsonghao/nh3_diabatization_2d_at_mode_7_8_dist-0.2_-0.4.F13
-rw-r--r-- 1 bsonghao nooijen  180312 Nov 16 19:06 /scratch/bsonghao/nh3_diabatization_2d_at_mode_7_8_dist-0.2_-0.4.F15
-rw-r--r-- 1 bsonghao nooijen       0 Nov 16 19:06 /scratch/bsonghao/nh3_diabatization_2d_at_mode_7_8_dist-0.2_-0.4.F16
-rw-r--r-- 1 bsonghao nooijen    9808 Nov 16 19:06 /scratch/bsonghao/nh3_diabatization_2d_at_mode_7_8_dist-0.2_-0.4.F70
-rw-r--r-- 1 bsonghao nooijen    9808 Nov 16 19:06 /scratch/bsonghao/nh3_diabatization_2d_at_mode_7_8_dist-0.2_-0.4.F71
-rw-r--r-- 1 bsonghao nooijen   19608 Nov 16 19:06 /scratch/bsonghao/nh3_diabatization_2d_at_mode_7_8_dist-0.2_-0.4.F72
-rw-r--r-- 1 bsonghao nooijen   19608 Nov 16 19:06 /scratch/bsonghao/nh3_diabatization_2d_at_mode_7_8_dist-0.2_-0.4.F73
-rw-r--r-- 1 bsonghao nooijen 1920824 Nov 16 19:06 /scratch/bsonghao/nh3_diabatization_2d_at_mode_7_8_dist-0.2_-0.4.F74
-rw-r--r-- 1 bsonghao nooijen       0 Nov 16 19:06 /scratch/bsonghao/nh3_diabatization_2d_at_mode_7_8_dist-0.2_-0.4.F75
-rw-r--r-- 1 bsonghao nooijen   58848 Nov 16 19:06 /scratch/bsonghao/nh3_diabatization_2d_at_mode_7_8_dist-0.2_-0.4.F76
-rw-r--r-- 1 bsonghao nooijen       0 Nov 16 19:06 /scratch/bsonghao/nh3_diabatization_2d_at_mode_7_8_dist-0.2_-0.4.F77
-rw-r--r-- 1 bsonghao nooijen    1864 Nov 16 19:06 /scratch/bsonghao/nh3_diabatization_2d_at_mode_7_8_dist-0.2_-0.4.F78
-rw-r--r-- 1 bsonghao nooijen   39208 Nov 16 19:06 /scratch/bsonghao/nh3_diabatization_2d_at_mode_7_8_dist-0.2_-0.4.F79
-rw-r--r-- 1 bsonghao nooijen     104 Nov 16 19:06 /scratch/bsonghao/nh3_diabatization_2d_at_mode_7_8_dist-0.2_-0.4.F80
-rw-r--r-- 1 bsonghao nooijen   13472 Nov 16 19:06 /scratch/bsonghao/nh3_diabatization_2d_at_mode_7_8_dist-0.2_-0.4.F81
-rw-r--r-- 1 bsonghao nooijen      16 Nov 16 19:06 /scratch/bsonghao/nh3_diabatization_2d_at_mode_7_8_dist-0.2_-0.4.F82
-rw-r--r-- 1 bsonghao nooijen   19216 Nov 16 19:06 /scratch/bsonghao/nh3_diabatization_2d_at_mode_7_8_dist-0.2_-0.4.F83
-rw-r--r-- 1 bsonghao nooijen   29712 Nov 16 19:06 /scratch/bsonghao/nh3_diabatization_2d_at_mode_7_8_dist-0.2_-0.4.F84
-rw-r--r-- 1 bsonghao nooijen  401576 Nov 16 19:06 /scratch/bsonghao/nh3_diabatization_2d_at_mode_7_8_dist-0.2_-0.4.F85
-rw-r--r-- 1 bsonghao nooijen  903672 Nov 16 19:06 /scratch/bsonghao/nh3_diabatization_2d_at_mode_7_8_dist-0.2_-0.4.F86
-rw-r--r-- 1 bsonghao nooijen     656 Nov 16 19:06 /scratch/bsonghao/nh3_diabatization_2d_at_mode_7_8_dist-0.2_-0.4.F87
-rw-r--r-- 1 bsonghao nooijen   32464 Nov 16 19:06 /scratch/bsonghao/nh3_diabatization_2d_at_mode_7_8_dist-0.2_-0.4.F88
-rw-r--r-- 1 bsonghao nooijen     240 Nov 16 19:06 /scratch/bsonghao/nh3_diabatization_2d_at_mode_7_8_dist-0.2_-0.4.F89
-rw-r--r-- 1 bsonghao nooijen       0 Nov 16 19:06 /scratch/bsonghao/nh3_diabatization_2d_at_mode_7_8_dist-0.2_-0.4.F90
-rw-r--r-- 1 bsonghao nooijen   13760 Nov 16 19:06 /scratch/bsonghao/nh3_diabatization_2d_at_mode_7_8_dist-0.2_-0.4.F91
-rw-r--r-- 1 bsonghao nooijen   22776 Nov 16 19:06 /scratch/bsonghao/nh3_diabatization_2d_at_mode_7_8_dist-0.2_-0.4.F92
-rw-r--r-- 1 bsonghao nooijen   23168 Nov 16 19:06 /scratch/bsonghao/nh3_diabatization_2d_at_mode_7_8_dist-0.2_-0.4.F93
-rw-r--r-- 1 bsonghao nooijen   22776 Nov 16 19:06 /scratch/bsonghao/nh3_diabatization_2d_at_mode_7_8_dist-0.2_-0.4.F94
-rw-r--r-- 1 bsonghao nooijen   13760 Nov 16 19:06 /scratch/bsonghao/nh3_diabatization_2d_at_mode_7_8_dist-0.2_-0.4.F95
-rw-r--r-- 1 bsonghao nooijen   29440 Nov 16 19:06 /scratch/bsonghao/nh3_diabatization_2d_at_mode_7_8_dist-0.2_-0.4.F96
-rw-r--r-- 1 bsonghao nooijen    1184 Nov 16 19:06 /scratch/bsonghao/nh3_diabatization_2d_at_mode_7_8_dist-0.2_-0.4.F97
-rw-r--r-- 1 bsonghao nooijen    9808 Nov 16 19:06 /scratch/bsonghao/nh3_diabatization_2d_at_mode_7_8_dist-0.2_-0.4.F98
-rw-r--r-- 1 bsonghao nooijen   30264 Nov 16 19:06 /scratch/bsonghao/nh3_diabatization_2d_at_mode_7_8_dist-0.2_-0.4.F99
ls: No match.
ls: No match.
ls: No match.
Wed 16 Nov 2022 07:06:46 PM EST
0.291u 0.039s 0:16.97 1.8%	0+0k 48+224io 0pf+0w
