----- GAMESS execution script 'rungms' -----
This job is running on host io002
under operating system Linux at Wed 16 Nov 2022 06:30:12 PM EST
Available scratch disk space (Kbyte units) at beginning of the job is
Filesystem       1K-blocks       Used   Available Use% Mounted on
/dev/sdc1      15378471580 3278917120 11318349060  23% /scratch
GAMESS temporary binary files will be written to /scratch/bsonghao
GAMESS supplementary output files will be written to /home/bsonghao/.gamess_ascii_files/267638
Copying input file nh3_diabatization_2d_at_mode_7_8_dist-0.7_0.3.inp to your run's scratch directory...
cp nh3_diabatization_2d_at_mode_7_8_dist-0.7_0.3.inp /scratch/bsonghao/nh3_diabatization_2d_at_mode_7_8_dist-0.7_0.3.F05
unset echo
/home/bjb2chen/gamess/ddikick.x /home/bjb2chen/gamess/gamess.00.x nh3_diabatization_2d_at_mode_7_8_dist-0.7_0.3 -ddi 1 1 io002 -scr /scratch/bsonghao

 Distributed Data Interface kickoff program.
 Initiating 1 compute processes on 1 nodes to run the following command:
 /home/bjb2chen/gamess/gamess.00.x nh3_diabatization_2d_at_mode_7_8_dist-0.7_0.3 

          ******************************************************
          *         GAMESS VERSION = 02 AUG 2018 (R2)         *
          *             FROM IOWA STATE UNIVERSITY             *
          * M.W.SCHMIDT, K.K.BALDRIDGE, J.A.BOATZ, S.T.ELBERT, *
          *   M.S.GORDON, J.H.JENSEN, S.KOSEKI, N.MATSUNAGA,   *
          *          K.A.NGUYEN, S.J.SU, T.L.WINDUS,           *
          *       TOGETHER WITH M.DUPUIS, J.A.MONTGOMERY       *
          *         J.COMPUT.CHEM.  14, 1347-1363(1993)        *
          **************** 64 BIT LINUX VERSION ****************

  SINCE 1993, STUDENTS AND POSTDOCS WORKING AT IOWA STATE UNIVERSITY
  AND ALSO IN THEIR VARIOUS JOBS AFTER LEAVING ISU HAVE MADE IMPORTANT
  CONTRIBUTIONS TO THE CODE:
     IVANA ADAMOVIC, CHRISTINE AIKENS, YURI ALEXEEV, POOJA ARORA,
     ANDREY ASADCHEV, ROB BELL, PRADIPTA BANDYOPADHYAY, JONATHAN BENTZ,
     BRETT BODE, KURT BRORSEN, CALEB CARLIN, GALINA CHABAN, WEI CHEN,
     CHEOL HO CHOI, PAUL DAY, ALBERT DEFUSCO, NUWAN DESILVA, TIM DUDLEY,
     DMITRI FEDOROV, ALEX FINDLATER, GRAHAM FLETCHER, MARK FREITAG,
     KURT GLAESEMANN, ANASTASIA GUININA,
     DAN KEMP, GRANT MERRILL, NORIYUKI MINEZAWA, JONATHAN MULLIN,
     TAKESHI NAGATA, SEAN NEDD, HEATHER NETZLOFF, BOSILJKA NJEGIC, RYAN OLSON,
     MIKE PAK, BUU PHAM,
     SPENCER PRUITT, LUKE ROSKOP, JIM SHOEMAKER, LYUDMILA SLIPCHENKO,
     TONY SMITH, SAROM SOK LEANG, JIE SONG, TETSUYA TAKETSUGU, SIMON WEBB,
     PENG XU, SOOHAENG YOO, FEDERICO ZAHARIEV

  ADDITIONAL CODE HAS BEEN PROVIDED BY COLLABORATORS IN OTHER GROUPS:
     IOWA STATE UNIVERSITY:
          JOE IVANIC, AARON WEST, LAIMUTIS BYTAUTAS, KLAUS RUEDENBERG
     UNIVERSITY OF TOKYO: KIMIHIKO HIRAO, TAKAHITO NAKAJIMA,
          TAKAO TSUNEDA, MUNEAKI KAMIYA, SUSUMU YANAGISAWA,
          KIYOSHI YAGI, MAHITO CHIBA, SEIKEN TOKURA, NAOAKI KAWAKAMI
     UNIVERSITY OF AARHUS: FRANK JENSEN
     UNIVERSITY OF IOWA: VISVALDAS KAIRYS, HUI LI
     NATIONAL INST. OF STANDARDS AND TECHNOLOGY: WALT STEVENS, DAVID GARMER
     UNIVERSITY OF PISA: BENEDETTA MENNUCCI, JACOPO TOMASI
     UNIVERSITY OF MEMPHIS: HENRY KURTZ, PRAKASHAN KORAMBATH
     UNIVERSITY OF ALBERTA: TOBY ZENG, MARIUSZ KLOBUKOWSKI
     UNIVERSITY OF NEW ENGLAND: MARK SPACKMAN
     MIE UNIVERSITY: HIROAKI UMEDA
     NAT. INST. OF ADVANCED INDUSTRIAL SCIENCE AND TECHNOLOGY: KAZUO KITAURA
     MICHIGAN STATE UNIVERSITY:
          KAROL KOWALSKI, MARTA WLOCH, JEFFREY GOUR, JESSE LUTZ,
          WEI LI, JUN SHEN, J. EMILIANO DEUSTUA, PIOTR PIECUCH
     UNIVERSITY OF MINNESOTA:
          YINAN SHU
     UNIVERSITY OF SILESIA: MONIKA MUSIAL, STANISLAW KUCHARSKI
     FACULTES UNIVERSITAIRES NOTRE-DAME DE LA PAIX:
          OLIVIER QUINET, BENOIT CHAMPAGNE
     UNIVERSITY OF CALIFORNIA - SANTA BARBARA: BERNARD KIRTMAN
     INSTITUTE FOR MOLECULAR SCIENCE:
          KAZUYA ISHIMURA, MICHIO KATOUDA, AND SHIGERU NAGASE
     UNIVERSITY OF NOTRE DAME: ANNA POMOGAEVA, DAN CHIPMAN
     KYUSHU UNIVERSITY:
          HARUYUKI NAKANO,
          FENG LONG GU, JACEK KORCHOWIEC, MARCIN MAKOWSKI, AND YURIKO AOKI,
          HIROTOSHI MORI AND EISAKU MIYOSHI
     PENNSYLVANIA STATE UNIVERSITY:
          TZVETELIN IORDANOV, CHET SWALINA, JONATHAN SKONE,
          SHARON HAMMES-SCHIFFER
     WASEDA UNIVERSITY:
          MASATO KOBAYASHI, TOMOKO AKAMA, TSUGUKI TOUMA,
          TAKESHI YOSHIKAWA, YASUHIRO IKABATA, JUNJI SEINO,
          YUYA NAKAJIMA, HIROMI NAKAI
     NANJING UNIVERSITY: SHUHUA LI
     UNIVERSITY OF NEBRASKA:
          PEIFENG SU, DEJUN SI, NANDUN THELLAMUREGE, YALI WANG, HUI LI
     UNIVERSITY OF ZURICH: ROBERTO PEVERATI, KIM BALDRIDGE
     N. COPERNICUS UNIVERSITY AND JACKSON STATE UNIVERSITY:
          MARIA BARYSZ
     UNIVERSITY OF COPENHAGEN: Jimmy Kromann, CASPER STEINMANN
     TOKYO INSTITUTE OF TECHNOLOGY: HIROYA NAKATA
     NAGOYA UNIVERSITY: YOSHIO NISHIMOTO, STEPHAN IRLE
     MOSCOW STATE UNIVERSITY: VLADIMIR MIRONOV

 EXECUTION OF GAMESS BEGUN Wed Nov 16 18:30:13 2022

            ECHO OF THE FIRST FEW INPUT CARDS -
 INPUT CARD> $system kdiag=3 mwords=100 memddi=1000 parall=.t. $end                         
 INPUT CARD> $contrl runtyp=energy ispher=1 $end                                            
 INPUT CARD> $contrl icut=9 itol=20 inttyp=rysquad qmttol=1.0d-05 nosym=1 $end              
 INPUT CARD> $scf    npunch=2 conv=1.0d-06 dirscf=.t.      $end                             
 INPUT CARD> $contrl scftyp=mcscf  mult=2 maxit=200 icharg=1 mplevl=2 $end                  
 INPUT CARD> $guess  guess=moread norb=29 purify=.t. $end                                   
 INPUT CARD> $basis  gbasis=ccd $end                                                        
 INPUT CARD> $mcscf  cistep=gmcci fullnr=.t. finci=mos                                      
 INPUT CARD>         acurcy=1.d-6 maxit=100 $end                                            
 INPUT CARD> $trans  dirtrf=.t. $end                                                        
 INPUT CARD> $mrmp   mrpt=gmcpt rdvecs=.f. $end                                             
 INPUT CARD> $gmcpt  nmofzc=0 nmodoc=1 nmoact=7 nelact=7 stsym(1)=A                         
 INPUT CARD>         reftyp=ormas nspace=1 mstart(1)=2 mine(1)=7 maxe(1)=7                  
 INPUT CARD>         kstate(1)=1,1,1                                                        
 INPUT CARD>         wstate(1)=1,1,1                                                        
 INPUT CARD>         iwgt=0 thrwgt=-1.0 krot=.f. kszdoe=.f. knospn=.f.                      
 INPUT CARD>         thrde=-1.0 edshft=0.02 $end                                            
 INPUT CARD> $data                                                                          
 INPUT CARD> NH3+ 3 states calculation at NH3 structure.                                    
 INPUT CARD> c1                                                                             
 INPUT CARD>N 7.0 -0.018686754000000003 0.043602321000000006 -0.1693808462                  
 INPUT CARD>H 1.0 -0.5800755740000001 0.8730881368000001 0.0568397511                       
 INPUT CARD>H 1.0 -0.045098360999999976 -0.9681269238000001 0.37689007010000003             
 INPUT CARD>H 1.0 0.884831414 -0.510830202 0.33565334410000003                              
 INPUT CARD>$end                                                                            
 INPUT CARD>--- OPTIMIZED RHF      MO-S --- GENERATED AT Mon Nov 14 16:47:08 2022           
 INPUT CARD>E=      -56.3825050291, E(NUC)=   11.8429239490                                 
 INPUT CARD> $VEC                                                                           
 INPUT CARD> 1  1-1.00134066E+00-2.25158504E-03 3.44925845E-03 0.00000000E+00 0.00000000E+00
 INPUT CARD> 1  2-2.13170927E-03 0.00000000E+00 0.00000000E+00 6.57129898E-04-6.87950443E-05
 INPUT CARD> 1  3-6.87950443E-05 1.37590089E-04 0.00000000E+00 0.00000000E+00 0.00000000E+00
 INPUT CARD> 1  4 3.25502815E-04-4.84772356E-04 3.62525460E-04-6.27912517E-04-3.45956485E-04
 INPUT CARD> 1  5 3.25502815E-04-4.84772356E-04 3.62525460E-04 6.27912517E-04-3.45956485E-04
 INPUT CARD> 1  6 3.25502815E-04-4.84772356E-04-7.25050921E-04 0.00000000E+00-3.45956485E-04
 INPUT CARD> 2  1 1.31286642E-02-4.05911371E-01-2.82090992E-01 0.00000000E+00 0.00000000E+00
 INPUT CARD> 2  2-7.71489043E-02 0.00000000E+00 0.00000000E+00 9.73717494E-03 6.62450916E-04
 INPUT CARD> 2  3 6.62450916E-04-1.32490183E-03 0.00000000E+00 0.00000000E+00 0.00000000E+00
 INPUT CARD> 2  4-1.96090317E-01-1.96656153E-02-1.74855877E-02 3.02859263E-02 8.68214399E-03
 INPUT CARD> 2  5-1.96090317E-01-1.96656153E-02-1.74855877E-02-3.02859263E-02 8.68214399E-03
 INPUT CARD> 2  6-1.96090317E-01-1.96656153E-02 3.49711754E-02 0.00000000E+00 8.68214399E-03
 INPUT CARD> 3  1 0.00000000E+00 0.00000000E+00 0.00000000E+00 4.48608762E-01 0.00000000E+00
 INPUT CARD> 3  2 0.00000000E+00 2.18692520E-01 0.00000000E+00 0.00000000E+00 1.30198027E-02
 INPUT CARD> 3  3-1.30198027E-02 0.00000000E+00 0.00000000E+00 2.71832968E-02 0.00000000E+00
 INPUT CARD> 3  4-1.85332726E-01-7.03958951E-02 8.47929477E-03 1.95242443E-02 8.32835058E-03
 INPUT CARD> 3  5-1.85332726E-01-7.03958951E-02 8.47929477E-03-1.95242443E-02 8.32835058E-03
 INPUT CARD> 3  6 3.70665453E-01 1.40791790E-01-2.53376884E-02 0.00000000E+00-1.66567012E-02
 INPUT CARD> 4  1 0.00000000E+00 0.00000000E+00 0.00000000E+00 0.00000000E+00 4.48608762E-01
 INPUT CARD> 4  2 0.00000000E+00 0.00000000E+00 2.18692520E-01 0.00000000E+00 0.00000000E+00
 INPUT CARD> 4  3 0.00000000E+00 0.00000000E+00-1.50339731E-02 0.00000000E+00 2.71832968E-02
 INPUT CARD> 4  4 3.21005698E-01 1.21929267E-01 1.95242443E-02-1.40653607E-02-1.44251263E-02
  100000000 WORDS OF MEMORY AVAILABLE

     BASIS OPTIONS
     -------------
     GBASIS=CCD          IGAUSS=       0      POLAR=NONE    
     NDFUNC=       0     NFFUNC=       0     DIFFSP=       F
     NPFUNC=       0      DIFFS=       F     BASNAM=        


     RUN TITLE
     ---------
  NH3+ 3 states calculation at NH3 structure.                                    

 THE POINT GROUP OF THE MOLECULE IS C1      
 THE ORDER OF THE PRINCIPAL AXIS IS     0

 ATOM      ATOMIC                      COORDINATES (BOHR)
           CHARGE         X                   Y                   Z
 N           7.0    -0.0353128447        0.0823964391       -0.3200833869
 H           1.0    -1.0961838870        1.6498973417        0.1074115548
 H           1.0    -0.0852235448       -1.8294946073        0.7122189600
 H           1.0     1.6720889178       -0.9653291080        0.6342928472

          INTERNUCLEAR DISTANCES (ANGS.)
          ------------------------------

                1 N          2 H          3 H          4 H     

   1 N       0.0000000    1.0268300 *  1.1500894 *  1.1742232 *
   2 H       1.0268300 *  0.0000000    1.9438893 *  2.0344335 *
   3 H       1.1500894 *  1.9438893 *  0.0000000    1.0371066 *
   4 H       1.1742232 *  2.0344335 *  1.0371066 *  0.0000000  

  * ... LESS THAN  3.000


     ATOMIC BASIS SET
     ----------------
 THE CONTRACTED PRIMITIVE FUNCTIONS HAVE BEEN UNNORMALIZED
 THE CONTRACTED BASIS FUNCTIONS ARE NOW NORMALIZED TO UNITY

  SHELL TYPE  PRIMITIVE        EXPONENT          CONTRACTION COEFFICIENT(S)

 N         

      1   S       1          9046.0000000    0.000699617413
      1   S       2          1357.0000000    0.005386054630
      1   S       3           309.3000000    0.027391021189
      1   S       4            87.7300000    0.103150591982
      1   S       5            28.5600000    0.278570663317
      1   S       6            10.2100000    0.448294849454
      1   S       7             3.8380000    0.278085928395
      1   S       8             0.7466000    0.015431561233

      2   S       9          9046.0000000   -0.000304990096
      2   S      10          1357.0000000   -0.002408026379
      2   S      11           309.3000000   -0.011944448725
      2   S      12            87.7300000   -0.048925992909
      2   S      13            28.5600000   -0.134472724725
      2   S      14            10.2100000   -0.315112577700
      2   S      15             3.8380000   -0.242857832550
      2   S      16             0.7466000    1.094382206854

      3   S      17             0.2248000    1.000000000000

      4   P      18            13.5500000    0.058905676772
      4   P      19             2.9170000    0.320461106714
      4   P      20             0.7973000    0.753042061792

      5   P      21             0.2185000    1.000000000000

      6   D      22             0.8170000    1.000000000000

 H         

      7   S      23            13.0100000    0.033498726390
      7   S      24             1.9620000    0.234800801174
      7   S      25             0.4446000    0.813682957883

      8   S      26             0.1220000    1.000000000000

      9   P      27             0.7270000    1.000000000000

 H         

     10   S      28            13.0100000    0.033498726390
     10   S      29             1.9620000    0.234800801174
     10   S      30             0.4446000    0.813682957883

     11   S      31             0.1220000    1.000000000000

     12   P      32             0.7270000    1.000000000000

 H         

     13   S      33            13.0100000    0.033498726390
     13   S      34             1.9620000    0.234800801174
     13   S      35             0.4446000    0.813682957883

     14   S      36             0.1220000    1.000000000000

     15   P      37             0.7270000    1.000000000000

 TOTAL NUMBER OF BASIS SET SHELLS             =   15
 NUMBER OF CARTESIAN GAUSSIAN BASIS FUNCTIONS =   30
 NOTE: THIS RUN WILL RESTRICT THE MO VARIATION SPACE TO SPHERICAL HARMONICS.
 THE NUMBER OF ORBITALS KEPT IN THE VARIATIONAL SPACE WILL BE PRINTED LATER.
 NUMBER OF ELECTRONS                          =    9
 CHARGE OF MOLECULE                           =    1
 SPIN MULTIPLICITY                            =    2
 NUMBER OF OCCUPIED ORBITALS (ALPHA)          =    5
 NUMBER OF OCCUPIED ORBITALS (BETA )          =    4
 TOTAL NUMBER OF ATOMS                        =    4
 THE NUCLEAR REPULSION ENERGY IS       11.0254925206

     $CONTRL OPTIONS
     ---------------
 SCFTYP=MCSCF        RUNTYP=ENERGY       EXETYP=RUN     
 MPLEVL=       2     CITYP =NONE         CCTYP =NONE         VBTYP =NONE    
 DFTTYP=NONE         TDDFT =NONE    
 MULT  =       2     ICHARG=       1     NZVAR =       0     COORD =UNIQUE  
 PP    =NONE         RELWFN=NONE         LOCAL =NONE         NUMGRD=       F
 ISPHER=       1     NOSYM =       1     MAXIT =     200     UNITS =ANGS    
 PLTORB=       F     MOLPLT=       F     AIMPAC=       F     FRIEND=        
 NPRINT=       7     IREST =       0     GEOM  =INPUT   
 NORMF =       0     NORMP =       0     ITOL  =      20     ICUT  =       9
 INTTYP=RYSQUAD      GRDTYP=BEST         QMTTOL= 1.0E-05

     $SYSTEM OPTIONS
     ---------------
  REPLICATED MEMORY=   100000000 WORDS (ON EVERY NODE).
 DISTRIBUTED MEMDDI=        1000 MILLION WORDS IN AGGREGATE,
 MEMDDI DISTRIBUTED OVER   1 PROCESSORS IS  1000000000 WORDS/PROCESSOR.
 TOTAL MEMORY REQUESTED ON EACH PROCESSOR=  1100000000 WORDS.
 TIMLIM=      525600.00 MINUTES, OR     365.0 DAYS.
 PARALL= T  BALTYP=  DLB     KDIAG=    3  COREFL= F
 MXSEQ2=     300 MXSEQ3=     150  mem10=         0

          ----------------
          PROPERTIES INPUT
          ----------------

     MOMENTS            FIELD           POTENTIAL          DENSITY
 IEMOM =       1   IEFLD =       0   IEPOT =       0   IEDEN =       0
 WHERE =COMASS     WHERE =NUCLEI     WHERE =NUCLEI     WHERE =NUCLEI  
 OUTPUT=BOTH       OUTPUT=BOTH       OUTPUT=BOTH       OUTPUT=BOTH    
 IEMINT=       0   IEFINT=       0                     IEDINT=       0
                                                       MORB  =       0

     -------------------------------
     INTEGRAL TRANSFORMATION OPTIONS
     -------------------------------
     NWORD  =            0
     CUTOFF = 1.0E-09     MPTRAN =       0
     DIRTRF =       T     AOINTS =DUP     

          ----------------------
          MCSCF INPUT PARAMETERS
          ----------------------
 CONVERGER SELECTION: FOCAS = F  SOSCF = F  FULLNR = T  QUD = F  JACOBI = F
 SECULAR EQUATION METHOD CISTEP = GMCCI   
 --- GENERAL INPUT OPTIONS:
 MAXIT =     100  MICIT =       1  ACURCY= 1.000E-06
 DAMP  =   0.000  CANONC=       T  ENGTOL= 1.000E-10
 EKT   =       F  NPUNCH=       2  NWORD =         0
 REGENERATE CI AFTER CONVERGENCE = NONE    
 DIABATIZATION AFTER CONVERGENCE =        F
 --- INPUT FOR FULLNR CONVERGER:
 METHOD=DM2       FORS  =       F  DROPC =       T
 LINSER=       F  FCORE =       F  NORB  =      30

          ----------------------
          INTEGRAL INPUT OPTIONS
          ----------------------
 NOPK  =       1 NORDER=       0 SCHWRZ=       T

 ------------------------------------------
 MULTIREFERENCE PERTURBATION THEORY CONTROL
 ------------------------------------------
 MRPT=GMCPT    READ CONVERGED MCSCF VECTORS= F


     ------------------------------------------
     THE POINT GROUP IS C1 , NAXIS= 1, ORDER= 1
     ------------------------------------------

 -- VARIATIONAL SPACE WILL BE RESTRICTED TO PURE SPHERICAL HARMONICS ONLY --
 AFTER EXCLUDING CONTAMINANT COMBINATIONS FROM THE CARTESIAN GAUSSIAN BASIS
 SET, THE NUMBER OF SPHERICAL HARMONICS KEPT IN THE VARIATION SPACE IS   29

     DIMENSIONS OF THE SYMMETRY SUBSPACES ARE
 A   =   29

 ..... DONE SETTING UP THE RUN .....
 CPU     0: STEP CPU TIME=     0.04 TOTAL CPU TIME=          0.0 (      0.0 MIN)
 TOTAL WALL CLOCK TIME=          0.0 SECONDS, CPU UTILIZATION IS   100.00%

          ********************
          1 ELECTRON INTEGRALS
          ********************
 TIME TO DO   DIPOLE INTEGRALS=      0.00
 ...... END OF ONE-ELECTRON INTEGRALS ......
 CPU     0: STEP CPU TIME=     0.00 TOTAL CPU TIME=          0.0 (      0.0 MIN)
 TOTAL WALL CLOCK TIME=          0.0 SECONDS, CPU UTILIZATION IS   100.00%

          -------------
          GUESS OPTIONS
          -------------
          GUESS =MOREAD            NORB  =      29          NORDER=       0
          MIX   =       F          PRTMO =       F          PUNMO =       F
          TOLZ  = 1.0E-08          TOLE  = 1.0E-05
          SYMDEN=       F          PURIFY=       T

 INITIAL GUESS ORBITALS GENERATED BY MOREAD   ROUTINE.

 STATISTICS FOR GENERATION OF SYMMETRY ORBITAL -Q- MATRIX
 NUMBER OF CARTESIAN ATOMIC ORBITALS=         30
 NUMBER OF SPHERICAL CONTAMINANTS DROPPED=     1
 NUMBER OF LINEARLY DEPENDENT MOS DROPPED=     0
 TOTAL NUMBER OF MOS IN VARIATION SPACE=      29
 ORBITAL PURIFICATION WILL OCCUR

 SYMMETRIES FOR INITIAL GUESS ORBITALS FOLLOW.   BOTH SET(S).
     5 ORBITALS ARE OCCUPIED (    1 CORE ORBITALS).
     1=A        2=A        3=A        4=A        5=A        6=A        7=A   
     8=A        9=A       10=A       11=A       12=A       13=A       14=A   
    15=A       16=A       17=A       18=A       19=A       20=A       21=A   
    22=A       23=A       24=A       25=A       26=A       27=A       28=A   
    29=A   
 ...... END OF INITIAL ORBITAL SELECTION ......
 CPU     0: STEP CPU TIME=     0.01 TOTAL CPU TIME=          0.1 (      0.0 MIN)
 TOTAL WALL CLOCK TIME=          0.1 SECONDS, CPU UTILIZATION IS   100.00%

                    ----------------------
                    AO INTEGRAL TECHNOLOGY
                    ----------------------
     S,P,L SHELL ROTATED AXIS INTEGRALS, REPROGRAMMED BY
        KAZUYA ISHIMURA (IMS) AND JOSE SIERRA (SYNSTAR).
     S,P,D,L SHELL ROTATED AXIS INTEGRALS PROGRAMMED BY
        KAZUYA ISHIMURA (INSTITUTE FOR MOLECULAR SCIENCE).
     S,P,D,F,G SHELL TO TOTAL QUARTET ANGULAR MOMENTUM SUM 5,
        ERIC PROGRAM BY GRAHAM FLETCHER (ELORET AND NASA ADVANCED
        SUPERCOMPUTING DIVISION, AMES RESEARCH CENTER).
     S,P,D,F,G,L SHELL GENERAL RYS QUADRATURE PROGRAMMED BY
        MICHEL DUPUIS (PACIFIC NORTHWEST NATIONAL LABORATORY).

          --------------------
          2 ELECTRON INTEGRALS
          --------------------

 DIRECT SCF METHOD SKIPS INTEGRAL STORAGE ON DISK.
 DIRECT TRANSFORMATION SKIPS AO INTEGRAL STORAGE ON DISK.
  ...... END OF TWO-ELECTRON INTEGRALS .....
 STEP CPU TIME =     0.02 TOTAL CPU TIME =          0.1 (      0.0 MIN)
 TOTAL WALL CLOCK TIME=          0.1 SECONDS, CPU UTILIZATION IS   100.00%
 DDI: Creating Array [0] - 900 x 36 = 32400 words.
 DDI: Creating Array [1] - 21 x 288 = 6048 words.
 DDI: Creating Array [2] - 36 x 36 = 1296 words.
 DDI: Creating Array [3] - 465 x 36 = 16740 words.

          -----------------
          MCSCF CALCULATION
          -----------------

 ----- NUCLEAR ENERGY ----- =        11.0254925206

     -------------------------------------------------
     GMC-PT/GMC-QDPT or general MCSCF input parameters
     -------------------------------------------------
 # of frozen core orbs. =         0 ->         0
 # of doubly occ. orbs. =         1
 # of active      orbs. =         7
 # of virtual     orbs. =        21
 # of active electrons  =         7
 # of states in CI      =         3
 Highest state in CI    =         3
 kstate =  1 1 1
 avecoe =  0.333 0.333 0.333
 State symmetry           = A           
 Assigned symmetry number = 1

 <<<Act. MO sym.: 1111111

 <<<Division of 1-ext.:  0
 <<<Division of 2-ext.:  0

 *** Reference space

 Reference type: ORMAS (= Occupation restricted multiple active space)
 # of orbitals          =  7
 # of minimum electrons =  7
 # of maximum electrons =  7
 State symmetry    =    1 (input)
 2*Sz              =    1 (input)
 Spin multiplicity =    2 (input)
 Dimension of reference space =      1225  (from      3432 walks)

 Dimension of reference space =      1225  (from      1225 walks)

 <<<Ionized spaces for Ref-CI:
      0:         1225 /   -1-0:         1960 /  0-1-0:         2891

 EVALUATING EXCHANGE INTEGRALS FOR DIRECT INTEGRAL TRANSFORMATION
 SCHWARZ INEQUALITY OVERHEAD:       465 INTEGRALS, T=        0.00

     --------------------------------------------
     PARTIAL TWO ELECTRON INTEGRAL TRANSFORMATION
     --------------------------------------------

 NUMBER OF CORE MOLECULAR ORBITALS     =    1
 NUMBER OF OCCUPIED MOLECULAR ORBITALS =    8
 TOTAL NUMBER OF MOLECULAR ORBITALS    =   29
 TOTAL NUMBER OF ATOMIC ORBITALS       =   30
 THRESHOLD FOR KEEPING TRANSFORMED 2E- INTEGRALS = 1.000E-09

 -------------------------------     ------------------------------
 DISTRIBUTED DATA TRANSFORMATION     PROGRAM WRITTEN BY G. FLETCHER
 -------------------------------     ------------------------------

 THE DISTRIBUTED MEMORY REQUIRED FOR THIS STEP IS MEMDDI=         1 MWORDS
 CREATING DISTRIBUTED STORAGE FOR [VIR OCC|VIR OCC] INTEGRALS
 CREATING DISTRIBUTED STORAGE FOR [VIR OCC|OCC OCC] INTEGRALS
 CREATING DISTRIBUTED STORAGE FOR [OCC OCC|OCC OCC] INTEGRALS
 CREATING DISTRIBUTED STORAGE FOR [VIR VIR|OCC OCC] INTEGRALS
 FOR    1 PROCESSORS, THE REPLICATED MEMORY NEEDED IS       73700 WORDS.
 SCHWARZ INEQUALITY OVERHEAD:       465 INTEGRALS, T=        0.00

      DIRECT 4-INDEX TRANSFORMATION 
      SCHWARZ INEQUALITY TEST SKIPPED          0 INTEGRAL BLOCKS
 ----- FROZEN CORE ENERGY =       -47.5841883554
 ... END OF INTEGRAL TRANSFORMATION ...
 CPU     0: STEP CPU TIME=     0.21 TOTAL CPU TIME=          0.3 (      0.0 MIN)
 TOTAL WALL CLOCK TIME=          0.3 SECONDS, CPU UTILIZATION IS    96.55%

     --------------------------------     -----------------------------
     MCHF NEWTON-RAPHSON OPTIMIZATION     CODE WRITTEN BY MICHEL DUPUIS
     --------------------------------     -----------------------------
     PARALLEL VERSION WRITTEN BY G. FLETCHER (ELORET)
     NASA ADVANCED SUPERCOMPUTING DIVISION, AMES RESEARCH CENTER

 NUMBER OF INDEPENDENT ORBITAL ROTATION PARAMETERS =   175
 ..... DONE SOLVING NEWTON-RAPHSON EQUATIONS .....
 CPU     0: STEP CPU TIME=     0.94 TOTAL CPU TIME=          1.2 (      0.0 MIN)
 TOTAL WALL CLOCK TIME=          1.2 SECONDS, CPU UTILIZATION IS    99.19%
 ..... DONE WITH NTN-RPH ORBITAL ROTATIONS ..... 
 CPU     0: STEP CPU TIME=     0.00 TOTAL CPU TIME=          1.2 (      0.0 MIN)
 TOTAL WALL CLOCK TIME=          1.2 SECONDS, CPU UTILIZATION IS    99.19%
 MAXIMUM MEMORY USED BY NTN-RPH CODE WAS     57645 WORDS.

 ITER     TOTAL ENERGY      DEL(E)  LAGRANGIAN ASYMMETRY   SQCDF  MICIT   DAMP
   1      -55.560171424 -0.560171424  0.112447    9    3 9.521E-02  1   0.0000
   2      -55.623370172 -0.063198748  0.020637   12    5 4.586E-01  1   0.0000
   3      -55.660576161 -0.037205989  0.014353   11    6 2.479E-01  1   0.0178
   4      -55.678154649 -0.017578488  0.004970   11    6 5.973E-02  1   0.0066
   5      -55.680956193 -0.002801544  0.000906   12    5 2.041E-03  1   0.0000
   6      -55.681051591 -0.000095398  0.000372   23    5 1.865E-04  1   0.0000
   7      -55.681061970 -0.000010379  0.000183   23    5 3.661E-05  1   0.0000
   8      -55.681064107 -0.000002138  0.000094   23    5 8.992E-06  1   0.0000
   9      -55.681064643 -0.000000535  0.000050   23    5 2.600E-06  1   0.0000
  10      -55.681064798 -0.000000155  0.000028   23    5 8.520E-07  1   0.0000
  11      -55.681064848 -0.000000050  0.000016   23    5 3.016E-07  1   0.0000
  12      -55.681064866 -0.000000018  0.000009   23    5 1.139E-07  1   0.0000
  13      -55.681064873 -0.000000007  0.000005   23    5 4.359E-08  1   0.0000
  14      -55.681064875 -0.000000002  0.000003   23    5 1.695E-08  1   0.0000
  15      -55.681064876 -0.000000001  0.000002   23    5 6.621E-09  1   0.0000
  16      -55.681064876 -0.000000000  0.000001   23    5 2.615E-09  1   0.0000
  17      -55.681064877 -0.000000000  0.000001   23    5 1.023E-09  1   0.0000

          --------------------
          LAGRANGIAN CONVERGED
          --------------------

 FINAL MCSCF ENERGY IS      -55.6810648766 AFTER  17 ITERATIONS

 -MCCI- BASED ON OPTIMIZED ORBITALS
 ----------------------------------

 PLEASE NOTE: IF THE ACTIVE ORBITALS ARE CANONICALIZED BELOW,
 THE FOLLOWING CI EXPANSION COEFFICIENTS AND THE DENSITY DO NOT
 CORRESPOND TO THE PRINTED ORBITALS.  THE PRINTED EXPANSIONS MATCH
 THE ORBITALS USED DURING THE LAST ITERATION.  IF YOU WISH TO SEE
 CI EXPANSIONS BASED ON THE CANONICAL (OR NATURAL) ORBITALS, YOU
 MUST RUN A CI CALCULATION WITH THAT ORBITAL CHOICE READ IN $VEC.

 Averaged energy =     -55.681064877

 State #    1  Energy =     -55.811296345  S =  0.500

      Det      Coef    Occupancy (Ignoring core)
      ---      ----    --------- --------- -----
        1   -0.931075  11110001110000
        5    0.070827  01111001110000
        8    0.135037  10110101110000
       17    0.136285  11010011110000
       36    0.162807  11110001101000
      211   -0.053318  11110000110100
      386   -0.106232  11110001010010
      393   -0.058705  10110101010010
      701   -0.104425  11110001100001
      717   -0.056468  11010011100001

 State #    2  Energy =     -55.741968501  S =  0.500

      Det      Coef    Occupancy (Ignoring core)
      ---      ----    --------- --------- -----
        1   -0.098040  11110001110000
       36   -0.569859  11110001101000
       43    0.069507  10110101101000
       52    0.064619  11010011101000
       71    0.760693  11110001011000
       75   -0.059983  01111001011000
       78   -0.088921  10110101011000
       87   -0.091230  11010011011000
      456   -0.061833  11110001001010
      806   -0.075252  11110001001001

 State #    3  Energy =     -55.489929784  S =  0.500

      Det      Coef    Occupancy (Ignoring core)
      ---      ----    --------- --------- -----
        1   -0.128464  11110001110000
       36   -0.749760  11110001101000
       43    0.065386  10110101101000
       52    0.050611  11010011101000
       71   -0.580472  11110001011000
       87    0.052086  11010011011000
      281   -0.064209  11110000101100
      316   -0.051057  11110000011100
      456   -0.073193  11110001001010
      463   -0.053872  10110101001010
      806    0.069096  11110001001001

 DENSITY MATRIX OVER ACTIVE MO-S

             1           2           3           4           5

    1    1.9720294
    2    0.0010598   1.6251458
    3   -0.0114668  -0.0076921   1.6283929
    4    0.0020263  -0.0015121  -0.0001951   1.6493412
    5    0.1085852  -0.0166163   0.0549308  -0.0416110   0.0415223
    6   -0.0096521  -0.1576286   0.0070355   0.0176062  -0.0024995
    7   -0.0054551   0.0163631   0.1604309   0.0423551   0.0019971

             6           7

    6    0.0416229
    7   -0.0064520   0.0419456

 FORMING THE "STANDARD FOCK OPERATOR" IN DIRECT AO INTEGRAL MODE...
 ONLY THE    1 CORE AND   21 VIRTUAL ORBITALS WILL BE CANONICALIZED

          ----------------------
          MCSCF NATURAL ORBITALS
          ----------------------

                      1          2          3          4          5
                  -15.9865     1.9784     1.6550     1.6479     1.6360
                     A          A          A          A          A   
    1  N  1  S    1.001078   0.008538  -0.007828  -0.005777   0.000684
    2  N  1  S   -0.001881   0.433270  -0.087707  -0.178327   0.008825
    3  N  1  S   -0.006263   0.338693  -0.170139  -0.249327   0.014546
    4  N  1  X   -0.000174   0.002825  -0.177705   0.125050   0.490384
    5  N  1  Y    0.000198  -0.025288   0.320063  -0.245160   0.278981
    6  N  1  Z    0.001205   0.081390   0.437333   0.376249   0.016506
    7  N  1  X   -0.000064   0.003316  -0.067424   0.020192   0.291648
    8  N  1  Y    0.000127  -0.007679   0.138207  -0.052198   0.171861
    9  N  1  Z   -0.000635   0.019732   0.304679   0.232242   0.016616
   10  N  1 XX   -0.000063  -0.001579  -0.008483  -0.008737   0.007062
   11  N  1 YY    0.000305   0.002163  -0.007808  -0.007194  -0.007850
   12  N  1 ZZ   -0.000242  -0.000583   0.016291   0.015931   0.000788
   13  N  1 XY   -0.000432  -0.004930  -0.003644   0.001974  -0.007115
   14  N  1 XZ   -0.000019   0.001390  -0.007025   0.005750   0.021167
   15  N  1 YZ   -0.000016  -0.002879   0.011026  -0.013142   0.012000
   16  H  2  S   -0.002014   0.170276   0.326264  -0.197017  -0.017643
   17  H  2  S    0.000709  -0.002171   0.046505  -0.011280   0.001356
   18  H  2  X   -0.000604   0.017675   0.020927  -0.014084   0.015218
   19  H  2  Y    0.000895  -0.027603  -0.028618   0.018289   0.013756
   20  H  2  Z    0.000319  -0.002308   0.007843   0.020578   0.001109
   21  H  3  S   -0.001441   0.190412  -0.056046   0.281707  -0.249629
   22  H  3  S    0.000272   0.005251   0.010468   0.050238  -0.119000
   23  H  3  X   -0.000089   0.003968  -0.004548   0.017356   0.013335
   24  H  3  Y   -0.000737   0.032007   0.001387   0.026926  -0.020934
   25  H  3  Z    0.000434  -0.012370   0.023762   0.001689   0.015477
   26  H  4  S   -0.001344   0.177421  -0.063819   0.255990   0.263485
   27  H  4  S    0.000272   0.001946   0.009132   0.040589   0.121497
   28  H  4  X    0.000625  -0.027270   0.005242  -0.030912  -0.013893
   29  H  4  Y   -0.000310   0.013451   0.002630   0.001199   0.024674
   30  H  4  Z    0.000392  -0.009451   0.023678   0.004492  -0.011997

                      6          7          8
                    0.0337     0.0307     0.0183
                     A          A          A   
    1  N  1  S   -0.130090  -0.043619  -0.159003
    2  N  1  S   -0.499718  -0.179323  -0.462653
    3  N  1  S   -0.207351  -0.117940   0.047005
    4  N  1  X   -0.410059   0.509117   0.496604
    5  N  1  Y    0.106587   0.520762  -0.692353
    6  N  1  Z   -0.526781  -0.252433  -0.157453
    7  N  1  X   -0.011808  -0.098540   0.064112
    8  N  1  Y    0.114240   0.012199  -0.103718
    9  N  1  Z    0.002058  -0.010791   0.095181
   10  N  1 XX   -0.002848  -0.042732   0.013568
   11  N  1 YY    0.003569   0.041279   0.013850
   12  N  1 ZZ   -0.000721   0.001453  -0.027418
   13  N  1 XY   -0.056425   0.014459  -0.018513
   14  N  1 XZ    0.020979  -0.005618  -0.023968
   15  N  1 YZ   -0.028836  -0.023629   0.025517
   16  H  2  S    0.285393   0.065768   0.854705
   17  H  2  S    0.019489  -0.005749   0.154217
   18  H  2  X    0.023469   0.000674   0.046478
   19  H  2  Y   -0.027567  -0.015190  -0.069462
   20  H  2  Z   -0.001319   0.000310   0.026973
   21  H  3  S    0.186346   0.778099  -0.120282
   22  H  3  S   -0.045093   0.273812  -0.020427
   23  H  3  X    0.044901  -0.001302  -0.027176
   24  H  3  Y    0.014411   0.054670   0.009498
   25  H  3  Z    0.025592  -0.011969  -0.006268
   26  H  4  S    0.685718  -0.343445  -0.208060
   27  H  4  S    0.173922  -0.206934  -0.061523
   28  H  4  X   -0.058339   0.003798   0.015227
   29  H  4  Y    0.012309  -0.048655   0.016768
   30  H  4  Z    0.014345   0.025321  -0.006572

          ------------------------
          MCSCF OPTIMIZED ORBITALS
          ------------------------

                      1          2          3          4          5
                  -15.9865     0.0000     0.0000     0.0000     0.0000
                     A          A          A          A          A   
    1  N  1  S    1.001078  -0.000658   0.009364  -0.016018  -0.008380
    2  N  1  S   -0.001881   0.399666  -0.005366   0.008081  -0.177948
    3  N  1  S   -0.006263   0.326183  -0.020854   0.061563  -0.285464
    4  N  1  X   -0.000174  -0.002789   0.441907   0.101447  -0.023530
    5  N  1  Y    0.000198  -0.003757   0.009321   0.401337   0.048756
    6  N  1  Z    0.001205   0.049801  -0.002265  -0.004300   0.592053
    7  N  1  X   -0.000064   0.003349   0.276121   0.126488  -0.024255
    8  N  1  Y    0.000127   0.002674   0.073311   0.199762   0.065368
    9  N  1  Z   -0.000635   0.022655  -0.020252   0.040767   0.383288
   10  N  1 XX   -0.000063  -0.002375   0.007755   0.008127  -0.010706
   11  N  1 YY    0.000305   0.003164  -0.009773  -0.005372  -0.011544
   12  N  1 ZZ   -0.000242  -0.000789   0.002018  -0.002755   0.022250
   13  N  1 XY   -0.000432  -0.007918  -0.005496  -0.011549  -0.000740
   14  N  1 XZ   -0.000019   0.002183   0.025010   0.003814  -0.001536
   15  N  1 YZ   -0.000016  -0.004073  -0.000813   0.023147   0.001201
   16  H  2  S   -0.002014   0.202470  -0.269786   0.359295   0.111829
   17  H  2  S    0.000709   0.001186  -0.030256   0.046493   0.028965
   18  H  2  X   -0.000604   0.020059  -0.003574   0.032735   0.006407
   19  H  2  Y    0.000895  -0.030538   0.034245  -0.024007  -0.008404
   20  H  2  Z    0.000319  -0.002252   0.004334  -0.005503   0.020280
   21  H  3  S   -0.001441   0.205978  -0.108528  -0.394489   0.119368
   22  H  3  S    0.000272   0.006159  -0.100885  -0.111092   0.033418
   23  H  3  X   -0.000089   0.005838   0.023035  -0.006015   0.007186
   24  H  3  Y   -0.000737   0.033255  -0.010640  -0.030096   0.017308
   25  H  3  Z    0.000434  -0.010744   0.005873   0.022095   0.018489
   26  H  4  S   -0.001344   0.202299   0.405516  -0.017808   0.119955
   27  H  4  S    0.000272   0.007324   0.136390   0.062113   0.036423
   28  H  4  X    0.000625  -0.029660  -0.029232   0.013346  -0.015790
   29  H  4  Y   -0.000310   0.013586   0.022488   0.018842   0.004432
   30  H  4  Z    0.000392  -0.008048  -0.018411   0.002172   0.019061

                      6          7          8          9         10
                    0.0000     0.0000     0.0000     0.1043     0.1939
                     A          A          A          A          A   
    1  N  1  S    0.173400  -0.073087   0.091933  -0.080036   0.033165
    2  N  1  S    0.661150  -0.189815   0.242024  -0.107496   0.036664
    3  N  1  S    0.245138   0.055356  -0.099410   0.982950  -0.485475
    4  N  1  X    0.045285   0.865650   0.064256  -0.012025  -0.088225
    5  N  1  Y   -0.097850  -0.195956   0.889605   0.034981   0.111044
    6  N  1  Z    0.593220  -0.027961  -0.003009  -0.098070   0.031675
    7  N  1  X    0.033202   0.015585  -0.098979   0.099237   0.426914
    8  N  1  Y   -0.074906  -0.107091   0.093484  -0.211515  -0.632620
    9  N  1  Z   -0.029591   0.049908  -0.061233   0.261587  -0.017380
   10  N  1 XX    0.015382  -0.014644  -0.039005  -0.015831  -0.000218
   11  N  1 YY   -0.021883   0.031764   0.018224   0.050665  -0.042585
   12  N  1 ZZ    0.006501  -0.017120   0.020781  -0.034835   0.042803
   13  N  1 XY    0.048991   0.021110   0.027479  -0.070522   0.067462
   14  N  1 XZ   -0.010338  -0.026289   0.011548   0.022913   0.047760
   15  N  1 YZ    0.028507   0.015462  -0.029688  -0.052335  -0.073379
   16  H  2  S   -0.478249   0.453968  -0.548340   0.285297  -0.548249
   17  H  2  S   -0.054155   0.087208  -0.109714  -0.462161   1.943473
   18  H  2  X   -0.031169   0.020465  -0.031203  -0.028459   0.078054
   19  H  2  Y    0.045708  -0.039764   0.038700   0.052471  -0.112524
   20  H  2  Z   -0.006847   0.018984  -0.018661  -0.025989  -0.066766
   21  H  3  S   -0.430886   0.296690   0.581326   0.402085   0.162225
   22  H  3  S   -0.060460   0.162035   0.201646  -0.889433  -0.565085
   23  H  3  X   -0.032814  -0.036766   0.013813   0.064217   0.005261
   24  H  3  Y   -0.035351   0.031936   0.027969  -0.061722  -0.011739
   25  H  3  Z   -0.017099  -0.022613  -0.003722   0.039586   0.056624
   26  H  4  S   -0.425553  -0.613370  -0.156735   0.415970   0.165179
   27  H  4  S   -0.061381  -0.230981  -0.111317  -0.872620  -0.575163
   28  H  4  X    0.046184   0.035658  -0.001835   0.011518   0.010480
   29  H  4  Y    0.003969  -0.021540  -0.045315  -0.078335  -0.017523
   30  H  4  Z   -0.021273   0.002421   0.021771   0.036773   0.062497

                     11         12         13         14         15
                    0.2694     0.5248     0.5723     0.6492     0.8784
                     A          A          A          A          A   
    1  N  1  S    0.003647  -0.114645   0.011826   0.032605  -0.628100
    2  N  1  S    0.009124  -0.137904  -0.007289   0.020693  -1.400967
    3  N  1  S   -0.025009   0.933954  -0.191045  -0.184291   2.419971
    4  N  1  X   -0.041376  -0.022152  -0.577284   0.295448  -0.070072
    5  N  1  Y   -0.009800  -0.244718  -0.387903  -0.302064   0.119742
    6  N  1  Z    0.001986  -0.682097   0.147195   0.294732   0.278849
    7  N  1  X    0.428005  -0.113706   1.119761  -1.113550   0.074697
    8  N  1  Y    0.197056   0.587297   0.859606   1.471493  -0.159853
    9  N  1  Z   -0.021767   0.972493  -0.292253  -0.672692  -0.105622
   10  N  1 XX    0.066261  -0.002720  -0.032672   0.002913   0.032009
   11  N  1 YY   -0.064030  -0.021490   0.037701  -0.024945  -0.039214
   12  N  1 ZZ   -0.002231   0.024210  -0.005028   0.022032   0.007205
   13  N  1 XY   -0.046371   0.012982   0.008238  -0.009763   0.034294
   14  N  1 XZ    0.045176   0.005814  -0.009629   0.041699  -0.020693
   15  N  1 YZ    0.029160  -0.011244  -0.002882  -0.051247   0.007584
   16  H  2  S    0.027013  -0.593191   0.079783  -0.476750  -0.182803
   17  H  2  S   -0.039316  -0.381520  -0.075117  -0.690013  -0.542793
   18  H  2  X   -0.029688  -0.058453   0.075801  -0.117021  -0.092603
   19  H  2  Y   -0.027165   0.079675   0.055048   0.135033   0.064496
   20  H  2  Z    0.000931   0.023664  -0.015328  -0.152738   0.164793
   21  H  3  S   -0.622279  -0.115004   0.471064   0.400044  -0.037018
   22  H  3  S    2.217277   0.072219   0.891358   0.268310  -0.354157
   23  H  3  X    0.095140  -0.074148  -0.031607   0.034142  -0.214988
   24  H  3  Y    0.071548   0.035374   0.080873   0.227761  -0.082506
   25  H  3  Z   -0.017335   0.121027  -0.077610   0.074112   0.145337
   26  H  4  S    0.609690  -0.198139  -0.259150   0.537024  -0.043519
   27  H  4  S   -2.188170  -0.144808  -0.750127   0.427305  -0.367508
   28  H  4  X    0.112275   0.031014  -0.015477  -0.199780   0.202868
   29  H  4  Y    0.040499   0.072044  -0.074301   0.138228   0.133509
   30  H  4  Z    0.005986   0.140482   0.021907   0.086815   0.108752

                     16         17         18         19         20
                    1.0775     1.1295     1.1948     1.3285     1.4630
                     A          A          A          A          A   
    1  N  1  S    0.072480  -0.150058  -0.191601   0.083080  -0.430336
    2  N  1  S    0.128254  -0.308912  -0.394692   0.177537  -0.930744
    3  N  1  S   -0.330820   0.683438   0.861434  -0.303891   1.295778
    4  N  1  X    0.042377   0.143505   0.101061   0.096894  -0.101222
    5  N  1  Y   -0.041361  -0.033983  -0.208431   0.027499   0.179071
    6  N  1  Z   -0.065464   0.004697  -0.010389  -0.002929  -0.104902
    7  N  1  X   -0.345152  -0.647232  -0.516455  -0.177339   0.197836
    8  N  1  Y    0.528300   0.208547   1.134209  -0.046060  -0.555143
    9  N  1  Z    0.243871   0.094433   0.138623  -0.129463   0.689263
   10  N  1 XX    0.180213  -0.179858   0.092992  -0.027848  -0.034282
   11  N  1 YY    0.098531   0.180216  -0.046041  -0.011683   0.061551
   12  N  1 ZZ   -0.278744  -0.000358  -0.046951   0.039530  -0.027269
   13  N  1 XY    0.112563   0.083645  -0.035507  -0.020471  -0.108861
   14  N  1 XZ    0.037194   0.170062  -0.135427  -0.249890   0.043176
   15  N  1 YZ   -0.040256   0.144828  -0.025363  -0.128363  -0.015479
   16  H  2  S   -0.232753  -0.361609  -0.738091   0.037784  -0.124495
   17  H  2  S   -0.101961  -0.252490  -0.434041   0.028800  -0.053429
   18  H  2  X   -0.000485   0.541190  -0.209785   0.341416   0.074840
   19  H  2  Y    0.079736   0.347822  -0.267532   0.217112   0.097555
   20  H  2  Z   -0.295726   0.188176   0.341448   0.080889  -0.704441
   21  H  3  S    0.317706  -0.213040   0.161210  -0.057463  -0.638116
   22  H  3  S    0.039158  -0.095883   0.066542   0.071402  -0.090279
   23  H  3  X   -0.331351   0.129442   0.276914  -0.324943   0.197119
   24  H  3  Y   -0.129910  -0.092329  -0.169829   0.493583   0.192504
   25  H  3  Z   -0.430575  -0.388932  -0.160211   0.407036   0.005576
   26  H  4  S    0.379753   0.214736   0.105968   0.295309  -0.608313
   27  H  4  S    0.048170   0.081972   0.041001  -0.048567   0.039511
   28  H  4  X    0.253742   0.007055  -0.005622   0.275409  -0.262491
   29  H  4  Y    0.196890  -0.202817  -0.434652  -0.390064  -0.157142
   30  H  4  Z   -0.388371   0.187991  -0.469091  -0.337071  -0.314703

                     21         22         23         24         25
                    1.6031     1.7321     1.8798     1.9372     2.1332
                     A          A          A          A          A   
    1  N  1  S   -0.059648  -0.025952   0.100505   0.054744   0.023775
    2  N  1  S   -0.120210   0.067671   0.203837   0.154190   0.028708
    3  N  1  S    0.238322   1.142969   0.138522   0.486650  -0.325899
    4  N  1  X    0.094192   0.102034  -0.318146  -0.103230   0.058991
    5  N  1  Y    0.142606  -0.252634   0.467425   0.156178   0.005573
    6  N  1  Z   -0.009741   0.231162  -0.020710   0.051992  -0.031982
    7  N  1  X    0.525429   0.248708  -0.077398  -0.042417   0.390187
    8  N  1  Y   -0.005035  -0.413447   0.066489   0.220985   0.255813
    9  N  1  Z    0.127112   0.462208  -0.043689   0.331903  -0.165088
   10  N  1 XX   -0.050343   0.151903   0.332976  -0.539070  -0.318986
   11  N  1 YY    0.106997  -0.020364  -0.045518  -0.243860   0.404686
   12  N  1 ZZ   -0.056654  -0.131540  -0.287458   0.782930  -0.085700
   13  N  1 XY    0.095269   0.184994   0.387276  -0.258754   0.153538
   14  N  1 XZ   -0.264209   0.010248   0.124788   0.149007   0.713648
   15  N  1 YZ   -0.154852   0.172085  -0.074956  -0.091955   0.434990
   16  H  2  S    0.082644  -0.011781  -0.000986  -0.184415   0.091529
   17  H  2  S   -0.001412  -0.018975  -0.376802  -0.313620   0.058581
   18  H  2  X   -0.440428  -0.175479  -0.435014  -0.455825  -0.427129
   19  H  2  Y   -0.178414   0.288554   0.738026   0.482971  -0.463299
   20  H  2  Z   -0.158211  -0.517212   0.397149  -0.075702   0.086014
   21  H  3  S   -0.247893  -0.258552  -0.093329   0.003806   0.256015
   22  H  3  S    0.394035  -0.356921   0.128615   0.042663   0.319296
   23  H  3  X   -0.129228   0.161762   0.150792  -0.058900  -0.170784
   24  H  3  Y    0.354111  -0.588743   0.229386  -0.191736   0.518211
   25  H  3  Z   -0.541764   0.446928  -0.023118  -0.284502   0.193207
   26  H  4  S   -0.051397  -0.246492  -0.067079  -0.043014  -0.060486
   27  H  4  S   -0.449561  -0.347628   0.146557  -0.085621  -0.248280
   28  H  4  X    0.159530   0.411663  -0.287937   0.262218   0.246207
   29  H  4  Y   -0.394706  -0.558004  -0.037131  -0.098475  -0.239597
   30  H  4  Z    0.581129   0.249455  -0.194534  -0.270156  -0.165252

                     26         27         28         29
                    2.2047     2.6119     2.7277     2.8841
                     A          A          A          A   
    1  N  1  S   -0.024732   0.152297   0.048197  -0.041837
    2  N  1  S   -0.042549   0.255417   0.008486   0.059547
    3  N  1  S    0.133682  -0.518634  -1.100742   1.828082
    4  N  1  X    0.079495  -0.260637   0.197811  -0.117646
    5  N  1  Y    0.032868   0.356615   0.082265   0.346712
    6  N  1  Z    0.000585  -0.050487  -0.153713   0.207367
    7  N  1  X   -0.176635  -0.807026   0.272991  -0.117671
    8  N  1  Y   -0.121758   1.151239   0.344756   0.452818
    9  N  1  Z    0.050723  -0.264470  -0.251057   0.267778
   10  N  1 XX   -0.201949  -0.239146   0.811049   0.326723
   11  N  1 YY    0.233659   0.227167  -1.126437   0.354140
   12  N  1 ZZ   -0.031710   0.011979   0.315388  -0.680863
   13  N  1 XY    0.165087  -0.033114  -0.032084  -1.278440
   14  N  1 XZ   -0.161363  -0.737833   0.217626   0.158625
   15  N  1 YZ   -0.106142   1.048294   0.531374   0.076263
   16  H  2  S   -0.012476  -0.856707   0.420162  -1.382581
   17  H  2  S   -0.030049  -0.381119   0.111627  -0.404361
   18  H  2  X   -0.017407  -0.454485   0.420821  -0.498020
   19  H  2  Y    0.008305   0.496980  -0.150453   0.950338
   20  H  2  Z   -0.027176  -0.163729  -0.207693   0.417329
   21  H  3  S    0.462633   0.510542   1.135099   0.122714
   22  H  3  S    0.264032   0.167460   0.443362   0.037659
   23  H  3  X    1.205908  -0.066592   0.238280   0.065448
   24  H  3  Y    0.347822   0.300061   0.985341   0.128603
   25  H  3  Z    0.081337  -0.125602  -0.595050   0.022279
   26  H  4  S   -0.548098   0.830681  -0.396433  -0.709183
   27  H  4  S   -0.287984   0.335350  -0.202607  -0.213792
   28  H  4  X    1.006542  -0.539961   0.487804   0.641222
   29  H  4  Y    0.699085   0.396401  -0.112179  -0.224954
   30  H  4  Z   -0.143063  -0.258931   0.137766   0.429493
 .....DONE WITH MCSCF ITERATIONS.....
 CPU     0: STEP CPU TIME=    11.99 TOTAL CPU TIME=         13.2 (      0.2 MIN)
 TOTAL WALL CLOCK TIME=         13.2 SECONDS, CPU UTILIZATION IS   100.00%

     ----------------------------------------------------------------
     PROPERTY VALUES FOR THE MCSCF SELF-CONSISTENT FIELD WAVEFUNCTION
     ----------------------------------------------------------------

          -----------------
          ENERGY COMPONENTS
          -----------------

         WAVEFUNCTION NORMALIZATION =       1.0000000000

                ONE ELECTRON ENERGY =     -93.5331117282
                TWO ELECTRON ENERGY =      26.8265543310
           NUCLEAR REPULSION ENERGY =      11.0254925206
                                      ------------------
                       TOTAL ENERGY =     -55.6810648766

 ELECTRON-ELECTRON POTENTIAL ENERGY =      26.8265543310
  NUCLEUS-ELECTRON POTENTIAL ENERGY =    -149.2096604928
   NUCLEUS-NUCLEUS POTENTIAL ENERGY =      11.0254925206
                                      ------------------
             TOTAL POTENTIAL ENERGY =    -111.3576136412
               TOTAL KINETIC ENERGY =      55.6765487646
                 VIRIAL RATIO (V/T) =       2.0000811134

          ---------------------------------------
          MULLIKEN AND LOWDIN POPULATION ANALYSES
          ---------------------------------------

     ATOMIC MULLIKEN POPULATION IN EACH MOLECULAR ORBITAL

                      1          2          3          4          5

                  2.000000   1.978420   1.654960   1.647934   1.635988

    1             2.000612   1.367251   1.290829   1.021157   1.237688
    2            -0.000322   0.176673   0.318158   0.151894   0.009733
    3            -0.000160   0.231829   0.021150   0.256515   0.178568
    4            -0.000130   0.202666   0.024824   0.218368   0.209999

                      6          7          8

                  0.033734   0.030656   0.018309

    1             0.016725   0.013913   0.009616
    2             0.002134   0.000056   0.008054
    3             0.001245   0.014088   0.000181
    4             0.013630   0.002598   0.000458
 WARNING! MCSCF POPULATIONS SHOWN ABOVE ARE FOR THE NATURAL ORBITALS.
 IGNORE THE ABOVE DATA FOR MCSCF FUNCTIONS WHICH ARE NOT OF -FORS- TYPE.
 THE FOLLOWING POPULATIONS ARE CORRECT FOR ANY MCSCF WAVEFUNCTION.

               ----- POPULATIONS IN EACH AO -----
                             MULLIKEN      LOWDIN
              1  N  1  S      2.00224     1.90351
              2  N  1  S      0.81703     0.58073
              3  N  1  S      0.71321     0.41463
              4  N  1  X      0.73125     0.66839
              5  N  1  Y      0.65655     0.58260
              6  N  1  Z      0.83004     0.78313
              7  N  1  X      0.39583     0.46883
              8  N  1  Y      0.28083     0.40278
              9  N  1  Z      0.51674     0.55498
             10  N  1 XX      0.00034     0.16244
             11  N  1 YY      0.00187     0.17928
             12  N  1 ZZ      0.00256     0.14356
             13  N  1 XY      0.00397     0.00882
             14  N  1 XZ      0.00532     0.00608
             15  N  1 YZ      0.00000     0.01157
             16  H  2  S      0.58575     0.45273
             17  H  2  S      0.02444     0.14601
             18  H  2  X      0.01757     0.03845
             19  H  2  Y      0.02839     0.05363
             20  H  2  Z      0.01023     0.03008
             21  H  3  S      0.58597     0.44016
             22  H  3  S      0.06184     0.15312
             23  H  3  X      0.01231     0.04706
             24  H  3  Y      0.02804     0.04454
             25  H  3  Z      0.01525     0.03203
             26  H  4  S      0.55724     0.41822
             27  H  4  S      0.06177     0.15328
             28  H  4  X      0.02657     0.05538
             29  H  4  Y      0.01356     0.03518
             30  H  4  Z      0.01328     0.02882

          ----- MULLIKEN ATOMIC OVERLAP POPULATIONS -----
          (OFF-DIAGONAL ELEMENTS NEED TO BE MULTIPLIED BY 2)

             1           2           3           4

    1    6.1836782
    2    0.3086913   0.3671959
    3    0.2357218  -0.0045001   0.4747399
    4    0.2296998  -0.0050073  -0.0025466   0.4502683

          TOTAL MULLIKEN AND LOWDIN ATOMIC POPULATIONS
       ATOM         MULL.POP.    CHARGE          LOW.POP.     CHARGE
    1 N             6.957791    0.042209         6.871324    0.128676
    2 H             0.666380    0.333620         0.720897    0.279103
    3 H             0.703415    0.296585         0.716903    0.283097
    4 H             0.672414    0.327586         0.690876    0.309124

          MULLIKEN SPHERICAL HARMONIC POPULATIONS
       ATOM           S       P       D      F      G      H      I    TOTAL
    1 N             3.53    3.41    0.01   0.00   0.00   0.00   0.00    6.96
    2 H             0.61    0.06    0.00   0.00   0.00   0.00   0.00    0.67
    3 H             0.65    0.06    0.00   0.00   0.00   0.00   0.00    0.70
    4 H             0.62    0.05    0.00   0.00   0.00   0.00   0.00    0.67

          ---------------------
          ELECTROSTATIC MOMENTS
          ---------------------

 POINT   1           X           Y           Z (BOHR)    CHARGE
                 0.000002   -0.000005   -0.177185        1.00 (A.U.)
         DX          DY          DZ         /D/  (DEBYE)
     0.357804   -0.845697    2.193245    2.377719
 ...... END OF PROPERTY EVALUATION ......
 CPU     0: STEP CPU TIME=     0.00 TOTAL CPU TIME=         13.2 (      0.2 MIN)
 TOTAL WALL CLOCK TIME=         13.2 SECONDS, CPU UTILIZATION IS    99.92%

     -------------------------------------------------
     GMC-PT/GMC-QDPT or general MCSCF input parameters
     -------------------------------------------------
 # of frozen core orbs. =         0 ->         0
 # of doubly occ. orbs. =         1
 # of active      orbs. =         7
 # of virtual     orbs. =        21
 # of active electrons  =         7
 # of states in CI      =         3
 Highest state in CI    =         3
 kstate =  1 1 1
 avecoe =  0.333 0.333 0.333
 State symmetry           = A           
 Assigned symmetry number = 1

 <<<Act. MO sym.: 1111111

 <<<Division of 1-ext.:  0
 <<<Division of 2-ext.:  0

     ------------------------
     Orbital canonicalization
     ------------------------

 MOs are canonicalized for core, virtual, and invariant-active orbital spaces.
 This is a part of the GMC-QDPT calculation.
 SCHWARZ INEQUALITY OVERHEAD:       465 INTEGRALS, T=        0.00
 DIRECT TRANSFORMATION SKIPS AO INTEGRAL STORAGE ON DISK.

 Averaged energy =     -55.681064877

 State #    1  Energy =     -55.811296345  S =  0.500
 State #    2  Energy =     -55.741968501  S =  0.500
 State #    3  Energy =     -55.489929784  S =  0.500

 Orbital energies for filled orbital space
  -15.986507
 Orbital energies for active orbital space
   -1.492983  -0.766426  -1.025705  -0.733399   0.113018
    0.211508   0.413208
 Orbital energies for external orbital space
    0.104256   0.193888   0.269430   0.524760   0.572271
    0.649195   0.878353   1.077506   1.129471   1.194780
    1.328489   1.462967   1.603110   1.732074   1.879785
    1.937186   2.133150   2.204689   2.611944   2.727671
    2.884133

 Zero values mean non-canonical orbitals.
 ... done with orbital canonicalization ...
 CPU     0: STEP CPU TIME=     0.67 TOTAL CPU TIME=         13.9 (      0.2 MIN)
 TOTAL WALL CLOCK TIME=         13.9 SECONDS, CPU UTILIZATION IS    99.93%

     --------------------------------------------
     PARTIAL TWO ELECTRON INTEGRAL TRANSFORMATION
     --------------------------------------------

 NUMBER OF CORE MOLECULAR ORBITALS     =    0
 NUMBER OF OCCUPIED MOLECULAR ORBITALS =    8
 TOTAL NUMBER OF MOLECULAR ORBITALS    =   29
 TOTAL NUMBER OF ATOMIC ORBITALS       =   30
 THRESHOLD FOR KEEPING TRANSFORMED 2E- INTEGRALS = 1.000E-09
 AO INTEGRALS WILL BE CALCULATED IN DIRECT MODE...
 DIRECT TRANSFORMATION SKIPS AO INTEGRAL STORAGE ON DISK.
 SCHWARZ INEQUALITY OVERHEAD:       465 INTEGRALS, T=        0.00

 PLAN A: REQUIREMENTS FOR FULLY IN-MEMORY TRANSFORMATION:
 # OF WORDS AVAILABLE =            100000000
 # OF WORDS NEEDED    =               221798

 PARALLEL ONLY WORKS WITH THE SEGMENTED ALGORITHM.
 ADJUSTING MEMORY TO USE SEGMENTED ALGORITHM.


 PLAN B: REQUIREMENTS FOR THE SEGMENTED TRANSFORMATION:
       MINIMUM=         124148 WORDS FOR 1 MOLECULAR ORBITAL PER PASS
       MAXIMUM=         221798 WORDS FOR ALL MOLECULAR ORBITALS IN 1 PASS
              (          13950 EXTRA WORDS INCLUDES 1 EXTRA ORBITAL/PASS)
 THIS RUN USES=         221798 WORDS,
 DISTRIBUTING   1 PASSES EACH CONTAINING     8 ORBITALS OVER   1 PROCESSORS.

 CHOOSING SEGMENTED PARTIAL TRANSFORMATION...
 DIRECT TRANSFORMATION SKIPS AO INTEGRAL STORAGE ON DISK.
 PASS #   1 TOOK        0.04 SECONDS.
 TOTAL NUMBER OF TRANSFORMED 2E- INTEGRALS KEPT =        29226
 ... END OF INTEGRAL TRANSFORMATION ...
 CPU     0: STEP CPU TIME=     0.04 TOTAL CPU TIME=         13.9 (      0.2 MIN)
 TOTAL WALL CLOCK TIME=         13.9 SECONDS, CPU UTILIZATION IS    99.93%

     --------     ------------------------------------------
     GMC-QDPT     Program written by H.Nakano (Kyushu Univ.)
     --------     ------------------------------------------

 *** Reference space

 Reference type: ORMAS (= Occupation restricted multiple active space)
 # of orbitals          =  7
 # of minimum electrons =  7
 # of maximum electrons =  7
 State symmetry    =    1 (input)
 2*Sz              =    1 (input)
 Spin multiplicity =    2 (input)
 Dimension of reference space =      1225  (from      3432 walks)

 Dimension of reference space =      1225  (from      1225 walks)

 <<<Ionized spaces for Ref-CI:
      0:         1225 /   -1-0:         1960 /  0-1-0:         2891

 ***                    ***
 *** Reference space CI ***
 ***                    ***

 Converged after   30 iterations

 Reference wavefunctions:

 State #    1  Energy =     -55.811296345  S =  0.500

      Det      Coef    Occupancy (Ignoring core)
      ---      ----    --------- --------- -----
        1    0.969282  11110001110000
       71   -0.102149  11110001011000
      393    0.087351  10110101010010
      717    0.055049  11010011100001

 State #    2  Energy =     -55.741968501  S =  0.500

      Det      Coef    Occupancy (Ignoring core)
      ---      ----    --------- --------- -----
        1   -0.104395  11110001110000
       71   -0.975496  11110001011000
      822    0.055076  11010011001001

 State #    3  Energy =     -55.489929784  S =  0.500

      Det      Coef    Occupancy (Ignoring core)
      ---      ----    --------- --------- -----
       36   -0.970843  11110001101000
       74    0.052145  10111001011000
      113    0.056574  10110100111000
      463   -0.089654  10110101001010

 Davidson method: CPU/Wall time =           0.44 /           0.43 sec.

 Oscillator strength (invalid if E(1)/=E(GS)):
 -----------------------------------------
   State                        f
 -----------------------------------------
     2     F(REF-CI)=        0.0003459621
     3     F(REF-CI)=        0.0063608709
 -----------------------------------------

 Dipole moment matrix elements, x, y, z, in A.U.

 Dimension of ionized spaces for PT:
 (N-2) space:         1715 /  (N-1) space:         2842 /  N space:         2891
 (N+1) space:         2842 /  (N+2) space:         1715

 <<<Ionized spaces for internal:
         0:         1225 /      -1-0:         1960 /     0-1-0:         2891
  -1-0-1-0:         2842 / 0-1-0-1-0:         3381

 Diagonal elements of averaged one-particle density matrix:
       2       3       4       5       6       7       8
  0.9922  0.9825  0.9864  0.9903  0.0195  0.0184  0.0107
  0.9861  0.6543  0.6638  0.6615  0.0141  0.0125  0.0077

 Orbital energies:
 -------- Doubly-occupied orbitals (highest several orbs.) -------
             1
 -1.598651D+01
 -------- Active orbitals ----------------------------------------
             2            3            4            5            6
 -1.492983D+00-7.664264D-01-1.025705D+00-7.333991D-01 1.130182D-01
             7            8
  2.115077D-01 4.132080D-01
 -------- External orbitals (lowest several orbs.) ---------------
             9           10           11           12           13
  1.042555D-01 1.938878D-01 2.694296D-01 5.247601D-01 5.722709D-01
            14           15           16           17           18
  6.491950D-01 8.783533D-01 1.077506D+00 1.129471D+00 1.194780D+00

 *** Quasi-degeneracy checking

 === Det (|Ci| > 1.0D-01 and dE < 5.0D-03)

 # of small denominators (single excitations)
 State       dEmin  dE < 5.0D-03  dE < 5.0D-04  dE < 5.0D-05  dE < 5.0D-06
 ----- ----------- ------------- ------------- ------------- -------------
     1    5.00D-03             0             0             0             0
     2    5.00D-03             0             0             0             0
     3    5.00D-03             0             0             0             0

 # of small denominators (double excitations)
 State       dEmin  dE < 5.0D-03  dE < 5.0D-04  dE < 5.0D-05  dE < 5.0D-06
 ----- ----------- ------------- ------------- ------------- -------------
     1    5.00D-03             0             0             0             0
     2    5.00D-03             0             0             0             0
     3    5.00D-03             0             0             0             0

 *** Zeroth-Order Setup (Granovsky's zeroth-order vectors)
 Zeroth-order effective Hamiltonian
  (= Sum_i e(i)*<I|a+(i)a(i)|J> ):
                   1            2            3
     1 -7.194286D+00
     2  5.821017D-03-7.183602D+00
     3  1.102737D-03-1.793151D-03-6.904153D+00

 Zeroth-order vectors:
 State #    1
       MC st            1           2           3
       Coeff    9.153D-01  -4.028D-01  -5.916D-03
 State #    2
       MC st            2           1           3
       Coeff    9.153D-01   4.028D-01   4.323D-03
 State #    3
       MC st            3           2           1
       Coeff    1.000D+00  -6.340D-03   3.673D-03

 *** GMC-QDPT computation

 (Integral reading:  CPU/Wall time =           0.01 /           0.00 sec.)

 One-external:
   0 -ionized terms: CPU/Wall time =           0.03 /           0.03 sec.
 (-1)-ionized terms: CPU/Wall time =           0.08 /           0.09 sec.
 (+1)-ionized terms: CPU/Wall time =           0.03 /           0.02 sec.
 (+1)-ionized terms: CPU/Wall time =           0.00 /           0.00 sec.
 (+2)-ionized terms: CPU/Wall time =           0.01 /           0.01 sec.

 Internal:
 # of macro loops for internal contribution =         1 (input)
 Loop:    1
 Dimension of internal CISD space     =         0  (after screening)
 Space construction: CPU/Wall time =           0.01 /           0.01 sec.
 Internal terms:     CPU/Wall time =           0.00 /           0.00 sec.

 Two-external:
   0 -ionized terms: CPU/Wall time =           0.06 /           0.07 sec.
 (-1)-ionized terms: CPU/Wall time =           1.00 /           0.99 sec.
 (-2)-ionized terms: CPU/Wall time =           0.17 /           0.18 sec.

 Total time:         CPU/Wall time =           1.39 /           1.40 sec.

 ***                  ***
 *** GMC-QDPT Results ***
 ***                  ***

 Diagonal elements of effective Hamiltonian:
 Heff(  1) =   -55.90095783
 Heff(  2) =   -55.85844306
 Heff(  3) =   -55.60160672

 Off-diagonal elements of effective Hamiltonian:
                   1            2
     2 -2.266592D-02
     3 -2.208146D-03 6.955690D-04

 ******** GMC-QDPT energies ********
 ----------------------------------------------------------------------------
   State                        1st order                           2nd order
 ----------------------------------------------------------------------------
     1     E(REF-CI)=      -55.8112963449   E(GMC-QDPT2)=      -55.9107847855
     2     E(REF-CI)=      -55.7419685005   E(GMC-QDPT2)=      -55.8486353166
     3     E(REF-CI)=      -55.4899297843   E(GMC-QDPT2)=      -55.6015875174
 ----------------------------------------------------------------------------

 Excitation energies (invalid if E(1)/=E(GS)):
 ----------------------------------------------------------------------------
   State                        1st order                           2nd order
 ----------------------------------------------------------------------------

     TZ Sorted GMC-PT ENERGIES:
         1      -55.9107847855
         2      -55.8486353166
         3      -55.6015875174
     2     E(REF-CI)=        1.8865077 eV   E(GMC-QDPT2)=        1.6911741 eV
     3     E(REF-CI)=        8.7448340 eV   E(GMC-QDPT2)=        8.4136905 eV
 ----------------------------------------------------------------------------

 Main characters of perturbed GMC-QDPT states:

 State #    1  Energy =     -55.910784786  S =  0.500

      Det      Coef    Occupancy (Ignoring core)
      ---      ----    --------- --------- -----
        1    0.969873  11110001110000
       71   -0.096250  11110001011000
      393    0.087365  10110101010010
      717    0.055041  11010011100001

 State #    2  Energy =     -55.848635317  S =  0.500

      Det      Coef    Occupancy (Ignoring core)
      ---      ----    --------- --------- -----
        1   -0.098532  11110001110000
       71   -0.976096  11110001011000
      822    0.055109  11010011001001

 State #    3  Energy =     -55.601587517  S =  0.500

      Det      Coef    Occupancy (Ignoring core)
      ---      ----    --------- --------- -----
       36   -0.970820  11110001101000
       74    0.052173  10111001011000
      113    0.056614  10110100111000
      463   -0.089651  10110101001010

 <<<Max |V/de| = 3.076D-02  Thresh = 1.000D+00

 Oscillator strength (invalid if E(1)/=E(GS)):
 ----------------------------------------------------------------------------
   State                        1st order                           2nd order
 ----------------------------------------------------------------------------
     2     F(REF-CI)=        0.0003459621     F(GMC-PT2)=        0.0003212968
     3     F(REF-CI)=        0.0063608709     F(GMC-PT2)=        0.0061860061
 ----------------------------------------------------------------------------

 Dipole moment matrix elements, x, y, z, in A.U.
States    1    1        0.1769021645       -0.3537178974        0.7034258757
States    1    2       -0.0506903663       -0.0460327631        0.0553722541
States    1    3        0.0834481188       -0.1274548972       -0.0824721632
States    2    1       -0.0506903663       -0.0460327631        0.0553722541
States    2    2        0.0416443391       -0.2497501845        0.2868720605
States    2    3       -0.0749750863       -0.0439378922       -0.0018775289
States    3    1        0.0834481188       -0.1274548972       -0.0824721632
States    3    2       -0.0749750863       -0.0439378922       -0.0018775289
States    3    3        0.3015507962       -0.5972391428        0.2330452289

 Oscillator strength (valid only when positive): 
 ----------------------------------------------------------------------------
  States                        1st order                           2nd order
 ----------------------------------------------------------------------------
  1  1     F(REF-CI)=        0.0000000000     F(GMC-PT2)=        0.0000000000
  1  2     F(REF-CI)=       -0.0003459621     F(GMC-PT2)=       -0.0003212968
  1  3     F(REF-CI)=       -0.0063608709     F(GMC-PT2)=       -0.0061860061
  2  1     F(REF-CI)=        0.0003459621     F(GMC-PT2)=        0.0003212968
  2  2     F(REF-CI)=        0.0000000000     F(GMC-PT2)=        0.0000000000
  2  3     F(REF-CI)=       -0.0012746881     F(GMC-PT2)=       -0.0012443513
  3  1     F(REF-CI)=        0.0063608709     F(GMC-PT2)=        0.0061860061
  3  2     F(REF-CI)=        0.0012746881     F(GMC-PT2)=        0.0012443513
  3  3     F(REF-CI)=        0.0000000000     F(GMC-PT2)=        0.0000000000
 CPU     0: STEP CPU TIME=     1.90 TOTAL CPU TIME=         15.8 (      0.3 MIN)
 TOTAL WALL CLOCK TIME=         15.8 SECONDS, CPU UTILIZATION IS    99.94%

     !!! DIABATIZATION FOR REF CI STATES !!!

 *******************************************************
          $DMO GROUP FOUND IN THE INPUT.
        DIABATIZATION OF ADIABATIC STATES BEGINS.
     PROGRAMMED BY TAO ZENG (CARLETON UNIVERSITY).
               Email: toby.zeng@carleton.ca
     See T. Zeng, J. Chem. Phys. 2017, 146, 144103
 *******************************************************

 *************************************************************************
     STEP 1: TRANSFORMATION OF ADIABATIC STATES TO THE DMO REPRESENTATION
         See Atchity and Ruedenberg, J. Chem. Phys. 1999, 111, 2910
 *************************************************************************

Read in Diabatic Molecualr Orbitals:

                      1          2          3          4          5

    1  N  1  S    0.008609   0.000000   0.000000  -0.013219   0.279491
    2  N  1  S    0.442914  -0.000000   0.000000  -0.184329   0.867803
    3  N  1  S    0.276913   0.000000  -0.000000  -0.288315   0.144236
    4  N  1  X   -0.000000   0.493155  -0.024636  -0.000000  -0.000000
    5  N  1  Y    0.000000   0.024636   0.493155  -0.000000   0.000000
    6  N  1  Z    0.090197   0.000000   0.000000   0.593421   0.705309
    7  N  1  X   -0.000000   0.210628  -0.010522   0.000000   0.000000
    8  N  1  Y    0.000000   0.010522   0.210628  -0.000000  -0.000000
    9  N  1  Z   -0.004381   0.000000   0.000000   0.381592  -0.106092
   10  N  1 XX   -0.000457   0.010719  -0.000535  -0.012387   0.006153
   11  N  1 YY   -0.000457  -0.010719   0.000535  -0.012387   0.006153
   12  N  1 ZZ    0.000914  -0.000000   0.000000   0.024773  -0.012306
   13  N  1 XY    0.000000  -0.000618  -0.012377  -0.000000   0.000000
   14  N  1 XZ   -0.000000   0.026529  -0.001325  -0.000000   0.000000
   15  N  1 YZ    0.000000   0.001325   0.026529  -0.000000   0.000000
   16  H  2  S    0.194462  -0.176074   0.343485   0.112865  -0.523343
   17  H  2  S    0.003574  -0.023812   0.046452   0.024014  -0.054445
   18  H  2  X    0.018760   0.009101   0.022834   0.009336  -0.039151
   19  H  2  Y   -0.032493   0.022287  -0.020044  -0.016171   0.067811
   20  H  2  Z   -0.009251   0.008464  -0.016511   0.018769  -0.010566
   21  H  3  S    0.194462  -0.209430  -0.324227   0.112865  -0.523343
   22  H  3  S    0.003574  -0.028322  -0.043847   0.024014  -0.054445
   23  H  3  X    0.018760   0.006781  -0.023627   0.009336  -0.039151
   24  H  3  Y    0.032493  -0.024174  -0.017723   0.016171  -0.067811
   25  H  3  Z   -0.009251   0.010067   0.015585   0.018769  -0.010566
   26  H  4  S    0.194462   0.385503  -0.019258   0.112865  -0.523343
   27  H  4  S    0.003574   0.052134  -0.002604   0.024014  -0.054445
   28  H  4  X   -0.037519  -0.032295   0.001613  -0.018672   0.078302
   29  H  4  Y    0.000000   0.001067   0.021353  -0.000000   0.000000
   30  H  4  Z   -0.009251  -0.018530   0.000926   0.018769  -0.010566

                      6          7

    1  N  1  S    0.000000  -0.000000
    2  N  1  S    0.000000  -0.000000
    3  N  1  S   -0.000000   0.000000
    4  N  1  X   -0.930415  -0.002083
    5  N  1  Y   -0.002083   0.930415
    6  N  1  Z   -0.000000   0.000000
    7  N  1  X   -0.046866  -0.000105
    8  N  1  Y   -0.000105   0.046866
    9  N  1  Z   -0.000000   0.000000
   10  N  1 XX    0.001538   0.000003
   11  N  1 YY   -0.001538  -0.000003
   12  N  1 ZZ   -0.000000   0.000000
   13  N  1 XY   -0.000004   0.001776
   14  N  1 XZ    0.039985   0.000090
   15  N  1 YZ    0.000090  -0.039985
   16  H  2  S   -0.362630  -0.631354
   17  H  2  S   -0.065964  -0.114846
   18  H  2  X    0.002763  -0.037520
   19  H  2  Y    0.037435   0.040736
   20  H  2  Z    0.001882   0.003276
   21  H  3  S   -0.365454   0.629724
   22  H  3  S   -0.066477   0.114549
   23  H  3  X    0.002595   0.037532
   24  H  3  Y   -0.037617   0.040567
   25  H  3  Z    0.001896  -0.003268
   26  H  4  S    0.728084   0.001630
   27  H  4  S    0.132441   0.000297
   28  H  4  X   -0.062317  -0.000140
   29  H  4  Y    0.000055  -0.024345
   30  H  4  Z   -0.003778  -0.000008

NUMBER OF SUB ACTIVE SPACES:   1
ROTATE ACTIVE MOS TO DMOS IN EACH SUB-SPACE

SPACE  1:

OVERLAP BETWEEN ORTHONORMAL AND PRE-ORTHONORMAL REF. DMOS

             1           2           3           4           5

    1    0.9765431   0.0019684  -0.0188243  -0.0088159  -0.0063930
    2    0.0019684   0.8970067  -0.0853808   0.0125836  -0.0337776
    3   -0.0188243  -0.0853808   1.0046288  -0.0398563   0.0815752
    4   -0.0088159   0.0125836  -0.0398563   0.9926617  -0.0100453
    5   -0.0063930  -0.0337776   0.0815752  -0.0100453   1.1713706
    6   -0.0012809  -0.0695924  -0.0745219   0.0282143  -0.0570503
    7   -0.0008325   0.0852468  -0.0223364   0.0590107  -0.0716700

             6           7

    1   -0.0012809  -0.0008325
    2   -0.0695924   0.0852468
    3   -0.0745219  -0.0223364
    4    0.0282143   0.0590107
    5   -0.0570503  -0.0716700
    6    1.0428493  -0.0040201
    7   -0.0040201   1.0469963
REFERENCE DMOS AFTER ORTHONORMALIZATION:

                      1          2          3          4          5

    1  N  1  S    0.009950   0.006980  -0.018039  -0.012933   0.241629
    2  N  1  S    0.455878   0.022622  -0.053161  -0.181243   0.751927
    3  N  1  S    0.281528   0.005610  -0.014298  -0.289184   0.125548
    4  N  1  X   -0.003041   0.481551  -0.045911   0.019228  -0.027892
    5  N  1  Y    0.010508  -0.005469   0.510574  -0.033962   0.021267
    6  N  1  Z    0.101397   0.012968  -0.021305   0.603015   0.610909
    7  N  1  X   -0.000382   0.235173   0.006628  -0.000742   0.003760
    8  N  1  Y    0.004134   0.028681   0.215484   0.005005  -0.010481
    9  N  1  Z   -0.001230  -0.005430   0.020576   0.386401  -0.091221
   10  N  1 XX   -0.000571   0.012541  -0.000220  -0.012683   0.005667
   11  N  1 YY   -0.000552  -0.012055  -0.001482  -0.012407   0.004934
   12  N  1 ZZ    0.001123  -0.000486   0.001703   0.025090  -0.010601
   13  N  1 XY   -0.000238  -0.002086  -0.012629  -0.000546   0.000869
   14  N  1 XZ    0.000072   0.033483   0.004270  -0.001266   0.002525
   15  N  1 YZ    0.000474   0.007673   0.026803   0.003185  -0.003881
   16  H  2  S    0.203102  -0.155409   0.340918   0.173785  -0.528969
   17  H  2  S    0.004271  -0.019499   0.043459   0.034238  -0.059912
   18  H  2  X    0.019545   0.015144   0.027222   0.012376  -0.036946
   19  H  2  Y   -0.033398   0.024789  -0.020583  -0.020727   0.064219
   20  H  2  Z   -0.009656   0.007490  -0.014604   0.018014  -0.007628
   21  H  3  S    0.191422  -0.371069  -0.331801   0.079458  -0.417062
   22  H  3  S    0.002751  -0.053872  -0.047083   0.018206  -0.041493
   23  H  3  X    0.018719   0.001261  -0.019681   0.006520  -0.029868
   24  H  3  Y    0.032747  -0.037870  -0.017393   0.014837  -0.057333
   25  H  3  Z   -0.009040   0.013072   0.018131   0.019539  -0.009989
   26  H  4  S    0.199407   0.485150   0.114130   0.093396  -0.408107
   27  H  4  S    0.003934   0.068813   0.016821   0.020427  -0.039645
   28  H  4  X   -0.038393  -0.039832  -0.012594  -0.017290   0.063810
   29  H  4  Y    0.000390   0.005482   0.021631   0.002127  -0.002687
   30  H  4  Z   -0.009329  -0.021751   0.000001   0.019177  -0.009835

                      6          7

    1  N  1  S    0.012821   0.016373
    2  N  1  S    0.044538   0.059244
    3  N  1  S    0.014485   0.024411
    4  N  1  X   -0.865568  -0.048496
    5  N  1  Y    0.039701   0.903520
    6  N  1  Z    0.016598   0.006465
    7  N  1  X   -0.028620  -0.018918
    8  N  1  Y    0.016686   0.046092
    9  N  1  Z   -0.014443  -0.027198
   10  N  1 XX    0.002949   0.000091
   11  N  1 YY   -0.001773   0.001976
   12  N  1 ZZ   -0.001176  -0.002067
   13  N  1 XY   -0.000977   0.001683
   14  N  1 XZ    0.041046  -0.002148
   15  N  1 YZ    0.002066  -0.038680
   16  H  2  S   -0.369559  -0.630350
   17  H  2  S   -0.066085  -0.113457
   18  H  2  X    0.003121  -0.039687
   19  H  2  Y    0.040275   0.042142
   20  H  2  Z    0.000347   0.000664
   21  H  3  S   -0.421367   0.590098
   22  H  3  S   -0.073046   0.108644
   23  H  3  X   -0.000494   0.032925
   24  H  3  Y   -0.043198   0.036558
   25  H  3  Z    0.002879  -0.005580
   26  H  4  S    0.713838  -0.065810
   27  H  4  S    0.130045  -0.008323
   28  H  4  X   -0.059372   0.007925
   29  H  4  Y    0.001669  -0.023534
   30  H  4  Z   -0.006143  -0.000022

 -------------------------------------------
       MAXIMIZING MORMO OVERLAP TERM        
 -------------------------------------------
   SWEEP    VALUE       PROGRESS
     0     5.29506
     1     6.91496     1.61990296
     2     6.94255     0.02758077
     3     6.94255     0.00000343
     4     6.94255     0.00000000
     5     6.94255     0.00000000
 THE ROTATION IS DONE
ACTIVE ORBITALS AFTER MORMO:

                      1          2          3          4          5

    1  N  1  S    0.008517   0.005380  -0.021994  -0.012262   0.183518
    2  N  1  S    0.431844   0.006412  -0.043383  -0.189186   0.672966
    3  N  1  S    0.333080   0.017580   0.001367  -0.274594   0.222636
    4  N  1  X   -0.008452   0.432086  -0.068604   0.016017  -0.033599
    5  N  1  Y    0.011452  -0.028781   0.487940  -0.038966   0.036192
    6  N  1  Z    0.086535   0.015749  -0.038964   0.604977   0.574643
    7  N  1  X    0.004128   0.304028   0.067412  -0.016109   0.019233
    8  N  1  Y    0.005659   0.090863   0.213592   0.045427  -0.043681
    9  N  1  Z    0.026843  -0.014705   0.054689   0.385077  -0.041239
   10  N  1 XX   -0.001958   0.014476   0.003390  -0.008318   0.013363
   11  N  1 YY    0.001838  -0.013794  -0.004249  -0.011933  -0.022410
   12  N  1 ZZ    0.000121  -0.000683   0.000860   0.020251   0.009047
   13  N  1 XY   -0.005706  -0.008410  -0.016247   0.000204   0.048765
   14  N  1 XZ    0.001899   0.023697   0.004815  -0.003636  -0.008064
   15  N  1 YZ   -0.002626   0.007494   0.015644   0.004018   0.026412
   16  H  2  S    0.181669  -0.172532   0.354211   0.136523  -0.524045
   17  H  2  S   -0.001546  -0.013708   0.039443   0.036726  -0.065284
   18  H  2  X    0.018897   0.003641   0.031219   0.007066  -0.033237
   19  H  2  Y   -0.028507   0.027911  -0.026157  -0.009746   0.049533
   20  H  2  Z   -0.002767   0.004518  -0.007670   0.022436  -0.010932
   21  H  3  S    0.182832  -0.263354  -0.308629   0.089060  -0.437075
   22  H  3  S    0.002850  -0.145658  -0.088468   0.027340  -0.059619
   23  H  3  X    0.004527   0.018837  -0.000175   0.004017  -0.030252
   24  H  3  Y    0.031242  -0.020876  -0.025068   0.016164  -0.038934
   25  H  3  Z   -0.010685   0.008979   0.025955   0.016575  -0.013439
   26  H  4  S    0.183727   0.398740   0.030669   0.093373  -0.419204
   27  H  4  S    0.006046   0.156109   0.066852   0.031257  -0.054597
   28  H  4  X   -0.027474  -0.024328   0.007728  -0.013085   0.046939
   29  H  4  Y    0.013776   0.030718   0.013657   0.006146   0.001233
   30  H  4  Z   -0.008379  -0.021518   0.009667   0.016719  -0.017880

                      6          7

    1  N  1  S    0.048714   0.086537
    2  N  1  S    0.103249   0.188336
    3  N  1  S   -0.068420  -0.155712
    4  N  1  X   -0.876645  -0.017220
    5  N  1  Y    0.011786   0.872300
    6  N  1  Z    0.014044  -0.008286
    7  N  1  X   -0.019293  -0.077380
    8  N  1  Y    0.072806   0.110437
    9  N  1  Z   -0.029748  -0.042589
   10  N  1 XX    0.018342  -0.037547
   11  N  1 YY   -0.032428   0.013403
   12  N  1 ZZ    0.014086   0.024145
   13  N  1 XY   -0.026398   0.019635
   14  N  1 XZ    0.023724   0.018684
   15  N  1 YZ   -0.014562  -0.035411
   16  H  2  S   -0.365199  -0.613185
   17  H  2  S   -0.068921  -0.119939
   18  H  2  X   -0.016835  -0.033298
   19  H  2  Y    0.032374   0.045254
   20  H  2  Z   -0.014004  -0.017749
   21  H  3  S   -0.309639   0.585513
   22  H  3  S   -0.172609   0.176349
   23  H  3  X    0.036270   0.025487
   24  H  3  Y   -0.029730   0.027841
   25  H  3  Z    0.021718   0.001432
   26  H  4  S    0.650123   0.034024
   27  H  4  S    0.239865  -0.054615
   28  H  4  X   -0.038828  -0.016761
   29  H  4  Y    0.025815  -0.039655
   30  H  4  Z   -0.004085   0.021485

Actually Used Diabatic Molecualr Orbitals:

                      1          2          3          4          5

    1  N  1  S    0.008517   0.005380  -0.021994  -0.012262   0.183518
    2  N  1  S    0.431844   0.006412  -0.043383  -0.189186   0.672966
    3  N  1  S    0.333080   0.017580   0.001367  -0.274594   0.222636
    4  N  1  X   -0.008452   0.432086  -0.068604   0.016017  -0.033599
    5  N  1  Y    0.011452  -0.028781   0.487940  -0.038966   0.036192
    6  N  1  Z    0.086535   0.015749  -0.038964   0.604977   0.574643
    7  N  1  X    0.004128   0.304028   0.067412  -0.016109   0.019233
    8  N  1  Y    0.005659   0.090863   0.213592   0.045427  -0.043681
    9  N  1  Z    0.026843  -0.014705   0.054689   0.385077  -0.041239
   10  N  1 XX   -0.001958   0.014476   0.003390  -0.008318   0.013363
   11  N  1 YY    0.001838  -0.013794  -0.004249  -0.011933  -0.022410
   12  N  1 ZZ    0.000121  -0.000683   0.000860   0.020251   0.009047
[...]
     - ROTATION TO DIABATIC STATES -    
 ---------------------------------------
 ROWS=ADIABATIC, COLUMNS=DIABATIC STATES

             1           2           3

    1   -0.9749483   0.0069121   0.2223241
    2   -0.1196353  -0.8589271  -0.4979274
    3    0.1875185  -0.5120513   0.8382364

 ---------------------------------------
          - DIABATIC STATES -           
 ---------------------------------------

 State #    1  Energy =     -55.899022903

      Det      Coef        Coefp    Occupancy (Ignoring core)
      ---      ----        ----    --------- --------- -----
        1    0.910362   -0.910362  222+000
        8   -0.148658    0.148658  2-2+0+0
        3    0.127376    0.127376  22-++00
      141   -0.121989   -0.121989  22++-00
      386    0.118901   -0.118901  2+2+0-0
       18    0.113601   -0.113601  2-2+00+
      736   -0.107361    0.107361  2+2+00-
        7   -0.092705   -0.092705  22-+0+0
      351    0.088891    0.088891  22++0-0
       16    0.082329   -0.082329  222000+
      717   -0.067217   -0.067217  220+002
      393   -0.063963   -0.063963  202+020
        4   -0.043534    0.043534  2-2++00
      176    0.041422   -0.041422  2+2+-00
      708    0.040236   -0.040236  2-++0+-
      215   -0.039847   -0.039847  022+200
       13   -0.037795   -0.037795  2--+++0
      402    0.037450   -0.037450  2+-+0-+
      218    0.035846   -0.035846  +-2+-+0
      390    0.034942   -0.034942  -+2++-0
      705   -0.034560   -0.034560  -2+++0-
      227   -0.034358   -0.034358  +2-+-0+
       17    0.033137    0.033137  22-+00+
        6    0.032917   -0.032917  22200+0
      561   -0.032600   -0.032600  2+++--0
     1051   -0.032396   -0.032396  2+++0--
      212    0.031794    0.031794  +220200
      179   -0.031275   -0.031275  202+200
      387   -0.030098    0.030098  2+20+-0
       76    0.029757    0.029757  2+2-0+0
      148    0.029551    0.029551  2-++-+0
       29   -0.029110   -0.029110  2--+0++
      738   -0.028764   -0.028764  2+-++0-
       27    0.028474   -0.028474  2-200++
      158   -0.027920   -0.027920  2-++-0+
      388    0.027447    0.027447  2+-++-0
      113   -0.027405    0.027405  +-220+0
      773    0.025972   -0.025972  +2-++0-
      424   -0.025567   -0.025567  +-2++-0
       23    0.025278    0.025278  2--++0+
      184   -0.025081   -0.025081  -+2+-+0
      702    0.024965    0.024965  22+0+0-
      122    0.024019    0.024019  +2-200+
      159    0.023926   -0.023926  -2++-0+
       51   -0.023074    0.023074  22+-00+
      911    0.022580    0.022580  2+++-0-
      147    0.022011   -0.022011  220+-+0
      353   -0.021760   -0.021760  220++-0
      389    0.021347    0.021347  202++-0
       11    0.021178   -0.021178  2-20++0
      183   -0.021037    0.021037  202+-+0
       20   -0.020231   -0.020231  22-0+0+
      401   -0.020124   -0.020124  2+200-+

 State #    2  Energy =     -55.783863209

      Det      Coef        Coefp    Occupancy (Ignoring core)
      ---      ----        ----    --------- --------- -----
       71   -0.912264    0.912264  2+22000
      246   -0.137934   -0.137934  2++2-00
       73    0.129242   -0.129242  2+-2+00
       88   -0.109839    0.109839  202200+
       77   -0.106305    0.106305  2+-20+0
       78    0.104672   -0.104672  20220+0
      456    0.104279    0.104279  2++20-0
      736   -0.101456    0.101456  2+2+00-
       86    0.097928    0.097928  2+2-00+
       74    0.074052   -0.074052  2022+00
      822    0.067563   -0.067563  2+02002
       76    0.064597    0.064597  2+2-0+0
       72   -0.058651   -0.058651  2+2-+00
      386   -0.048767    0.048767  2+2+0-0
      813    0.045969   -0.045969  20+20+-
       36    0.045810    0.045810  22+2000
       99   -0.042222    0.042222  20-20++
      176    0.041158   -0.041158  2+2+-00
      320    0.040491    0.040491  0+22200
       83   -0.038390    0.038390  20-2++0
      183   -0.038226    0.038226  202+-+0
      323   -0.036374    0.036374  +022-+0
      810   -0.035537   -0.035537  -++2+0-
      177    0.034962   -0.034962  2+20200
      180   -0.034894    0.034894  -+2+200
      317    0.034581   -0.034581  ++2-200
       81    0.034451    0.034451  202-++0
      111    0.033615   -0.033615  +22-0+0
      332   -0.032694    0.032694  ++-2-0+
       97    0.032035    0.032035  202-0++
      263   -0.029485   -0.029485  20+2-0+
      253    0.028376    0.028376  20+2-+0
      113    0.027911   -0.027911  +-220+0
      807   -0.027804    0.027804  2++-+0-
      192   -0.026711    0.026711  2+-+-0+
      252   -0.026520   -0.026520  2+02-+0
      526   -0.025967   -0.025967  ++220-0
      878    0.025536    0.025536  ++-2+0-
      743   -0.025293   -0.025293  202+0+-
       90    0.024583    0.024583  2+--+0+
       93    0.024471   -0.024471  20-2+0+
      264    0.024190   -0.024190  -++2-0+
      529    0.023513    0.023513  +022+-0
      911    0.023405    0.023405  2+++-0-
      742    0.022987    0.022987  2+-+0+-
      108    0.022591    0.022591  +2-2+00
      391    0.022227   -0.022227  2+20020
      753    0.021726    0.021726  202+002
      458    0.021212   -0.021212  2+02+-0
       89    0.020049    0.020049  -+2200+

 State #    3  Energy =     -55.678121508

      Det      Coef        Coefp    Occupancy (Ignoring core)
      ---      ----        ----    --------- --------- -----
       36   -0.912621   -0.912621  22+2000
       38   -0.125630    0.125630  2202+00
       53   -0.121636   -0.121636  2-+200+
      806    0.117636    0.117636  2++200-
       43    0.111366    0.111366  2-+20+0
      456   -0.109917   -0.109917  2++20-0
       51    0.104119   -0.104119  22+-00+
      701   -0.095265   -0.095265  22++00-
       42    0.087996   -0.087996  22020+0
      463    0.070007   -0.070007  20+2020
       37   -0.056144    0.056144  22+-+00
      246   -0.055116   -0.055116  2++2-00
      106   -0.053560   -0.053560  +222000
       73    0.046083   -0.046083  2+-2+00
      472   -0.045746   -0.045746  2+020-+
       71   -0.042267    0.042267  2+22000
       64    0.042108   -0.042108  2-020++
      285    0.040746   -0.040746  02+2200
      460   -0.038239   -0.038239  -++2+-0
      457   -0.038194    0.038194  2++-+-0
      288   -0.037582   -0.037582  +-+2-+0
      121   -0.037506    0.037506  +22-00+
      282    0.037160    0.037160  +2+-200
      249    0.037067   -0.037067  20+2200
      148   -0.035783   -0.035783  2-++-+0
      145   -0.035606   -0.035606  -2++200
      142    0.034756    0.034756  22+0200
      297    0.034551   -0.034551  +202-0+
      112   -0.033187   -0.033187  +2-20+0
      141    0.033033    0.033033  22++-00
      351   -0.032702   -0.032702  22++0-0
      123    0.029832   -0.029832  +-2200+
      808    0.028202   -0.028202  2+02+0-
      113   -0.028026    0.028026  +-220+0
       46    0.027692   -0.027692  2-+-++0
       48    0.027574   -0.027574  2-02++0
      254    0.026813   -0.026813  -++2-+0
      494    0.026782   -0.026782  +-+2+-0
       62    0.026625   -0.026625  2-+-0++
      157    0.026426   -0.026426  220+-0+
       86    0.025354    0.025354  2+2-00+
      253    0.024890    0.024890  20+2-+0
     1051    0.024865    0.024865  2+++0--
       55   -0.024156   -0.024156  220-+0+
       44    0.023902   -0.023902  -2+20+0
      561    0.023833    0.023833  2+++--0
      109    0.023499   -0.023499  +-22+00
       16   -0.023279    0.023279  222000+
       58   -0.023228    0.023228  2-02+0+
        3    0.023112    0.023112  22-++00
      718    0.023052   -0.023052  2-++002
      821   -0.021905    0.021905  2++-002
       41    0.021672   -0.021672  22+-0+0
      843   -0.021637   -0.021637  +202+0-
      458   -0.021269    0.021269  2+02+-0
       52    0.021015   -0.021015  220200+
       19    0.020578    0.020578  -22+00+
      876   -0.020439   -0.020439  ++2200-
       78    0.020046   -0.020046  20220+0

 ---------------------------------------
      - DIABATIC STATES IN CMO -        
 ---------------------------------------

 State #    1  Energy =     -55.899022903

      Det      Coef        Coefp    Occupancy (Ignoring core)
      ---      ----        ----    --------- --------- -----
        1    0.936152   -0.936152  222+000
       71   -0.210195    0.210195  2+22000
       36   -0.169823   -0.169823  22+2000
      393   -0.085482   -0.085482  202+020
      717   -0.056899   -0.056899  220+002
      106   -0.040659   -0.040659  +222000
      215   -0.039120   -0.039120  022+200
      388    0.038400    0.038400  2+-++-0
      143   -0.036718   -0.036718  220+200
       17    0.035265    0.035265  22-+00+
      390    0.034936   -0.034936  -+2++-0
        2    0.034443   -0.034443  2220+00
        8   -0.032561    0.032561  2-2+0+0
      179   -0.032415   -0.032415  202+200
      218    0.032063   -0.032063  +-2+-+0
      387   -0.031057    0.031057  2+20+-0
      113   -0.030992    0.030992  +-220+0
       76    0.030835    0.030835  2+2-0+0
      402    0.030749   -0.030749  2+-+0-+
      148    0.028225    0.028225  2-++-+0
      708    0.027937   -0.027937  2-++0+-
      212    0.027188    0.027188  +220200
      108   -0.025040   -0.025040  +2-2+00
      705   -0.024579   -0.024579  -2+++0-
       74   -0.024079    0.024079  2022+00
       13   -0.023881   -0.023881  2--+++0
      716    0.023307    0.023307  22+0002
      424   -0.023054   -0.023054  +-2++-0
      787    0.022681   -0.022681  +2-+002
      227   -0.022405   -0.022405  +2-+-0+
        3   -0.022220   -0.022220  22-++00
      719   -0.021877   -0.021877  -2++002
      561   -0.021870   -0.021870  2+++--0
      184   -0.021698   -0.021698  -+2+-+0
       11    0.021063   -0.021063  2-20++0
      357   -0.020685   -0.020685  220+020
      213   -0.020669    0.020669  +2-+200
       51   -0.020469    0.020469  22+-00+
      122    0.020082    0.020082  +2-200+

 State #    2  Energy =     -55.783863209

      Det      Coef        Coefp    Occupancy (Ignoring core)
      ---      ----        ----    --------- --------- -----
       71   -0.838875    0.838875  2+22000
       36    0.494583    0.494583  22+2000
        1   -0.097791    0.097791  222+000
      463   -0.058810    0.058810  20+2020
      822    0.043420   -0.043420  2+02002
      177    0.039104   -0.039104  2+20200
      248    0.035835   -0.035835  2+02200
      320    0.033629    0.033629  0+22200
      253    0.033429    0.033429  20+2-+0
      183   -0.029280    0.029280  202+-+0
      323   -0.029168    0.029168  +022-+0
      462    0.029052   -0.029052  2+02020
       83   -0.027877    0.027877  20-2++0
       78    0.026589   -0.026589  20220+0
      112   -0.026108   -0.026108  +2-20+0
      108    0.025965    0.025965  +2-2+00
      813    0.025374   -0.025374  20+20+-
      121    0.025257   -0.025257  +22-00+
       81    0.024478    0.024478  202-++0
      317    0.023785   -0.023785  ++2-200
      180   -0.023401    0.023401  -+2+200
        3   -0.022504   -0.022504  22-++00
      285   -0.021947    0.021947  02+2200
      751    0.021792   -0.021792  2+20002
      113    0.020862   -0.020862  +-220+0
      460    0.020708    0.020708  -++2+-0
      142   -0.020568   -0.020568  22+0200
      458    0.020471   -0.020471  2+02+-0
      111    0.020449   -0.020449  +22-0+0

 State #    3  Energy =     -55.678121508

      Det      Coef        Coefp    Occupancy (Ignoring core)
      ---      ----        ----    --------- --------- -----
       36   -0.818054   -0.818054  22+2000
       71   -0.462752    0.462752  2+22000
        1   -0.254119    0.254119  222+000
      463    0.067772   -0.067772  20+2020
      113   -0.047863    0.047863  +-220+0
       74   -0.047540    0.047540  2022+00
      142    0.040619    0.040619  22+0200
      107    0.036198   -0.036198  +22-+00
      148   -0.035363   -0.035363  2-++-+0
      285    0.035154   -0.035154  02+2200
      822    0.032560   -0.032560  2+02002
      108   -0.031366   -0.031366  +2-2+00
      249    0.030388   -0.030388  20+2200
      458   -0.029942    0.029942  2+02+-0
      121   -0.029718    0.029718  +22-00+
      145   -0.029036   -0.029036  -2++200
      460   -0.028182   -0.028182  -++2+-0
      288   -0.028174   -0.028174  +-+2-+0
        3    0.028057    0.028057  22-++00
      248    0.027401   -0.027401  2+02200
      457   -0.026484    0.026484  2++-+-0
      143    0.025559    0.025559  220+200
       79    0.025337    0.025337  -+220+0
        6    0.023681   -0.023681  22200+0
        8    0.023570   -0.023570  2-2+0+0
      472   -0.023509   -0.023509  2+020-+
      253    0.023449    0.023449  20+2-+0
      282    0.023330    0.023330  +2+-200
      561    0.023114    0.023114  2+++--0
      526    0.022525    0.022525  ++220-0
       76   -0.022202   -0.022202  2+2-0+0
        5   -0.022177   -0.022177  -22++00
       52    0.022049   -0.022049  220200+
       48    0.020649   -0.020649  2-02++0

 ---------------------------------------
    -DIABATIC STATES IN PROTOTYPES-     
 ---------------------------------------

     STATE:    1
 Group Ref#    Coefficients
     1    1    0.930544
     2    2   -0.004218
     3    3    0.003467

WEIGHT OF LISTED PROTOTYPES:   86.59%

     STATE:    2
 Group Ref#    Coefficients
     1    1   -0.004224
     2    2    0.929194
     3    3    0.001695

WEIGHT OF LISTED PROTOTYPES:   86.34%

     STATE:    3
 Group Ref#    Coefficients
     1    1    0.003475
     2    2    0.001697
     3    3    0.928381

WEIGHT OF LISTED PROTOTYPES:   86.19%

     DIRECT MAX. DIABATIZATION FINISHED    
 CPU     0: STEP CPU TIME=     0.25 TOTAL CPU TIME=         16.1 (      0.3 MIN)
 TOTAL WALL CLOCK TIME=         16.1 SECONDS, CPU UTILIZATION IS    99.94%

DIABATS FOR SPIN-ORBIT CALCULATION ARE READY

TRANSITION DIPOLES BETWEEN ADIABATS (in A.U.):

STATE PAIR      X         Y         Z
    1    1  0.176902 -0.353718  0.703426
    2    1 -0.050690 -0.046033  0.055372
    2    2  0.041644 -0.249750  0.286872
    3    1  0.083448 -0.127455 -0.082472
    3    2 -0.074975 -0.043938 -0.001878
    3    3  0.301551 -0.597239  0.233045


TRANSITION DIPOLES BETWEEN DIABATS (in A.U.):

STATE PAIR      X         Y         Z
    1    1  0.140376 -0.322956  0.724080
    2    1 -0.019024 -0.063851  0.007595
    2    2  0.043858 -0.378066  0.271054
    3    1 -0.061922  0.054148 -0.009020
    3    2 -0.075646  0.192142  0.022763
    3    3  0.335863 -0.499685  0.228209

TRANSITION DIPOLES BETWEEN DIRECT MAX. DIABATS (in A.U.):

STATE PAIR      X         Y         Z
    1    1  0.140376 -0.322957  0.724080
    2    1 -0.019024 -0.063852  0.007593
    2    2  0.043858 -0.378066  0.271054
    3    1 -0.061923  0.054149 -0.009018
    3    2 -0.075646  0.192141  0.022763
    3    3  0.335863 -0.499684  0.228209
 No $TRANST Group Found.
 Quit without doing spin-orbit coupling
 ..... DONE WITH MP2 ENERGY .....
 CPU     0: STEP CPU TIME=     0.00 TOTAL CPU TIME=         16.1 (      0.3 MIN)
 TOTAL WALL CLOCK TIME=         16.1 SECONDS, CPU UTILIZATION IS    99.94%
            100000000  WORDS OF DYNAMIC MEMORY USED
 EXECUTION OF GAMESS TERMINATED NORMALLY Wed Nov 16 18:30:29 2022
 DDI: 715512 bytes (0.7 MB / 0 MWords) used by master data server.

 ----------------------------------------
 CPU timing information for all processes
 ========================================
 0: 15.756 + 0.328 = 16.84
 ----------------------------------------
Note: The following floating-point exceptions are signalling: IEEE_DENORMAL
 ddikick.x: exited gracefully.
unset echo
----- accounting info -----
Files used on the master node io002 were:
-rw-r--r-- 1 bsonghao nooijen   20740 Nov 16 18:30 /scratch/bsonghao/nh3_diabatization_2d_at_mode_7_8_dist-0.7_0.3.F05
-rw-r--r-- 1 bsonghao nooijen  363520 Nov 16 18:30 /scratch/bsonghao/nh3_diabatization_2d_at_mode_7_8_dist-0.7_0.3.F09
-rw-r--r-- 1 bsonghao nooijen 1995920 Nov 16 18:30 /scratch/bsonghao/nh3_diabatization_2d_at_mode_7_8_dist-0.7_0.3.F10
-rw-r--r-- 1 bsonghao nooijen  131264 Nov 16 18:30 /scratch/bsonghao/nh3_diabatization_2d_at_mode_7_8_dist-0.7_0.3.F13
-rw-r--r-- 1 bsonghao nooijen  180312 Nov 16 18:30 /scratch/bsonghao/nh3_diabatization_2d_at_mode_7_8_dist-0.7_0.3.F15
-rw-r--r-- 1 bsonghao nooijen       0 Nov 16 18:30 /scratch/bsonghao/nh3_diabatization_2d_at_mode_7_8_dist-0.7_0.3.F16
-rw-r--r-- 1 bsonghao nooijen    9808 Nov 16 18:30 /scratch/bsonghao/nh3_diabatization_2d_at_mode_7_8_dist-0.7_0.3.F70
-rw-r--r-- 1 bsonghao nooijen    9808 Nov 16 18:30 /scratch/bsonghao/nh3_diabatization_2d_at_mode_7_8_dist-0.7_0.3.F71
-rw-r--r-- 1 bsonghao nooijen   19608 Nov 16 18:30 /scratch/bsonghao/nh3_diabatization_2d_at_mode_7_8_dist-0.7_0.3.F72
-rw-r--r-- 1 bsonghao nooijen   19608 Nov 16 18:30 /scratch/bsonghao/nh3_diabatization_2d_at_mode_7_8_dist-0.7_0.3.F73
-rw-r--r-- 1 bsonghao nooijen 1920824 Nov 16 18:30 /scratch/bsonghao/nh3_diabatization_2d_at_mode_7_8_dist-0.7_0.3.F74
-rw-r--r-- 1 bsonghao nooijen       0 Nov 16 18:30 /scratch/bsonghao/nh3_diabatization_2d_at_mode_7_8_dist-0.7_0.3.F75
-rw-r--r-- 1 bsonghao nooijen   58848 Nov 16 18:30 /scratch/bsonghao/nh3_diabatization_2d_at_mode_7_8_dist-0.7_0.3.F76
-rw-r--r-- 1 bsonghao nooijen       0 Nov 16 18:30 /scratch/bsonghao/nh3_diabatization_2d_at_mode_7_8_dist-0.7_0.3.F77
-rw-r--r-- 1 bsonghao nooijen    1864 Nov 16 18:30 /scratch/bsonghao/nh3_diabatization_2d_at_mode_7_8_dist-0.7_0.3.F78
-rw-r--r-- 1 bsonghao nooijen   39208 Nov 16 18:30 /scratch/bsonghao/nh3_diabatization_2d_at_mode_7_8_dist-0.7_0.3.F79
-rw-r--r-- 1 bsonghao nooijen     104 Nov 16 18:30 /scratch/bsonghao/nh3_diabatization_2d_at_mode_7_8_dist-0.7_0.3.F80
-rw-r--r-- 1 bsonghao nooijen   13472 Nov 16 18:30 /scratch/bsonghao/nh3_diabatization_2d_at_mode_7_8_dist-0.7_0.3.F81
-rw-r--r-- 1 bsonghao nooijen      16 Nov 16 18:30 /scratch/bsonghao/nh3_diabatization_2d_at_mode_7_8_dist-0.7_0.3.F82
-rw-r--r-- 1 bsonghao nooijen   19216 Nov 16 18:30 /scratch/bsonghao/nh3_diabatization_2d_at_mode_7_8_dist-0.7_0.3.F83
-rw-r--r-- 1 bsonghao nooijen   29712 Nov 16 18:30 /scratch/bsonghao/nh3_diabatization_2d_at_mode_7_8_dist-0.7_0.3.F84
-rw-r--r-- 1 bsonghao nooijen  401576 Nov 16 18:30 /scratch/bsonghao/nh3_diabatization_2d_at_mode_7_8_dist-0.7_0.3.F85
-rw-r--r-- 1 bsonghao nooijen  903672 Nov 16 18:30 /scratch/bsonghao/nh3_diabatization_2d_at_mode_7_8_dist-0.7_0.3.F86
-rw-r--r-- 1 bsonghao nooijen     656 Nov 16 18:30 /scratch/bsonghao/nh3_diabatization_2d_at_mode_7_8_dist-0.7_0.3.F87
-rw-r--r-- 1 bsonghao nooijen   34960 Nov 16 18:30 /scratch/bsonghao/nh3_diabatization_2d_at_mode_7_8_dist-0.7_0.3.F88
-rw-r--r-- 1 bsonghao nooijen     240 Nov 16 18:30 /scratch/bsonghao/nh3_diabatization_2d_at_mode_7_8_dist-0.7_0.3.F89
-rw-r--r-- 1 bsonghao nooijen       0 Nov 16 18:30 /scratch/bsonghao/nh3_diabatization_2d_at_mode_7_8_dist-0.7_0.3.F90
-rw-r--r-- 1 bsonghao nooijen   13760 Nov 16 18:30 /scratch/bsonghao/nh3_diabatization_2d_at_mode_7_8_dist-0.7_0.3.F91
-rw-r--r-- 1 bsonghao nooijen   22776 Nov 16 18:30 /scratch/bsonghao/nh3_diabatization_2d_at_mode_7_8_dist-0.7_0.3.F92
-rw-r--r-- 1 bsonghao nooijen   23168 Nov 16 18:30 /scratch/bsonghao/nh3_diabatization_2d_at_mode_7_8_dist-0.7_0.3.F93
-rw-r--r-- 1 bsonghao nooijen   22776 Nov 16 18:30 /scratch/bsonghao/nh3_diabatization_2d_at_mode_7_8_dist-0.7_0.3.F94
-rw-r--r-- 1 bsonghao nooijen   13760 Nov 16 18:30 /scratch/bsonghao/nh3_diabatization_2d_at_mode_7_8_dist-0.7_0.3.F95
-rw-r--r-- 1 bsonghao nooijen   29440 Nov 16 18:30 /scratch/bsonghao/nh3_diabatization_2d_at_mode_7_8_dist-0.7_0.3.F96
-rw-r--r-- 1 bsonghao nooijen    1184 Nov 16 18:30 /scratch/bsonghao/nh3_diabatization_2d_at_mode_7_8_dist-0.7_0.3.F97
-rw-r--r-- 1 bsonghao nooijen    9808 Nov 16 18:30 /scratch/bsonghao/nh3_diabatization_2d_at_mode_7_8_dist-0.7_0.3.F98
-rw-r--r-- 1 bsonghao nooijen   30264 Nov 16 18:30 /scratch/bsonghao/nh3_diabatization_2d_at_mode_7_8_dist-0.7_0.3.F99
ls: No match.
ls: No match.
ls: No match.
Wed 16 Nov 2022 06:30:32 PM EST
0.297u 0.039s 0:19.47 1.6%	0+0k 48+224io 0pf+0w
