----- GAMESS execution script 'rungms' -----
This job is running on host io002
under operating system Linux at Wed 16 Nov 2022 06:18:01 PM EST
Available scratch disk space (Kbyte units) at beginning of the job is
Filesystem       1K-blocks       Used   Available Use% Mounted on
/dev/sdc1      15378471580 3278917120 11318349060  23% /scratch
GAMESS temporary binary files will be written to /scratch/bsonghao
GAMESS supplementary output files will be written to /home/bsonghao/.gamess_ascii_files/267638
Copying input file nh3_diabatization_2d_at_mode_7_8_dist-0.8_-0.5.inp to your run's scratch directory...
cp nh3_diabatization_2d_at_mode_7_8_dist-0.8_-0.5.inp /scratch/bsonghao/nh3_diabatization_2d_at_mode_7_8_dist-0.8_-0.5.F05
unset echo
/home/bjb2chen/gamess/ddikick.x /home/bjb2chen/gamess/gamess.00.x nh3_diabatization_2d_at_mode_7_8_dist-0.8_-0.5 -ddi 1 1 io002 -scr /scratch/bsonghao

 Distributed Data Interface kickoff program.
 Initiating 1 compute processes on 1 nodes to run the following command:
 /home/bjb2chen/gamess/gamess.00.x nh3_diabatization_2d_at_mode_7_8_dist-0.8_-0.5 

          ******************************************************
          *         GAMESS VERSION = 02 AUG 2018 (R2)         *
          *             FROM IOWA STATE UNIVERSITY             *
          * M.W.SCHMIDT, K.K.BALDRIDGE, J.A.BOATZ, S.T.ELBERT, *
          *   M.S.GORDON, J.H.JENSEN, S.KOSEKI, N.MATSUNAGA,   *
          *          K.A.NGUYEN, S.J.SU, T.L.WINDUS,           *
          *       TOGETHER WITH M.DUPUIS, J.A.MONTGOMERY       *
          *         J.COMPUT.CHEM.  14, 1347-1363(1993)        *
          **************** 64 BIT LINUX VERSION ****************

  SINCE 1993, STUDENTS AND POSTDOCS WORKING AT IOWA STATE UNIVERSITY
  AND ALSO IN THEIR VARIOUS JOBS AFTER LEAVING ISU HAVE MADE IMPORTANT
  CONTRIBUTIONS TO THE CODE:
     IVANA ADAMOVIC, CHRISTINE AIKENS, YURI ALEXEEV, POOJA ARORA,
     ANDREY ASADCHEV, ROB BELL, PRADIPTA BANDYOPADHYAY, JONATHAN BENTZ,
     BRETT BODE, KURT BRORSEN, CALEB CARLIN, GALINA CHABAN, WEI CHEN,
     CHEOL HO CHOI, PAUL DAY, ALBERT DEFUSCO, NUWAN DESILVA, TIM DUDLEY,
     DMITRI FEDOROV, ALEX FINDLATER, GRAHAM FLETCHER, MARK FREITAG,
     KURT GLAESEMANN, ANASTASIA GUININA,
     DAN KEMP, GRANT MERRILL, NORIYUKI MINEZAWA, JONATHAN MULLIN,
     TAKESHI NAGATA, SEAN NEDD, HEATHER NETZLOFF, BOSILJKA NJEGIC, RYAN OLSON,
     MIKE PAK, BUU PHAM,
     SPENCER PRUITT, LUKE ROSKOP, JIM SHOEMAKER, LYUDMILA SLIPCHENKO,
     TONY SMITH, SAROM SOK LEANG, JIE SONG, TETSUYA TAKETSUGU, SIMON WEBB,
     PENG XU, SOOHAENG YOO, FEDERICO ZAHARIEV

  ADDITIONAL CODE HAS BEEN PROVIDED BY COLLABORATORS IN OTHER GROUPS:
     IOWA STATE UNIVERSITY:
          JOE IVANIC, AARON WEST, LAIMUTIS BYTAUTAS, KLAUS RUEDENBERG
     UNIVERSITY OF TOKYO: KIMIHIKO HIRAO, TAKAHITO NAKAJIMA,
          TAKAO TSUNEDA, MUNEAKI KAMIYA, SUSUMU YANAGISAWA,
          KIYOSHI YAGI, MAHITO CHIBA, SEIKEN TOKURA, NAOAKI KAWAKAMI
     UNIVERSITY OF AARHUS: FRANK JENSEN
     UNIVERSITY OF IOWA: VISVALDAS KAIRYS, HUI LI
     NATIONAL INST. OF STANDARDS AND TECHNOLOGY: WALT STEVENS, DAVID GARMER
     UNIVERSITY OF PISA: BENEDETTA MENNUCCI, JACOPO TOMASI
     UNIVERSITY OF MEMPHIS: HENRY KURTZ, PRAKASHAN KORAMBATH
     UNIVERSITY OF ALBERTA: TOBY ZENG, MARIUSZ KLOBUKOWSKI
     UNIVERSITY OF NEW ENGLAND: MARK SPACKMAN
     MIE UNIVERSITY: HIROAKI UMEDA
     NAT. INST. OF ADVANCED INDUSTRIAL SCIENCE AND TECHNOLOGY: KAZUO KITAURA
     MICHIGAN STATE UNIVERSITY:
          KAROL KOWALSKI, MARTA WLOCH, JEFFREY GOUR, JESSE LUTZ,
          WEI LI, JUN SHEN, J. EMILIANO DEUSTUA, PIOTR PIECUCH
     UNIVERSITY OF MINNESOTA:
          YINAN SHU
     UNIVERSITY OF SILESIA: MONIKA MUSIAL, STANISLAW KUCHARSKI
     FACULTES UNIVERSITAIRES NOTRE-DAME DE LA PAIX:
          OLIVIER QUINET, BENOIT CHAMPAGNE
     UNIVERSITY OF CALIFORNIA - SANTA BARBARA: BERNARD KIRTMAN
     INSTITUTE FOR MOLECULAR SCIENCE:
          KAZUYA ISHIMURA, MICHIO KATOUDA, AND SHIGERU NAGASE
     UNIVERSITY OF NOTRE DAME: ANNA POMOGAEVA, DAN CHIPMAN
     KYUSHU UNIVERSITY:
          HARUYUKI NAKANO,
          FENG LONG GU, JACEK KORCHOWIEC, MARCIN MAKOWSKI, AND YURIKO AOKI,
          HIROTOSHI MORI AND EISAKU MIYOSHI
     PENNSYLVANIA STATE UNIVERSITY:
          TZVETELIN IORDANOV, CHET SWALINA, JONATHAN SKONE,
          SHARON HAMMES-SCHIFFER
     WASEDA UNIVERSITY:
          MASATO KOBAYASHI, TOMOKO AKAMA, TSUGUKI TOUMA,
          TAKESHI YOSHIKAWA, YASUHIRO IKABATA, JUNJI SEINO,
          YUYA NAKAJIMA, HIROMI NAKAI
     NANJING UNIVERSITY: SHUHUA LI
     UNIVERSITY OF NEBRASKA:
          PEIFENG SU, DEJUN SI, NANDUN THELLAMUREGE, YALI WANG, HUI LI
     UNIVERSITY OF ZURICH: ROBERTO PEVERATI, KIM BALDRIDGE
     N. COPERNICUS UNIVERSITY AND JACKSON STATE UNIVERSITY:
          MARIA BARYSZ
     UNIVERSITY OF COPENHAGEN: Jimmy Kromann, CASPER STEINMANN
     TOKYO INSTITUTE OF TECHNOLOGY: HIROYA NAKATA
     NAGOYA UNIVERSITY: YOSHIO NISHIMOTO, STEPHAN IRLE
     MOSCOW STATE UNIVERSITY: VLADIMIR MIRONOV

 EXECUTION OF GAMESS BEGUN Wed Nov 16 18:18:01 2022

            ECHO OF THE FIRST FEW INPUT CARDS -
 INPUT CARD> $system kdiag=3 mwords=100 memddi=1000 parall=.t. $end                         
 INPUT CARD> $contrl runtyp=energy ispher=1 $end                                            
 INPUT CARD> $contrl icut=9 itol=20 inttyp=rysquad qmttol=1.0d-05 nosym=1 $end              
 INPUT CARD> $scf    npunch=2 conv=1.0d-06 dirscf=.t.      $end                             
 INPUT CARD> $contrl scftyp=mcscf  mult=2 maxit=200 icharg=1 mplevl=2 $end                  
 INPUT CARD> $guess  guess=moread norb=29 purify=.t. $end                                   
 INPUT CARD> $basis  gbasis=ccd $end                                                        
 INPUT CARD> $mcscf  cistep=gmcci fullnr=.t. finci=mos                                      
 INPUT CARD>         acurcy=1.d-6 maxit=100 $end                                            
 INPUT CARD> $trans  dirtrf=.t. $end                                                        
 INPUT CARD> $mrmp   mrpt=gmcpt rdvecs=.f. $end                                             
 INPUT CARD> $gmcpt  nmofzc=0 nmodoc=1 nmoact=7 nelact=7 stsym(1)=A                         
 INPUT CARD>         reftyp=ormas nspace=1 mstart(1)=2 mine(1)=7 maxe(1)=7                  
 INPUT CARD>         kstate(1)=1,1,1                                                        
 INPUT CARD>         wstate(1)=1,1,1                                                        
 INPUT CARD>         iwgt=0 thrwgt=-1.0 krot=.f. kszdoe=.f. knospn=.f.                      
 INPUT CARD>         thrde=-1.0 edshft=0.02 $end                                            
 INPUT CARD> $data                                                                          
 INPUT CARD> NH3+ 3 states calculation at NH3 structure.                                    
 INPUT CARD> c1                                                                             
 INPUT CARD>N 7.0 0.03114459 0.04983122400000001 -0.1693804142                              
 INPUT CARD>H 1.0 -1.025594351 0.5605985408 0.1395665091                                    
 INPUT CARD>H 1.0 -0.41419180499999997 -0.6692143058000001 0.5053383191                     
 INPUT CARD>H 1.0 1.00702375 -0.583805962 0.12447172110000002                               
 INPUT CARD>$end                                                                            
 INPUT CARD>--- OPTIMIZED RHF      MO-S --- GENERATED AT Mon Nov 14 16:47:08 2022           
 INPUT CARD>E=      -56.3825050291, E(NUC)=   11.8429239490                                 
 INPUT CARD> $VEC                                                                           
 INPUT CARD> 1  1-1.00134066E+00-2.25158504E-03 3.44925845E-03 0.00000000E+00 0.00000000E+00
 INPUT CARD> 1  2-2.13170927E-03 0.00000000E+00 0.00000000E+00 6.57129898E-04-6.87950443E-05
 INPUT CARD> 1  3-6.87950443E-05 1.37590089E-04 0.00000000E+00 0.00000000E+00 0.00000000E+00
 INPUT CARD> 1  4 3.25502815E-04-4.84772356E-04 3.62525460E-04-6.27912517E-04-3.45956485E-04
 INPUT CARD> 1  5 3.25502815E-04-4.84772356E-04 3.62525460E-04 6.27912517E-04-3.45956485E-04
 INPUT CARD> 1  6 3.25502815E-04-4.84772356E-04-7.25050921E-04 0.00000000E+00-3.45956485E-04
 INPUT CARD> 2  1 1.31286642E-02-4.05911371E-01-2.82090992E-01 0.00000000E+00 0.00000000E+00
 INPUT CARD> 2  2-7.71489043E-02 0.00000000E+00 0.00000000E+00 9.73717494E-03 6.62450916E-04
 INPUT CARD> 2  3 6.62450916E-04-1.32490183E-03 0.00000000E+00 0.00000000E+00 0.00000000E+00
 INPUT CARD> 2  4-1.96090317E-01-1.96656153E-02-1.74855877E-02 3.02859263E-02 8.68214399E-03
 INPUT CARD> 2  5-1.96090317E-01-1.96656153E-02-1.74855877E-02-3.02859263E-02 8.68214399E-03
 INPUT CARD> 2  6-1.96090317E-01-1.96656153E-02 3.49711754E-02 0.00000000E+00 8.68214399E-03
 INPUT CARD> 3  1 0.00000000E+00 0.00000000E+00 0.00000000E+00 4.48608762E-01 0.00000000E+00
 INPUT CARD> 3  2 0.00000000E+00 2.18692520E-01 0.00000000E+00 0.00000000E+00 1.30198027E-02
 INPUT CARD> 3  3-1.30198027E-02 0.00000000E+00 0.00000000E+00 2.71832968E-02 0.00000000E+00
 INPUT CARD> 3  4-1.85332726E-01-7.03958951E-02 8.47929477E-03 1.95242443E-02 8.32835058E-03
 INPUT CARD> 3  5-1.85332726E-01-7.03958951E-02 8.47929477E-03-1.95242443E-02 8.32835058E-03
 INPUT CARD> 3  6 3.70665453E-01 1.40791790E-01-2.53376884E-02 0.00000000E+00-1.66567012E-02
 INPUT CARD> 4  1 0.00000000E+00 0.00000000E+00 0.00000000E+00 0.00000000E+00 4.48608762E-01
 INPUT CARD> 4  2 0.00000000E+00 0.00000000E+00 2.18692520E-01 0.00000000E+00 0.00000000E+00
 INPUT CARD> 4  3 0.00000000E+00 0.00000000E+00-1.50339731E-02 0.00000000E+00 2.71832968E-02
 INPUT CARD> 4  4 3.21005698E-01 1.21929267E-01 1.95242443E-02-1.40653607E-02-1.44251263E-02
  100000000 WORDS OF MEMORY AVAILABLE

     BASIS OPTIONS
     -------------
     GBASIS=CCD          IGAUSS=       0      POLAR=NONE    
     NDFUNC=       0     NFFUNC=       0     DIFFSP=       F
     NPFUNC=       0      DIFFS=       F     BASNAM=        


     RUN TITLE
     ---------
  NH3+ 3 states calculation at NH3 structure.                                    

 THE POINT GROUP OF THE MOLECULE IS C1      
 THE ORDER OF THE PRINCIPAL AXIS IS     0

 ATOM      ATOMIC                      COORDINATES (BOHR)
           CHARGE         X                   Y                   Z
 N           7.0     0.0588547411        0.0941673590       -0.3200825705
 H           1.0    -1.9380922979        1.0593776312        0.2637424593
 H           1.0    -0.7827090178       -1.2646316650        0.9549509542
 H           1.0     1.9029989506       -1.1032332982        0.2352174461

          INTERNUCLEAR DISTANCES (ANGS.)
          ------------------------------

                1 N          2 H          3 H          4 H     

   1 N       0.0000000    1.2136839 *  1.0819410 *  1.2000772 *
   2 H       1.2136839 *  0.0000000    1.4212817 *  2.3326864 *
   3 H       1.0819410 *  1.4212817 *  0.0000000    1.4738411 *
   4 H       1.2000772 *  2.3326864 *  1.4738411 *  0.0000000  

  * ... LESS THAN  3.000


     ATOMIC BASIS SET
     ----------------
 THE CONTRACTED PRIMITIVE FUNCTIONS HAVE BEEN UNNORMALIZED
 THE CONTRACTED BASIS FUNCTIONS ARE NOW NORMALIZED TO UNITY

  SHELL TYPE  PRIMITIVE        EXPONENT          CONTRACTION COEFFICIENT(S)

 N         

      1   S       1          9046.0000000    0.000699617413
      1   S       2          1357.0000000    0.005386054630
      1   S       3           309.3000000    0.027391021189
      1   S       4            87.7300000    0.103150591982
      1   S       5            28.5600000    0.278570663317
      1   S       6            10.2100000    0.448294849454
      1   S       7             3.8380000    0.278085928395
      1   S       8             0.7466000    0.015431561233

      2   S       9          9046.0000000   -0.000304990096
      2   S      10          1357.0000000   -0.002408026379
      2   S      11           309.3000000   -0.011944448725
      2   S      12            87.7300000   -0.048925992909
      2   S      13            28.5600000   -0.134472724725
      2   S      14            10.2100000   -0.315112577700
      2   S      15             3.8380000   -0.242857832550
      2   S      16             0.7466000    1.094382206854

      3   S      17             0.2248000    1.000000000000

      4   P      18            13.5500000    0.058905676772
      4   P      19             2.9170000    0.320461106714
      4   P      20             0.7973000    0.753042061792

      5   P      21             0.2185000    1.000000000000

      6   D      22             0.8170000    1.000000000000

 H         

      7   S      23            13.0100000    0.033498726390
      7   S      24             1.9620000    0.234800801174
      7   S      25             0.4446000    0.813682957883

      8   S      26             0.1220000    1.000000000000

      9   P      27             0.7270000    1.000000000000

 H         

     10   S      28            13.0100000    0.033498726390
     10   S      29             1.9620000    0.234800801174
     10   S      30             0.4446000    0.813682957883

     11   S      31             0.1220000    1.000000000000

     12   P      32             0.7270000    1.000000000000

 H         

     13   S      33            13.0100000    0.033498726390
     13   S      34             1.9620000    0.234800801174
     13   S      35             0.4446000    0.813682957883

     14   S      36             0.1220000    1.000000000000

     15   P      37             0.7270000    1.000000000000

 TOTAL NUMBER OF BASIS SET SHELLS             =   15
 NUMBER OF CARTESIAN GAUSSIAN BASIS FUNCTIONS =   30
 NOTE: THIS RUN WILL RESTRICT THE MO VARIATION SPACE TO SPHERICAL HARMONICS.
 THE NUMBER OF ORBITALS KEPT IN THE VARIATIONAL SPACE WILL BE PRINTED LATER.
 NUMBER OF ELECTRONS                          =    9
 CHARGE OF MOLECULE                           =    1
 SPIN MULTIPLICITY                            =    2
 NUMBER OF OCCUPIED ORBITALS (ALPHA)          =    5
 NUMBER OF OCCUPIED ORBITALS (BETA )          =    4
 TOTAL NUMBER OF ATOMS                        =    4
 THE NUCLEAR REPULSION ENERGY IS       10.5206553194

     $CONTRL OPTIONS
     ---------------
 SCFTYP=MCSCF        RUNTYP=ENERGY       EXETYP=RUN     
 MPLEVL=       2     CITYP =NONE         CCTYP =NONE         VBTYP =NONE    
 DFTTYP=NONE         TDDFT =NONE    
 MULT  =       2     ICHARG=       1     NZVAR =       0     COORD =UNIQUE  
 PP    =NONE         RELWFN=NONE         LOCAL =NONE         NUMGRD=       F
 ISPHER=       1     NOSYM =       1     MAXIT =     200     UNITS =ANGS    
 PLTORB=       F     MOLPLT=       F     AIMPAC=       F     FRIEND=        
 NPRINT=       7     IREST =       0     GEOM  =INPUT   
 NORMF =       0     NORMP =       0     ITOL  =      20     ICUT  =       9
 INTTYP=RYSQUAD      GRDTYP=BEST         QMTTOL= 1.0E-05

     $SYSTEM OPTIONS
     ---------------
  REPLICATED MEMORY=   100000000 WORDS (ON EVERY NODE).
 DISTRIBUTED MEMDDI=        1000 MILLION WORDS IN AGGREGATE,
 MEMDDI DISTRIBUTED OVER   1 PROCESSORS IS  1000000000 WORDS/PROCESSOR.
 TOTAL MEMORY REQUESTED ON EACH PROCESSOR=  1100000000 WORDS.
 TIMLIM=      525600.00 MINUTES, OR     365.0 DAYS.
 PARALL= T  BALTYP=  DLB     KDIAG=    3  COREFL= F
 MXSEQ2=     300 MXSEQ3=     150  mem10=         0

          ----------------
          PROPERTIES INPUT
          ----------------

     MOMENTS            FIELD           POTENTIAL          DENSITY
 IEMOM =       1   IEFLD =       0   IEPOT =       0   IEDEN =       0
 WHERE =COMASS     WHERE =NUCLEI     WHERE =NUCLEI     WHERE =NUCLEI  
 OUTPUT=BOTH       OUTPUT=BOTH       OUTPUT=BOTH       OUTPUT=BOTH    
 IEMINT=       0   IEFINT=       0                     IEDINT=       0
                                                       MORB  =       0

     -------------------------------
     INTEGRAL TRANSFORMATION OPTIONS
     -------------------------------
     NWORD  =            0
     CUTOFF = 1.0E-09     MPTRAN =       0
     DIRTRF =       T     AOINTS =DUP     

          ----------------------
          MCSCF INPUT PARAMETERS
          ----------------------
 CONVERGER SELECTION: FOCAS = F  SOSCF = F  FULLNR = T  QUD = F  JACOBI = F
 SECULAR EQUATION METHOD CISTEP = GMCCI   
 --- GENERAL INPUT OPTIONS:
 MAXIT =     100  MICIT =       1  ACURCY= 1.000E-06
 DAMP  =   0.000  CANONC=       T  ENGTOL= 1.000E-10
 EKT   =       F  NPUNCH=       2  NWORD =         0
 REGENERATE CI AFTER CONVERGENCE = NONE    
 DIABATIZATION AFTER CONVERGENCE =        F
 --- INPUT FOR FULLNR CONVERGER:
 METHOD=DM2       FORS  =       F  DROPC =       T
 LINSER=       F  FCORE =       F  NORB  =      30

          ----------------------
          INTEGRAL INPUT OPTIONS
          ----------------------
 NOPK  =       1 NORDER=       0 SCHWRZ=       T

 ------------------------------------------
 MULTIREFERENCE PERTURBATION THEORY CONTROL
 ------------------------------------------
 MRPT=GMCPT    READ CONVERGED MCSCF VECTORS= F


     ------------------------------------------
     THE POINT GROUP IS C1 , NAXIS= 1, ORDER= 1
     ------------------------------------------

 -- VARIATIONAL SPACE WILL BE RESTRICTED TO PURE SPHERICAL HARMONICS ONLY --
 AFTER EXCLUDING CONTAMINANT COMBINATIONS FROM THE CARTESIAN GAUSSIAN BASIS
 SET, THE NUMBER OF SPHERICAL HARMONICS KEPT IN THE VARIATION SPACE IS   29

     DIMENSIONS OF THE SYMMETRY SUBSPACES ARE
 A   =   29

 ..... DONE SETTING UP THE RUN .....
 CPU     0: STEP CPU TIME=     0.04 TOTAL CPU TIME=          0.0 (      0.0 MIN)
 TOTAL WALL CLOCK TIME=          0.0 SECONDS, CPU UTILIZATION IS   100.00%

          ********************
          1 ELECTRON INTEGRALS
          ********************
 TIME TO DO   DIPOLE INTEGRALS=      0.00
 ...... END OF ONE-ELECTRON INTEGRALS ......
 CPU     0: STEP CPU TIME=     0.00 TOTAL CPU TIME=          0.0 (      0.0 MIN)
 TOTAL WALL CLOCK TIME=          0.0 SECONDS, CPU UTILIZATION IS   100.00%

          -------------
          GUESS OPTIONS
          -------------
          GUESS =MOREAD            NORB  =      29          NORDER=       0
          MIX   =       F          PRTMO =       F          PUNMO =       F
          TOLZ  = 1.0E-08          TOLE  = 1.0E-05
          SYMDEN=       F          PURIFY=       T

 INITIAL GUESS ORBITALS GENERATED BY MOREAD   ROUTINE.

 STATISTICS FOR GENERATION OF SYMMETRY ORBITAL -Q- MATRIX
 NUMBER OF CARTESIAN ATOMIC ORBITALS=         30
 NUMBER OF SPHERICAL CONTAMINANTS DROPPED=     1
 NUMBER OF LINEARLY DEPENDENT MOS DROPPED=     0
 TOTAL NUMBER OF MOS IN VARIATION SPACE=      29
 ORBITAL PURIFICATION WILL OCCUR

 SYMMETRIES FOR INITIAL GUESS ORBITALS FOLLOW.   BOTH SET(S).
     5 ORBITALS ARE OCCUPIED (    1 CORE ORBITALS).
     1=A        2=A        3=A        4=A        5=A        6=A        7=A   
     8=A        9=A       10=A       11=A       12=A       13=A       14=A   
    15=A       16=A       17=A       18=A       19=A       20=A       21=A   
    22=A       23=A       24=A       25=A       26=A       27=A       28=A   
    29=A   
 ...... END OF INITIAL ORBITAL SELECTION ......
 CPU     0: STEP CPU TIME=     0.01 TOTAL CPU TIME=          0.1 (      0.0 MIN)
 TOTAL WALL CLOCK TIME=          0.1 SECONDS, CPU UTILIZATION IS   100.00%

                    ----------------------
                    AO INTEGRAL TECHNOLOGY
                    ----------------------
     S,P,L SHELL ROTATED AXIS INTEGRALS, REPROGRAMMED BY
        KAZUYA ISHIMURA (IMS) AND JOSE SIERRA (SYNSTAR).
     S,P,D,L SHELL ROTATED AXIS INTEGRALS PROGRAMMED BY
        KAZUYA ISHIMURA (INSTITUTE FOR MOLECULAR SCIENCE).
     S,P,D,F,G SHELL TO TOTAL QUARTET ANGULAR MOMENTUM SUM 5,
        ERIC PROGRAM BY GRAHAM FLETCHER (ELORET AND NASA ADVANCED
        SUPERCOMPUTING DIVISION, AMES RESEARCH CENTER).
     S,P,D,F,G,L SHELL GENERAL RYS QUADRATURE PROGRAMMED BY
        MICHEL DUPUIS (PACIFIC NORTHWEST NATIONAL LABORATORY).

          --------------------
          2 ELECTRON INTEGRALS
          --------------------

 DIRECT SCF METHOD SKIPS INTEGRAL STORAGE ON DISK.
 DIRECT TRANSFORMATION SKIPS AO INTEGRAL STORAGE ON DISK.
  ...... END OF TWO-ELECTRON INTEGRALS .....
 STEP CPU TIME =     0.01 TOTAL CPU TIME =          0.1 (      0.0 MIN)
 TOTAL WALL CLOCK TIME=          0.1 SECONDS, CPU UTILIZATION IS    75.00%
 DDI: Creating Array [0] - 900 x 36 = 32400 words.
 DDI: Creating Array [1] - 21 x 288 = 6048 words.
 DDI: Creating Array [2] - 36 x 36 = 1296 words.
 DDI: Creating Array [3] - 465 x 36 = 16740 words.

          -----------------
          MCSCF CALCULATION
          -----------------

 ----- NUCLEAR ENERGY ----- =        10.5206553194

     -------------------------------------------------
     GMC-PT/GMC-QDPT or general MCSCF input parameters
     -------------------------------------------------
 # of frozen core orbs. =         0 ->         0
 # of doubly occ. orbs. =         1
 # of active      orbs. =         7
 # of virtual     orbs. =        21
 # of active electrons  =         7
 # of states in CI      =         3
 Highest state in CI    =         3
 kstate =  1 1 1
 avecoe =  0.333 0.333 0.333
 State symmetry           = A           
 Assigned symmetry number = 1

 <<<Act. MO sym.: 1111111

 <<<Division of 1-ext.:  0
 <<<Division of 2-ext.:  0

 *** Reference space

 Reference type: ORMAS (= Occupation restricted multiple active space)
 # of orbitals          =  7
 # of minimum electrons =  7
 # of maximum electrons =  7
 State symmetry    =    1 (input)
 2*Sz              =    1 (input)
 Spin multiplicity =    2 (input)
 Dimension of reference space =      1225  (from      3432 walks)

 Dimension of reference space =      1225  (from      1225 walks)

 <<<Ionized spaces for Ref-CI:
      0:         1225 /   -1-0:         1960 /  0-1-0:         2891

 EVALUATING EXCHANGE INTEGRALS FOR DIRECT INTEGRAL TRANSFORMATION
 SCHWARZ INEQUALITY OVERHEAD:       465 INTEGRALS, T=        0.01

     --------------------------------------------
     PARTIAL TWO ELECTRON INTEGRAL TRANSFORMATION
     --------------------------------------------

 NUMBER OF CORE MOLECULAR ORBITALS     =    1
 NUMBER OF OCCUPIED MOLECULAR ORBITALS =    8
 TOTAL NUMBER OF MOLECULAR ORBITALS    =   29
 TOTAL NUMBER OF ATOMIC ORBITALS       =   30
 THRESHOLD FOR KEEPING TRANSFORMED 2E- INTEGRALS = 1.000E-09

 -------------------------------     ------------------------------
 DISTRIBUTED DATA TRANSFORMATION     PROGRAM WRITTEN BY G. FLETCHER
 -------------------------------     ------------------------------

 THE DISTRIBUTED MEMORY REQUIRED FOR THIS STEP IS MEMDDI=         1 MWORDS
 CREATING DISTRIBUTED STORAGE FOR [VIR OCC|VIR OCC] INTEGRALS
 CREATING DISTRIBUTED STORAGE FOR [VIR OCC|OCC OCC] INTEGRALS
 CREATING DISTRIBUTED STORAGE FOR [OCC OCC|OCC OCC] INTEGRALS
 CREATING DISTRIBUTED STORAGE FOR [VIR VIR|OCC OCC] INTEGRALS
 FOR    1 PROCESSORS, THE REPLICATED MEMORY NEEDED IS       73700 WORDS.
 SCHWARZ INEQUALITY OVERHEAD:       465 INTEGRALS, T=        0.00

      DIRECT 4-INDEX TRANSFORMATION 
      SCHWARZ INEQUALITY TEST SKIPPED          0 INTEGRAL BLOCKS
 ----- FROZEN CORE ENERGY =       -47.4639891488
 ... END OF INTEGRAL TRANSFORMATION ...
 CPU     0: STEP CPU TIME=     0.22 TOTAL CPU TIME=          0.3 (      0.0 MIN)
 TOTAL WALL CLOCK TIME=          0.3 SECONDS, CPU UTILIZATION IS    96.55%

     --------------------------------     -----------------------------
     MCHF NEWTON-RAPHSON OPTIMIZATION     CODE WRITTEN BY MICHEL DUPUIS
     --------------------------------     -----------------------------
     PARALLEL VERSION WRITTEN BY G. FLETCHER (ELORET)
     NASA ADVANCED SUPERCOMPUTING DIVISION, AMES RESEARCH CENTER

 NUMBER OF INDEPENDENT ORBITAL ROTATION PARAMETERS =   175
 ..... DONE SOLVING NEWTON-RAPHSON EQUATIONS .....
 CPU     0: STEP CPU TIME=     0.95 TOTAL CPU TIME=          1.2 (      0.0 MIN)
 TOTAL WALL CLOCK TIME=          1.2 SECONDS, CPU UTILIZATION IS    99.19%
 ..... DONE WITH NTN-RPH ORBITAL ROTATIONS ..... 
 CPU     0: STEP CPU TIME=     0.00 TOTAL CPU TIME=          1.2 (      0.0 MIN)
 TOTAL WALL CLOCK TIME=          1.2 SECONDS, CPU UTILIZATION IS    99.19%
 MAXIMUM MEMORY USED BY NTN-RPH CODE WAS     57645 WORDS.

 ITER     TOTAL ENERGY      DEL(E)  LAGRANGIAN ASYMMETRY   SQCDF  MICIT   DAMP
   1      -55.546764941 -0.546764941  0.120848   10    4 8.686E-02  1   0.0000
   2      -55.629224062 -0.082459121  0.021481   12    5 4.542E-01  1   0.0000
   3      -55.667330977 -0.038106915  0.015213   11    6 2.194E-01  1   0.0133
   4      -55.685003533 -0.017672556  0.005297   11    6 4.049E-02  1   0.0067
   5      -55.687444093 -0.002440560  0.001643   14    5 1.518E-03  1   0.0000
   6      -55.687584304 -0.000140210  0.000795   14    5 2.049E-04  1   0.0000
   7      -55.687607892 -0.000023588  0.000377   14    5 4.608E-05  1   0.0000
   8      -55.687613141 -0.000005249  0.000182   14    5 1.096E-05  1   0.0000
   9      -55.687614365 -0.000001223  0.000088   14    5 2.661E-06  1   0.0000
  10      -55.687614656 -0.000000291  0.000043   14    5 6.577E-07  1   0.0000
  11      -55.687614726 -0.000000070  0.000021   14    5 1.655E-07  1   0.0000
  12      -55.687614743 -0.000000017  0.000010   14    5 4.244E-08  1   0.0000
  13      -55.687614748 -0.000000004  0.000005   14    5 1.111E-08  1   0.0000
  14      -55.687614749 -0.000000001  0.000002   14    5 2.988E-09  1   0.0000
  15      -55.687614749 -0.000000000  0.000001   14    5 8.213E-10  1   0.0000
  16      -55.687614749 -0.000000000  0.000001   14    5 2.294E-10  1   0.0000

          --------------------
          LAGRANGIAN CONVERGED
          --------------------

 FINAL MCSCF ENERGY IS      -55.6876147491 AFTER  16 ITERATIONS

 -MCCI- BASED ON OPTIMIZED ORBITALS
 ----------------------------------

 PLEASE NOTE: IF THE ACTIVE ORBITALS ARE CANONICALIZED BELOW,
 THE FOLLOWING CI EXPANSION COEFFICIENTS AND THE DENSITY DO NOT
 CORRESPOND TO THE PRINTED ORBITALS.  THE PRINTED EXPANSIONS MATCH
 THE ORBITALS USED DURING THE LAST ITERATION.  IF YOU WISH TO SEE
 CI EXPANSIONS BASED ON THE CANONICAL (OR NATURAL) ORBITALS, YOU
 MUST RUN A CI CALCULATION WITH THAT ORBITAL CHOICE READ IN $VEC.

 Averaged energy =     -55.687614749

 State #    1  Energy =     -55.826730576  S =  0.500

      Det      Coef    Occupancy (Ignoring core)
      ---      ----    --------- --------- -----
        1   -0.810159  11110001110000
        2   -0.075678  11101001110000
        3    0.078430  11011001110000
        5    0.083107  01111001110000
        8    0.121699  10110101110000
       16   -0.077631  11100011110000
       17    0.168504  11010011110000
       36    0.388331  11110001101000
       51    0.075044  11100011101000
       52   -0.070985  11010011101000
       71   -0.186264  11110001011000
      211   -0.056059  11110000110100
      386   -0.088776  11110001010010
      393   -0.050407  10110101010010
      701   -0.093460  11110001100001
      717   -0.067237  11010011100001

 State #    2  Energy =     -55.678362443  S =  0.500

      Det      Coef    Occupancy (Ignoring core)
      ---      ----    --------- --------- -----
        1   -0.419226  11110001110000
        8    0.065321  10110101110000
       17    0.071547  11010011110000
       36   -0.745191  11110001101000
       38    0.105693  11011001101000
       39   -0.063184  10111001101000
       40    0.069669  01111001101000
       43    0.088938  10110101101000
       51   -0.073665  11100011101000
       52    0.131066  11010011101000
       71    0.315125  11110001011000
       73   -0.057461  11011001011000
       87   -0.056323  11010011011000
      106   -0.064889  11110000111000
      122    0.056716  11010010111000
      141   -0.078375  11110001100100
      281   -0.051827  11110000101100
      351    0.052408  11110001100010
      386   -0.060904  11110001010010
      456   -0.060493  11110001001010
      463   -0.051294  10110101001010
      701   -0.145212  11110001100001

 State #    3  Energy =     -55.557751227  S =  0.500

      Det      Coef    Occupancy (Ignoring core)
      ---      ----    --------- --------- -----
       36   -0.371896  11110001101000
       71   -0.849478  11110001011000
       73    0.069991  11011001011000
       75    0.051561  01111001011000
       78    0.056811  10110101011000
       86   -0.068887  11100011011000
       87    0.114574  11010011011000
      176   -0.051679  11110001010100
      246    0.108254  11110001001100
      316   -0.085600  11110000011100
      456   -0.069485  11110001001010
      736   -0.083335  11110001010001
      806    0.149880  11110001001001
      822    0.066306  11010011001001

 DENSITY MATRIX OVER ACTIVE MO-S

             1           2           3           4           5

    1    1.9667636
    2   -0.0227814   1.6235346
    3   -0.0467123  -0.0188566   1.5910082
    4   -0.0133005  -0.0144160  -0.0307842   1.6302693
    5    0.1274894   0.0702885   0.1432902   0.0715133   0.0603306
    6   -0.0128157  -0.1428669  -0.0506678  -0.0733553  -0.0189026
    7    0.0301148   0.0488126   0.2251407   0.1517405   0.0402863

             6           7

    6    0.0440272
    7   -0.0243459   0.0840666

 FORMING THE "STANDARD FOCK OPERATOR" IN DIRECT AO INTEGRAL MODE...
 ONLY THE    1 CORE AND   21 VIRTUAL ORBITALS WILL BE CANONICALIZED

          ----------------------
          MCSCF NATURAL ORBITALS
          ----------------------

                      1          2          3          4          5
                  -15.9665     1.9798     1.6522     1.6411     1.6368
                     A          A          A          A          A   
    1  N  1  S    1.000976   0.009610  -0.006617   0.000814   0.004665
    2  N  1  S   -0.002055   0.430825  -0.153236   0.026634   0.132829
    3  N  1  S   -0.006558   0.349864  -0.250375   0.038351   0.202747
    4  N  1  X   -0.000093  -0.039851   0.077345   0.431145   0.198828
    5  N  1  Y   -0.000186  -0.067918   0.109436  -0.160261   0.492067
    6  N  1  Z    0.000959   0.079631   0.581703  -0.012982  -0.015321
    7  N  1  X    0.000082  -0.008861   0.071179   0.204942   0.118829
    8  N  1  Y    0.000139  -0.013850   0.108774  -0.070776   0.282936
    9  N  1  Z   -0.000563   0.015341   0.393753   0.000298   0.043723
   10  N  1 XX   -0.000012   0.002353  -0.010533  -0.001996   0.010253
   11  N  1 YY    0.000001  -0.001120  -0.011666   0.002633  -0.009229
   12  N  1 ZZ    0.000011  -0.001233   0.022199  -0.000636  -0.001024
   13  N  1 XY    0.000033  -0.002883  -0.001276  -0.005329  -0.017948
   14  N  1 XZ   -0.000084  -0.002396  -0.002396   0.016587   0.008478
   15  N  1 YZ   -0.000147  -0.003582  -0.004952  -0.005515   0.020221
   16  H  2  S   -0.001063   0.143638   0.071996  -0.302470   0.140840
   17  H  2  S    0.000403   0.001815   0.028547  -0.056139   0.067634
   18  H  2  X   -0.000484   0.022508   0.008995  -0.031293   0.019646
   19  H  2  Y    0.000253  -0.014535  -0.001495   0.023251   0.013625
   20  H  2  Z    0.000189  -0.002889   0.021590   0.004945  -0.003819
   21  H  3  S   -0.001710   0.226162   0.154528  -0.064066  -0.346721
   22  H  3  S    0.000333   0.010298   0.041172  -0.017081  -0.118961
   23  H  3  X   -0.000428   0.016156   0.013198   0.021472  -0.011436
   24  H  3  Y   -0.000700   0.026543   0.022093  -0.016568  -0.010173
   25  H  3  Z    0.000627  -0.022231   0.014643   0.004259   0.026411
   26  H  4  S   -0.001094   0.144273   0.084243   0.330228   0.042702
   27  H  4  S    0.000437   0.002006   0.031092   0.068725   0.042924
   28  H  4  X    0.000490  -0.024706  -0.007056  -0.034127   0.012381
   29  H  4  Y   -0.000295   0.011833   0.007758   0.021181   0.018310
   30  H  4  Z    0.000185  -0.002582   0.021257  -0.006560  -0.002191

                      6          7          8
                    0.0411     0.0254     0.0236
                     A          A          A   
    1  N  1  S   -0.139994  -0.118464   0.020558
    2  N  1  S   -0.482449  -0.448688   0.070982
    3  N  1  S    0.045438  -0.221777   0.019546
    4  N  1  X   -0.232899   0.334606   0.752183
    5  N  1  Y   -0.446662   0.386334  -0.478773
    6  N  1  Z   -0.157416  -0.626404   0.073122
    7  N  1  X    0.046889   0.063835   0.059220
    8  N  1  Y    0.089688   0.079100  -0.045177
    9  N  1  Z    0.097983   0.053139  -0.015056
   10  N  1 XX    0.046706   0.009778   0.044750
   11  N  1 YY   -0.037066  -0.004294  -0.046815
   12  N  1 ZZ   -0.009640  -0.005484   0.002065
   13  N  1 XY   -0.079264   0.001884   0.033809
   14  N  1 XZ   -0.007425  -0.034746  -0.040219
   15  N  1 YZ   -0.009708  -0.046889   0.032177
   16  H  2  S    0.522560   0.231690   0.468429
   17  H  2  S    0.156458   0.021996   0.148102
   18  H  2  X    0.059456   0.018581   0.031854
   19  H  2  Y   -0.001472  -0.026756  -0.031821
   20  H  2  Z    0.002109   0.028294   0.022288
   21  H  3  S   -0.336099   0.738675  -0.068704
   22  H  3  S   -0.168537   0.181073  -0.020037
   23  H  3  X    0.000586   0.015384  -0.054355
   24  H  3  Y    0.006254   0.043290   0.025654
   25  H  3  Z    0.025764  -0.003754   0.000282
   26  H  4  S    0.497883   0.136029  -0.538191
   27  H  4  S    0.141564  -0.004651  -0.154881
   28  H  4  X   -0.029946  -0.022334   0.051619
   29  H  4  Y    0.048450   0.002324  -0.014337
   30  H  4  Z    0.001054   0.021035  -0.029001

          ------------------------
          MCSCF OPTIMIZED ORBITALS
          ------------------------

                      1          2          3          4          5
                  -15.9665     0.0000     0.0000     0.0000     0.0000
                     A          A          A          A          A   
    1  N  1  S    1.000976  -0.003249  -0.009924  -0.019487  -0.019680
    2  N  1  S   -0.002055   0.391291  -0.000697  -0.004638  -0.208915
    3  N  1  S   -0.006558   0.356389   0.074131   0.150243  -0.254484
    4  N  1  X   -0.000093  -0.016578   0.397550   0.042359   0.018001
    5  N  1  Y   -0.000186  -0.029886  -0.013919   0.421472   0.025642
    6  N  1  Z    0.000959   0.050262  -0.011671  -0.024287   0.575578
    7  N  1  X    0.000082   0.011451   0.230497   0.062091   0.061689
    8  N  1  Y    0.000139   0.021743   0.026447   0.302495   0.102288
    9  N  1  Z   -0.000563   0.032980   0.033479   0.064317   0.397258
   10  N  1 XX   -0.000012   0.005995   0.001145   0.018992  -0.005967
   11  N  1 YY    0.000001  -0.004192  -0.000196  -0.017285  -0.015180
   12  N  1 ZZ    0.000011  -0.001802  -0.000949  -0.001707   0.021147
   13  N  1 XY    0.000033  -0.009290  -0.018743  -0.027679  -0.009118
   14  N  1 XZ   -0.000084  -0.003064   0.020725   0.001032  -0.003189
   15  N  1 YZ   -0.000147  -0.004512  -0.001984   0.020402  -0.005678
   16  H  2  S   -0.001063   0.189787  -0.244506   0.311200   0.123058
   17  H  2  S    0.000403   0.016890  -0.031137   0.111399   0.043217
   18  H  2  X   -0.000484   0.027888  -0.022539   0.036759   0.014633
   19  H  2  Y    0.000253  -0.013889   0.028933   0.006218  -0.002145
   20  H  2  Z    0.000189  -0.001637   0.002831  -0.003505   0.020980
   21  H  3  S   -0.001710   0.205466  -0.194626  -0.388834   0.113174
   22  H  3  S    0.000333  -0.002541  -0.063149  -0.137353   0.023821
   23  H  3  X   -0.000428   0.016435   0.020468  -0.019841   0.012537
   24  H  3  Y   -0.000700   0.027529  -0.020833  -0.005111   0.022100
   25  H  3  Z    0.000627  -0.018014   0.015132   0.030298   0.016254
   26  H  4  S   -0.001094   0.190464   0.397579  -0.000037   0.122480
   27  H  4  S    0.000437   0.016196   0.100435   0.040292   0.042632
   28  H  4  X    0.000490  -0.026912  -0.033739   0.020309  -0.009158
   29  H  4  Y   -0.000295   0.016846   0.029894   0.017851   0.011321
   30  H  4  Z    0.000185  -0.001475  -0.004203  -0.000225   0.020979

                      6          7          8          9         10
                    0.0000     0.0000     0.0000     0.1733     0.2183
                     A          A          A          A          A   
    1  N  1  S    0.178541   0.021068   0.031882  -0.134130   0.004991
    2  N  1  S    0.676145   0.060733   0.094467  -0.212180   0.005874
    3  N  1  S    0.181007  -0.072348  -0.146493   1.243698  -0.054388
    4  N  1  X   -0.029978   0.896388   0.011035   0.031915   0.174161
    5  N  1  Y   -0.040527  -0.123177   0.816204   0.048727  -0.100831
    6  N  1  Z    0.630544  -0.075650  -0.172571  -0.217700   0.009557
    7  N  1  X   -0.053376   0.084932  -0.007986  -0.136873  -0.746516
    8  N  1  Y   -0.085469  -0.024105   0.049016  -0.202910   0.417395
    9  N  1  Z   -0.074628  -0.002997   0.010111   0.447527  -0.010868
   10  N  1 XX   -0.030141   0.027786  -0.048900   0.042941   0.017852
   11  N  1 YY    0.018988  -0.031764   0.043555  -0.008162  -0.021729
   12  N  1 ZZ    0.011152   0.003978   0.005344  -0.034779   0.003877
   13  N  1 XY    0.045635   0.053819   0.039039  -0.040346   0.022744
   14  N  1 XZ    0.029113  -0.043384   0.007648  -0.044830  -0.066001
   15  N  1 YZ    0.047631   0.015477  -0.028703  -0.069338   0.036446
   16  H  2  S   -0.422672   0.315474  -0.444238   0.422287   0.454913
   17  H  2  S   -0.086799   0.089229  -0.156247  -0.833935  -1.366295
   18  H  2  X   -0.043086   0.014879  -0.043804  -0.048729  -0.073557
   19  H  2  Y    0.020087  -0.034302   0.004127   0.014177   0.012211
   20  H  2  Z   -0.021020   0.029949   0.003641   0.023057   0.055111
   21  H  3  S   -0.415893   0.285849   0.603241   0.260230   0.025265
   22  H  3  S   -0.058102   0.092551   0.206081  -0.818855  -0.069628
   23  H  3  X   -0.016978  -0.040858   0.031953  -0.053488  -0.028150
   24  H  3  Y   -0.034380   0.034884   0.006049  -0.062791   0.016015
   25  H  3  Z   -0.009603  -0.006636  -0.015178   0.085137   0.001824
   26  H  4  S   -0.426635  -0.550237  -0.026484   0.389097  -0.504436
   27  H  4  S   -0.085938  -0.172910  -0.022636  -0.763726   1.530753
   28  H  4  X    0.039095   0.044728  -0.012256   0.047178  -0.056875
   29  H  4  Y   -0.028057  -0.024024  -0.023535  -0.027192   0.060785
   30  H  4  Z   -0.019464  -0.017984   0.025074   0.013011  -0.056412

                     11         12         13         14         15
                    0.2549     0.5348     0.6471     0.6894     0.8459
                     A          A          A          A          A   
    1  N  1  S    0.027499  -0.091388   0.098549   0.052280  -0.029086
    2  N  1  S    0.068341  -0.174763   0.355126   0.145518  -0.066309
    3  N  1  S   -0.139930   0.252726   0.151383  -0.081415   0.104670
    4  N  1  X   -0.000000  -0.347811   0.128257  -0.287912  -0.350775
    5  N  1  Y   -0.019880  -0.613513   0.097826   0.192245   0.213000
    6  N  1  Z    0.025583  -0.387594  -0.615113  -0.131844   0.022749
    7  N  1  X    0.133147   0.549319  -0.621863   1.006118   1.153925
    8  N  1  Y    0.325476   0.943110  -0.592060  -0.747301  -0.664229
    9  N  1  Z   -0.190227   0.295634   1.166118   0.229476  -0.039248
   10  N  1 XX    0.049837  -0.012170  -0.049609   0.074298  -0.142104
   11  N  1 YY   -0.025130  -0.010523   0.017602  -0.082735   0.136248
   12  N  1 ZZ   -0.024707   0.022693   0.032007   0.008437   0.005856
   13  N  1 XY   -0.077377  -0.001436   0.012249   0.057857  -0.099098
   14  N  1 XZ    0.037965   0.003997   0.040994  -0.081464  -0.104785
   15  N  1 YZ    0.068762   0.007569   0.034335   0.069959   0.053056
   16  H  2  S    0.403900  -0.222842  -0.360629   0.226114   0.602333
   17  H  2  S   -1.266243  -0.272326   0.323616   0.458527   0.268315
   18  H  2  X   -0.004265   0.033264  -0.032110   0.095749   0.217150
   19  H  2  Y    0.015535   0.028143   0.091651  -0.309168   0.274787
   20  H  2  Z   -0.007995   0.049918   0.010538   0.201130   0.126618
   21  H  3  S   -0.674872   0.196521  -0.761941  -0.162792   0.016631
   22  H  3  S    2.247993   0.505921  -0.512430  -0.067955  -0.011767
   23  H  3  X    0.042537   0.047454   0.045392  -0.374394   0.240766
   24  H  3  Y    0.073901   0.068302  -0.114698   0.223795  -0.119364
   25  H  3  Z   -0.066965  -0.032431   0.065055   0.000439   0.024333
   26  H  4  S    0.349709  -0.229973  -0.280191  -0.368320  -0.597113
   27  H  4  S   -1.074882  -0.264003   0.468661  -0.257082  -0.324629
   28  H  4  X    0.002594   0.005651  -0.052496   0.308303  -0.112415
   29  H  4  Y    0.003384   0.036128  -0.026552   0.076949  -0.329578
   30  H  4  Z   -0.006359   0.045509   0.084774  -0.181602  -0.115103

                     16         17         18         19         20
                    1.0274     1.0566     1.0713     1.2636     1.3265
                     A          A          A          A          A   
    1  N  1  S   -0.691878  -0.168360  -0.185467   0.034328  -0.229736
    2  N  1  S   -1.474846  -0.357894  -0.394881   0.075802  -0.503981
    3  N  1  S    2.720380   0.714660   0.791608  -0.024068   0.770228
    4  N  1  X    0.070402  -0.266798   0.195769  -0.020148  -0.019397
    5  N  1  Y    0.091741   0.145583  -0.124516  -0.015055  -0.027363
    6  N  1  Z    0.124787   0.001544   0.004802   0.028337  -0.099147
    7  N  1  X   -0.393586   0.779937  -0.662569  -0.229662   0.029103
    8  N  1  Y   -0.619610  -0.533357   0.252369  -0.416362  -0.000017
    9  N  1  Z    0.285305   0.349991   0.439257   0.101178   0.536122
   10  N  1 XX   -0.091144   0.129323  -0.031526   0.025104   0.053732
   11  N  1 YY   -0.079370   0.019418   0.220004  -0.116504   0.014130
   12  N  1 ZZ    0.170514  -0.148741  -0.188478   0.091400  -0.067862
   13  N  1 XY    0.033872   0.144101   0.042966  -0.102346  -0.038189
   14  N  1 XZ    0.059315   0.141688  -0.044943   0.024415   0.004580
   15  N  1 YZ    0.105078   0.010987   0.146124   0.051534   0.012579
   16  H  2  S   -0.375647   0.371357  -0.452994  -0.100960  -0.232808
   17  H  2  S   -0.253549   0.078485  -0.205422   0.115196   0.048594
   18  H  2  X   -0.062457  -0.225517   0.150998   0.317200  -0.163127
   19  H  2  Y    0.047667  -0.005424   0.253282   0.449176  -0.379208
   20  H  2  Z    0.229210  -0.404440   0.128823  -0.301820  -0.573102
   21  H  3  S   -0.624713  -0.142254  -0.178833   0.003903  -0.238593
   22  H  3  S   -0.480014  -0.110012  -0.129736  -0.148578  -0.191233
   23  H  3  X   -0.033291  -0.060162  -0.338025  -0.009879   0.015950
   24  H  3  Y    0.018432  -0.389661  -0.334742  -0.048038   0.050680
   25  H  3  Z    0.259502  -0.311419  -0.363816   0.452825   0.211356
   26  H  4  S   -0.338780  -0.544413   0.233812  -0.104896  -0.250227
   27  H  4  S   -0.267656  -0.262265   0.033005   0.106888   0.025308
   28  H  4  X    0.108546   0.131589   0.139435   0.244186  -0.233922
   29  H  4  Y   -0.001546   0.267410  -0.132840   0.537237  -0.330542
   30  H  4  Z    0.211651   0.209866  -0.403572  -0.298023  -0.550910

                     21         22         23         24         25
                    1.5495     1.6906     1.8704     1.9072     2.1199
                     A          A          A          A          A   
    1  N  1  S   -0.032935   0.016156  -0.177161  -0.138270   0.013386
    2  N  1  S   -0.180889   0.043461  -0.411129  -0.316300   0.022965
    3  N  1  S   -0.632961   0.031273   0.083160   0.082660  -0.054411
    4  N  1  X    0.065474   0.165887   0.354440  -0.118031  -0.011576
    5  N  1  Y    0.122726  -0.117051   0.162383   0.330515  -0.008024
    6  N  1  Z   -0.075906   0.012672  -0.225396  -0.163982   0.018776
    7  N  1  X    0.060242   0.882319  -0.077222  -0.098236  -0.036670
    8  N  1  Y   -0.106847  -0.483188  -0.149813  -0.102202  -0.142227
    9  N  1  Z   -0.195439  -0.001462   0.105724   0.090880  -0.225189
   10  N  1 XX    0.120938  -0.000828   0.033648   0.001244  -0.283929
   11  N  1 YY    0.001868  -0.020268   0.025134   0.037181   0.976143
   12  N  1 ZZ   -0.122806   0.021095  -0.058782  -0.038425  -0.692214
   13  N  1 XY   -0.121517   0.015666   0.076148   0.057245  -0.007336
   14  N  1 XZ   -0.049565  -0.147903  -0.221596   0.053748  -0.056592
   15  N  1 YZ   -0.075159   0.105363  -0.137095  -0.230992   0.209556
   16  H  2  S   -0.068443   0.264440  -0.065466  -0.065596   0.049690
   17  H  2  S    0.473010   0.339754   0.050134  -0.349629  -0.010087
   18  H  2  X    0.701588   0.462354   0.310390  -0.282337  -0.110981
   19  H  2  Y   -0.329397   0.147068  -0.102086   0.653835  -0.142549
   20  H  2  Z    0.071019  -0.606367  -0.186967  -0.080841   0.005768
   21  H  3  S    0.088346   0.020479  -0.167748  -0.102495   0.017557
   22  H  3  S   -0.251786   0.017871   0.419590   0.324071  -0.020562
   23  H  3  X   -0.053492  -0.435513   0.769242  -0.303385   0.018944
   24  H  3  Y   -0.024725   0.239340   0.348497   0.788749   0.374100
   25  H  3  Z   -0.199150   0.019516  -0.456704  -0.338087   0.451499
   26  H  4  S   -0.130638  -0.265273  -0.036800  -0.032508   0.018700
   27  H  4  S    0.404145  -0.404783  -0.313917   0.126322   0.036088
   28  H  4  X   -0.641824   0.228788   0.560663  -0.407138   0.066081
   29  H  4  Y    0.357714  -0.515463   0.097727   0.171785   0.315468
   30  H  4  Z    0.172094   0.594170  -0.103634  -0.174881   0.223282

                     26         27         28         29
                    2.1267     2.4108     2.6404     3.0586
                     A          A          A          A   
    1  N  1  S    0.025190  -0.006152  -0.265305   0.182060
    2  N  1  S    0.049559  -0.007971  -0.362199   0.287057
    3  N  1  S   -0.067276   0.078699   2.438610  -0.870927
    4  N  1  X   -0.001395   0.183632  -0.153850  -0.126818
    5  N  1  Y   -0.030638  -0.107978  -0.255279  -0.171695
    6  N  1  Z    0.029023   0.004749   0.290870   0.071882
    7  N  1  X   -0.057658   1.066022  -0.497150  -0.171783
    8  N  1  Y   -0.060975  -0.641325  -0.779615  -0.200587
    9  N  1  Z   -0.196781   0.033684   0.845097   0.033195
   10  N  1 XX    0.735979  -0.273284   0.256551  -0.884140
   11  N  1 YY   -0.182455   0.271136   0.069129   0.282934
   12  N  1 ZZ   -0.553524   0.002148  -0.325680   0.601206
   13  N  1 XY    0.644288  -0.185103  -0.099876   1.167610
   14  N  1 XZ    0.260904   0.933182  -0.622036  -0.224094
   15  N  1 YZ    0.031883  -0.585694  -0.990677  -0.354070
   16  H  2  S    0.030620   0.622964  -0.557468   0.625752
   17  H  2  S    0.057547   0.342640  -0.069822   0.216793
   18  H  2  X    0.267670   0.563849  -0.315953   0.681745
   19  H  2  Y    0.210923  -0.262105   0.219868  -0.301901
   20  H  2  Z    0.222164   0.023876   0.129094  -0.287294
   21  H  3  S    0.026730  -0.033817  -1.440125  -0.648143
   22  H  3  S   -0.035249  -0.016150  -0.574215  -0.167146
   23  H  3  X    0.290502  -0.281058  -0.450762  -0.278980
   24  H  3  Y    0.091955   0.143023  -0.710749  -0.477285
   25  H  3  Z    0.395272   0.002281   0.660617   0.455675
   26  H  4  S    0.042921  -0.671175  -0.538524   0.679350
   27  H  4  S   -0.019620  -0.351415  -0.063011   0.235750
   28  H  4  X   -0.093125   0.556672   0.348035  -0.625508
   29  H  4  Y   -0.277172  -0.330538  -0.133213   0.448970
   30  H  4  Z   -0.015057  -0.059583   0.116296  -0.295931
 .....DONE WITH MCSCF ITERATIONS.....
 CPU     0: STEP CPU TIME=    11.69 TOTAL CPU TIME=         12.9 (      0.2 MIN)
 TOTAL WALL CLOCK TIME=         12.9 SECONDS, CPU UTILIZATION IS    99.92%

     ----------------------------------------------------------------
     PROPERTY VALUES FOR THE MCSCF SELF-CONSISTENT FIELD WAVEFUNCTION
     ----------------------------------------------------------------

          -----------------
          ENERGY COMPONENTS
          -----------------

         WAVEFUNCTION NORMALIZATION =       1.0000000000

                ONE ELECTRON ENERGY =     -92.8432742919
                TWO ELECTRON ENERGY =      26.6350042234
           NUCLEAR REPULSION ENERGY =      10.5206553194
                                      ------------------
                       TOTAL ENERGY =     -55.6876147491

 ELECTRON-ELECTRON POTENTIAL ENERGY =      26.6350042234
  NUCLEUS-ELECTRON POTENTIAL ENERGY =    -148.3481671249
   NUCLEUS-NUCLEUS POTENTIAL ENERGY =      10.5206553194
                                      ------------------
             TOTAL POTENTIAL ENERGY =    -111.1925075821
               TOTAL KINETIC ENERGY =      55.5048928330
                 VIRIAL RATIO (V/T) =       2.0032919966

          ---------------------------------------
          MULLIKEN AND LOWDIN POPULATION ANALYSES
          ---------------------------------------

     ATOMIC MULLIKEN POPULATION IN EACH MOLECULAR ORBITAL

                      1          2          3          4          5

                  2.000000   1.979799   1.652165   1.641125   1.636756

    1             2.000379   1.395050   1.524725   0.903751   1.210493
    2            -0.000056   0.136112   0.019896   0.324546   0.079871
    3            -0.000260   0.311660   0.082197   0.025297   0.330927
    4            -0.000062   0.136977   0.025347   0.387531   0.015465

                      6          7          8

                  0.041145   0.025382   0.023628

    1             0.015006   0.013610   0.013388
    2             0.012067   0.001239   0.004270
    3             0.003226   0.010160   0.000267
    4             0.010846   0.000373   0.005702
 WARNING! MCSCF POPULATIONS SHOWN ABOVE ARE FOR THE NATURAL ORBITALS.
 IGNORE THE ABOVE DATA FOR MCSCF FUNCTIONS WHICH ARE NOT OF -FORS- TYPE.
 THE FOLLOWING POPULATIONS ARE CORRECT FOR ANY MCSCF WAVEFUNCTION.

               ----- POPULATIONS IN EACH AO -----
                             MULLIKEN      LOWDIN
              1  N  1  S      2.00206     1.90794
              2  N  1  S      0.81474     0.58282
              3  N  1  S      0.75983     0.44176
              4  N  1  X      0.63207     0.56253
              5  N  1  Y      0.72500     0.66922
              6  N  1  Z      0.84481     0.79853
              7  N  1  X      0.34104     0.43479
              8  N  1  Y      0.40823     0.48281
              9  N  1  Z      0.53154     0.57651
             10  N  1 XX      0.00095     0.18215
             11  N  1 YY      0.00196     0.16073
             12  N  1 ZZ      0.00501     0.14892
             13  N  1 XY      0.00404     0.00938
             14  N  1 XZ      0.00511     0.00739
             15  N  1 YZ      0.00000     0.01046
             16  H  2  S      0.47074     0.37362
             17  H  2  S      0.05963     0.16016
             18  H  2  X      0.02533     0.04152
             19  H  2  Y      0.01349     0.02517
             20  H  2  Z      0.00876     0.02016
             21  H  3  S      0.63634     0.49457
             22  H  3  S      0.06489     0.15902
             23  H  3  X      0.01711     0.03272
             24  H  3  Y      0.02301     0.04441
             25  H  3  Z      0.02212     0.04560
             26  H  4  S      0.47693     0.37903
             27  H  4  S      0.05694     0.15993
             28  H  4  X      0.02548     0.04110
             29  H  4  Y      0.01409     0.02667
             30  H  4  Z      0.00875     0.02036

          ----- MULLIKEN ATOMIC OVERLAP POPULATIONS -----
          (OFF-DIAGONAL ELEMENTS NEED TO BE MULTIPLIED BY 2)

             1           2           3           4

    1    6.3222026
    2    0.2469180   0.3433600
    3    0.2542333  -0.0068352   0.5222933
    4    0.2530481  -0.0054981  -0.0062170   0.3408462

          TOTAL MULLIKEN AND LOWDIN ATOMIC POPULATIONS
       ATOM         MULL.POP.    CHARGE          LOW.POP.     CHARGE
    1 N             7.076402   -0.076402         6.975951    0.024049
    2 H             0.577945    0.422055         0.620637    0.379363
    3 H             0.763474    0.236526         0.776320    0.223680
    4 H             0.582179    0.417821         0.627092    0.372908

          MULLIKEN SPHERICAL HARMONIC POPULATIONS
       ATOM           S       P       D      F      G      H      I    TOTAL
    1 N             3.58    3.48    0.02   0.00   0.00   0.00   0.00    7.08
    2 H             0.53    0.05    0.00   0.00   0.00   0.00   0.00    0.58
    3 H             0.70    0.06    0.00   0.00   0.00   0.00   0.00    0.76
    4 H             0.53    0.05    0.00   0.00   0.00   0.00   0.00    0.58

          ---------------------
          ELECTROSTATIC MOMENTS
          ---------------------

 POINT   1           X           Y           Z (BOHR)    CHARGE
                -0.000003   -0.000006   -0.177185        1.00 (A.U.)
         DX          DY          DZ         /D/  (DEBYE)
    -0.691959   -1.099788    2.068245    2.442535
 ...... END OF PROPERTY EVALUATION ......
 CPU     0: STEP CPU TIME=     0.01 TOTAL CPU TIME=         12.9 (      0.2 MIN)
 TOTAL WALL CLOCK TIME=         12.9 SECONDS, CPU UTILIZATION IS    99.92%

     -------------------------------------------------
     GMC-PT/GMC-QDPT or general MCSCF input parameters
     -------------------------------------------------
 # of frozen core orbs. =         0 ->         0
 # of doubly occ. orbs. =         1
 # of active      orbs. =         7
 # of virtual     orbs. =        21
 # of active electrons  =         7
 # of states in CI      =         3
 Highest state in CI    =         3
 kstate =  1 1 1
 avecoe =  0.333 0.333 0.333
 State symmetry           = A           
 Assigned symmetry number = 1

 <<<Act. MO sym.: 1111111

 <<<Division of 1-ext.:  0
 <<<Division of 2-ext.:  0

     ------------------------
     Orbital canonicalization
     ------------------------

 MOs are canonicalized for core, virtual, and invariant-active orbital spaces.
 This is a part of the GMC-QDPT calculation.
 SCHWARZ INEQUALITY OVERHEAD:       465 INTEGRALS, T=        0.00
 DIRECT TRANSFORMATION SKIPS AO INTEGRAL STORAGE ON DISK.

 Averaged energy =     -55.687614749

 State #    1  Energy =     -55.826730576  S =  0.500
 State #    2  Energy =     -55.678362443  S =  0.500
 State #    3  Energy =     -55.557751227  S =  0.500

 Orbital energies for filled orbital space
  -15.966482
 Orbital energies for active orbital space
   -1.457319  -0.909681  -0.810136  -0.689325   0.046199
    0.289939   0.302245
 Orbital energies for external orbital space
    0.173331   0.218330   0.254890   0.534846   0.647097
    0.689411   0.845936   1.027362   1.056599   1.071271
    1.263564   1.326460   1.549502   1.690562   1.870447
    1.907164   2.119914   2.126738   2.410784   2.640439
    3.058607

 Zero values mean non-canonical orbitals.
 ... done with orbital canonicalization ...
 CPU     0: STEP CPU TIME=     0.65 TOTAL CPU TIME=         13.6 (      0.2 MIN)
 TOTAL WALL CLOCK TIME=         13.6 SECONDS, CPU UTILIZATION IS    99.85%

     --------------------------------------------
     PARTIAL TWO ELECTRON INTEGRAL TRANSFORMATION
     --------------------------------------------

 NUMBER OF CORE MOLECULAR ORBITALS     =    0
 NUMBER OF OCCUPIED MOLECULAR ORBITALS =    8
 TOTAL NUMBER OF MOLECULAR ORBITALS    =   29
 TOTAL NUMBER OF ATOMIC ORBITALS       =   30
 THRESHOLD FOR KEEPING TRANSFORMED 2E- INTEGRALS = 1.000E-09
 AO INTEGRALS WILL BE CALCULATED IN DIRECT MODE...
 DIRECT TRANSFORMATION SKIPS AO INTEGRAL STORAGE ON DISK.
 SCHWARZ INEQUALITY OVERHEAD:       465 INTEGRALS, T=        0.00

 PLAN A: REQUIREMENTS FOR FULLY IN-MEMORY TRANSFORMATION:
 # OF WORDS AVAILABLE =            100000000
 # OF WORDS NEEDED    =               221798

 PARALLEL ONLY WORKS WITH THE SEGMENTED ALGORITHM.
 ADJUSTING MEMORY TO USE SEGMENTED ALGORITHM.


 PLAN B: REQUIREMENTS FOR THE SEGMENTED TRANSFORMATION:
       MINIMUM=         124148 WORDS FOR 1 MOLECULAR ORBITAL PER PASS
       MAXIMUM=         221798 WORDS FOR ALL MOLECULAR ORBITALS IN 1 PASS
              (          13950 EXTRA WORDS INCLUDES 1 EXTRA ORBITAL/PASS)
 THIS RUN USES=         221798 WORDS,
 DISTRIBUTING   1 PASSES EACH CONTAINING     8 ORBITALS OVER   1 PROCESSORS.

 CHOOSING SEGMENTED PARTIAL TRANSFORMATION...
 DIRECT TRANSFORMATION SKIPS AO INTEGRAL STORAGE ON DISK.
 PASS #   1 TOOK        0.05 SECONDS.
 TOTAL NUMBER OF TRANSFORMED 2E- INTEGRALS KEPT =        29226
 ... END OF INTEGRAL TRANSFORMATION ...
 CPU     0: STEP CPU TIME=     0.05 TOTAL CPU TIME=         13.6 (      0.2 MIN)
 TOTAL WALL CLOCK TIME=         13.6 SECONDS, CPU UTILIZATION IS    99.93%

     --------     ------------------------------------------
     GMC-QDPT     Program written by H.Nakano (Kyushu Univ.)
     --------     ------------------------------------------

 *** Reference space

 Reference type: ORMAS (= Occupation restricted multiple active space)
 # of orbitals          =  7
 # of minimum electrons =  7
 # of maximum electrons =  7
 State symmetry    =    1 (input)
 2*Sz              =    1 (input)
 Spin multiplicity =    2 (input)
 Dimension of reference space =      1225  (from      3432 walks)

 Dimension of reference space =      1225  (from      1225 walks)

 <<<Ionized spaces for Ref-CI:
      0:         1225 /   -1-0:         1960 /  0-1-0:         2891

 ***                    ***
 *** Reference space CI ***
 ***                    ***

 Converged after   32 iterations

 Reference wavefunctions:

 State #    1  Energy =     -55.826730576  S =  0.500

      Det      Coef    Occupancy (Ignoring core)
      ---      ----    --------- --------- -----
        1    0.969958  11110001110000
        2    0.051293  11101001110000
       36    0.070511  11110001101000
      179    0.064954  10111001010100
      393    0.058683  10110101010010
      717    0.062415  11010011100001

 State #    2  Energy =     -55.678362443  S =  0.500

      Det      Coef    Occupancy (Ignoring core)
      ---      ----    --------- --------- -----
        1   -0.074410  11110001110000
       36    0.971982  11110001101000
      108   -0.051079  11011000111000
      249    0.068339  10111001001100
      463    0.061305  10110101001010

 State #    3  Energy =     -55.557751227  S =  0.500

      Det      Coef    Occupancy (Ignoring core)
      ---      ----    --------- --------- -----
        4   -0.051547  10111001110000
       71    0.973196  11110001011000
       72   -0.054488  11101001011000
      109    0.055501  10111000111000
      177   -0.056731  11101001010100
      822   -0.064056  11010011001001

 Davidson method: CPU/Wall time =           0.46 /           0.44 sec.

 Oscillator strength (invalid if E(1)/=E(GS)):
 -----------------------------------------
   State                        f
 -----------------------------------------
     2     F(REF-CI)=        0.0049180761
     3     F(REF-CI)=        0.0046014125
 -----------------------------------------

 Dipole moment matrix elements, x, y, z, in A.U.

 Dimension of ionized spaces for PT:
 (N-2) space:         1715 /  (N-1) space:         2842 /  N space:         2891
 (N+1) space:         2842 /  (N+2) space:         1715

 <<<Ionized spaces for internal:
         0:         1225 /      -1-0:         1960 /     0-1-0:         2891
  -1-0-1-0:         2842 / 0-1-0-1-0:         3381

 Diagonal elements of averaged one-particle density matrix:
       2       3       4       5       6       7       8
  0.9924  0.9828  0.9832  0.9886  0.0243  0.0144  0.0143
  0.9871  0.6581  0.6574  0.6599  0.0166  0.0099  0.0110

 Orbital energies:
 -------- Doubly-occupied orbitals (highest several orbs.) -------
             1
 -1.596648D+01
 -------- Active orbitals ----------------------------------------
             2            3            4            5            6
 -1.457319D+00-9.096810D-01-8.101362D-01-6.893249D-01 4.619890D-02
             7            8
  2.899395D-01 3.022448D-01
 -------- External orbitals (lowest several orbs.) ---------------
             9           10           11           12           13
  1.733309D-01 2.183298D-01 2.548898D-01 5.348462D-01 6.470970D-01
            14           15           16           17           18
  6.894106D-01 8.459363D-01 1.027362D+00 1.056599D+00 1.071271D+00

 *** Quasi-degeneracy checking

 === Det (|Ci| > 1.0D-01 and dE < 5.0D-03)

 # of small denominators (single excitations)
 State       dEmin  dE < 5.0D-03  dE < 5.0D-04  dE < 5.0D-05  dE < 5.0D-06
 ----- ----------- ------------- ------------- ------------- -------------
     1    5.00D-03             0             0             0             0
     2    5.00D-03             0             0             0             0
     3    5.00D-03             0             0             0             0

 # of small denominators (double excitations)
 State       dEmin  dE < 5.0D-03  dE < 5.0D-04  dE < 5.0D-05  dE < 5.0D-06
 ----- ----------- ------------- ------------- ------------- -------------
     1    5.00D-03             0             0             0             0
     2    5.00D-03             0             0             0             0
     3    5.00D-03             0             0             0             0

 *** Zeroth-Order Setup (Granovsky's zeroth-order vectors)
 Zeroth-order effective Hamiltonian
  (= Sum_i e(i)*<I|a+(i)a(i)|J> ):
                   1            2            3
     1 -6.930368D+00
     2  1.629376D-02-6.824087D+00
     3 -1.957804D-05-1.964379D-03-6.724255D+00

 Zeroth-order vectors:
 State #    1
       MC st            1           2           3
       Coeff    9.890D-01  -1.482D-01  -1.303D-03
 State #    2
       MC st            2           1           3
       Coeff   -9.888D-01  -1.482D-01  -1.997D-02
 State #    3
       MC st            3           2           1
       Coeff    9.998D-01  -1.994D-02  -1.671D-03

 *** GMC-QDPT computation

 (Integral reading:  CPU/Wall time =           0.00 /           0.00 sec.)

 One-external:
   0 -ionized terms: CPU/Wall time =           0.03 /           0.03 sec.
 (-1)-ionized terms: CPU/Wall time =           0.09 /           0.09 sec.
 (+1)-ionized terms: CPU/Wall time =           0.02 /           0.02 sec.
 (+1)-ionized terms: CPU/Wall time =           0.01 /           0.01 sec.
 (+2)-ionized terms: CPU/Wall time =           0.00 /           0.00 sec.

 Internal:
 # of macro loops for internal contribution =         1 (input)
 Loop:    1
 Dimension of internal CISD space     =         0  (after screening)
 Space construction: CPU/Wall time =           0.02 /           0.02 sec.
 Internal terms:     CPU/Wall time =           0.00 /           0.00 sec.

 Two-external:
   0 -ionized terms: CPU/Wall time =           0.06 /           0.06 sec.
 (-1)-ionized terms: CPU/Wall time =           0.99 /           0.99 sec.
 (-2)-ionized terms: CPU/Wall time =           0.17 /           0.17 sec.

 Total time:         CPU/Wall time =           1.39 /           1.39 sec.

 ***                  ***
 *** GMC-QDPT Results ***
 ***                  ***

 Diagonal elements of effective Hamiltonian:
 Heff(  1) =   -55.92340965
 Heff(  2) =   -55.78947130
 Heff(  3) =   -55.66856875

 Off-diagonal elements of effective Hamiltonian:
                   1            2
     2  1.916350D-02
     3 -4.770969D-05-2.358689D-03

 ******** GMC-QDPT energies ********
 ----------------------------------------------------------------------------
   State                        1st order                           2nd order
 ----------------------------------------------------------------------------
     1     E(REF-CI)=      -55.8267305764   E(GMC-QDPT2)=      -55.9260978709
     2     E(REF-CI)=      -55.6783624433   E(GMC-QDPT2)=      -55.7868297827
     3     E(REF-CI)=      -55.5577512274   E(GMC-QDPT2)=      -55.6685220446
 ----------------------------------------------------------------------------

 Excitation energies (invalid if E(1)/=E(GS)):
 ----------------------------------------------------------------------------
   State                        1st order                           2nd order
 ----------------------------------------------------------------------------

     TZ Sorted GMC-PT ENERGIES:
         1      -55.9260978709
         2      -55.7868297827
         3      -55.6685220446
     2     E(REF-CI)=        4.0373046 eV   E(GMC-QDPT2)=        3.7896797 eV
     3     E(REF-CI)=        7.3193047 eV   E(GMC-QDPT2)=        7.0089988 eV
 ----------------------------------------------------------------------------

 Main characters of perturbed GMC-QDPT states:

 State #    1  Energy =     -55.926097871  S =  0.500

      Det      Coef    Occupancy (Ignoring core)
      ---      ----    --------- --------- -----
        1    0.970615  11110001110000
        2    0.051655  11101001110000
       36    0.061361  11110001101000
      179    0.065037  10111001010100
      393    0.058707  10110101010010
      717    0.062511  11010011100001

 State #    2  Energy =     -55.786829783  S =  0.500

      Det      Coef    Occupancy (Ignoring core)
      ---      ----    --------- --------- -----
        1   -0.065274  11110001110000
       36    0.972604  11110001101000
      108   -0.051037  11011000111000
      249    0.068361  10111001001100
      463    0.061344  10110101001010

 State #    3  Energy =     -55.668522045  S =  0.500

      Det      Coef    Occupancy (Ignoring core)
      ---      ----    --------- --------- -----
        4   -0.051546  10111001110000
       71    0.973197  11110001011000
       72   -0.054488  11101001011000
      109    0.055501  10111000111000
      177   -0.056730  11101001010100
      822   -0.064058  11010011001001

 <<<Max |V/de| = 2.763D-02  Thresh = 1.000D+00

 Oscillator strength (invalid if E(1)/=E(GS)):
 ----------------------------------------------------------------------------
   State                        1st order                           2nd order
 ----------------------------------------------------------------------------
     2     F(REF-CI)=        0.0049180761     F(GMC-PT2)=        0.0046947551
     3     F(REF-CI)=        0.0046014125     F(GMC-PT2)=        0.0045286667
 ----------------------------------------------------------------------------

 Dipole moment matrix elements, x, y, z, in A.U.
States    1    1       -0.2231866034       -0.3573059801        0.6029851310
States    1    2        0.0285536122        0.0650896517        0.2133385310
States    1    3       -0.1437369794        0.0747651787       -0.0110754492
States    2    1        0.0285536122        0.0650896517        0.2133385310
States    2    2       -0.2182548789       -0.4100973108        0.4114773885
States    2    3        0.1980280895       -0.1216761160        0.0006662280
States    3    1       -0.1437369794        0.0747651787       -0.0110754492
States    3    2        0.1980280895       -0.1216761160        0.0006662280
States    3    3       -0.3123792698       -0.4473683840        0.3566374863

 Oscillator strength (valid only when positive): 
 ----------------------------------------------------------------------------
  States                        1st order                           2nd order
 ----------------------------------------------------------------------------
  1  1     F(REF-CI)=        0.0000000000     F(GMC-PT2)=        0.0000000000
  1  2     F(REF-CI)=       -0.0049180761     F(GMC-PT2)=       -0.0046947551
  1  3     F(REF-CI)=       -0.0046014125     F(GMC-PT2)=       -0.0045286667
  2  1     F(REF-CI)=        0.0049180761     F(GMC-PT2)=        0.0046947551
  2  2     F(REF-CI)=        0.0000000000     F(GMC-PT2)=        0.0000000000
  2  3     F(REF-CI)=       -0.0044005556     F(GMC-PT2)=       -0.0042607069
  3  1     F(REF-CI)=        0.0046014125     F(GMC-PT2)=        0.0045286667
  3  2     F(REF-CI)=        0.0044005556     F(GMC-PT2)=        0.0042607069
  3  3     F(REF-CI)=        0.0000000000     F(GMC-PT2)=        0.0000000000
 CPU     0: STEP CPU TIME=     1.91 TOTAL CPU TIME=         15.5 (      0.3 MIN)
 TOTAL WALL CLOCK TIME=         15.6 SECONDS, CPU UTILIZATION IS    99.94%

     !!! DIABATIZATION FOR REF CI STATES !!!

 *******************************************************
          $DMO GROUP FOUND IN THE INPUT.
        DIABATIZATION OF ADIABATIC STATES BEGINS.
     PROGRAMMED BY TAO ZENG (CARLETON UNIVERSITY).
               Email: toby.zeng@carleton.ca
     See T. Zeng, J. Chem. Phys. 2017, 146, 144103
 *******************************************************

 *************************************************************************
     STEP 1: TRANSFORMATION OF ADIABATIC STATES TO THE DMO REPRESENTATION
         See Atchity and Ruedenberg, J. Chem. Phys. 1999, 111, 2910
 *************************************************************************

Read in Diabatic Molecualr Orbitals:

                      1          2          3          4          5

    1  N  1  S    0.008609   0.000000   0.000000  -0.013219   0.279491
    2  N  1  S    0.442914  -0.000000   0.000000  -0.184329   0.867803
    3  N  1  S    0.276913   0.000000  -0.000000  -0.288315   0.144236
    4  N  1  X   -0.000000   0.493155  -0.024636  -0.000000  -0.000000
    5  N  1  Y    0.000000   0.024636   0.493155  -0.000000   0.000000
    6  N  1  Z    0.090197   0.000000   0.000000   0.593421   0.705309
    7  N  1  X   -0.000000   0.210628  -0.010522   0.000000   0.000000
    8  N  1  Y    0.000000   0.010522   0.210628  -0.000000  -0.000000
    9  N  1  Z   -0.004381   0.000000   0.000000   0.381592  -0.106092
   10  N  1 XX   -0.000457   0.010719  -0.000535  -0.012387   0.006153
   11  N  1 YY   -0.000457  -0.010719   0.000535  -0.012387   0.006153
   12  N  1 ZZ    0.000914  -0.000000   0.000000   0.024773  -0.012306
   13  N  1 XY    0.000000  -0.000618  -0.012377  -0.000000   0.000000
   14  N  1 XZ   -0.000000   0.026529  -0.001325  -0.000000   0.000000
   15  N  1 YZ    0.000000   0.001325   0.026529  -0.000000   0.000000
   16  H  2  S    0.194462  -0.176074   0.343485   0.112865  -0.523343
   17  H  2  S    0.003574  -0.023812   0.046452   0.024014  -0.054445
   18  H  2  X    0.018760   0.009101   0.022834   0.009336  -0.039151
   19  H  2  Y   -0.032493   0.022287  -0.020044  -0.016171   0.067811
   20  H  2  Z   -0.009251   0.008464  -0.016511   0.018769  -0.010566
   21  H  3  S    0.194462  -0.209430  -0.324227   0.112865  -0.523343
   22  H  3  S    0.003574  -0.028322  -0.043847   0.024014  -0.054445
   23  H  3  X    0.018760   0.006781  -0.023627   0.009336  -0.039151
   24  H  3  Y    0.032493  -0.024174  -0.017723   0.016171  -0.067811
   25  H  3  Z   -0.009251   0.010067   0.015585   0.018769  -0.010566
   26  H  4  S    0.194462   0.385503  -0.019258   0.112865  -0.523343
   27  H  4  S    0.003574   0.052134  -0.002604   0.024014  -0.054445
   28  H  4  X   -0.037519  -0.032295   0.001613  -0.018672   0.078302
   29  H  4  Y    0.000000   0.001067   0.021353  -0.000000   0.000000
   30  H  4  Z   -0.009251  -0.018530   0.000926   0.018769  -0.010566

                      6          7

    1  N  1  S    0.000000  -0.000000
    2  N  1  S    0.000000  -0.000000
    3  N  1  S   -0.000000   0.000000
    4  N  1  X   -0.930415  -0.002083
    5  N  1  Y   -0.002083   0.930415
    6  N  1  Z   -0.000000   0.000000
    7  N  1  X   -0.046866  -0.000105
    8  N  1  Y   -0.000105   0.046866
    9  N  1  Z   -0.000000   0.000000
   10  N  1 XX    0.001538   0.000003
   11  N  1 YY   -0.001538  -0.000003
   12  N  1 ZZ   -0.000000   0.000000
   13  N  1 XY   -0.000004   0.001776
   14  N  1 XZ    0.039985   0.000090
   15  N  1 YZ    0.000090  -0.039985
   16  H  2  S   -0.362630  -0.631354
   17  H  2  S   -0.065964  -0.114846
   18  H  2  X    0.002763  -0.037520
   19  H  2  Y    0.037435   0.040736
   20  H  2  Z    0.001882   0.003276
   21  H  3  S   -0.365454   0.629724
   22  H  3  S   -0.066477   0.114549
   23  H  3  X    0.002595   0.037532
   24  H  3  Y   -0.037617   0.040567
   25  H  3  Z    0.001896  -0.003268
   26  H  4  S    0.728084   0.001630
   27  H  4  S    0.132441   0.000297
   28  H  4  X   -0.062317  -0.000140
   29  H  4  Y    0.000055  -0.024345
   30  H  4  Z   -0.003778  -0.000008

NUMBER OF SUB ACTIVE SPACES:   1
ROTATE ACTIVE MOS TO DMOS IN EACH SUB-SPACE

SPACE  1:

OVERLAP BETWEEN ORTHONORMAL AND PRE-ORTHONORMAL REF. DMOS

             1           2           3           4           5

    1    0.9543892  -0.0300442  -0.0464654  -0.0140695   0.0176344
    2   -0.0300442   0.9770316  -0.0611314  -0.0333494   0.0406810
    3   -0.0464654  -0.0611314   0.9113514  -0.0492141   0.0554096
    4   -0.0140695  -0.0333494  -0.0492141   0.9928732  -0.0206220
    5    0.0176344   0.0406810   0.0554096  -0.0206220   1.1831439
    6   -0.0035693   0.0175897  -0.0490745  -0.0303965  -0.0312584
    7    0.0065778   0.0461381   0.0405238   0.0465676   0.0669316

             6           7

    1   -0.0035693   0.0065778
    2    0.0175897   0.0461381
    3   -0.0490745   0.0405238
    4   -0.0303965   0.0465676
    5   -0.0312584   0.0669316
    6    1.0996718  -0.0129849
    7   -0.0129849   1.1132671
REFERENCE DMOS AFTER ORTHONORMALIZATION:

                      1          2          3          4          5

    1  N  1  S    0.003568  -0.010499  -0.014562  -0.008608   0.237955
    2  N  1  S    0.446374  -0.022582  -0.029386  -0.164158   0.728654
    3  N  1  S    0.283193  -0.006382  -0.008641  -0.284976   0.113015
    4  N  1  X    0.012269   0.521038  -0.034555  -0.009686  -0.037631
    5  N  1  Y    0.021173   0.021151   0.512243  -0.012732  -0.070972
    6  N  1  Z    0.093199   0.001215   0.005664   0.615977   0.609628
    7  N  1  X    0.007104   0.217780   0.002212   0.006389  -0.008265
    8  N  1  Y    0.012398   0.024983   0.233928   0.011102  -0.013397
    9  N  1  Z    0.004756   0.019033   0.028511   0.385586  -0.084043
   10  N  1 XX   -0.000453   0.010290  -0.000797  -0.012040   0.004716
   11  N  1 YY   -0.001218  -0.011770  -0.001402  -0.012926   0.005383
   12  N  1 ZZ    0.001671   0.001481   0.002198   0.024965  -0.010099
   13  N  1 XY   -0.000772  -0.001674  -0.013942  -0.000866   0.000569
   14  N  1 XZ    0.001139   0.026807   0.002500   0.002183  -0.000019
   15  N  1 YZ    0.002001   0.005235   0.031447   0.003564   0.000527
   16  H  2  S    0.234410  -0.090943   0.424626   0.142444  -0.436768
   17  H  2  S    0.007837  -0.011840   0.056233   0.028859  -0.043528
   18  H  2  X    0.022728   0.015375   0.031622   0.012804  -0.033212
   19  H  2  Y   -0.036315   0.014783  -0.026970  -0.017044   0.057242
   20  H  2  Z   -0.009853   0.008102  -0.016689   0.017933  -0.008110
   21  H  3  S    0.181614  -0.234284  -0.377867   0.040729  -0.462327
   22  H  3  S    0.000133  -0.033903  -0.054836   0.012326  -0.049825
   23  H  3  X    0.019176   0.005979  -0.023669   0.006326  -0.034378
   24  H  3  Y    0.033233  -0.023345  -0.018851   0.010821  -0.059169
   25  H  3  Z   -0.007833   0.012532   0.019549   0.020270  -0.009491
   26  H  4  S    0.234004   0.418712   0.088558   0.145785  -0.445048
   27  H  4  S    0.007771   0.055053   0.011981   0.029452  -0.044933
   28  H  4  X   -0.042779  -0.037502  -0.011060  -0.021448   0.066884
   29  H  4  Y    0.001535   0.003857   0.024973   0.002499   0.000046
   30  H  4  Z   -0.009843  -0.018261   0.000564   0.017903  -0.007974

                      6          7

    1  N  1  S    0.005903  -0.012933
    2  N  1  S    0.016232  -0.037384
    3  N  1  S   -0.003982   0.003985
    4  N  1  X   -0.857608  -0.029615
    5  N  1  Y    0.028023   0.821231
    6  N  1  Z    0.034149  -0.062827
    7  N  1  X   -0.046151  -0.009551
    8  N  1  Y    0.010300   0.032935
    9  N  1  Z    0.009101  -0.012825
   10  N  1 XX    0.000996  -0.000160
   11  N  1 YY   -0.001472   0.000743
   12  N  1 ZZ    0.000476  -0.000583
   13  N  1 XY   -0.000584   0.002172
   14  N  1 XZ    0.036098  -0.000797
   15  N  1 YZ    0.001079  -0.037459
   16  H  2  S   -0.323731  -0.563666
   17  H  2  S   -0.058929  -0.104041
   18  H  2  X    0.002759  -0.034131
   19  H  2  Y    0.034051   0.034843
   20  H  2  Z    0.001106   0.003023
   21  H  3  S   -0.349668   0.610059
   22  H  3  S   -0.062156   0.108050
   23  H  3  X    0.000893   0.036026
   24  H  3  Y   -0.035471   0.040588
   25  H  3  Z    0.002610  -0.004367
   26  H  4  S    0.651577   0.007764
   27  H  4  S    0.119657   0.000368
   28  H  4  X   -0.055413  -0.001686
   29  H  4  Y    0.000906  -0.023042
   30  H  4  Z   -0.002876   0.000484

 -------------------------------------------
       MAXIMIZING MORMO OVERLAP TERM        
 -------------------------------------------
   SWEEP    VALUE       PROGRESS
     0     4.56862
     1     6.88614     2.31752201
     2     6.91451     0.02836444
     3     6.91451     0.00000089
     4     6.91451     0.00000000
     5     6.91451     0.00000000
 THE ROTATION IS DONE
ACTIVE ORBITALS AFTER MORMO:

                      1          2          3          4          5

    1  N  1  S   -0.000890  -0.021798  -0.033047  -0.014905   0.175342
    2  N  1  S    0.400835  -0.056210  -0.086640  -0.200223   0.665359
    3  N  1  S    0.363228   0.059815   0.097948  -0.252224   0.197701
    4  N  1  X   -0.004023   0.485996  -0.061102  -0.032364  -0.012908
    5  N  1  Y   -0.008986  -0.012299   0.441997  -0.053391  -0.028769
    6  N  1  Z    0.074447  -0.025205  -0.033803   0.608933   0.611243
    7  N  1  X    0.020340   0.247828   0.035526   0.045362  -0.040206
    8  N  1  Y    0.037577   0.064449   0.308552   0.075844  -0.064676
    9  N  1  Z    0.043701   0.058830   0.087267   0.385893  -0.080584
   10  N  1 XX    0.006137   0.009598   0.017608  -0.005954  -0.027213
   11  N  1 YY   -0.004934  -0.008911  -0.016361  -0.015089   0.017039
   12  N  1 ZZ   -0.001203  -0.000687  -0.001247   0.021043   0.010175
   13  N  1 XY   -0.010185  -0.020845  -0.031654  -0.009695   0.041616
   14  N  1 XZ   -0.001970   0.014324  -0.000517  -0.001775   0.030111
   15  N  1 YZ   -0.002637   0.000654   0.015305  -0.003781   0.049897
   16  H  2  S    0.191988  -0.130372   0.337131   0.111645  -0.404693
   17  H  2  S    0.020529   0.004417   0.113347   0.041106  -0.076814
   18  H  2  X    0.028428  -0.012282   0.039978   0.013448  -0.041001
   19  H  2  Y   -0.012487   0.024907   0.004186  -0.001536   0.022218
   20  H  2  Z   -0.001716   0.007155  -0.002919   0.018934  -0.021864
   21  H  3  S    0.175397  -0.217113  -0.344190   0.073404  -0.479203
   22  H  3  S   -0.011289  -0.074863  -0.125758   0.014827  -0.078017
   23  H  3  X    0.015808   0.013262  -0.017502   0.011510  -0.019040
   24  H  3  Y    0.026474  -0.016064  -0.002339   0.019586  -0.037213
   25  H  3  Z   -0.016005   0.020202   0.030819   0.015036  -0.006056
   26  H  4  S    0.192397   0.361318   0.020294   0.113485  -0.412371
   27  H  4  S    0.019406   0.093655   0.047475   0.041396  -0.078201
   28  H  4  X   -0.025982  -0.027588   0.018576  -0.008327   0.040120
   29  H  4  Y    0.017995   0.031763   0.017371   0.010431  -0.025215
   30  H  4  Z   -0.001560  -0.005188   0.004546   0.019303  -0.020746

                      6          7

    1  N  1  S   -0.023936   0.033247
    2  N  1  S   -0.062949   0.092040
    3  N  1  S    0.093119  -0.151068
    4  N  1  X   -0.850031  -0.035543
    5  N  1  Y    0.031935   0.813693
    6  N  1  Z    0.059560  -0.111113
    7  N  1  X   -0.065408   0.000328
    8  N  1  Y    0.002991   0.052088
    9  N  1  Z   -0.014027   0.035352
   10  N  1 XX   -0.023956  -0.052110
   11  N  1 YY    0.029314   0.045438
   12  N  1 ZZ   -0.005357   0.006672
   13  N  1 XY   -0.056799   0.034608
   14  N  1 XZ    0.044258   0.012667
   15  N  1 YZ   -0.014433  -0.029169
   16  H  2  S   -0.319282  -0.487462
   17  H  2  S   -0.085927  -0.164861
   18  H  2  X   -0.015664  -0.046723
   19  H  2  Y    0.036115   0.008732
   20  H  2  Z   -0.030175   0.002352
   21  H  3  S   -0.331372   0.566985
   22  H  3  S   -0.107777   0.195879
   23  H  3  X    0.040629   0.036617
   24  H  3  Y   -0.037444   0.002652
[...]

 ---------------------------------------
     - ROTATION TO DIABATIC STATES -    
 ---------------------------------------
 ROWS=ADIABATIC, COLUMNS=DIABATIC STATES

             1           2           3

    1   -0.8426260   0.2689854   0.4665064
    2   -0.5378975  -0.3794881  -0.7527650
    3    0.0254491   0.8852320  -0.4644531

 ---------------------------------------
          - DIABATIC STATES -           
 ---------------------------------------

 State #    1  Energy =     -55.885636097

      Det      Coef        Coefp    Occupancy (Ignoring core)
      ---      ----        ----    --------- --------- -----
        1    0.891334   -0.891334  222+000
       17    0.155292    0.155292  22-+00+
        3    0.138768    0.138768  22-++00
      141   -0.133341   -0.133341  22++-00
      701   -0.123070   -0.123070  22++00-
       16    0.119261   -0.119261  222000+
        4    0.095252   -0.095252  2-2++00
      176   -0.091701    0.091701  2+2+-00
       18    0.090618   -0.090618  2-2+00+
      736   -0.088953    0.088953  2+2+00-
      351    0.087926    0.087926  22++0-0
        7   -0.086722   -0.086722  22-+0+0
        6   -0.072499    0.072499  22200+0
      393   -0.072114   -0.072114  202+020
      717   -0.066909   -0.066909  220+002
        5    0.063091    0.063091  -22++00
        8   -0.050707    0.050707  2-2+0+0
      211   -0.045060   -0.045060  +22+-00
      402    0.039189   -0.039189  2+-+0-+
       19    0.038039    0.038039  -22+00+
      215   -0.036249   -0.036249  022+200
      708    0.035844   -0.035844  2-++0+-
      390    0.035605   -0.035605  -+2++-0
      218    0.033988   -0.033988  +-2+-+0
       51   -0.032221    0.032221  22+-00+
        2    0.031577   -0.031577  2220+00
     1051   -0.030885   -0.030885  2+++0--
       76    0.030713    0.030713  2+2-0+0
      212    0.030126    0.030126  +220200
       20   -0.029727   -0.029727  22-0+0+
      192    0.029342   -0.029342  2+-+-0+
      705   -0.027912   -0.027912  -2+++0-
      704    0.027800   -0.027800  2-+++0-
      716   -0.027298   -0.027298  22+0002
      122    0.027021    0.027021  +2-200+
      227   -0.026903   -0.026903  +2-+-0+
      738   -0.026622   -0.026622  2+-++0-
      179   -0.026165   -0.026165  202+200
      158   -0.026020   -0.026020  2-++-0+
       29   -0.025432   -0.025432  2--+0++
      706    0.024632    0.024632  22+00+-
      751   -0.024538    0.024538  2+20002
      387   -0.024317    0.024317  2+20+-0
      702    0.024261    0.024261  22+0+0-
      424   -0.023342   -0.023342  +-2++-0
      773    0.023304   -0.023304  +2-++0-
      113   -0.022890    0.022890  +-220+0
      184   -0.021545   -0.021545  -+2+-+0
        9   -0.020207   -0.020207  -22+0+0

 State #    2  Energy =     -55.704196097

      Det      Coef        Coefp    Occupancy (Ignoring core)
      ---      ----        ----    --------- --------- -----
       71   -0.881035    0.881035  2+22000
       73    0.153381   -0.153381  2+-2+00
      246   -0.153271   -0.153271  2++2-00
      736   -0.138123    0.138123  2+2+00-
       86    0.134519    0.134519  2+2-00+
      806   -0.123105   -0.123105  2++200-
       77   -0.115867    0.115867  2+-20+0
       87    0.110763   -0.110763  2+-200+
      456    0.099178    0.099178  2++20-0
      386    0.075369   -0.075369  2+2+0-0
      822    0.073884   -0.073884  2+02002
       88   -0.073737    0.073737  202200+
       76   -0.072199   -0.072199  2+2-0+0
       74   -0.068156    0.068156  2022+00
      106   -0.061073   -0.061073  +222000
      316    0.057562    0.057562  ++22-00
      813    0.047173   -0.047173  20+20+-
       36    0.044223    0.044223  22+2000
       75   -0.044185   -0.044185  -+22+00
      122    0.041485    0.041485  +2-200+
       90    0.040848    0.040848  2+--+0+
       99   -0.040398    0.040398  20-20++
      320    0.037571    0.037571  0+22200
      108    0.037104    0.037104  +2-2+00
      911    0.036937    0.036937  2+++-0-
      821    0.034758   -0.034758  2++-002
      177    0.034573   -0.034573  2+20200
      317    0.034050   -0.034050  ++2-200
      752   -0.033981   -0.033981  2+-+002
      323   -0.033611    0.033611  +022-+0
      180   -0.033371    0.033371  -+2+200
        6    0.033054   -0.033054  22200+0
      332   -0.032716    0.032716  ++-2-0+
      810   -0.032279   -0.032279  -++2+0-
      807   -0.030940    0.030940  2++-+0-
      876    0.030148    0.030148  ++2200-
      112   -0.029930   -0.029930  +2-20+0
      192   -0.028946    0.028946  2+-+-0+
      263   -0.026374   -0.026374  20+2-0+
      183   -0.026317    0.026317  202+-+0
      111    0.026250   -0.026250  +22-0+0
       38   -0.025788    0.025788  2202+00
      281   -0.025042    0.025042  +2+2-00
      753    0.024677    0.024677  202+002
      742    0.024195    0.024195  2+-+0+-
      264    0.023920   -0.023920  -++2-0+
      878    0.023916    0.023916  ++-2+0-
      841   -0.023815    0.023815  +2+200-
      526   -0.023668   -0.023668  ++220-0
      811   -0.023130    0.023130  2++-0+-
      402   -0.022498    0.022498  2+-+0-+
      471    0.021579    0.021579  2++-0-+
      809    0.021080   -0.021080  20+2+0-

 State #    3  Energy =     -55.791617504

      Det      Coef        Coefp    Occupancy (Ignoring core)
      ---      ----        ----    --------- --------- -----
       36   -0.880600   -0.880600  22+2000
       38   -0.145485    0.145485  2202+00
       51    0.144491   -0.144491  22+-00+
       39   -0.135201   -0.135201  2-+2+00
      701   -0.135002   -0.135002  22++00-
       53   -0.118334   -0.118334  2-+200+
       52   -0.117496    0.117496  220200+
      106   -0.102386   -0.102386  +222000
       41   -0.098579    0.098579  22+-0+0
      246    0.095363    0.095363  2++2-00
      806    0.092904    0.092904  2++200-
      351    0.091104    0.091104  22++0-0
       42    0.077910   -0.077910  22020+0
      463    0.071505   -0.071505  20+2020
       40   -0.059525    0.059525  -2+2+00
      123    0.046982   -0.046982  +-2200+
      472   -0.046409   -0.046409  2+020-+
       55   -0.042658   -0.042658  220-+0+
       54   -0.040564    0.040564  -2+200+
       64    0.040388   -0.040388  2-020++
       71   -0.040115    0.040115  2+22000
       73    0.039838   -0.039838  2+-2+00
      460   -0.038104   -0.038104  -++2+-0
      288   -0.037927   -0.037927  +-+2-+0
      109    0.037119   -0.037119  +-22+00
      285    0.036217   -0.036217  02+2200
      717    0.034428    0.034428  220+002
      142    0.034298    0.034298  22+0200
      145   -0.033981   -0.033981  -2++200
      281    0.033868   -0.033868  +2+2-00
      282    0.032975    0.032975  +2+-200
      297    0.031345   -0.031345  +202-0+
      157    0.030845   -0.030845  220+-0+
      718    0.030107   -0.030107  2-++002
       86    0.029624    0.029624  2+2-00+
      367    0.029112   -0.029112  220+0-+
      122    0.027610    0.027610  +2-200+
      249    0.026657   -0.026657  20+2200
      876   -0.026492   -0.026492  ++2200-
      457   -0.026210    0.026210  2++-+-0
      108    0.025657    0.025657  +2-2+00
      262   -0.025555   -0.025555  2+02-0+
       87    0.025430   -0.025430  2+-200+
      494    0.025285   -0.025285  +-+2+-0
       46    0.025039   -0.025039  2-+-++0
       16   -0.024835    0.024835  222000+
      148   -0.024787   -0.024787  2-++-+0
      821   -0.023955    0.023955  2++-002
       56   -0.023567    0.023567  2-+-+0+
      808    0.022462   -0.022462  2+02+0-
      254    0.022230   -0.022230  -++2-+0
      316   -0.020764   -0.020764  ++22-00
       45    0.020692    0.020692  220-++0
       89   -0.020490   -0.020490  -+2200+
      859    0.020089   -0.020089  02+2002

 ---------------------------------------
      - DIABATIC STATES IN CMO -        
 ---------------------------------------

 State #    1  Energy =     -55.885636097

      Det      Coef        Coefp    Occupancy (Ignoring core)
      ---      ----        ----    --------- --------- -----
        1    0.782793   -0.782793  222+000
       36   -0.574543   -0.574543  22+2000
      142    0.050409    0.050409  22+0200
      179   -0.050221   -0.050221  202+200
      143   -0.048399   -0.048399  220+200
      393   -0.048240   -0.048240  202+020
      717   -0.047343   -0.047343  220+002
      148   -0.043341   -0.043341  2-++-+0
      157    0.041826   -0.041826  220+-0+
        8   -0.039437    0.039437  2-2+0+0
      249    0.038499   -0.038499  20+2200
       17    0.035801    0.035801  22-+00+
      463    0.035736   -0.035736  20+2020
      106   -0.035088   -0.035088  +222000
       71   -0.030872    0.030872  2+22000
      145   -0.030046   -0.030046  -2++200
      703   -0.029017   -0.029017  220++0-
      122    0.028555    0.028555  +2-200+
      218    0.026563   -0.026563  +-2+-+0
       43    0.026179    0.026179  2-+20+0
      387   -0.025264    0.025264  2+20+-0
      212    0.025153    0.025153  +220200
       76    0.024336    0.024336  2+2-0+0
      789   -0.023841   -0.023841  022+002
      108    0.023675    0.023675  +2-2+00
      390    0.023058   -0.023058  -+2++-0
        2    0.022955   -0.022955  2220+00
      354    0.022428   -0.022428  2-+++-0
      113   -0.021885    0.021885  +-220+0
      457   -0.021201    0.021201  2++-+-0
      787   -0.020752    0.020752  +2-+002
       51   -0.020545    0.020545  22+-00+
      388   -0.020422   -0.020422  2+-++-0
      402    0.020368   -0.020368  2+-+0-+
      719    0.020071    0.020071  -2++002

 State #    2  Energy =     -55.704196097

      Det      Coef        Coefp    Occupancy (Ignoring core)
      ---      ----        ----    --------- --------- -----
       71   -0.866280    0.866280  2+22000
       36   -0.341356   -0.341356  22+2000
        1   -0.284519    0.284519  222+000
      822    0.061114   -0.061114  2+02002
      177    0.050378   -0.050378  2+20200
      109   -0.047188    0.047188  +-22+00
       72   -0.046869   -0.046869  2+2-+00
        4    0.044512   -0.044512  2-2++00
      248    0.041781   -0.041781  2+02200
      808    0.039663   -0.039663  2+02+0-
      813    0.033559   -0.033559  20+20+-
      262   -0.032963   -0.032963  2+02-0+
        2   -0.032037    0.032037  2220+00
       75    0.029952    0.029952  -+22+00
      180   -0.029583    0.029583  -+2+200
      317    0.029408   -0.029408  ++2-200
      183   -0.028126    0.028126  202+-+0
      178    0.027458    0.027458  2+-+200
      249    0.027091   -0.027091  20+2200
      112   -0.026969   -0.026969  +2-20+0
      111    0.026740   -0.026740  +22-0+0
      247   -0.026435    0.026435  2++-200
      824    0.025639    0.025639  -++2002
      894    0.025576    0.025576  0+22002
      108    0.025297    0.025297  +2-2+00
       99   -0.024676    0.024676  20-20++
      320    0.023455    0.023455  0+22200
      323   -0.022182    0.022182  +022-+0
       78   -0.022070    0.022070  20220+0
      892   -0.021909   -0.021909  ++-2002
      807   -0.021456    0.021456  2++-+0-
      179    0.021287    0.021287  202+200
      253   -0.021116   -0.021116  20+2-+0
       42    0.021048   -0.021048  22020+0
      717    0.020827    0.020827  220+002
        6    0.020327   -0.020327  22200+0
      534    0.020278    0.020278  0+22020

 State #    3  Energy =     -55.791617504

      Det      Coef        Coefp    Occupancy (Ignoring core)
      ---      ----        ----    --------- --------- -----
       36   -0.709409   -0.709409  22+2000
        1   -0.502634    0.502634  222+000
       71    0.442570   -0.442570  2+22000
        2   -0.050792    0.050792  2220+00
      463    0.050624   -0.050624  20+2020
      249    0.049646   -0.049646  20+2200
      108    0.038129    0.038129  +2-2+00
      717    0.036477    0.036477  220+002
      179    0.036426    0.036426  202+200
      472   -0.032073   -0.032073  2+020-+
      109    0.029558   -0.029558  +-22+00
      122    0.029275    0.029275  +2-200+
      457   -0.028035    0.028035  2++-+-0
       72    0.027946    0.027946  2+2-+00
      393    0.027833    0.027833  202+020
        4   -0.026178    0.026178  2-2++00
      458    0.026155   -0.026155  2+02+-0
      177   -0.026071    0.026071  2+20200
       74    0.024794   -0.024794  2022+00
      859    0.023650   -0.023650  02+2002
      121   -0.023191    0.023191  +22-00+
       64    0.022662   -0.022662  2-020++
      288   -0.022172   -0.022172  +-+2-+0
      703    0.021547    0.021547  220++0-
      462   -0.021458    0.021458  2+02020
      282    0.021419    0.021419  +2+-200
      822   -0.020971    0.020971  2+02002
       38   -0.020821    0.020821  2202+00
      460   -0.020458   -0.020458  -++2+-0
       37    0.020161   -0.020161  22+-+00
      142    0.020147    0.020147  22+0200
      474   -0.020096    0.020096  -++20-+

 ---------------------------------------
    -DIABATIC STATES IN PROTOTYPES-     
 ---------------------------------------

     STATE:    1
 Group Ref#    Coefficients
     1    1    0.913165
     2    2   -0.005829
     3    3   -0.012789

WEIGHT OF LISTED PROTOTYPES:   83.41%

     STATE:    2
 Group Ref#    Coefficients
     1    1   -0.005970
     2    2    0.891636
     3    3    0.004661

WEIGHT OF LISTED PROTOTYPES:   79.51%

     STATE:    3
 Group Ref#    Coefficients
     1    1   -0.012976
     2    2    0.004617
     3    3    0.900037

WEIGHT OF LISTED PROTOTYPES:   81.03%

     DIRECT MAX. DIABATIZATION FINISHED    
 CPU     0: STEP CPU TIME=     0.25 TOTAL CPU TIME=         15.8 (      0.3 MIN)
 TOTAL WALL CLOCK TIME=         15.8 SECONDS, CPU UTILIZATION IS    99.94%

DIABATS FOR SPIN-ORBIT CALCULATION ARE READY

TRANSITION DIPOLES BETWEEN ADIABATS (in A.U.):

STATE PAIR      X         Y         Z
    1    1 -0.223187 -0.357306  0.602985
    2    1  0.028554  0.065090  0.213339
    2    2 -0.218255 -0.410097  0.411477
    3    1 -0.143737  0.074765 -0.011075
    3    2  0.198028 -0.121676  0.000666
    3    3 -0.312379 -0.447368  0.356637


TRANSITION DIPOLES BETWEEN DIABATS (in A.U.):

STATE PAIR      X         Y         Z
    1    1 -0.195193 -0.313512  0.741262
    2    1  0.014058  0.002440  0.000607
    2    2 -0.499693 -0.331420  0.333085
    3    1  0.001713  0.006743  0.002892
    3    2 -0.111224  0.078423 -0.037903
    3    3 -0.058934 -0.569839  0.296753

TRANSITION DIPOLES BETWEEN DIRECT MAX. DIABATS (in A.U.):

STATE PAIR      X         Y         Z
    1    1 -0.195191 -0.313511  0.741263
    2    1  0.014022  0.002447  0.000572
    2    2 -0.499701 -0.331417  0.333083
    3    1  0.001718  0.006723  0.002843
    3    2 -0.111215  0.078416 -0.037904
    3    3 -0.058929 -0.569844  0.296754
 No $TRANST Group Found.
 Quit without doing spin-orbit coupling
 ..... DONE WITH MP2 ENERGY .....
 CPU     0: STEP CPU TIME=     0.00 TOTAL CPU TIME=         15.8 (      0.3 MIN)
 TOTAL WALL CLOCK TIME=         15.8 SECONDS, CPU UTILIZATION IS    99.94%
            100000000  WORDS OF DYNAMIC MEMORY USED
 EXECUTION OF GAMESS TERMINATED NORMALLY Wed Nov 16 18:18:17 2022
 DDI: 715512 bytes (0.7 MB / 0 MWords) used by master data server.

 ----------------------------------------
 CPU timing information for all processes
 ========================================
 0: 15.485 + 0.312 = 15.798
 ----------------------------------------
Note: The following floating-point exceptions are signalling: IEEE_DENORMAL
 ddikick.x: exited gracefully.
unset echo
----- accounting info -----
Files used on the master node io002 were:
-rw-r--r-- 1 bsonghao nooijen   20706 Nov 16 18:18 /scratch/bsonghao/nh3_diabatization_2d_at_mode_7_8_dist-0.8_-0.5.F05
-rw-r--r-- 1 bsonghao nooijen  363520 Nov 16 18:18 /scratch/bsonghao/nh3_diabatization_2d_at_mode_7_8_dist-0.8_-0.5.F09
-rw-r--r-- 1 bsonghao nooijen 1995920 Nov 16 18:18 /scratch/bsonghao/nh3_diabatization_2d_at_mode_7_8_dist-0.8_-0.5.F10
-rw-r--r-- 1 bsonghao nooijen  131264 Nov 16 18:18 /scratch/bsonghao/nh3_diabatization_2d_at_mode_7_8_dist-0.8_-0.5.F13
-rw-r--r-- 1 bsonghao nooijen  180312 Nov 16 18:18 /scratch/bsonghao/nh3_diabatization_2d_at_mode_7_8_dist-0.8_-0.5.F15
-rw-r--r-- 1 bsonghao nooijen       0 Nov 16 18:18 /scratch/bsonghao/nh3_diabatization_2d_at_mode_7_8_dist-0.8_-0.5.F16
-rw-r--r-- 1 bsonghao nooijen    9808 Nov 16 18:18 /scratch/bsonghao/nh3_diabatization_2d_at_mode_7_8_dist-0.8_-0.5.F70
-rw-r--r-- 1 bsonghao nooijen    9808 Nov 16 18:18 /scratch/bsonghao/nh3_diabatization_2d_at_mode_7_8_dist-0.8_-0.5.F71
-rw-r--r-- 1 bsonghao nooijen   19608 Nov 16 18:18 /scratch/bsonghao/nh3_diabatization_2d_at_mode_7_8_dist-0.8_-0.5.F72
-rw-r--r-- 1 bsonghao nooijen   19608 Nov 16 18:18 /scratch/bsonghao/nh3_diabatization_2d_at_mode_7_8_dist-0.8_-0.5.F73
-rw-r--r-- 1 bsonghao nooijen 1920824 Nov 16 18:18 /scratch/bsonghao/nh3_diabatization_2d_at_mode_7_8_dist-0.8_-0.5.F74
-rw-r--r-- 1 bsonghao nooijen       0 Nov 16 18:18 /scratch/bsonghao/nh3_diabatization_2d_at_mode_7_8_dist-0.8_-0.5.F75
-rw-r--r-- 1 bsonghao nooijen   58848 Nov 16 18:18 /scratch/bsonghao/nh3_diabatization_2d_at_mode_7_8_dist-0.8_-0.5.F76
-rw-r--r-- 1 bsonghao nooijen       0 Nov 16 18:18 /scratch/bsonghao/nh3_diabatization_2d_at_mode_7_8_dist-0.8_-0.5.F77
-rw-r--r-- 1 bsonghao nooijen    1864 Nov 16 18:18 /scratch/bsonghao/nh3_diabatization_2d_at_mode_7_8_dist-0.8_-0.5.F78
-rw-r--r-- 1 bsonghao nooijen   39208 Nov 16 18:18 /scratch/bsonghao/nh3_diabatization_2d_at_mode_7_8_dist-0.8_-0.5.F79
-rw-r--r-- 1 bsonghao nooijen     104 Nov 16 18:18 /scratch/bsonghao/nh3_diabatization_2d_at_mode_7_8_dist-0.8_-0.5.F80
-rw-r--r-- 1 bsonghao nooijen   13472 Nov 16 18:18 /scratch/bsonghao/nh3_diabatization_2d_at_mode_7_8_dist-0.8_-0.5.F81
-rw-r--r-- 1 bsonghao nooijen      16 Nov 16 18:18 /scratch/bsonghao/nh3_diabatization_2d_at_mode_7_8_dist-0.8_-0.5.F82
-rw-r--r-- 1 bsonghao nooijen   19216 Nov 16 18:18 /scratch/bsonghao/nh3_diabatization_2d_at_mode_7_8_dist-0.8_-0.5.F83
-rw-r--r-- 1 bsonghao nooijen   29712 Nov 16 18:18 /scratch/bsonghao/nh3_diabatization_2d_at_mode_7_8_dist-0.8_-0.5.F84
-rw-r--r-- 1 bsonghao nooijen  401576 Nov 16 18:18 /scratch/bsonghao/nh3_diabatization_2d_at_mode_7_8_dist-0.8_-0.5.F85
-rw-r--r-- 1 bsonghao nooijen  903672 Nov 16 18:18 /scratch/bsonghao/nh3_diabatization_2d_at_mode_7_8_dist-0.8_-0.5.F86
-rw-r--r-- 1 bsonghao nooijen     656 Nov 16 18:18 /scratch/bsonghao/nh3_diabatization_2d_at_mode_7_8_dist-0.8_-0.5.F87
-rw-r--r-- 1 bsonghao nooijen   40592 Nov 16 18:18 /scratch/bsonghao/nh3_diabatization_2d_at_mode_7_8_dist-0.8_-0.5.F88
-rw-r--r-- 1 bsonghao nooijen     240 Nov 16 18:18 /scratch/bsonghao/nh3_diabatization_2d_at_mode_7_8_dist-0.8_-0.5.F89
-rw-r--r-- 1 bsonghao nooijen       0 Nov 16 18:18 /scratch/bsonghao/nh3_diabatization_2d_at_mode_7_8_dist-0.8_-0.5.F90
-rw-r--r-- 1 bsonghao nooijen   13760 Nov 16 18:18 /scratch/bsonghao/nh3_diabatization_2d_at_mode_7_8_dist-0.8_-0.5.F91
-rw-r--r-- 1 bsonghao nooijen   22776 Nov 16 18:18 /scratch/bsonghao/nh3_diabatization_2d_at_mode_7_8_dist-0.8_-0.5.F92
-rw-r--r-- 1 bsonghao nooijen   23168 Nov 16 18:18 /scratch/bsonghao/nh3_diabatization_2d_at_mode_7_8_dist-0.8_-0.5.F93
-rw-r--r-- 1 bsonghao nooijen   22776 Nov 16 18:18 /scratch/bsonghao/nh3_diabatization_2d_at_mode_7_8_dist-0.8_-0.5.F94
-rw-r--r-- 1 bsonghao nooijen   13760 Nov 16 18:18 /scratch/bsonghao/nh3_diabatization_2d_at_mode_7_8_dist-0.8_-0.5.F95
-rw-r--r-- 1 bsonghao nooijen   29440 Nov 16 18:18 /scratch/bsonghao/nh3_diabatization_2d_at_mode_7_8_dist-0.8_-0.5.F96
-rw-r--r-- 1 bsonghao nooijen    1184 Nov 16 18:18 /scratch/bsonghao/nh3_diabatization_2d_at_mode_7_8_dist-0.8_-0.5.F97
-rw-r--r-- 1 bsonghao nooijen    9808 Nov 16 18:18 /scratch/bsonghao/nh3_diabatization_2d_at_mode_7_8_dist-0.8_-0.5.F98
-rw-r--r-- 1 bsonghao nooijen   30264 Nov 16 18:18 /scratch/bsonghao/nh3_diabatization_2d_at_mode_7_8_dist-0.8_-0.5.F99
ls: No match.
ls: No match.
ls: No match.
Wed 16 Nov 2022 06:18:20 PM EST
0.291u 0.041s 0:19.17 1.7%	0+0k 48+224io 0pf+0w
