----- GAMESS execution script 'rungms' -----
This job is running on host io002
under operating system Linux at Wed 16 Nov 2022 07:56:56 PM EST
Available scratch disk space (Kbyte units) at beginning of the job is
Filesystem       1K-blocks       Used   Available Use% Mounted on
/dev/sdc1      15378471580 3278917120 11318349060  23% /scratch
GAMESS temporary binary files will be written to /scratch/bsonghao
GAMESS supplementary output files will be written to /home/bsonghao/.gamess_ascii_files/267638
Copying input file nh3_diabatization_2d_at_mode_7_8_dist0.4_0.8.inp to your run's scratch directory...
cp nh3_diabatization_2d_at_mode_7_8_dist0.4_0.8.inp /scratch/bsonghao/nh3_diabatization_2d_at_mode_7_8_dist0.4_0.8.F05
unset echo
/home/bjb2chen/gamess/ddikick.x /home/bjb2chen/gamess/gamess.00.x nh3_diabatization_2d_at_mode_7_8_dist0.4_0.8 -ddi 1 1 io002 -scr /scratch/bsonghao

 Distributed Data Interface kickoff program.
 Initiating 1 compute processes on 1 nodes to run the following command:
 /home/bjb2chen/gamess/gamess.00.x nh3_diabatization_2d_at_mode_7_8_dist0.4_0.8 

          ******************************************************
          *         GAMESS VERSION = 02 AUG 2018 (R2)         *
          *             FROM IOWA STATE UNIVERSITY             *
          * M.W.SCHMIDT, K.K.BALDRIDGE, J.A.BOATZ, S.T.ELBERT, *
          *   M.S.GORDON, J.H.JENSEN, S.KOSEKI, N.MATSUNAGA,   *
          *          K.A.NGUYEN, S.J.SU, T.L.WINDUS,           *
          *       TOGETHER WITH M.DUPUIS, J.A.MONTGOMERY       *
          *         J.COMPUT.CHEM.  14, 1347-1363(1993)        *
          **************** 64 BIT LINUX VERSION ****************

  SINCE 1993, STUDENTS AND POSTDOCS WORKING AT IOWA STATE UNIVERSITY
  AND ALSO IN THEIR VARIOUS JOBS AFTER LEAVING ISU HAVE MADE IMPORTANT
  CONTRIBUTIONS TO THE CODE:
     IVANA ADAMOVIC, CHRISTINE AIKENS, YURI ALEXEEV, POOJA ARORA,
     ANDREY ASADCHEV, ROB BELL, PRADIPTA BANDYOPADHYAY, JONATHAN BENTZ,
     BRETT BODE, KURT BRORSEN, CALEB CARLIN, GALINA CHABAN, WEI CHEN,
     CHEOL HO CHOI, PAUL DAY, ALBERT DEFUSCO, NUWAN DESILVA, TIM DUDLEY,
     DMITRI FEDOROV, ALEX FINDLATER, GRAHAM FLETCHER, MARK FREITAG,
     KURT GLAESEMANN, ANASTASIA GUININA,
     DAN KEMP, GRANT MERRILL, NORIYUKI MINEZAWA, JONATHAN MULLIN,
     TAKESHI NAGATA, SEAN NEDD, HEATHER NETZLOFF, BOSILJKA NJEGIC, RYAN OLSON,
     MIKE PAK, BUU PHAM,
     SPENCER PRUITT, LUKE ROSKOP, JIM SHOEMAKER, LYUDMILA SLIPCHENKO,
     TONY SMITH, SAROM SOK LEANG, JIE SONG, TETSUYA TAKETSUGU, SIMON WEBB,
     PENG XU, SOOHAENG YOO, FEDERICO ZAHARIEV

  ADDITIONAL CODE HAS BEEN PROVIDED BY COLLABORATORS IN OTHER GROUPS:
     IOWA STATE UNIVERSITY:
          JOE IVANIC, AARON WEST, LAIMUTIS BYTAUTAS, KLAUS RUEDENBERG
     UNIVERSITY OF TOKYO: KIMIHIKO HIRAO, TAKAHITO NAKAJIMA,
          TAKAO TSUNEDA, MUNEAKI KAMIYA, SUSUMU YANAGISAWA,
          KIYOSHI YAGI, MAHITO CHIBA, SEIKEN TOKURA, NAOAKI KAWAKAMI
     UNIVERSITY OF AARHUS: FRANK JENSEN
     UNIVERSITY OF IOWA: VISVALDAS KAIRYS, HUI LI
     NATIONAL INST. OF STANDARDS AND TECHNOLOGY: WALT STEVENS, DAVID GARMER
     UNIVERSITY OF PISA: BENEDETTA MENNUCCI, JACOPO TOMASI
     UNIVERSITY OF MEMPHIS: HENRY KURTZ, PRAKASHAN KORAMBATH
     UNIVERSITY OF ALBERTA: TOBY ZENG, MARIUSZ KLOBUKOWSKI
     UNIVERSITY OF NEW ENGLAND: MARK SPACKMAN
     MIE UNIVERSITY: HIROAKI UMEDA
     NAT. INST. OF ADVANCED INDUSTRIAL SCIENCE AND TECHNOLOGY: KAZUO KITAURA
     MICHIGAN STATE UNIVERSITY:
          KAROL KOWALSKI, MARTA WLOCH, JEFFREY GOUR, JESSE LUTZ,
          WEI LI, JUN SHEN, J. EMILIANO DEUSTUA, PIOTR PIECUCH
     UNIVERSITY OF MINNESOTA:
          YINAN SHU
     UNIVERSITY OF SILESIA: MONIKA MUSIAL, STANISLAW KUCHARSKI
     FACULTES UNIVERSITAIRES NOTRE-DAME DE LA PAIX:
          OLIVIER QUINET, BENOIT CHAMPAGNE
     UNIVERSITY OF CALIFORNIA - SANTA BARBARA: BERNARD KIRTMAN
     INSTITUTE FOR MOLECULAR SCIENCE:
          KAZUYA ISHIMURA, MICHIO KATOUDA, AND SHIGERU NAGASE
     UNIVERSITY OF NOTRE DAME: ANNA POMOGAEVA, DAN CHIPMAN
     KYUSHU UNIVERSITY:
          HARUYUKI NAKANO,
          FENG LONG GU, JACEK KORCHOWIEC, MARCIN MAKOWSKI, AND YURIKO AOKI,
          HIROTOSHI MORI AND EISAKU MIYOSHI
     PENNSYLVANIA STATE UNIVERSITY:
          TZVETELIN IORDANOV, CHET SWALINA, JONATHAN SKONE,
          SHARON HAMMES-SCHIFFER
     WASEDA UNIVERSITY:
          MASATO KOBAYASHI, TOMOKO AKAMA, TSUGUKI TOUMA,
          TAKESHI YOSHIKAWA, YASUHIRO IKABATA, JUNJI SEINO,
          YUYA NAKAJIMA, HIROMI NAKAI
     NANJING UNIVERSITY: SHUHUA LI
     UNIVERSITY OF NEBRASKA:
          PEIFENG SU, DEJUN SI, NANDUN THELLAMUREGE, YALI WANG, HUI LI
     UNIVERSITY OF ZURICH: ROBERTO PEVERATI, KIM BALDRIDGE
     N. COPERNICUS UNIVERSITY AND JACKSON STATE UNIVERSITY:
          MARIA BARYSZ
     UNIVERSITY OF COPENHAGEN: Jimmy Kromann, CASPER STEINMANN
     TOKYO INSTITUTE OF TECHNOLOGY: HIROYA NAKATA
     NAGOYA UNIVERSITY: YOSHIO NISHIMOTO, STEPHAN IRLE
     MOSCOW STATE UNIVERSITY: VLADIMIR MIRONOV

 EXECUTION OF GAMESS BEGUN Wed Nov 16 19:56:57 2022

            ECHO OF THE FIRST FEW INPUT CARDS -
 INPUT CARD> $system kdiag=3 mwords=100 memddi=1000 parall=.t. $end                         
 INPUT CARD> $contrl runtyp=energy ispher=1 $end                                            
 INPUT CARD> $contrl icut=9 itol=20 inttyp=rysquad qmttol=1.0d-05 nosym=1 $end              
 INPUT CARD> $scf    npunch=2 conv=1.0d-06 dirscf=.t.      $end                             
 INPUT CARD> $contrl scftyp=mcscf  mult=2 maxit=200 icharg=1 mplevl=2 $end                  
 INPUT CARD> $guess  guess=moread norb=29 purify=.t. $end                                   
 INPUT CARD> $basis  gbasis=ccd $end                                                        
 INPUT CARD> $mcscf  cistep=gmcci fullnr=.t. finci=mos                                      
 INPUT CARD>         acurcy=1.d-6 maxit=100 $end                                            
 INPUT CARD> $trans  dirtrf=.t. $end                                                        
 INPUT CARD> $mrmp   mrpt=gmcpt rdvecs=.f. $end                                             
 INPUT CARD> $gmcpt  nmofzc=0 nmodoc=1 nmoact=7 nelact=7 stsym(1)=A                         
 INPUT CARD>         reftyp=ormas nspace=1 mstart(1)=2 mine(1)=7 maxe(1)=7                  
 INPUT CARD>         kstate(1)=1,1,1                                                        
 INPUT CARD>         wstate(1)=1,1,1                                                        
 INPUT CARD>         iwgt=0 thrwgt=-1.0 krot=.f. kszdoe=.f. knospn=.f.                      
 INPUT CARD>         thrde=-1.0 edshft=0.02 $end                                            
 INPUT CARD> $data                                                                          
 INPUT CARD> NH3+ 3 states calculation at NH3 structure.                                    
 INPUT CARD> c1                                                                             
 INPUT CARD>N 7.0 -0.049831344 -0.02491561200000001 -0.1693811162                           
 INPUT CARD>H 1.0 0.09482997800000004 1.1388246558000001 0.24231568410000004                
 INPUT CARD>H 1.0 -0.21087130600000004 -1.0845167678 0.059429768099999974                   
 INPUT CARD>H 1.0 0.808461204 0.2919029920000001 0.46764184810000003                        
 INPUT CARD>$end                                                                            
 INPUT CARD>--- OPTIMIZED RHF      MO-S --- GENERATED AT Mon Nov 14 16:47:08 2022           
 INPUT CARD>E=      -56.3825050291, E(NUC)=   11.8429239490                                 
 INPUT CARD> $VEC                                                                           
 INPUT CARD> 1  1-1.00134066E+00-2.25158504E-03 3.44925845E-03 0.00000000E+00 0.00000000E+00
 INPUT CARD> 1  2-2.13170927E-03 0.00000000E+00 0.00000000E+00 6.57129898E-04-6.87950443E-05
 INPUT CARD> 1  3-6.87950443E-05 1.37590089E-04 0.00000000E+00 0.00000000E+00 0.00000000E+00
 INPUT CARD> 1  4 3.25502815E-04-4.84772356E-04 3.62525460E-04-6.27912517E-04-3.45956485E-04
 INPUT CARD> 1  5 3.25502815E-04-4.84772356E-04 3.62525460E-04 6.27912517E-04-3.45956485E-04
 INPUT CARD> 1  6 3.25502815E-04-4.84772356E-04-7.25050921E-04 0.00000000E+00-3.45956485E-04
 INPUT CARD> 2  1 1.31286642E-02-4.05911371E-01-2.82090992E-01 0.00000000E+00 0.00000000E+00
 INPUT CARD> 2  2-7.71489043E-02 0.00000000E+00 0.00000000E+00 9.73717494E-03 6.62450916E-04
 INPUT CARD> 2  3 6.62450916E-04-1.32490183E-03 0.00000000E+00 0.00000000E+00 0.00000000E+00
 INPUT CARD> 2  4-1.96090317E-01-1.96656153E-02-1.74855877E-02 3.02859263E-02 8.68214399E-03
 INPUT CARD> 2  5-1.96090317E-01-1.96656153E-02-1.74855877E-02-3.02859263E-02 8.68214399E-03
 INPUT CARD> 2  6-1.96090317E-01-1.96656153E-02 3.49711754E-02 0.00000000E+00 8.68214399E-03
 INPUT CARD> 3  1 0.00000000E+00 0.00000000E+00 0.00000000E+00 4.48608762E-01 0.00000000E+00
 INPUT CARD> 3  2 0.00000000E+00 2.18692520E-01 0.00000000E+00 0.00000000E+00 1.30198027E-02
 INPUT CARD> 3  3-1.30198027E-02 0.00000000E+00 0.00000000E+00 2.71832968E-02 0.00000000E+00
 INPUT CARD> 3  4-1.85332726E-01-7.03958951E-02 8.47929477E-03 1.95242443E-02 8.32835058E-03
 INPUT CARD> 3  5-1.85332726E-01-7.03958951E-02 8.47929477E-03-1.95242443E-02 8.32835058E-03
 INPUT CARD> 3  6 3.70665453E-01 1.40791790E-01-2.53376884E-02 0.00000000E+00-1.66567012E-02
 INPUT CARD> 4  1 0.00000000E+00 0.00000000E+00 0.00000000E+00 0.00000000E+00 4.48608762E-01
 INPUT CARD> 4  2 0.00000000E+00 0.00000000E+00 2.18692520E-01 0.00000000E+00 0.00000000E+00
 INPUT CARD> 4  3 0.00000000E+00 0.00000000E+00-1.50339731E-02 0.00000000E+00 2.71832968E-02
 INPUT CARD> 4  4 3.21005698E-01 1.21929267E-01 1.95242443E-02-1.40653607E-02-1.44251263E-02
  100000000 WORDS OF MEMORY AVAILABLE

     BASIS OPTIONS
     -------------
     GBASIS=CCD          IGAUSS=       0      POLAR=NONE    
     NDFUNC=       0     NFFUNC=       0     DIFFSP=       F
     NPFUNC=       0      DIFFS=       F     BASNAM=        


     RUN TITLE
     ---------
  NH3+ 3 states calculation at NH3 structure.                                    

 THE POINT GROUP OF THE MOLECULE IS C1      
 THE ORDER OF THE PRINCIPAL AXIS IS     0

 ATOM      ATOMIC                      COORDINATES (BOHR)
           CHARGE         X                   Y                   Z
 N           7.0    -0.0941675858       -0.0470836795       -0.3200838971
 H           1.0     0.1792026738        2.1520665475        0.4579102455
 H           1.0    -0.3984889870       -2.0494395202        0.1123059772
 H           1.0     1.5277701473        0.5516166699        0.8837149533

          INTERNUCLEAR DISTANCES (ANGS.)
          ------------------------------

                1 N          2 H          3 H          4 H     

   1 N       0.0000000    1.2428647 *  1.0959210 *  1.1148266 *
   2 H       1.2428647 *  0.0000000    2.2516988 *  1.1301848 *
   3 H       1.0959210 *  2.2516988 *  0.0000000    1.7607405 *
   4 H       1.1148266 *  1.1301848 *  1.7607405 *  0.0000000  

  * ... LESS THAN  3.000


     ATOMIC BASIS SET
     ----------------
 THE CONTRACTED PRIMITIVE FUNCTIONS HAVE BEEN UNNORMALIZED
 THE CONTRACTED BASIS FUNCTIONS ARE NOW NORMALIZED TO UNITY

  SHELL TYPE  PRIMITIVE        EXPONENT          CONTRACTION COEFFICIENT(S)

 N         

      1   S       1          9046.0000000    0.000699617413
      1   S       2          1357.0000000    0.005386054630
      1   S       3           309.3000000    0.027391021189
      1   S       4            87.7300000    0.103150591982
      1   S       5            28.5600000    0.278570663317
      1   S       6            10.2100000    0.448294849454
      1   S       7             3.8380000    0.278085928395
      1   S       8             0.7466000    0.015431561233

      2   S       9          9046.0000000   -0.000304990096
      2   S      10          1357.0000000   -0.002408026379
      2   S      11           309.3000000   -0.011944448725
      2   S      12            87.7300000   -0.048925992909
      2   S      13            28.5600000   -0.134472724725
      2   S      14            10.2100000   -0.315112577700
      2   S      15             3.8380000   -0.242857832550
      2   S      16             0.7466000    1.094382206854

      3   S      17             0.2248000    1.000000000000

      4   P      18            13.5500000    0.058905676772
      4   P      19             2.9170000    0.320461106714
      4   P      20             0.7973000    0.753042061792

      5   P      21             0.2185000    1.000000000000

      6   D      22             0.8170000    1.000000000000

 H         

      7   S      23            13.0100000    0.033498726390
      7   S      24             1.9620000    0.234800801174
      7   S      25             0.4446000    0.813682957883

      8   S      26             0.1220000    1.000000000000

      9   P      27             0.7270000    1.000000000000

 H         

     10   S      28            13.0100000    0.033498726390
     10   S      29             1.9620000    0.234800801174
     10   S      30             0.4446000    0.813682957883

     11   S      31             0.1220000    1.000000000000

     12   P      32             0.7270000    1.000000000000

 H         

     13   S      33            13.0100000    0.033498726390
     13   S      34             1.9620000    0.234800801174
     13   S      35             0.4446000    0.813682957883

     14   S      36             0.1220000    1.000000000000

     15   P      37             0.7270000    1.000000000000

 TOTAL NUMBER OF BASIS SET SHELLS             =   15
 NUMBER OF CARTESIAN GAUSSIAN BASIS FUNCTIONS =   30
 NOTE: THIS RUN WILL RESTRICT THE MO VARIATION SPACE TO SPHERICAL HARMONICS.
 THE NUMBER OF ORBITALS KEPT IN THE VARIATIONAL SPACE WILL BE PRINTED LATER.
 NUMBER OF ELECTRONS                          =    9
 CHARGE OF MOLECULE                           =    1
 SPIN MULTIPLICITY                            =    2
 NUMBER OF OCCUPIED ORBITALS (ALPHA)          =    5
 NUMBER OF OCCUPIED ORBITALS (BETA )          =    4
 TOTAL NUMBER OF ATOMS                        =    4
 THE NUCLEAR REPULSION ENERGY IS       10.6869132580

     $CONTRL OPTIONS
     ---------------
 SCFTYP=MCSCF        RUNTYP=ENERGY       EXETYP=RUN     
 MPLEVL=       2     CITYP =NONE         CCTYP =NONE         VBTYP =NONE    
 DFTTYP=NONE         TDDFT =NONE    
 MULT  =       2     ICHARG=       1     NZVAR =       0     COORD =UNIQUE  
 PP    =NONE         RELWFN=NONE         LOCAL =NONE         NUMGRD=       F
 ISPHER=       1     NOSYM =       1     MAXIT =     200     UNITS =ANGS    
 PLTORB=       F     MOLPLT=       F     AIMPAC=       F     FRIEND=        
 NPRINT=       7     IREST =       0     GEOM  =INPUT   
 NORMF =       0     NORMP =       0     ITOL  =      20     ICUT  =       9
 INTTYP=RYSQUAD      GRDTYP=BEST         QMTTOL= 1.0E-05

     $SYSTEM OPTIONS
     ---------------
  REPLICATED MEMORY=   100000000 WORDS (ON EVERY NODE).
 DISTRIBUTED MEMDDI=        1000 MILLION WORDS IN AGGREGATE,
 MEMDDI DISTRIBUTED OVER   1 PROCESSORS IS  1000000000 WORDS/PROCESSOR.
 TOTAL MEMORY REQUESTED ON EACH PROCESSOR=  1100000000 WORDS.
 TIMLIM=      525600.00 MINUTES, OR     365.0 DAYS.
 PARALL= T  BALTYP=  DLB     KDIAG=    3  COREFL= F
 MXSEQ2=     300 MXSEQ3=     150  mem10=         0

          ----------------
          PROPERTIES INPUT
          ----------------

     MOMENTS            FIELD           POTENTIAL          DENSITY
 IEMOM =       1   IEFLD =       0   IEPOT =       0   IEDEN =       0
 WHERE =COMASS     WHERE =NUCLEI     WHERE =NUCLEI     WHERE =NUCLEI  
 OUTPUT=BOTH       OUTPUT=BOTH       OUTPUT=BOTH       OUTPUT=BOTH    
 IEMINT=       0   IEFINT=       0                     IEDINT=       0
                                                       MORB  =       0

     -------------------------------
     INTEGRAL TRANSFORMATION OPTIONS
     -------------------------------
     NWORD  =            0
     CUTOFF = 1.0E-09     MPTRAN =       0
     DIRTRF =       T     AOINTS =DUP     

          ----------------------
          MCSCF INPUT PARAMETERS
          ----------------------
 CONVERGER SELECTION: FOCAS = F  SOSCF = F  FULLNR = T  QUD = F  JACOBI = F
 SECULAR EQUATION METHOD CISTEP = GMCCI   
 --- GENERAL INPUT OPTIONS:
 MAXIT =     100  MICIT =       1  ACURCY= 1.000E-06
 DAMP  =   0.000  CANONC=       T  ENGTOL= 1.000E-10
 EKT   =       F  NPUNCH=       2  NWORD =         0
 REGENERATE CI AFTER CONVERGENCE = NONE    
 DIABATIZATION AFTER CONVERGENCE =        F
 --- INPUT FOR FULLNR CONVERGER:
 METHOD=DM2       FORS  =       F  DROPC =       T
 LINSER=       F  FCORE =       F  NORB  =      30

          ----------------------
          INTEGRAL INPUT OPTIONS
          ----------------------
 NOPK  =       1 NORDER=       0 SCHWRZ=       T

 ------------------------------------------
 MULTIREFERENCE PERTURBATION THEORY CONTROL
 ------------------------------------------
 MRPT=GMCPT    READ CONVERGED MCSCF VECTORS= F


     ------------------------------------------
     THE POINT GROUP IS C1 , NAXIS= 1, ORDER= 1
     ------------------------------------------

 -- VARIATIONAL SPACE WILL BE RESTRICTED TO PURE SPHERICAL HARMONICS ONLY --
 AFTER EXCLUDING CONTAMINANT COMBINATIONS FROM THE CARTESIAN GAUSSIAN BASIS
 SET, THE NUMBER OF SPHERICAL HARMONICS KEPT IN THE VARIATION SPACE IS   29

     DIMENSIONS OF THE SYMMETRY SUBSPACES ARE
 A   =   29

 ..... DONE SETTING UP THE RUN .....
 CPU     0: STEP CPU TIME=     0.04 TOTAL CPU TIME=          0.0 (      0.0 MIN)
 TOTAL WALL CLOCK TIME=          0.1 SECONDS, CPU UTILIZATION IS    80.00%

          ********************
          1 ELECTRON INTEGRALS
          ********************
 TIME TO DO   DIPOLE INTEGRALS=      0.00
 ...... END OF ONE-ELECTRON INTEGRALS ......
 CPU     0: STEP CPU TIME=     0.00 TOTAL CPU TIME=          0.0 (      0.0 MIN)
 TOTAL WALL CLOCK TIME=          0.1 SECONDS, CPU UTILIZATION IS    80.00%

          -------------
          GUESS OPTIONS
          -------------
          GUESS =MOREAD            NORB  =      29          NORDER=       0
          MIX   =       F          PRTMO =       F          PUNMO =       F
          TOLZ  = 1.0E-08          TOLE  = 1.0E-05
          SYMDEN=       F          PURIFY=       T

 INITIAL GUESS ORBITALS GENERATED BY MOREAD   ROUTINE.

 STATISTICS FOR GENERATION OF SYMMETRY ORBITAL -Q- MATRIX
 NUMBER OF CARTESIAN ATOMIC ORBITALS=         30
 NUMBER OF SPHERICAL CONTAMINANTS DROPPED=     1
 NUMBER OF LINEARLY DEPENDENT MOS DROPPED=     0
 TOTAL NUMBER OF MOS IN VARIATION SPACE=      29
 ORBITAL PURIFICATION WILL OCCUR

 SYMMETRIES FOR INITIAL GUESS ORBITALS FOLLOW.   BOTH SET(S).
     5 ORBITALS ARE OCCUPIED (    1 CORE ORBITALS).
     1=A        2=A        3=A        4=A        5=A        6=A        7=A   
     8=A        9=A       10=A       11=A       12=A       13=A       14=A   
    15=A       16=A       17=A       18=A       19=A       20=A       21=A   
    22=A       23=A       24=A       25=A       26=A       27=A       28=A   
    29=A   
 ...... END OF INITIAL ORBITAL SELECTION ......
 CPU     0: STEP CPU TIME=     0.00 TOTAL CPU TIME=          0.0 (      0.0 MIN)
 TOTAL WALL CLOCK TIME=          0.1 SECONDS, CPU UTILIZATION IS    66.67%

                    ----------------------
                    AO INTEGRAL TECHNOLOGY
                    ----------------------
     S,P,L SHELL ROTATED AXIS INTEGRALS, REPROGRAMMED BY
        KAZUYA ISHIMURA (IMS) AND JOSE SIERRA (SYNSTAR).
     S,P,D,L SHELL ROTATED AXIS INTEGRALS PROGRAMMED BY
        KAZUYA ISHIMURA (INSTITUTE FOR MOLECULAR SCIENCE).
     S,P,D,F,G SHELL TO TOTAL QUARTET ANGULAR MOMENTUM SUM 5,
        ERIC PROGRAM BY GRAHAM FLETCHER (ELORET AND NASA ADVANCED
        SUPERCOMPUTING DIVISION, AMES RESEARCH CENTER).
     S,P,D,F,G,L SHELL GENERAL RYS QUADRATURE PROGRAMMED BY
        MICHEL DUPUIS (PACIFIC NORTHWEST NATIONAL LABORATORY).

          --------------------
          2 ELECTRON INTEGRALS
          --------------------

 DIRECT SCF METHOD SKIPS INTEGRAL STORAGE ON DISK.
 DIRECT TRANSFORMATION SKIPS AO INTEGRAL STORAGE ON DISK.
  ...... END OF TWO-ELECTRON INTEGRALS .....
 STEP CPU TIME =     0.02 TOTAL CPU TIME =          0.1 (      0.0 MIN)
 TOTAL WALL CLOCK TIME=          0.1 SECONDS, CPU UTILIZATION IS    75.00%
 DDI: Creating Array [0] - 900 x 36 = 32400 words.
 DDI: Creating Array [1] - 21 x 288 = 6048 words.
 DDI: Creating Array [2] - 36 x 36 = 1296 words.
 DDI: Creating Array [3] - 465 x 36 = 16740 words.

          -----------------
          MCSCF CALCULATION
          -----------------

 ----- NUCLEAR ENERGY ----- =        10.6869132580

     -------------------------------------------------
     GMC-PT/GMC-QDPT or general MCSCF input parameters
     -------------------------------------------------
 # of frozen core orbs. =         0 ->         0
 # of doubly occ. orbs. =         1
 # of active      orbs. =         7
 # of virtual     orbs. =        21
 # of active electrons  =         7
 # of states in CI      =         3
 Highest state in CI    =         3
 kstate =  1 1 1
 avecoe =  0.333 0.333 0.333
 State symmetry           = A           
 Assigned symmetry number = 1

 <<<Act. MO sym.: 1111111

 <<<Division of 1-ext.:  0
 <<<Division of 2-ext.:  0

 *** Reference space

 Reference type: ORMAS (= Occupation restricted multiple active space)
 # of orbitals          =  7
 # of minimum electrons =  7
 # of maximum electrons =  7
 State symmetry    =    1 (input)
 2*Sz              =    1 (input)
 Spin multiplicity =    2 (input)
 Dimension of reference space =      1225  (from      3432 walks)

 Dimension of reference space =      1225  (from      1225 walks)

 <<<Ionized spaces for Ref-CI:
      0:         1225 /   -1-0:         1960 /  0-1-0:         2891

 EVALUATING EXCHANGE INTEGRALS FOR DIRECT INTEGRAL TRANSFORMATION
 SCHWARZ INEQUALITY OVERHEAD:       465 INTEGRALS, T=        0.01

     --------------------------------------------
     PARTIAL TWO ELECTRON INTEGRAL TRANSFORMATION
     --------------------------------------------

 NUMBER OF CORE MOLECULAR ORBITALS     =    1
 NUMBER OF OCCUPIED MOLECULAR ORBITALS =    8
 TOTAL NUMBER OF MOLECULAR ORBITALS    =   29
 TOTAL NUMBER OF ATOMIC ORBITALS       =   30
 THRESHOLD FOR KEEPING TRANSFORMED 2E- INTEGRALS = 1.000E-09

 -------------------------------     ------------------------------
 DISTRIBUTED DATA TRANSFORMATION     PROGRAM WRITTEN BY G. FLETCHER
 -------------------------------     ------------------------------

 THE DISTRIBUTED MEMORY REQUIRED FOR THIS STEP IS MEMDDI=         1 MWORDS
 CREATING DISTRIBUTED STORAGE FOR [VIR OCC|VIR OCC] INTEGRALS
 CREATING DISTRIBUTED STORAGE FOR [VIR OCC|OCC OCC] INTEGRALS
 CREATING DISTRIBUTED STORAGE FOR [OCC OCC|OCC OCC] INTEGRALS
 CREATING DISTRIBUTED STORAGE FOR [VIR VIR|OCC OCC] INTEGRALS
 FOR    1 PROCESSORS, THE REPLICATED MEMORY NEEDED IS       73700 WORDS.
 SCHWARZ INEQUALITY OVERHEAD:       465 INTEGRALS, T=        0.01

      DIRECT 4-INDEX TRANSFORMATION 
      SCHWARZ INEQUALITY TEST SKIPPED          0 INTEGRAL BLOCKS
 ----- FROZEN CORE ENERGY =       -47.4984853344
 ... END OF INTEGRAL TRANSFORMATION ...
 CPU     0: STEP CPU TIME=     0.22 TOTAL CPU TIME=          0.3 (      0.0 MIN)
 TOTAL WALL CLOCK TIME=          0.3 SECONDS, CPU UTILIZATION IS    93.33%

     --------------------------------     -----------------------------
     MCHF NEWTON-RAPHSON OPTIMIZATION     CODE WRITTEN BY MICHEL DUPUIS
     --------------------------------     -----------------------------
     PARALLEL VERSION WRITTEN BY G. FLETCHER (ELORET)
     NASA ADVANCED SUPERCOMPUTING DIVISION, AMES RESEARCH CENTER

 NUMBER OF INDEPENDENT ORBITAL ROTATION PARAMETERS =   175
 ..... DONE SOLVING NEWTON-RAPHSON EQUATIONS .....
 CPU     0: STEP CPU TIME=     0.72 TOTAL CPU TIME=          1.0 (      0.0 MIN)
 TOTAL WALL CLOCK TIME=          1.0 SECONDS, CPU UTILIZATION IS    98.04%
 ..... DONE WITH NTN-RPH ORBITAL ROTATIONS ..... 
 CPU     0: STEP CPU TIME=     0.00 TOTAL CPU TIME=          1.0 (      0.0 MIN)
 TOTAL WALL CLOCK TIME=          1.0 SECONDS, CPU UTILIZATION IS    98.04%
 MAXIMUM MEMORY USED BY NTN-RPH CODE WAS     57645 WORDS.

 ITER     TOTAL ENERGY      DEL(E)  LAGRANGIAN ASYMMETRY   SQCDF  MICIT   DAMP
   1      -55.541051313 -0.541051313  0.134588    9    3 8.693E-02  1   0.0000
   2      -55.619088859 -0.078037547  0.020833   12    5 4.503E-01  1   0.0000
   3      -55.657274922 -0.038186063  0.015509   12    5 2.241E-01  1   0.0143
   4      -55.674711109 -0.017436187  0.006185   11    6 5.152E-02  1   0.0064
   5      -55.677915225 -0.003204116  0.001399   13    7 3.125E-03  1   0.0000
   6      -55.678160825 -0.000245600  0.000600   12    7 3.655E-04  1   0.0000
   7      -55.678193247 -0.000032422  0.000287   12    7 7.572E-05  1   0.0000
   8      -55.678199820 -0.000006573  0.000142   22    5 1.864E-05  1   0.0000
   9      -55.678201373 -0.000001554  0.000073   22    5 5.022E-06  1   0.0000
  10      -55.678201773 -0.000000400  0.000038   22    5 1.441E-06  1   0.0000
  11      -55.678201883 -0.000000110  0.000020   22    5 4.349E-07  1   0.0000
  12      -55.678201915 -0.000000032  0.000010   22    5 1.373E-07  1   0.0000
  13      -55.678201925 -0.000000010  0.000005   22    5 4.505E-08  1   0.0000
  14      -55.678201928 -0.000000003  0.000003   22    5 1.531E-08  1   0.0000
  15      -55.678201929 -0.000000001  0.000002   12    8 5.364E-09  1   0.0000
  16      -55.678201929 -0.000000000  0.000001   12    8 1.905E-09  1   0.0000

          --------------------
          LAGRANGIAN CONVERGED
          --------------------

 FINAL MCSCF ENERGY IS      -55.6782019290 AFTER  16 ITERATIONS

 -MCCI- BASED ON OPTIMIZED ORBITALS
 ----------------------------------

 PLEASE NOTE: IF THE ACTIVE ORBITALS ARE CANONICALIZED BELOW,
 THE FOLLOWING CI EXPANSION COEFFICIENTS AND THE DENSITY DO NOT
 CORRESPOND TO THE PRINTED ORBITALS.  THE PRINTED EXPANSIONS MATCH
 THE ORBITALS USED DURING THE LAST ITERATION.  IF YOU WISH TO SEE
 CI EXPANSIONS BASED ON THE CANONICAL (OR NATURAL) ORBITALS, YOU
 MUST RUN A CI CALCULATION WITH THAT ORBITAL CHOICE READ IN $VEC.

 Averaged energy =     -55.678201929

 State #    1  Energy =     -55.814578818  S =  0.500

      Det      Coef    Occupancy (Ignoring core)
      ---      ----    --------- --------- -----
        1    0.841358  11110001110000
        4   -0.063932  10111001110000
        5   -0.076060  01111001110000
        6    0.059744  11100101110000
        8   -0.160272  10110101110000
       17    0.118809  11010011110000
       36   -0.064426  11110001101000
       71   -0.394378  11110001011000
       76   -0.063942  11100101011000
       78    0.071578  10110101011000
      176    0.053867  11110001010100
      211    0.053727  11110000110100
      386    0.096330  11110001010010
      393    0.069090  10110101010010
      701   -0.098739  11110001100001

 State #    2  Energy =     -55.710415282  S =  0.500

      Det      Coef    Occupancy (Ignoring core)
      ---      ----    --------- --------- -----
        1   -0.368837  11110001110000
        8    0.059718  10110101110000
       17   -0.060407  11010011110000
       36   -0.428196  11110001101000
       43    0.069467  10110101101000
       71   -0.743857  11110001011000
       74    0.100489  10111001011000
       75    0.064027  01111001011000
       76   -0.055005  11100101011000
       78    0.121116  10110101011000
       87   -0.088994  11010011011000
      386   -0.114723  11110001010010
      456   -0.050208  11110001001010
      806   -0.064894  11110001001001

 State #    3  Energy =     -55.509611686  S =  0.500

      Det      Coef    Occupancy (Ignoring core)
      ---      ----    --------- --------- -----
        1    0.132034  11110001110000
       36   -0.838238  11110001101000
       43    0.098943  10110101101000
       71    0.404391  11110001011000
       74   -0.064946  10111001011000
       78   -0.055392  10110101011000
      246   -0.072313  11110001001100
      281   -0.081347  11110000101100
      351   -0.054127  11110001100010
      456   -0.131849  11110001001010
      463   -0.066196  10110101001010

 DENSITY MATRIX OVER ACTIVE MO-S

             1           2           3           4           5

    1    1.9687176
    2    0.0371773   1.6002736
    3   -0.0031971   0.0134564   1.6289034
    4   -0.0049856   0.0145470  -0.0053957   1.6430212
    5    0.1172884  -0.1270123  -0.0011317  -0.0013727   0.0520201
    6    0.0180864  -0.2157880   0.0322306   0.1105948   0.0233757
    7   -0.0158622   0.0125824  -0.1418970  -0.0004250  -0.0072130

             6           7

    6    0.0709352
    7   -0.0093796   0.0361288

 FORMING THE "STANDARD FOCK OPERATOR" IN DIRECT AO INTEGRAL MODE...
 ONLY THE    1 CORE AND   21 VIRTUAL ORBITALS WILL BE CANONICALIZED

          ----------------------
          MCSCF NATURAL ORBITALS
          ----------------------

                      1          2          3          4          5
                  -15.9759     1.9784     1.6525     1.6469     1.6325
                     A          A          A          A          A   
    1  N  1  S    1.000990   0.009391  -0.006533  -0.005457  -0.002936
    2  N  1  S   -0.002027   0.431441  -0.104768  -0.167978  -0.055231
    3  N  1  S   -0.006444   0.347414  -0.188039  -0.236868  -0.088836
    4  N  1  X    0.000142   0.061194  -0.187668   0.208940   0.474128
    5  N  1  Y   -0.000189   0.004798  -0.251832   0.270809  -0.282904
    6  N  1  Z    0.001084   0.077622   0.496404   0.290714  -0.055773
    7  N  1  X   -0.000133   0.013379  -0.128510   0.080205   0.295271
    8  N  1  Y   -0.000048   0.006560  -0.114624   0.083234  -0.157173
    9  N  1  Z   -0.000616   0.017401   0.346273   0.169243  -0.066661
   10  N  1 XX   -0.000066  -0.003016  -0.013741   0.001289   0.014247
   11  N  1 YY    0.000171   0.004161  -0.004801  -0.013251  -0.011766
   12  N  1 ZZ   -0.000105  -0.001144   0.018542   0.011962  -0.002481
   13  N  1 XY    0.000169   0.002833  -0.001081   0.002762  -0.001657
   14  N  1 XZ    0.000111   0.003296  -0.001040   0.013561   0.018749
   15  N  1 YZ   -0.000022   0.002452  -0.009489   0.011602  -0.011550
   16  H  2  S   -0.001066   0.151854  -0.042687   0.220174  -0.261923
   17  H  2  S    0.000260  -0.000469   0.009471   0.026431  -0.120631
   18  H  2  X    0.000041  -0.000830  -0.004433   0.009914   0.018753
   19  H  2  Y    0.000523  -0.025648   0.006735  -0.028288   0.025514
   20  H  2  Z    0.000256  -0.005081   0.022582   0.005458   0.004524
   21  H  3  S   -0.001512   0.156973   0.265387  -0.235527   0.081607
   22  H  3  S    0.000625   0.000369   0.052073  -0.027907  -0.005563
   23  H  3  X   -0.000137   0.008064  -0.000238   0.001974   0.021888
   24  H  3  Y   -0.000825   0.029543   0.030034  -0.028376   0.010223
   25  H  3  Z    0.000222  -0.001692   0.013467   0.016652  -0.003483
   26  H  4  S   -0.001602   0.215702   0.022081   0.310694   0.225961
   27  H  4  S    0.000313   0.010792   0.021732   0.069201   0.113749
   28  H  4  X    0.000763  -0.031524  -0.012585  -0.028244  -0.005098
   29  H  4  Y    0.000218  -0.008103  -0.007473   0.010572  -0.018751
   30  H  4  Z    0.000540  -0.019317   0.021352  -0.007927  -0.020127

                      6          7          8
                    0.0403     0.0288     0.0207
                     A          A          A   
    1  N  1  S   -0.133512  -0.057619  -0.114912
    2  N  1  S   -0.485761  -0.260631  -0.355163
    3  N  1  S   -0.064010  -0.237667  -0.010582
    4  N  1  X    0.378860  -0.632452   0.050806
    5  N  1  Y   -0.268337  -0.158465   0.848894
    6  N  1  Z   -0.322389  -0.489992  -0.196902
    7  N  1  X   -0.120541  -0.039948   0.016090
    8  N  1  Y    0.013534  -0.111578   0.073078
    9  N  1  Z    0.055279  -0.020660   0.092351
   10  N  1 XX   -0.066889   0.022429  -0.010005
   11  N  1 YY    0.074693  -0.023467   0.031228
   12  N  1 ZZ   -0.007804   0.001038  -0.021223
   13  N  1 XY    0.023280   0.023261  -0.033580
   14  N  1 XZ    0.014951   0.036880   0.019168
   15  N  1 YZ    0.018209   0.019198  -0.041289
   16  H  2  S    0.666739   0.055434  -0.317813
   17  H  2  S    0.229072  -0.073403  -0.122060
   18  H  2  X   -0.021441   0.039321  -0.009342
   19  H  2  Y   -0.061550  -0.008135   0.026085
   20  H  2  Z    0.013036   0.031233  -0.008920
   21  H  3  S    0.376584   0.012149   0.732127
   22  H  3  S    0.069863  -0.031104   0.159539
   23  H  3  X   -0.009327   0.008399   0.016923
   24  H  3  Y    0.038815   0.009866   0.069934
   25  H  3  Z   -0.000952   0.003901   0.032793
   26  H  4  S   -0.162959   0.792338   0.072574
   27  H  4  S   -0.150481   0.230758   0.052716
   28  H  4  X   -0.014595  -0.041752  -0.009493
   29  H  4  Y    0.032020   0.015940  -0.043152
   30  H  4  Z    0.026520  -0.009360  -0.003373

          ------------------------
          MCSCF OPTIMIZED ORBITALS
          ------------------------

                      1          2          3          4          5
                  -15.9759     0.0000     0.0000     0.0000     0.0000
                     A          A          A          A          A   
    1  N  1  S    1.000990  -0.000892   0.018502   0.005321  -0.012417
    2  N  1  S   -0.002027   0.396750  -0.003340  -0.011348  -0.189190
    3  N  1  S   -0.006444   0.342936  -0.126514  -0.001878  -0.270572
    4  N  1  X    0.000142   0.023488   0.441371  -0.063385  -0.036496
    5  N  1  Y   -0.000189  -0.005049   0.004323   0.387091  -0.031494
    6  N  1  Z    0.001084   0.050015   0.021981  -0.004161   0.585246
    7  N  1  X   -0.000133  -0.017729   0.318275  -0.085732  -0.092609
    8  N  1  Y   -0.000048   0.007614  -0.048865   0.200519  -0.030671
    9  N  1  Z   -0.000616   0.028768  -0.060883  -0.016428   0.390929
   10  N  1 XX   -0.000066  -0.007376   0.026223  -0.004598  -0.016091
   11  N  1 YY    0.000171   0.008902  -0.028155   0.002892  -0.005354
   12  N  1 ZZ   -0.000105  -0.001526   0.001932   0.001706   0.021445
   13  N  1 XY    0.000169   0.004361   0.000372   0.006458  -0.000153
   14  N  1 XZ    0.000111   0.003854   0.021353  -0.004575   0.003677
   15  N  1 YZ   -0.000022   0.003508   0.001216   0.022469  -0.001747
   16  H  2  S   -0.001066   0.191713  -0.123204   0.374399   0.121465
   17  H  2  S    0.000260   0.014719  -0.108795   0.109598   0.043633
   18  H  2  X    0.000041  -0.002485   0.026537  -0.004738  -0.003133
   19  H  2  Y    0.000523  -0.029121   0.006100  -0.041246  -0.012994
   20  H  2  Z    0.000256  -0.003311   0.000099  -0.009121   0.020232
   21  H  3  S   -0.001512   0.197109  -0.223004  -0.358153   0.114234
   22  H  3  S    0.000625   0.007954  -0.053749  -0.046029   0.036253
   23  H  3  X   -0.000137   0.006637   0.019219  -0.014493  -0.001657
   24  H  3  Y   -0.000825   0.033926  -0.022962  -0.041579   0.010976
   25  H  3  Z    0.000222  -0.001221   0.001905   0.003655   0.020768
   26  H  4  S   -0.001602   0.207198   0.421316   0.009670   0.114836
   27  H  4  S    0.000313   0.001719   0.151283  -0.054664   0.027730
   28  H  4  X    0.000763  -0.032628  -0.018751  -0.007452  -0.023348
   29  H  4  Y    0.000218  -0.005853  -0.008215   0.026346   0.000832
   30  H  4  Z    0.000540  -0.016046  -0.031208  -0.000170   0.017120

                      6          7          8          9         10
                    0.0000     0.0000     0.0000     0.1304     0.2058
                     A          A          A          A          A   
    1  N  1  S    0.164314  -0.059540  -0.058735  -0.094120   0.038853
    2  N  1  S    0.643306  -0.165645  -0.154249  -0.138652   0.044351
    3  N  1  S    0.231704   0.141527   0.014437   1.025247  -0.479610
    4  N  1  X    0.073427   0.797156  -0.109408  -0.048214  -0.002875
    5  N  1  Y    0.060156   0.163015   0.923841  -0.020269  -0.176145
    6  N  1  Z    0.601427   0.102741  -0.071282  -0.131656   0.063551
    7  N  1  X    0.081307   0.015689   0.047956   0.206094   0.139137
    8  N  1  Y    0.044948   0.103668   0.080153   0.149329   0.780144
    9  N  1  Z   -0.046040   0.035748   0.065412   0.316305  -0.072165
   10  N  1 XX    0.034856  -0.054994   0.014782  -0.019509   0.038460
   11  N  1 YY   -0.045547   0.066871   0.002026   0.051550  -0.074860
   12  N  1 ZZ    0.010691  -0.011877  -0.016808  -0.032041   0.036399
   13  N  1 XY   -0.022153  -0.012464  -0.039028   0.052223  -0.003855
   14  N  1 XZ   -0.041089  -0.012387   0.012304   0.061016   0.015093
   15  N  1 YZ   -0.013855  -0.014313  -0.043017   0.036531   0.073156
   16  H  2  S   -0.411823   0.242773  -0.505156   0.468658   0.214090
   17  H  2  S   -0.077172   0.144031  -0.188233  -0.871062  -0.667033
   18  H  2  X   -0.008943  -0.041710  -0.001050   0.054709   0.021718
   19  H  2  Y    0.040551  -0.021168   0.042914   0.025313   0.032703
   20  H  2  Z   -0.027004  -0.019866  -0.013551   0.041536   0.052730
   21  H  3  S   -0.455527   0.359842   0.517957   0.270340  -0.569278
   22  H  3  S   -0.070752   0.095641   0.119517  -0.421784   1.911950
   23  H  3  X   -0.004377  -0.005008   0.017932  -0.034733   0.009053
   24  H  3  Y   -0.050018   0.029028   0.048036  -0.050096   0.127515
   25  H  3  Z   -0.011099   0.003083   0.031348  -0.025811  -0.059145
   26  H  4  S   -0.423776  -0.649863   0.136381   0.376813   0.147494
   27  H  4  S   -0.062929  -0.236937   0.101208  -0.945235  -0.441357
   28  H  4  X    0.039204   0.021102  -0.004813   0.048812  -0.000308
   29  H  4  Y   -0.021172  -0.005416  -0.049520   0.100579   0.007131
   30  H  4  Z   -0.010939   0.017023  -0.012856   0.058003   0.024945

                     11         12         13         14         15
                    0.2690     0.5289     0.5925     0.7231     0.8612
                     A          A          A          A          A   
    1  N  1  S    0.014771   0.097059  -0.025739  -0.086595  -0.487674
    2  N  1  S    0.038239   0.159228   0.060982  -0.204014  -1.105246
    3  N  1  S   -0.094475  -0.472145   0.560758   0.189599   1.753524
    4  N  1  X    0.025094  -0.616670  -0.338951   0.071702  -0.073138
    5  N  1  Y   -0.063078   0.041699   0.001311  -0.503232  -0.053164
    6  N  1  Z    0.006377   0.491490  -0.554379  -0.020513   0.270797
    7  N  1  X   -0.335085   0.968995   1.050949   0.065138   0.110998
    8  N  1  Y    0.340626   0.108331   0.207104   1.758689   0.007153
    9  N  1  Z   -0.112907  -0.523463   1.066027   0.165865  -0.238774
   10  N  1 XX   -0.059850   0.009397   0.002070   0.052086  -0.041287
   11  N  1 YY    0.073848   0.015043  -0.024517  -0.014920   0.009547
   12  N  1 ZZ   -0.013998  -0.024440   0.022447  -0.037166   0.031741
   13  N  1 XY   -0.021403   0.013260  -0.053900   0.046090  -0.155347
   14  N  1 XZ   -0.059189  -0.004368  -0.004439   0.010507   0.060273
   15  N  1 YZ    0.011077  -0.006623  -0.004101  -0.122925  -0.002820
   16  H  2  S    0.579832   0.226013  -0.149659  -0.558308   0.072667
   17  H  2  S   -1.989371   0.313673   0.317718  -0.528930  -0.302857
   18  H  2  X   -0.058357   0.063860  -0.097818   0.084535  -0.316726
   19  H  2  Y    0.064899   0.009708   0.106993   0.210445   0.099109
   20  H  2  Z   -0.013711  -0.102009   0.035329  -0.202092   0.075890
   21  H  3  S    0.147745   0.357651  -0.264410   0.622288  -0.129084
   22  H  3  S   -0.326810   0.284350   0.348850   0.447513  -0.420502
   23  H  3  X    0.028455   0.010896   0.104262  -0.042724   0.232955
   24  H  3  Y    0.018718   0.036946   0.017747   0.185838  -0.108197
   25  H  3  Z    0.003865  -0.020422   0.070549   0.171062   0.062900
   26  H  4  S   -0.648262  -0.147516  -0.647191  -0.004330   0.067361
   27  H  4  S    2.225224  -0.408434  -0.794892  -0.030424  -0.246023
   28  H  4  X   -0.088697   0.059950   0.122392   0.215839   0.049212
   29  H  4  Y    0.031979   0.065565  -0.036920  -0.047097  -0.265482
   30  H  4  Z   -0.043521  -0.029210   0.129036  -0.073856   0.235034

                     16         17         18         19         20
                    1.0347     1.0780     1.1944     1.2814     1.3749
                     A          A          A          A          A   
    1  N  1  S   -0.299917  -0.362587  -0.211243  -0.165274  -0.274766
    2  N  1  S   -0.638657  -0.754668  -0.452852  -0.355978  -0.601707
    3  N  1  S    1.280316   1.479799   0.827335   0.595049   0.881114
    4  N  1  X   -0.012509  -0.052016  -0.048701   0.052713  -0.020298
    5  N  1  Y    0.272049  -0.017869  -0.187082  -0.022545   0.003424
    6  N  1  Z   -0.010584   0.073520   0.018251  -0.017787  -0.093771
    7  N  1  X   -0.045249   0.432470   0.459087  -0.409200   0.300752
    8  N  1  Y   -1.185650   0.074991   0.606132  -0.130868  -0.152575
    9  N  1  Z    0.323302   0.009609   0.402891   0.257809   0.511049
   10  N  1 XX    0.170024  -0.103885   0.120667   0.091194  -0.137127
   11  N  1 YY   -0.034921  -0.121356  -0.024762   0.035521   0.089970
   12  N  1 ZZ   -0.135103   0.225241  -0.095905  -0.126715   0.047157
   13  N  1 XY    0.083231   0.143006   0.013646  -0.137199   0.113257
   14  N  1 XZ   -0.092757  -0.116684  -0.236592   0.017407  -0.055582
   15  N  1 YZ   -0.031713  -0.041849   0.207546   0.019591   0.042952
   16  H  2  S    0.455741  -0.312483  -0.499749  -0.156182  -0.276678
   17  H  2  S    0.054628  -0.038150  -0.035239   0.011642   0.209659
   18  H  2  X    0.116468   0.325438  -0.310874   0.396070   0.195082
   19  H  2  Y    0.216732  -0.021171  -0.212386  -0.088785  -0.133058
   20  H  2  Z   -0.231253   0.328658   0.339556  -0.086926  -0.691061
   21  H  3  S   -0.703337  -0.143600   0.175830  -0.206066  -0.323684
   22  H  3  S   -0.503987  -0.185633   0.040660  -0.119039  -0.063556
   23  H  3  X   -0.294496  -0.189428  -0.227356   0.759983  -0.143337
   24  H  3  Y   -0.040178   0.024227  -0.121266  -0.130726   0.072045
   25  H  3  Z    0.167917   0.364767  -0.434596  -0.050378  -0.505003
   26  H  4  S   -0.121833  -0.455108  -0.324409  -0.106547  -0.298664
   27  H  4  S   -0.175378  -0.243863  -0.201616  -0.015567  -0.242441
   28  H  4  X    0.286129  -0.186851   0.295915   0.114390  -0.136235
   29  H  4  Y   -0.042035   0.314336   0.253507   0.331295   0.025725
   30  H  4  Z   -0.420451   0.218342  -0.221492  -0.282179   0.363944

                     21         22         23         24         25
                    1.5641     1.6961     1.8105     2.0032     2.0969
                     A          A          A          A          A   
    1  N  1  S   -0.067411   0.145744  -0.102712  -0.041881   0.051029
    2  N  1  S   -0.066110   0.394472  -0.239986  -0.083673   0.114828
    3  N  1  S    0.760353   0.264222  -0.123391   0.040410   0.036761
    4  N  1  X   -0.002505   0.349156   0.076252  -0.028644   0.064147
    5  N  1  Y   -0.067092   0.239244   0.437551   0.138911  -0.115576
    6  N  1  Z    0.037431   0.234658   0.011120  -0.032691   0.046620
    7  N  1  X    0.061180  -0.044943   0.164560  -0.157275  -0.079121
    8  N  1  Y    0.793647  -0.244268   0.549488   0.119596  -0.010108
    9  N  1  Z    0.355436   0.033466   0.010540   0.206349   0.113430
   10  N  1 XX    0.123187  -0.070552   0.041055  -0.564334  -0.568840
   11  N  1 YY   -0.131699  -0.023795   0.136847  -0.152371   0.139401
   12  N  1 ZZ    0.008512   0.094347  -0.177901   0.716705   0.429439
   13  N  1 XY   -0.004856  -0.101562   0.013486   0.488637  -0.289593
   14  N  1 XZ   -0.018566  -0.293612   0.082115   0.087473   0.126421
   15  N  1 YZ   -0.055797   0.020948  -0.274466  -0.001202   0.033201
   16  H  2  S   -0.170905   0.115527  -0.074902  -0.160937   0.269811
   17  H  2  S   -0.581696  -0.067195  -0.113409  -0.236214   0.279950
   18  H  2  X    0.462939  -0.036159   0.184512  -0.350317   0.642309
   19  H  2  Y    0.679195   0.371947   0.118648   0.406199  -0.553056
   20  H  2  Z    0.263887  -0.094716   0.510649  -0.034887   0.177096
   21  H  3  S    0.280788  -0.132595   0.143843   0.040485  -0.076612
   22  H  3  S   -0.093505   0.020330   0.540608   0.035354  -0.011926
   23  H  3  X   -0.052297   0.023417   0.089745   0.343446  -0.232929
   24  H  3  Y   -0.487904  -0.047853   0.933180   0.072637  -0.159354
   25  H  3  Z   -0.521031   0.013119  -0.441290  -0.257093  -0.023012
   26  H  4  S   -0.322101   0.240748  -0.102118   0.138895  -0.269082
   27  H  4  S    0.165074  -0.388824  -0.233165   0.174625  -0.295838
   28  H  4  X   -0.123394   0.619195   0.159882   0.068736   0.734693
   29  H  4  Y   -0.222260   0.489624  -0.128341   0.191663  -0.593074
   30  H  4  Z    0.086011   0.559058   0.088724  -0.479526  -0.156705

                     26         27         28         29
                    2.2455     2.4079     2.6416     3.0412
                     A          A          A          A   
    1  N  1  S   -0.130827   0.010078  -0.192124  -0.133021
    2  N  1  S   -0.246036  -0.033118  -0.238040  -0.161695
    3  N  1  S    0.523613  -0.782713   1.922831   1.273903
    4  N  1  X   -0.040384  -0.040752   0.262146  -0.202792
    5  N  1  Y    0.067297   0.258041   0.080194  -0.262952
    6  N  1  Z   -0.032592  -0.101878   0.254158   0.027356
    7  N  1  X    0.358148  -0.158446   0.777647  -0.261613
    8  N  1  Y    0.004892   1.048920   0.553745  -0.444379
    9  N  1  Z    0.319861  -0.257344   0.625527   0.088306
   10  N  1 XX   -0.183567  -0.093260   0.154102  -0.853176
   11  N  1 YY    0.021330  -0.006071   0.164518   1.478301
   12  N  1 ZZ    0.162236   0.099332  -0.318620  -0.625125
   13  N  1 XY   -0.749682  -0.247401   0.548047   0.141425
   14  N  1 XZ    0.509869  -0.312660   0.950434  -0.290438
   15  N  1 YZ   -0.041006   0.992551   0.595758  -0.099487
   16  H  2  S   -0.361846  -0.399108  -0.487221  -0.606092
   17  H  2  S   -0.172618  -0.346139  -0.090211  -0.154737
   18  H  2  X   -0.232208   0.239002   0.118655  -0.012477
   19  H  2  Y    0.434822   0.535290   0.311656   0.743256
   20  H  2  Z   -0.137691   0.037235   0.197986   0.301143
   21  H  3  S   -0.042167   0.839706  -0.184117  -1.145306
   22  H  3  S   -0.015773   0.397638   0.028025  -0.345384
   23  H  3  X   -0.530206   0.123673  -0.060046  -0.168746
   24  H  3  Y    0.153611   0.786155  -0.148274  -0.940665
   25  H  3  Z   -0.146136   0.194102   0.174441   0.335416
   26  H  4  S   -0.089200   0.341317  -1.260643   0.530590
   27  H  4  S    0.042798   0.238211  -0.536585   0.103017
   28  H  4  X   -0.211076  -0.291482   0.852868  -0.464391
   29  H  4  Y    0.757060  -0.328235   0.258151  -0.005420
   30  H  4  Z   -0.265299  -0.183866   0.642631  -0.322578
 .....DONE WITH MCSCF ITERATIONS.....
 CPU     0: STEP CPU TIME=    11.33 TOTAL CPU TIME=         12.3 (      0.2 MIN)
 TOTAL WALL CLOCK TIME=         12.3 SECONDS, CPU UTILIZATION IS    99.92%

     ----------------------------------------------------------------
     PROPERTY VALUES FOR THE MCSCF SELF-CONSISTENT FIELD WAVEFUNCTION
     ----------------------------------------------------------------

          -----------------
          ENERGY COMPONENTS
          -----------------

         WAVEFUNCTION NORMALIZATION =       1.0000000000

                ONE ELECTRON ENERGY =     -93.0335181376
                TWO ELECTRON ENERGY =      26.6684029506
           NUCLEAR REPULSION ENERGY =      10.6869132580
                                      ------------------
                       TOTAL ENERGY =     -55.6782019290

 ELECTRON-ELECTRON POTENTIAL ENERGY =      26.6684029506
  NUCLEUS-ELECTRON POTENTIAL ENERGY =    -148.5976518723
   NUCLEUS-NUCLEUS POTENTIAL ENERGY =      10.6869132580
                                      ------------------
             TOTAL POTENTIAL ENERGY =    -111.2423356637
               TOTAL KINETIC ENERGY =      55.5641337347
                 VIRIAL RATIO (V/T) =       2.0020529105

          ---------------------------------------
          MULLIKEN AND LOWDIN POPULATION ANALYSES
          ---------------------------------------

     ATOMIC MULLIKEN POPULATION IN EACH MOLECULAR ORBITAL

                      1          2          3          4          5

                  2.000000   1.978373   1.652483   1.646852   1.632545

    1             2.000436   1.383222   1.406227   0.967803   1.229332
    2            -0.000062   0.150669   0.015852   0.170752   0.237138
    3            -0.000165   0.155305   0.219413   0.209892   0.029261
    4            -0.000209   0.289177   0.010991   0.298406   0.136814

                      6          7          8

                  0.040264   0.028777   0.020707

    1             0.016120   0.014962   0.011276
    2             0.018360   0.000200   0.001429
    3             0.005319  -0.000094   0.007824
    4             0.000465   0.013709   0.000178
 WARNING! MCSCF POPULATIONS SHOWN ABOVE ARE FOR THE NATURAL ORBITALS.
 IGNORE THE ABOVE DATA FOR MCSCF FUNCTIONS WHICH ARE NOT OF -FORS- TYPE.
 THE FOLLOWING POPULATIONS ARE CORRECT FOR ANY MCSCF WAVEFUNCTION.

               ----- POPULATIONS IN EACH AO -----
                             MULLIKEN      LOWDIN
              1  N  1  S      2.00208     1.90718
              2  N  1  S      0.81671     0.58344
              3  N  1  S      0.74280     0.43126
              4  N  1  X      0.76368     0.71111
              5  N  1  Y      0.60770     0.53037
              6  N  1  Z      0.83096     0.78571
              7  N  1  X      0.43309     0.49735
              8  N  1  Y      0.29175     0.40594
              9  N  1  Z      0.52511     0.56650
             10  N  1 XX      0.00060     0.15449
             11  N  1 YY      0.00532     0.19418
             12  N  1 ZZ      0.00054     0.14700
             13  N  1 XY      0.00504     0.00216
             14  N  1 XZ      0.00401     0.00988
             15  N  1 YZ      0.00000     0.00720
             16  H  2  S      0.48035     0.36908
             17  H  2  S      0.06670     0.15762
             18  H  2  X      0.00956     0.02898
             19  H  2  Y      0.02800     0.04678
             20  H  2  Z      0.00972     0.02204
             21  H  3  S      0.53703     0.42365
             22  H  3  S      0.03626     0.15337
             23  H  3  X      0.00945     0.02198
             24  H  3  Y      0.03473     0.05972
             25  H  3  Z      0.00929     0.02463
             26  H  4  S      0.62432     0.47666
             27  H  4  S      0.06601     0.15802
             28  H  4  X      0.02687     0.04984
             29  H  4  Y      0.01263     0.03430
             30  H  4  Z      0.01971     0.03958

          ----- MULLIKEN ATOMIC OVERLAP POPULATIONS -----
          (OFF-DIAGONAL ELEMENTS NEED TO BE MULTIPLIED BY 2)

             1           2           3           4

    1    6.2835684
    2    0.2174334   0.3859842
    3    0.2876241  -0.0050471   0.3473534
    4    0.2407505  -0.0040317  -0.0031762   0.5159881

          TOTAL MULLIKEN AND LOWDIN ATOMIC POPULATIONS
       ATOM         MULL.POP.    CHARGE          LOW.POP.     CHARGE
    1 N             7.029376   -0.029376         6.933758    0.066242
    2 H             0.594339    0.405661         0.624490    0.375510
    3 H             0.626754    0.373246         0.683355    0.316645
    4 H             0.749531    0.250469         0.758397    0.241603

          MULLIKEN SPHERICAL HARMONIC POPULATIONS
       ATOM           S       P       D      F      G      H      I    TOTAL
    1 N             3.56    3.45    0.02   0.00   0.00   0.00   0.00    7.03
    2 H             0.55    0.05    0.00   0.00   0.00   0.00   0.00    0.59
    3 H             0.57    0.05    0.00   0.00   0.00   0.00   0.00    0.63
    4 H             0.69    0.06    0.00   0.00   0.00   0.00   0.00    0.75

          ---------------------
          ELECTROSTATIC MOMENTS
          ---------------------

 POINT   1           X           Y           Z (BOHR)    CHARGE
                 0.000005    0.000003   -0.177185        1.00 (A.U.)
         DX          DY          DZ         /D/  (DEBYE)
     1.062900    0.535674    2.133960    2.443458
 ...... END OF PROPERTY EVALUATION ......
 CPU     0: STEP CPU TIME=     0.00 TOTAL CPU TIME=         12.3 (      0.2 MIN)
 TOTAL WALL CLOCK TIME=         12.4 SECONDS, CPU UTILIZATION IS    99.84%

     -------------------------------------------------
     GMC-PT/GMC-QDPT or general MCSCF input parameters
     -------------------------------------------------
 # of frozen core orbs. =         0 ->         0
 # of doubly occ. orbs. =         1
 # of active      orbs. =         7
 # of virtual     orbs. =        21
 # of active electrons  =         7
 # of states in CI      =         3
 Highest state in CI    =         3
 kstate =  1 1 1
 avecoe =  0.333 0.333 0.333
 State symmetry           = A           
 Assigned symmetry number = 1

 <<<Act. MO sym.: 1111111

 <<<Division of 1-ext.:  0
 <<<Division of 2-ext.:  0

     ------------------------
     Orbital canonicalization
     ------------------------

 MOs are canonicalized for core, virtual, and invariant-active orbital spaces.
 This is a part of the GMC-QDPT calculation.
 SCHWARZ INEQUALITY OVERHEAD:       465 INTEGRALS, T=        0.00
 DIRECT TRANSFORMATION SKIPS AO INTEGRAL STORAGE ON DISK.

 Averaged energy =     -55.678201929

 State #    1  Energy =     -55.814578818  S =  0.500
 State #    2  Energy =     -55.710415282  S =  0.500
 State #    3  Energy =     -55.509611686  S =  0.500

 Orbital energies for filled orbital space
  -15.975891
 Orbital energies for active orbital space
   -1.469788  -0.779099  -0.973631  -0.702171   0.055984
    0.227369   0.361891
 Orbital energies for external orbital space
    0.130399   0.205806   0.269011   0.528898   0.592525
    0.723052   0.861174   1.034731   1.077965   1.194363
    1.281421   1.374865   1.564095   1.696133   1.810502
    2.003236   2.096907   2.245514   2.407857   2.641595
    3.041169

 Zero values mean non-canonical orbitals.
 ... done with orbital canonicalization ...
 CPU     0: STEP CPU TIME=     0.66 TOTAL CPU TIME=         13.0 (      0.2 MIN)
 TOTAL WALL CLOCK TIME=         13.0 SECONDS, CPU UTILIZATION IS    99.92%

     --------------------------------------------
     PARTIAL TWO ELECTRON INTEGRAL TRANSFORMATION
     --------------------------------------------

 NUMBER OF CORE MOLECULAR ORBITALS     =    0
 NUMBER OF OCCUPIED MOLECULAR ORBITALS =    8
 TOTAL NUMBER OF MOLECULAR ORBITALS    =   29
 TOTAL NUMBER OF ATOMIC ORBITALS       =   30
 THRESHOLD FOR KEEPING TRANSFORMED 2E- INTEGRALS = 1.000E-09
 AO INTEGRALS WILL BE CALCULATED IN DIRECT MODE...
 DIRECT TRANSFORMATION SKIPS AO INTEGRAL STORAGE ON DISK.
 SCHWARZ INEQUALITY OVERHEAD:       465 INTEGRALS, T=        0.00

 PLAN A: REQUIREMENTS FOR FULLY IN-MEMORY TRANSFORMATION:
 # OF WORDS AVAILABLE =            100000000
 # OF WORDS NEEDED    =               221798

 PARALLEL ONLY WORKS WITH THE SEGMENTED ALGORITHM.
 ADJUSTING MEMORY TO USE SEGMENTED ALGORITHM.


 PLAN B: REQUIREMENTS FOR THE SEGMENTED TRANSFORMATION:
       MINIMUM=         124148 WORDS FOR 1 MOLECULAR ORBITAL PER PASS
       MAXIMUM=         221798 WORDS FOR ALL MOLECULAR ORBITALS IN 1 PASS
              (          13950 EXTRA WORDS INCLUDES 1 EXTRA ORBITAL/PASS)
 THIS RUN USES=         221798 WORDS,
 DISTRIBUTING   1 PASSES EACH CONTAINING     8 ORBITALS OVER   1 PROCESSORS.

 CHOOSING SEGMENTED PARTIAL TRANSFORMATION...
 DIRECT TRANSFORMATION SKIPS AO INTEGRAL STORAGE ON DISK.
 PASS #   1 TOOK        0.04 SECONDS.
 TOTAL NUMBER OF TRANSFORMED 2E- INTEGRALS KEPT =        29226
 ... END OF INTEGRAL TRANSFORMATION ...
 CPU     0: STEP CPU TIME=     0.04 TOTAL CPU TIME=         13.0 (      0.2 MIN)
 TOTAL WALL CLOCK TIME=         13.0 SECONDS, CPU UTILIZATION IS    99.92%

     --------     ------------------------------------------
     GMC-QDPT     Program written by H.Nakano (Kyushu Univ.)
     --------     ------------------------------------------

 *** Reference space

 Reference type: ORMAS (= Occupation restricted multiple active space)
 # of orbitals          =  7
 # of minimum electrons =  7
 # of maximum electrons =  7
 State symmetry    =    1 (input)
 2*Sz              =    1 (input)
 Spin multiplicity =    2 (input)
 Dimension of reference space =      1225  (from      3432 walks)

 Dimension of reference space =      1225  (from      1225 walks)

 <<<Ionized spaces for Ref-CI:
      0:         1225 /   -1-0:         1960 /  0-1-0:         2891

 ***                    ***
 *** Reference space CI ***
 ***                    ***

 Converged after   37 iterations

 Reference wavefunctions:

 State #    1  Energy =     -55.814578818  S =  0.500

      Det      Coef    Occupancy (Ignoring core)
      ---      ----    --------- --------- -----
        1    0.965039  11110001110000
       71    0.129001  11110001011000
      393    0.070050  10110101010010

 State #    2  Energy =     -55.710415282  S =  0.500

      Det      Coef    Occupancy (Ignoring core)
      ---      ----    --------- --------- -----
        1    0.133984  11110001110000
       71   -0.967715  11110001011000
      177    0.055323  11101001010100
      248    0.051869  11011001001100
      822    0.051018  11010011001001

 State #    3  Energy =     -55.509611686  S =  0.500

      Det      Coef    Occupancy (Ignoring core)
      ---      ----    --------- --------- -----
       36   -0.968583  11110001101000
      113   -0.051021  10110100111000
      142    0.059066  11101001100100
      463   -0.072235  10110101001010

 Davidson method: CPU/Wall time =           0.49 /           0.49 sec.

 Oscillator strength (invalid if E(1)/=E(GS)):
 -----------------------------------------
   State                        f
 -----------------------------------------
     2     F(REF-CI)=        0.0024132127
     3     F(REF-CI)=        0.0066143925
 -----------------------------------------

 Dipole moment matrix elements, x, y, z, in A.U.

 Dimension of ionized spaces for PT:
 (N-2) space:         1715 /  (N-1) space:         2842 /  N space:         2891
 (N+1) space:         2842 /  (N+2) space:         1715

 <<<Ionized spaces for internal:
         0:         1225 /      -1-0:         1960 /     0-1-0:         2891
  -1-0-1-0:         2842 / 0-1-0-1-0:         3381

 Diagonal elements of averaged one-particle density matrix:
       2       3       4       5       6       7       8
  0.9920  0.9829  0.9846  0.9874  0.0240  0.0169  0.0123
  0.9861  0.6559  0.6625  0.6585  0.0161  0.0123  0.0086

 Orbital energies:
 -------- Doubly-occupied orbitals (highest several orbs.) -------
             1
 -1.597589D+01
 -------- Active orbitals ----------------------------------------
             2            3            4            5            6
 -1.469788D+00-7.790985D-01-9.736311D-01-7.021709D-01 5.598432D-02
             7            8
  2.273685D-01 3.618910D-01
 -------- External orbitals (lowest several orbs.) ---------------
             9           10           11           12           13
  1.303990D-01 2.058059D-01 2.690111D-01 5.288979D-01 5.925249D-01
            14           15           16           17           18
  7.230521D-01 8.611736D-01 1.034731D+00 1.077965D+00 1.194363D+00

 *** Quasi-degeneracy checking

 === Det (|Ci| > 1.0D-01 and dE < 5.0D-03)

 # of small denominators (single excitations)
 State       dEmin  dE < 5.0D-03  dE < 5.0D-04  dE < 5.0D-05  dE < 5.0D-06
 ----- ----------- ------------- ------------- ------------- -------------
     1    5.00D-03             0             0             0             0
     2    5.00D-03             0             0             0             0
     3    5.00D-03             0             0             0             0

 # of small denominators (double excitations)
 State       dEmin  dE < 5.0D-03  dE < 5.0D-04  dE < 5.0D-05  dE < 5.0D-06
 ----- ----------- ------------- ------------- ------------- -------------
     1    5.00D-03             0             0             0             0
     2    5.00D-03             0             0             0             0
     3    5.00D-03             0             0             0             0

 *** Zeroth-Order Setup (Granovsky's zeroth-order vectors)
 Zeroth-order effective Hamiltonian
  (= Sum_i e(i)*<I|a+(i)a(i)|J> ):
                   1            2            3
     1 -7.035887D+00
     2 -1.763146D-02-6.976640D+00
     3 -2.022323D-03-9.790054D-03-6.768654D+00

 Zeroth-order vectors:
 State #    1
       MC st            1           2           3
       Coeff    9.635D-01   2.673D-01   1.677D-02
 State #    2
       MC st            2           1           3
       Coeff   -9.625D-01   2.678D-01  -4.364D-02
 State #    3
       MC st            3           2           1
       Coeff    9.989D-01  -4.654D-02  -4.481D-03

 *** GMC-QDPT computation

 (Integral reading:  CPU/Wall time =           0.00 /           0.00 sec.)

 One-external:
   0 -ionized terms: CPU/Wall time =           0.03 /           0.03 sec.
 (-1)-ionized terms: CPU/Wall time =           0.09 /           0.09 sec.
 (+1)-ionized terms: CPU/Wall time =           0.02 /           0.02 sec.
 (+1)-ionized terms: CPU/Wall time =           0.01 /           0.01 sec.
 (+2)-ionized terms: CPU/Wall time =           0.00 /           0.00 sec.

 Internal:
 # of macro loops for internal contribution =         1 (input)
 Loop:    1
 Dimension of internal CISD space     =         0  (after screening)
 Space construction: CPU/Wall time =           0.02 /           0.02 sec.
 Internal terms:     CPU/Wall time =           0.00 /           0.00 sec.

 Two-external:
   0 -ionized terms: CPU/Wall time =           0.06 /           0.06 sec.
 (-1)-ionized terms: CPU/Wall time =           1.00 /           1.00 sec.
 (-2)-ionized terms: CPU/Wall time =           0.17 /           0.17 sec.

 Total time:         CPU/Wall time =           1.40 /           1.40 sec.

 ***                  ***
 *** GMC-QDPT Results ***
 ***                  ***

 Diagonal elements of effective Hamiltonian:
 Heff(  1) =   -55.90782125
 Heff(  2) =   -55.82364583
 Heff(  3) =   -55.62136216

 Off-diagonal elements of effective Hamiltonian:
                   1            2
     2 -2.403368D-02
     3  4.555044D-03-8.086722D-03

 ******** GMC-QDPT energies ********
 ----------------------------------------------------------------------------
   State                        1st order                           2nd order
 ----------------------------------------------------------------------------
     1     E(REF-CI)=      -55.8145788184   E(GMC-QDPT2)=      -55.9142185129
     2     E(REF-CI)=      -55.7104152824   E(GMC-QDPT2)=      -55.8176782034
     3     E(REF-CI)=      -55.5096116864   E(GMC-QDPT2)=      -55.6209325309
 ----------------------------------------------------------------------------

 Excitation energies (invalid if E(1)/=E(GS)):
 ----------------------------------------------------------------------------
   State                        1st order                           2nd order
 ----------------------------------------------------------------------------

     TZ Sorted GMC-PT ENERGIES:
         1      -55.9142185129
         2      -55.8176782034
         3      -55.6209325309
     2     E(REF-CI)=        2.8344356 eV   E(GMC-QDPT2)=        2.6269970 eV
     3     E(REF-CI)=        8.2985826 eV   E(GMC-QDPT2)=        7.9807222 eV
 ----------------------------------------------------------------------------

 Main characters of perturbed GMC-QDPT states:

 State #    1  Energy =     -55.914218513  S =  0.500

      Det      Coef    Occupancy (Ignoring core)
      ---      ----    --------- --------- -----
        1    0.966595  11110001110000
       71    0.116948  11110001011000
      393    0.070149  10110101010010

 State #    2  Energy =     -55.817678203  S =  0.500

      Det      Coef    Occupancy (Ignoring core)
      ---      ----    --------- --------- -----
        1    0.121896  11110001110000
       71   -0.969277  11110001011000
      177    0.055738  11101001010100
      248    0.051905  11011001001100
      822    0.051081  11010011001001

 State #    3  Energy =     -55.620932531  S =  0.500

      Det      Coef    Occupancy (Ignoring core)
      ---      ----    --------- --------- -----
       36   -0.968570  11110001101000
      113   -0.051058  10110100111000
      142    0.059023  11101001100100
      463   -0.072197  10110101001010

 <<<Max |V/de| = 2.911D-02  Thresh = 1.000D+00

 Oscillator strength (invalid if E(1)/=E(GS)):
 ----------------------------------------------------------------------------
   State                        1st order                           2nd order
 ----------------------------------------------------------------------------
     2     F(REF-CI)=        0.0024132127     F(GMC-PT2)=        0.0023174357
     3     F(REF-CI)=        0.0066143925     F(GMC-PT2)=        0.0064806741
 ----------------------------------------------------------------------------

 Dipole moment matrix elements, x, y, z, in A.U.
States    1    1        0.3426606347        0.2000421098        0.6137594643
States    1    2        0.0130360624       -0.0461384529       -0.1835989645
States    1    3       -0.0565849794       -0.1519393876        0.0828113743
States    2    1        0.0130360624       -0.0461384529       -0.1835989645
States    2    2        0.4374722239        0.0026459628        0.3907629731
States    2    3        0.0538210227       -0.0722478835       -0.0013222055
States    3    1       -0.0565849794       -0.1519393876        0.0828113743
States    3    2        0.0538210227       -0.0722478835       -0.0013222055
States    3    3        0.4781709791        0.4216005393        0.2889103442

 Oscillator strength (valid only when positive): 
 ----------------------------------------------------------------------------
  States                        1st order                           2nd order
 ----------------------------------------------------------------------------
  1  1     F(REF-CI)=        0.0000000000     F(GMC-PT2)=        0.0000000000
  1  2     F(REF-CI)=       -0.0024132127     F(GMC-PT2)=       -0.0023174357
  1  3     F(REF-CI)=       -0.0066143925     F(GMC-PT2)=       -0.0064806741
  2  1     F(REF-CI)=        0.0024132127     F(GMC-PT2)=        0.0023174357
  2  2     F(REF-CI)=        0.0000000000     F(GMC-PT2)=        0.0000000000
  2  3     F(REF-CI)=       -0.0011162245     F(GMC-PT2)=       -0.0010648148
  3  1     F(REF-CI)=        0.0066143925     F(GMC-PT2)=        0.0064806741
  3  2     F(REF-CI)=        0.0011162245     F(GMC-PT2)=        0.0010648148
  3  3     F(REF-CI)=        0.0000000000     F(GMC-PT2)=        0.0000000000
 CPU     0: STEP CPU TIME=     1.95 TOTAL CPU TIME=         15.0 (      0.2 MIN)
 TOTAL WALL CLOCK TIME=         15.0 SECONDS, CPU UTILIZATION IS    99.87%

     !!! DIABATIZATION FOR REF CI STATES !!!

 *******************************************************
          $DMO GROUP FOUND IN THE INPUT.
        DIABATIZATION OF ADIABATIC STATES BEGINS.
     PROGRAMMED BY TAO ZENG (CARLETON UNIVERSITY).
               Email: toby.zeng@carleton.ca
     See T. Zeng, J. Chem. Phys. 2017, 146, 144103
 *******************************************************

 *************************************************************************
     STEP 1: TRANSFORMATION OF ADIABATIC STATES TO THE DMO REPRESENTATION
         See Atchity and Ruedenberg, J. Chem. Phys. 1999, 111, 2910
 *************************************************************************

Read in Diabatic Molecualr Orbitals:

                      1          2          3          4          5

    1  N  1  S    0.008609   0.000000   0.000000  -0.013219   0.279491
    2  N  1  S    0.442914  -0.000000   0.000000  -0.184329   0.867803
    3  N  1  S    0.276913   0.000000  -0.000000  -0.288315   0.144236
    4  N  1  X   -0.000000   0.493155  -0.024636  -0.000000  -0.000000
    5  N  1  Y    0.000000   0.024636   0.493155  -0.000000   0.000000
    6  N  1  Z    0.090197   0.000000   0.000000   0.593421   0.705309
    7  N  1  X   -0.000000   0.210628  -0.010522   0.000000   0.000000
    8  N  1  Y    0.000000   0.010522   0.210628  -0.000000  -0.000000
    9  N  1  Z   -0.004381   0.000000   0.000000   0.381592  -0.106092
   10  N  1 XX   -0.000457   0.010719  -0.000535  -0.012387   0.006153
   11  N  1 YY   -0.000457  -0.010719   0.000535  -0.012387   0.006153
   12  N  1 ZZ    0.000914  -0.000000   0.000000   0.024773  -0.012306
   13  N  1 XY    0.000000  -0.000618  -0.012377  -0.000000   0.000000
   14  N  1 XZ   -0.000000   0.026529  -0.001325  -0.000000   0.000000
   15  N  1 YZ    0.000000   0.001325   0.026529  -0.000000   0.000000
   16  H  2  S    0.194462  -0.176074   0.343485   0.112865  -0.523343
   17  H  2  S    0.003574  -0.023812   0.046452   0.024014  -0.054445
   18  H  2  X    0.018760   0.009101   0.022834   0.009336  -0.039151
   19  H  2  Y   -0.032493   0.022287  -0.020044  -0.016171   0.067811
   20  H  2  Z   -0.009251   0.008464  -0.016511   0.018769  -0.010566
   21  H  3  S    0.194462  -0.209430  -0.324227   0.112865  -0.523343
   22  H  3  S    0.003574  -0.028322  -0.043847   0.024014  -0.054445
   23  H  3  X    0.018760   0.006781  -0.023627   0.009336  -0.039151
   24  H  3  Y    0.032493  -0.024174  -0.017723   0.016171  -0.067811
   25  H  3  Z   -0.009251   0.010067   0.015585   0.018769  -0.010566
   26  H  4  S    0.194462   0.385503  -0.019258   0.112865  -0.523343
   27  H  4  S    0.003574   0.052134  -0.002604   0.024014  -0.054445
   28  H  4  X   -0.037519  -0.032295   0.001613  -0.018672   0.078302
   29  H  4  Y    0.000000   0.001067   0.021353  -0.000000   0.000000
   30  H  4  Z   -0.009251  -0.018530   0.000926   0.018769  -0.010566

                      6          7

    1  N  1  S    0.000000  -0.000000
    2  N  1  S    0.000000  -0.000000
    3  N  1  S   -0.000000   0.000000
    4  N  1  X   -0.930415  -0.002083
    5  N  1  Y   -0.002083   0.930415
    6  N  1  Z   -0.000000   0.000000
    7  N  1  X   -0.046866  -0.000105
    8  N  1  Y   -0.000105   0.046866
    9  N  1  Z   -0.000000   0.000000
   10  N  1 XX    0.001538   0.000003
   11  N  1 YY   -0.001538  -0.000003
   12  N  1 ZZ   -0.000000   0.000000
   13  N  1 XY   -0.000004   0.001776
   14  N  1 XZ    0.039985   0.000090
   15  N  1 YZ    0.000090  -0.039985
   16  H  2  S   -0.362630  -0.631354
   17  H  2  S   -0.065964  -0.114846
   18  H  2  X    0.002763  -0.037520
   19  H  2  Y    0.037435   0.040736
   20  H  2  Z    0.001882   0.003276
   21  H  3  S   -0.365454   0.629724
   22  H  3  S   -0.066477   0.114549
   23  H  3  X    0.002595   0.037532
   24  H  3  Y   -0.037617   0.040567
   25  H  3  Z    0.001896  -0.003268
   26  H  4  S    0.728084   0.001630
   27  H  4  S    0.132441   0.000297
   28  H  4  X   -0.062317  -0.000140
   29  H  4  Y    0.000055  -0.024345
   30  H  4  Z   -0.003778  -0.000008

NUMBER OF SUB ACTIVE SPACES:   1
ROTATE ACTIVE MOS TO DMOS IN EACH SUB-SPACE

SPACE  1:

OVERLAP BETWEEN ORTHONORMAL AND PRE-ORTHONORMAL REF. DMOS

             1           2           3           4           5

    1    0.9630243   0.0418093  -0.0000891  -0.0125209   0.0053258
    2    0.0418093   0.8788101   0.0652709   0.0514619  -0.0696411
    3   -0.0000891   0.0652709   1.0064333   0.0148895  -0.0451148
    4   -0.0125209   0.0514619   0.0148895   0.9919936  -0.0161410
    5    0.0053258  -0.0696411  -0.0451148  -0.0161410   1.1928305
    6    0.0049115  -0.0754199   0.0741020   0.0517965   0.0309440
    7    0.0015808  -0.0381508  -0.0378131  -0.0362046   0.0771008

             6           7

    1    0.0049115   0.0015808
    2   -0.0754199  -0.0381508
    3    0.0741020  -0.0378131
    4    0.0517965  -0.0362046
    5    0.0309440   0.0771008
    6    1.0929955  -0.0065521
    7   -0.0065521   1.0685102
REFERENCE DMOS AFTER ORTHONORMALIZATION:

                      1          2          3          4          5

    1  N  1  S    0.006804   0.017145   0.009462  -0.010721   0.236712
    2  N  1  S    0.452053   0.040445   0.031638  -0.172121   0.730765
    3  N  1  S    0.282617   0.012154   0.007407  -0.287037   0.117679
    4  N  1  X   -0.017343   0.494457   0.006086   0.017943   0.050171
    5  N  1  Y   -0.001664   0.021186   0.522485   0.024659  -0.035600
    6  N  1  Z    0.098520   0.000691   0.020628   0.610596   0.602629
    7  N  1  X   -0.010596   0.241769  -0.023348  -0.010606   0.013365
    8  N  1  Y    0.000084  -0.002445   0.212646  -0.000370   0.004985
    9  N  1  Z    0.002310  -0.029884  -0.005693   0.386497  -0.086389
   10  N  1 XX   -0.001292   0.013810  -0.001205  -0.013275   0.005695
   11  N  1 YY   -0.000142  -0.011482   0.001752  -0.011786   0.004515
   12  N  1 ZZ    0.001435  -0.002328  -0.000547   0.025061  -0.010210
   13  N  1 XY   -0.000015   0.000292  -0.012360   0.000163  -0.000554
   14  N  1 XZ   -0.001752   0.034456  -0.006338  -0.003728   0.000628
   15  N  1 YZ    0.000115  -0.001813   0.025408  -0.001474   0.003271
   16  H  2  S    0.223012  -0.332317   0.349945   0.121353  -0.398267
   17  H  2  S    0.006753  -0.045768   0.048119   0.025053  -0.037695
   18  H  2  X    0.019617   0.003925   0.019667   0.007423  -0.029818
   19  H  2  Y   -0.036222   0.038851  -0.021208  -0.018289   0.055015
   20  H  2  Z   -0.009779   0.010071  -0.017807   0.018385  -0.008996
   21  H  3  S    0.219550  -0.278340  -0.281907   0.166371  -0.495264
   22  H  3  S    0.006151  -0.036538  -0.035566   0.032972  -0.054202
   23  H  3  X    0.019405   0.007264  -0.024680   0.010161  -0.035836
   24  H  3  Y    0.036003  -0.035471  -0.014231   0.021146  -0.061076
   25  H  3  Z   -0.009735   0.009250   0.014186   0.017903  -0.007448
   26  H  4  S    0.181084   0.464945  -0.120448   0.051115  -0.438156
   27  H  4  S    0.000552   0.067463  -0.018386   0.013813  -0.045956
   28  H  4  X   -0.037644  -0.035317   0.011319  -0.013599   0.066007
   29  H  4  Y    0.000074  -0.001202   0.020685  -0.000943   0.002181
   30  H  4  Z   -0.008251  -0.023279   0.002148   0.020161  -0.009713

                      6          7

    1  N  1  S   -0.005782  -0.016542
    2  N  1  S   -0.014258  -0.056755
    3  N  1  S    0.009230  -0.017883
    4  N  1  X   -0.819692   0.007907
    5  N  1  Y   -0.030666   0.893225
    6  N  1  Z   -0.047925  -0.022480
    7  N  1  X   -0.024403   0.006250
    8  N  1  Y   -0.014501   0.050838
    9  N  1  Z   -0.017449   0.017951
   10  N  1 XX    0.002913  -0.000387
   11  N  1 YY   -0.001893  -0.001088
   12  N  1 ZZ   -0.001020   0.001475
   13  N  1 XY    0.000870   0.001286
   14  N  1 XZ    0.039564   0.001163
   15  N  1 YZ   -0.002010  -0.036886
   16  H  2  S   -0.377268  -0.560148
   17  H  2  S   -0.067547  -0.104269
   18  H  2  X    0.001679  -0.031893
   19  H  2  Y    0.038047   0.034458
   20  H  2  Z    0.003076   0.004101
   21  H  3  S   -0.325655   0.608486
   22  H  3  S   -0.060332   0.109290
   23  H  3  X    0.005219   0.037445
   24  H  3  Y   -0.035087   0.041051
   25  H  3  Z    0.000811  -0.001063
   26  H  4  S    0.715861   0.051334
   27  H  4  S    0.127758   0.006602
   28  H  4  X   -0.061313  -0.006535
   29  H  4  Y   -0.001587  -0.022294
   30  H  4  Z   -0.005848   0.000597

 -------------------------------------------
       MAXIMIZING MORMO OVERLAP TERM        
 -------------------------------------------
   SWEEP    VALUE       PROGRESS
     0     4.91996
     1     6.91429     1.99432377
     2     6.92313     0.00884207
     3     6.92313     0.00000062
     4     6.92313     0.00000000
     5     6.92313     0.00000000
 THE ROTATION IS DONE
FLIPPING SIGN FOR ORBITAL   7
ACTIVE ORBITALS AFTER MORMO:

                      1          2          3          4          5

    1  N  1  S    0.004092   0.033154   0.003821  -0.012732   0.167558
    2  N  1  S    0.415430   0.082983   0.000604  -0.193276   0.644386
    3  N  1  S    0.349549  -0.075196   0.033682  -0.263755   0.228862
    4  N  1  X    0.003837   0.421522   0.024711   0.049135   0.021867
    5  N  1  Y   -0.010947   0.047687   0.498690   0.018926  -0.043820
    6  N  1  Z    0.079988   0.039197   0.024880   0.606201   0.582762
    7  N  1  X   -0.030656   0.332693  -0.065173  -0.067854   0.052839
    8  N  1  Y    0.009372  -0.045869   0.219786  -0.019855   0.029587
    9  N  1  Z    0.036743  -0.084610  -0.018331   0.387927  -0.054654
   10  N  1 XX   -0.007511   0.032472  -0.005885  -0.016958   0.033085
   11  N  1 YY    0.008202  -0.033374   0.006969  -0.003336  -0.044798
   12  N  1 ZZ   -0.000691   0.000901  -0.001084   0.020294   0.011713
   13  N  1 XY    0.003898  -0.003596  -0.000346  -0.003179  -0.018711
   14  N  1 XZ    0.001633   0.018246  -0.006861   0.003043  -0.043364
   15  N  1 YZ    0.003264  -0.002518   0.015414  -0.004605  -0.010921
   16  H  2  S    0.187174  -0.206717   0.312889   0.100955  -0.387071
   17  H  2  S    0.018110  -0.134728   0.096445   0.039454  -0.060722
   18  H  2  X   -0.003786   0.026710  -0.009266  -0.005039  -0.009705
   19  H  2  Y   -0.028380   0.013701  -0.035639  -0.011220   0.039812
   20  H  2  Z   -0.003631  -0.003855  -0.014669   0.017259  -0.024838
   21  H  3  S    0.189245  -0.234857  -0.296629   0.125989  -0.476161
   22  H  3  S    0.007517  -0.056649  -0.029132   0.041712  -0.076656
   23  H  3  X    0.005554   0.020519  -0.012880  -0.000602  -0.007033
   24  H  3  Y    0.033049  -0.023825  -0.036740   0.011024  -0.051683
   25  H  3  Z   -0.001485   0.001030   0.006022   0.021803  -0.014514
   26  H  4  S    0.178871   0.402403  -0.067375   0.077633  -0.463133
   27  H  4  S   -0.005896   0.155644  -0.070755   0.019588  -0.076576
   28  H  4  X   -0.030975  -0.015285  -0.002983  -0.021164   0.042429
   29  H  4  Y   -0.005870  -0.013815   0.018822  -0.002192  -0.016858
   30  H  4  Z   -0.014704  -0.034840  -0.001318   0.015931  -0.006999

                      6          7

    1  N  1  S    0.047162  -0.054102
    2  N  1  S    0.116347  -0.113240
    3  N  1  S   -0.157391   0.071128
    4  N  1  X   -0.819814  -0.015335
    5  N  1  Y    0.008669   0.883805
    6  N  1  Z   -0.076990  -0.035975
    7  N  1  X   -0.032351   0.048799
    8  N  1  Y   -0.072638   0.075779
    9  N  1  Z    0.003067   0.054563
   10  N  1 XX    0.053521   0.009365
   11  N  1 YY   -0.064261   0.009071
   12  N  1 ZZ    0.010739  -0.018436
   13  N  1 XY    0.007323  -0.042286
   14  N  1 XZ    0.013661   0.006285
   15  N  1 YZ    0.009832  -0.047720
   16  H  2  S   -0.261643  -0.535202
   17  H  2  S   -0.151881  -0.178908
   18  H  2  X    0.039526  -0.008240
   19  H  2  Y    0.021803   0.047327
   20  H  2  Z    0.018426  -0.017705
   21  H  3  S   -0.292837   0.572590
   22  H  3  S   -0.075923   0.131634
   23  H  3  X    0.005567   0.017129
   24  H  3  Y   -0.023585   0.053111
   25  H  3  Z    0.003482   0.028766
   26  H  4  S    0.659494  -0.017704
   27  H  4  S    0.240947   0.058480
   28  H  4  X   -0.023566   0.004105
   29  H  4  Y    0.001074  -0.053447
   30  H  4  Z   -0.016347  -0.009875

Actually Used Diabatic Molecualr Orbitals:

                      1          2          3          4          5

    1  N  1  S    0.004092   0.033154   0.003821  -0.012732   0.167558
    2  N  1  S    0.415430   0.082983   0.000604  -0.193276   0.644386
    3  N  1  S    0.349549  -0.075196   0.033682  -0.263755   0.228862
    4  N  1  X    0.003837   0.421522   0.024711   0.049135   0.021867
    5  N  1  Y   -0.010947   0.047687   0.498690   0.018926  -0.043820
    6  N  1  Z    0.079988   0.039197   0.024880   0.606201   0.582762
    7  N  1  X   -0.030656   0.332693  -0.065173  -0.067854   0.052839
[...]
 STATE #  2'S GMC-PT-LEVEL DIABATIC ENERGY=     -55.816100219       1.844699510
 STATE #  3'S GMC-PT-LEVEL DIABATIC ENERGY=     -55.652837352       6.287308419

 --- DIABATIC COUPLINGS (OFF DIAGONAL ELEMENTS)---  HATREE            EV
 STATE #  1 &  2'S GMC-PT-LEVEL COUPLING  =      -0.054499794      -1.483014932
 STATE #  1 &  3'S GMC-PT-LEVEL COUPLING  =      -0.032553463      -0.885824834
 STATE #  2 &  3'S GMC-PT-LEVEL COUPLING  =       0.064845044       1.764523536

 ---------------------------------------
     - ROTATION TO DIABATIC STATES -    
 ---------------------------------------
 ROWS=ADIABATIC, COLUMNS=DIABATIC STATES

             1           2           3

    1   -0.8702149  -0.4924791   0.0137972
    2    0.4557257  -0.7939994   0.4023419
    3   -0.1871900   0.3564116   0.9153855

 ---------------------------------------
          - DIABATIC STATES -           
 ---------------------------------------

 State #    1  Energy =     -55.883891676

      Det      Coef        Coefp    Occupancy (Ignoring core)
      ---      ----        ----    --------- --------- -----
        1    0.889997   -0.889997  222+000
        8   -0.189332    0.189332  2-2+0+0
      386    0.159644   -0.159644  2+2+0-0
        4   -0.152491    0.152491  2-2++00
      176    0.147150   -0.147150  2+2+-00
        7    0.107377    0.107377  22-+0+0
        6    0.107324   -0.107324  22200+0
      351   -0.101130   -0.101130  22++0-0
      717   -0.065363   -0.065363  220+002
      393   -0.056461   -0.056461  202+020
        3   -0.054364   -0.054364  22-++00
      141    0.051869    0.051869  22++-00
       18   -0.048705    0.048705  2-2+00+
      708    0.046673   -0.046673  2-++0+-
      736    0.045300   -0.045300  2+2+00-
        5    0.041641    0.041641  -22++00
      402    0.041373   -0.041373  2+-+0-+
       16   -0.041191    0.041191  222000+
       13    0.040501    0.040501  2--+++0
      215   -0.038863   -0.038863  022+200
      391    0.037855   -0.037855  2+20020
      705   -0.037779   -0.037779  -2+++0-
      227   -0.036916   -0.036916  +2-+-0+
      561    0.036562    0.036562  2+++--0
      143   -0.036361   -0.036361  220+200
       11    0.036307   -0.036307  2-20++0
      183   -0.034366    0.034366  202+-+0
      389    0.034016    0.034016  202++-0
     1051   -0.033231   -0.033231  2+++0--
      212    0.031997    0.031997  +220200
       76    0.029687    0.029687  2+2-0+0
      147    0.029373   -0.029373  220+-+0
      387   -0.029366    0.029366  2+20+-0
       29   -0.028923   -0.028923  2--+0++
      390    0.028922   -0.028922  -+2++-0
      113   -0.028910    0.028910  +-220+0
      218    0.028783   -0.028783  +-2+-+0
      353   -0.027872   -0.027872  220++-0
       51   -0.026773    0.026773  22+-00+
      211   -0.026576   -0.026576  +22+-00
      424   -0.024821   -0.024821  +-2++-0
      702    0.024808    0.024808  22+0+0-
      773    0.024608   -0.024608  +2-++0-
        9    0.024374    0.024374  -22+0+0
      159    0.024274   -0.024274  -2++-0+
      122    0.021607    0.021607  +2-200+
      184   -0.020873   -0.020873  -+2+-+0
      354   -0.020208    0.020208  2-+++-0

 State #    2  Energy =     -55.816100219

      Det      Coef        Coefp    Occupancy (Ignoring core)
      ---      ----        ----    --------- --------- -----
       71   -0.883304    0.883304  2+22000
       74    0.198662   -0.198662  2022+00
       78    0.165411   -0.165411  20220+0
       76    0.147796    0.147796  2+2-0+0
      386   -0.128935    0.128935  2+2+0-0
       77    0.118811   -0.118811  2+-20+0
      456   -0.099401   -0.099401  2++20-0
      106    0.092426    0.092426  +222000
      246    0.069563    0.069563  2++2-00
      822    0.062405   -0.062405  2+02002
       81    0.057658    0.057658  202-++0
      113    0.053379   -0.053379  +-220+0
      813    0.052802   -0.052802  20+20+-
       88    0.052790   -0.052790  202200+
      736    0.052013   -0.052013  2+2+00-
       86   -0.048624   -0.048624  2+2-00+
      393   -0.047060   -0.047060  202+020
       83    0.046938   -0.046938  20-2++0
       36    0.046659    0.046659  22+2000
       75   -0.046529   -0.046529  -+22+00
       73   -0.045174    0.045174  2+-2+00
       99   -0.043326    0.043326  20-20++
      806    0.041825    0.041825  2++200-
      183   -0.039767    0.039767  202+-+0
       79   -0.039045   -0.039045  -+220+0
      810   -0.038670   -0.038670  -++2+0-
      323   -0.038476    0.038476  +022-+0
      320    0.038294    0.038294  0+22200
      109    0.037602   -0.037602  +-22+00
      180   -0.037183    0.037183  -+2+200
      177    0.036272   -0.036272  2+20200
      248    0.035616   -0.035616  2+02200
      317    0.035210   -0.035210  ++2-200
      332   -0.034851    0.034851  ++-2-0+
      252   -0.033072   -0.033072  2+02-+0
       38   -0.031622    0.031622  2202+00
      529    0.026173    0.026173  +022+-0
      176    0.025387   -0.025387  2+2+-00
      807   -0.025200    0.025200  2++-+0-
      253   -0.024850   -0.024850  20+2-+0
      192   -0.024537    0.024537  2+-+-0+
       39   -0.024390   -0.024390  2-+2+00
      458    0.023839   -0.023839  2+02+-0
       72   -0.023358   -0.023358  2+2-+00
      878    0.023139    0.023139  ++-2+0-
      264    0.023108   -0.023108  -++2-0+
       87   -0.022366    0.022366  2+-200+
      459   -0.022089    0.022089  20+2+-0
       97   -0.021690   -0.021690  202-0++
      534    0.021258    0.021258  0+22020

 State #    3  Energy =     -55.652837352

      Det      Coef        Coefp    Occupancy (Ignoring core)
      ---      ----        ----    --------- --------- -----
       36   -0.890401   -0.890401  22+2000
      456   -0.164223   -0.164223  2++20-0
      246   -0.163068   -0.163068  2++2-00
       43    0.141111    0.141111  2-+20+0
       39    0.128331    0.128331  2-+2+00
      351   -0.115339   -0.115339  22++0-0
       42   -0.103888    0.103888  22020+0
       41    0.098771   -0.098771  22+-0+0
      463    0.065399   -0.065399  20+2020
       51   -0.058971    0.058971  22+-00+
       52    0.056187   -0.056187  220200+
      472   -0.053425   -0.053425  2+020-+
      281    0.051194   -0.051194  +2+2-00
       38    0.051166   -0.051166  2202+00
       37   -0.050930    0.050930  22+-+00
      701    0.049989    0.049989  22++00-
       53    0.048261    0.048261  2-+200+
      806   -0.046119   -0.046119  2++200-
       46    0.045290   -0.045290  2-+-++0
      112   -0.044734   -0.044734  +2-20+0
      461    0.044612   -0.044612  2++-020
      358   -0.043983    0.043983  2-++020
       64    0.043327   -0.043327  2-020++
      561    0.043000    0.043000  2+++--0
      285    0.041231   -0.041231  02+2200
      121   -0.040200    0.040200  +22-00+
      457   -0.040042    0.040042  2++-+-0
      491    0.039630   -0.039630  +2+20-0
      282    0.038034    0.038034  +2+-200
       71   -0.037751    0.037751  2+22000
      297    0.037441   -0.037441  +202-0+
      142    0.036703    0.036703  22+0200
      148   -0.036471   -0.036471  2-++-+0
      145   -0.035434   -0.035434  -2++200
       73    0.034736   -0.034736  2+-2+00
      460   -0.033670   -0.033670  -++2+-0
      108   -0.033218   -0.033218  +2-2+00
       48   -0.033140    0.033140  2-02++0
        3    0.032081    0.032081  22-++00
      253    0.029235    0.029235  20+2-+0
       16   -0.029053    0.029053  222000+
      288   -0.028377   -0.028377  +-+2-+0
      254    0.026365   -0.026365  -++2-+0
      459   -0.026319    0.026319  20+2+-0
      157    0.024657   -0.024657  220+-0+
       77    0.023113   -0.023113  2+-20+0
       74    0.022235   -0.022235  2022+00
      771    0.021693    0.021693  +22+00-
      494    0.021590   -0.021590  +-+2+-0
      843   -0.021576   -0.021576  +202+0-
      716    0.020360    0.020360  22+0002

 ---------------------------------------
      - DIABATIC STATES IN CMO -        
 ---------------------------------------

 State #    1  Energy =     -55.883891676

      Det      Coef        Coefp    Occupancy (Ignoring core)
      ---      ----        ----    --------- --------- -----
        1    0.788839   -0.788839  222+000
       71    0.538372   -0.538372  2+22000
       36    0.182154    0.182154  22+2000
      393   -0.057705   -0.057705  202+020
      177   -0.052740    0.052740  2+20200
      717   -0.042745   -0.042745  220+002
      106   -0.040613   -0.040613  +222000
      179   -0.040167   -0.040167  202+200
      143   -0.034309   -0.034309  220+200
      392    0.032919    0.032919  2+-+020
      180    0.032654   -0.032654  -+2+200
      822   -0.032246    0.032246  2+02002
      183    0.031284   -0.031284  202+-+0
      358   -0.030602    0.030602  2-++020
      248   -0.029785    0.029785  2+02200
      212    0.029518    0.029518  +220200
       17   -0.028425   -0.028425  22-+00+
        8   -0.027267    0.027267  2-2+0+0
      357   -0.027163   -0.027163  220+020
      113   -0.026566    0.026566  +-220+0
      215   -0.025741   -0.025741  022+200
      178   -0.025643   -0.025643  2+-+200
        2    0.025467   -0.025467  2220+00
        7   -0.024839   -0.024839  22-+0+0
      112   -0.024238   -0.024238  +2-20+0
      192   -0.023785    0.023785  2+-+-0+
      702   -0.021960   -0.021960  22+0+0-
      227    0.021302    0.021302  +2-+-0+
      705    0.021199    0.021199  -2+++0-
       76    0.021175    0.021175  2+2-0+0
       74   -0.020917    0.020917  2022+00
       18    0.020686   -0.020686  2-2+00+
       87    0.020215   -0.020215  2+-200+
      561    0.020149    0.020149  2+++--0

 State #    2  Energy =     -55.816100219

      Det      Coef        Coefp    Occupancy (Ignoring core)
      ---      ----        ----    --------- --------- -----
       71   -0.702257    0.702257  2+22000
        1    0.566635   -0.566635  222+000
       36   -0.372029   -0.372029  22+2000
        2    0.049522   -0.049522  2220+00
      248    0.045454   -0.045454  2+02200
      822    0.045032   -0.045032  2+02002
      393   -0.040348   -0.040348  202+020
      143   -0.037046   -0.037046  220+200
      113    0.036462   -0.036462  +-220+0
      109    0.034223   -0.034223  +-22+00
      142    0.029900    0.029900  22+0200
       72    0.028231    0.028231  2+2-+00
      107   -0.027909    0.027909  +22-+00
       74    0.026889   -0.026889  2022+00
        4   -0.026533    0.026533  2-2++00
      177    0.026458   -0.026458  2+20200
      823    0.026237   -0.026237  20+2002
      249    0.025927   -0.025927  20+2200
      317    0.025114   -0.025114  ++2-200
      112    0.024868    0.024868  +2-20+0
      807    0.024690   -0.024690  2++-+0-
      717   -0.024485   -0.024485  220+002
       53    0.024400    0.024400  2-+200+
      247   -0.023548    0.023548  2++-200
       87   -0.022101    0.022101  2+-200+
      810    0.021958    0.021958  -++2+0-
      534    0.021875    0.021875  0+22020
      358   -0.021811    0.021811  2-++020
       38   -0.021311    0.021311  2202+00
      145   -0.021085   -0.021085  -2++200
      320    0.021013    0.021013  0+22200
      392    0.020809    0.020809  2+-+020
       79   -0.020787   -0.020787  -+220+0
      144    0.020552   -0.020552  2-++200
        6    0.020527   -0.020527  22200+0
       83    0.020240   -0.020240  20-2++0

 State #    3  Energy =     -55.652837352

      Det      Coef        Coefp    Occupancy (Ignoring core)
      ---      ----        ----    --------- --------- -----
       36   -0.876000   -0.876000  22+2000
       71    0.413417   -0.413417  2+22000
      463    0.080416   -0.080416  20+2020
        1   -0.078248    0.078248  222+000
      142    0.053168    0.053168  22+0200
      108   -0.048825   -0.048825  +2-2+00
      462   -0.047881    0.047881  2+02020
        3    0.045129    0.045129  22-++00
       37   -0.041964    0.041964  22+-+00
       72    0.037998    0.037998  2+2-+00
      113    0.036149   -0.036149  +-220+0
        4   -0.034497    0.034497  2-2++00
      145   -0.033653   -0.033653  -2++200
      282    0.033346    0.033346  +2+-200
      457   -0.032286    0.032286  2++-+-0
      285    0.030705   -0.030705  02+2200
      121    0.030071   -0.030071  +22-00+
        2    0.029633   -0.029633  2220+00
       40    0.028975   -0.028975  -2+2+00
       88    0.026899   -0.026899  202200+
      459    0.026631   -0.026631  20+2+-0
      177   -0.026583    0.026583  2+20200
       52   -0.026258    0.026258  220200+
      249    0.025418   -0.025418  20+2200
      107   -0.025019    0.025019  +22-+00
      499    0.023420   -0.023420  02+2020
      157   -0.022890    0.022890  220+-0+
       64   -0.022425    0.022425  2-020++
      464    0.022234    0.022234  -++2020
      472    0.022089    0.022089  2+020-+
      144    0.021622   -0.021622  2-++200
      148   -0.020685   -0.020685  2-++-+0
      716    0.020127    0.020127  22+0002
       79   -0.020059   -0.020059  -+220+0

 ---------------------------------------
    -DIABATIC STATES IN PROTOTYPES-     
 ---------------------------------------

     STATE:    1
 Group Ref#    Coefficients
     1    1    0.910961
     2    2    0.008366
     3    3   -0.010149

WEIGHT OF LISTED PROTOTYPES:   83.00%

     STATE:    2
 Group Ref#    Coefficients
     1    1    0.008414
     2    2    0.905766
     3    3   -0.005196

WEIGHT OF LISTED PROTOTYPES:   82.05%

     STATE:    3
 Group Ref#    Coefficients
     1    1   -0.010274
     2    2   -0.005230
     3    3    0.899883

WEIGHT OF LISTED PROTOTYPES:   80.99%

     DIRECT MAX. DIABATIZATION FINISHED    
 CPU     0: STEP CPU TIME=     0.24 TOTAL CPU TIME=         15.2 (      0.3 MIN)
 TOTAL WALL CLOCK TIME=         15.2 SECONDS, CPU UTILIZATION IS    99.87%

DIABATS FOR SPIN-ORBIT CALCULATION ARE READY

TRANSITION DIPOLES BETWEEN ADIABATS (in A.U.):

STATE PAIR      X         Y         Z
    1    1  0.342661  0.200042  0.613759
    2    1  0.013036 -0.046138 -0.183599
    2    2  0.437472  0.002646  0.390763
    3    1 -0.056585 -0.151939  0.082811
    3    2  0.053821 -0.072248 -0.001322
    3    3  0.478171  0.421601  0.288910


TRANSITION DIPOLES BETWEEN DIABATS (in A.U.):

STATE PAIR      X         Y         Z
    1    1  0.329135  0.166227  0.728890
    2    1 -0.008190  0.045747 -0.001760
    2    2  0.419245  0.161876  0.260003
    3    1  0.053289  0.038431  0.011300
    3    2  0.005024  0.254891 -0.032509
    3    3  0.509924  0.296186  0.304540

TRANSITION DIPOLES BETWEEN DIRECT MAX. DIABATS (in A.U.):

STATE PAIR      X         Y         Z
    1    1  0.329143  0.166230  0.728891
    2    1 -0.008192  0.045766 -0.001750
    2    2  0.419244  0.161888  0.260002
    3    1  0.053302  0.038432  0.011271
    3    2  0.005027  0.254891 -0.032508
    3    3  0.509917  0.296171  0.304539
 No $TRANST Group Found.
 Quit without doing spin-orbit coupling
 ..... DONE WITH MP2 ENERGY .....
 CPU     0: STEP CPU TIME=     0.01 TOTAL CPU TIME=         15.2 (      0.3 MIN)
 TOTAL WALL CLOCK TIME=         15.2 SECONDS, CPU UTILIZATION IS    99.87%
            100000000  WORDS OF DYNAMIC MEMORY USED
 EXECUTION OF GAMESS TERMINATED NORMALLY Wed Nov 16 19:57:12 2022
 DDI: 715512 bytes (0.7 MB / 0 MWords) used by master data server.

 ----------------------------------------
 CPU timing information for all processes
 ========================================
 0: 14.832 + 0.408 = 15.240
 ----------------------------------------
Note: The following floating-point exceptions are signalling: IEEE_DENORMAL
 ddikick.x: exited gracefully.
unset echo
----- accounting info -----
Files used on the master node io002 were:
-rw-r--r-- 1 bsonghao nooijen   20738 Nov 16 19:56 /scratch/bsonghao/nh3_diabatization_2d_at_mode_7_8_dist0.4_0.8.F05
-rw-r--r-- 1 bsonghao nooijen  363520 Nov 16 19:57 /scratch/bsonghao/nh3_diabatization_2d_at_mode_7_8_dist0.4_0.8.F09
-rw-r--r-- 1 bsonghao nooijen 1995920 Nov 16 19:57 /scratch/bsonghao/nh3_diabatization_2d_at_mode_7_8_dist0.4_0.8.F10
-rw-r--r-- 1 bsonghao nooijen  131264 Nov 16 19:57 /scratch/bsonghao/nh3_diabatization_2d_at_mode_7_8_dist0.4_0.8.F13
-rw-r--r-- 1 bsonghao nooijen  180312 Nov 16 19:57 /scratch/bsonghao/nh3_diabatization_2d_at_mode_7_8_dist0.4_0.8.F15
-rw-r--r-- 1 bsonghao nooijen       0 Nov 16 19:56 /scratch/bsonghao/nh3_diabatization_2d_at_mode_7_8_dist0.4_0.8.F16
-rw-r--r-- 1 bsonghao nooijen    9808 Nov 16 19:57 /scratch/bsonghao/nh3_diabatization_2d_at_mode_7_8_dist0.4_0.8.F70
-rw-r--r-- 1 bsonghao nooijen    9808 Nov 16 19:57 /scratch/bsonghao/nh3_diabatization_2d_at_mode_7_8_dist0.4_0.8.F71
-rw-r--r-- 1 bsonghao nooijen   19608 Nov 16 19:57 /scratch/bsonghao/nh3_diabatization_2d_at_mode_7_8_dist0.4_0.8.F72
-rw-r--r-- 1 bsonghao nooijen   19608 Nov 16 19:57 /scratch/bsonghao/nh3_diabatization_2d_at_mode_7_8_dist0.4_0.8.F73
-rw-r--r-- 1 bsonghao nooijen 1920824 Nov 16 19:57 /scratch/bsonghao/nh3_diabatization_2d_at_mode_7_8_dist0.4_0.8.F74
-rw-r--r-- 1 bsonghao nooijen       0 Nov 16 19:56 /scratch/bsonghao/nh3_diabatization_2d_at_mode_7_8_dist0.4_0.8.F75
-rw-r--r-- 1 bsonghao nooijen   58848 Nov 16 19:57 /scratch/bsonghao/nh3_diabatization_2d_at_mode_7_8_dist0.4_0.8.F76
-rw-r--r-- 1 bsonghao nooijen       0 Nov 16 19:56 /scratch/bsonghao/nh3_diabatization_2d_at_mode_7_8_dist0.4_0.8.F77
-rw-r--r-- 1 bsonghao nooijen    1864 Nov 16 19:57 /scratch/bsonghao/nh3_diabatization_2d_at_mode_7_8_dist0.4_0.8.F78
-rw-r--r-- 1 bsonghao nooijen   39208 Nov 16 19:57 /scratch/bsonghao/nh3_diabatization_2d_at_mode_7_8_dist0.4_0.8.F79
-rw-r--r-- 1 bsonghao nooijen     104 Nov 16 19:57 /scratch/bsonghao/nh3_diabatization_2d_at_mode_7_8_dist0.4_0.8.F80
-rw-r--r-- 1 bsonghao nooijen   13472 Nov 16 19:57 /scratch/bsonghao/nh3_diabatization_2d_at_mode_7_8_dist0.4_0.8.F81
-rw-r--r-- 1 bsonghao nooijen      16 Nov 16 19:57 /scratch/bsonghao/nh3_diabatization_2d_at_mode_7_8_dist0.4_0.8.F82
-rw-r--r-- 1 bsonghao nooijen   19216 Nov 16 19:57 /scratch/bsonghao/nh3_diabatization_2d_at_mode_7_8_dist0.4_0.8.F83
-rw-r--r-- 1 bsonghao nooijen   29712 Nov 16 19:57 /scratch/bsonghao/nh3_diabatization_2d_at_mode_7_8_dist0.4_0.8.F84
-rw-r--r-- 1 bsonghao nooijen  401576 Nov 16 19:57 /scratch/bsonghao/nh3_diabatization_2d_at_mode_7_8_dist0.4_0.8.F85
-rw-r--r-- 1 bsonghao nooijen  903672 Nov 16 19:57 /scratch/bsonghao/nh3_diabatization_2d_at_mode_7_8_dist0.4_0.8.F86
-rw-r--r-- 1 bsonghao nooijen     656 Nov 16 19:57 /scratch/bsonghao/nh3_diabatization_2d_at_mode_7_8_dist0.4_0.8.F87
-rw-r--r-- 1 bsonghao nooijen   44112 Nov 16 19:57 /scratch/bsonghao/nh3_diabatization_2d_at_mode_7_8_dist0.4_0.8.F88
-rw-r--r-- 1 bsonghao nooijen     240 Nov 16 19:57 /scratch/bsonghao/nh3_diabatization_2d_at_mode_7_8_dist0.4_0.8.F89
-rw-r--r-- 1 bsonghao nooijen       0 Nov 16 19:56 /scratch/bsonghao/nh3_diabatization_2d_at_mode_7_8_dist0.4_0.8.F90
-rw-r--r-- 1 bsonghao nooijen   13760 Nov 16 19:57 /scratch/bsonghao/nh3_diabatization_2d_at_mode_7_8_dist0.4_0.8.F91
-rw-r--r-- 1 bsonghao nooijen   22776 Nov 16 19:57 /scratch/bsonghao/nh3_diabatization_2d_at_mode_7_8_dist0.4_0.8.F92
-rw-r--r-- 1 bsonghao nooijen   23168 Nov 16 19:57 /scratch/bsonghao/nh3_diabatization_2d_at_mode_7_8_dist0.4_0.8.F93
-rw-r--r-- 1 bsonghao nooijen   22776 Nov 16 19:57 /scratch/bsonghao/nh3_diabatization_2d_at_mode_7_8_dist0.4_0.8.F94
-rw-r--r-- 1 bsonghao nooijen   13760 Nov 16 19:57 /scratch/bsonghao/nh3_diabatization_2d_at_mode_7_8_dist0.4_0.8.F95
-rw-r--r-- 1 bsonghao nooijen   29440 Nov 16 19:57 /scratch/bsonghao/nh3_diabatization_2d_at_mode_7_8_dist0.4_0.8.F96
-rw-r--r-- 1 bsonghao nooijen    1184 Nov 16 19:57 /scratch/bsonghao/nh3_diabatization_2d_at_mode_7_8_dist0.4_0.8.F97
-rw-r--r-- 1 bsonghao nooijen    9808 Nov 16 19:57 /scratch/bsonghao/nh3_diabatization_2d_at_mode_7_8_dist0.4_0.8.F98
-rw-r--r-- 1 bsonghao nooijen   30264 Nov 16 19:57 /scratch/bsonghao/nh3_diabatization_2d_at_mode_7_8_dist0.4_0.8.F99
ls: No match.
ls: No match.
ls: No match.
Wed 16 Nov 2022 07:57:15 PM EST
0.286u 0.046s 0:18.62 1.7%	0+0k 48+224io 0pf+0w
