----- GAMESS execution script 'rungms' -----
This job is running on host io002
under operating system Linux at Wed 16 Nov 2022 06:52:29 PM EST
Available scratch disk space (Kbyte units) at beginning of the job is
Filesystem       1K-blocks       Used   Available Use% Mounted on
/dev/sdc1      15378471580 3278917120 11318349060  23% /scratch
GAMESS temporary binary files will be written to /scratch/bsonghao
GAMESS supplementary output files will be written to /home/bsonghao/.gamess_ascii_files/267638
Copying input file nh3_diabatization_2d_at_mode_7_8_dist-0.4_-0.1.inp to your run's scratch directory...
cp nh3_diabatization_2d_at_mode_7_8_dist-0.4_-0.1.inp /scratch/bsonghao/nh3_diabatization_2d_at_mode_7_8_dist-0.4_-0.1.F05
unset echo
/home/bjb2chen/gamess/ddikick.x /home/bjb2chen/gamess/gamess.00.x nh3_diabatization_2d_at_mode_7_8_dist-0.4_-0.1 -ddi 1 1 io002 -scr /scratch/bsonghao

 Distributed Data Interface kickoff program.
 Initiating 1 compute processes on 1 nodes to run the following command:
 /home/bjb2chen/gamess/gamess.00.x nh3_diabatization_2d_at_mode_7_8_dist-0.4_-0.1 

          ******************************************************
          *         GAMESS VERSION = 02 AUG 2018 (R2)         *
          *             FROM IOWA STATE UNIVERSITY             *
          * M.W.SCHMIDT, K.K.BALDRIDGE, J.A.BOATZ, S.T.ELBERT, *
          *   M.S.GORDON, J.H.JENSEN, S.KOSEKI, N.MATSUNAGA,   *
          *          K.A.NGUYEN, S.J.SU, T.L.WINDUS,           *
          *       TOGETHER WITH M.DUPUIS, J.A.MONTGOMERY       *
          *         J.COMPUT.CHEM.  14, 1347-1363(1993)        *
          **************** 64 BIT LINUX VERSION ****************

  SINCE 1993, STUDENTS AND POSTDOCS WORKING AT IOWA STATE UNIVERSITY
  AND ALSO IN THEIR VARIOUS JOBS AFTER LEAVING ISU HAVE MADE IMPORTANT
  CONTRIBUTIONS TO THE CODE:
     IVANA ADAMOVIC, CHRISTINE AIKENS, YURI ALEXEEV, POOJA ARORA,
     ANDREY ASADCHEV, ROB BELL, PRADIPTA BANDYOPADHYAY, JONATHAN BENTZ,
     BRETT BODE, KURT BRORSEN, CALEB CARLIN, GALINA CHABAN, WEI CHEN,
     CHEOL HO CHOI, PAUL DAY, ALBERT DEFUSCO, NUWAN DESILVA, TIM DUDLEY,
     DMITRI FEDOROV, ALEX FINDLATER, GRAHAM FLETCHER, MARK FREITAG,
     KURT GLAESEMANN, ANASTASIA GUININA,
     DAN KEMP, GRANT MERRILL, NORIYUKI MINEZAWA, JONATHAN MULLIN,
     TAKESHI NAGATA, SEAN NEDD, HEATHER NETZLOFF, BOSILJKA NJEGIC, RYAN OLSON,
     MIKE PAK, BUU PHAM,
     SPENCER PRUITT, LUKE ROSKOP, JIM SHOEMAKER, LYUDMILA SLIPCHENKO,
     TONY SMITH, SAROM SOK LEANG, JIE SONG, TETSUYA TAKETSUGU, SIMON WEBB,
     PENG XU, SOOHAENG YOO, FEDERICO ZAHARIEV

  ADDITIONAL CODE HAS BEEN PROVIDED BY COLLABORATORS IN OTHER GROUPS:
     IOWA STATE UNIVERSITY:
          JOE IVANIC, AARON WEST, LAIMUTIS BYTAUTAS, KLAUS RUEDENBERG
     UNIVERSITY OF TOKYO: KIMIHIKO HIRAO, TAKAHITO NAKAJIMA,
          TAKAO TSUNEDA, MUNEAKI KAMIYA, SUSUMU YANAGISAWA,
          KIYOSHI YAGI, MAHITO CHIBA, SEIKEN TOKURA, NAOAKI KAWAKAMI
     UNIVERSITY OF AARHUS: FRANK JENSEN
     UNIVERSITY OF IOWA: VISVALDAS KAIRYS, HUI LI
     NATIONAL INST. OF STANDARDS AND TECHNOLOGY: WALT STEVENS, DAVID GARMER
     UNIVERSITY OF PISA: BENEDETTA MENNUCCI, JACOPO TOMASI
     UNIVERSITY OF MEMPHIS: HENRY KURTZ, PRAKASHAN KORAMBATH
     UNIVERSITY OF ALBERTA: TOBY ZENG, MARIUSZ KLOBUKOWSKI
     UNIVERSITY OF NEW ENGLAND: MARK SPACKMAN
     MIE UNIVERSITY: HIROAKI UMEDA
     NAT. INST. OF ADVANCED INDUSTRIAL SCIENCE AND TECHNOLOGY: KAZUO KITAURA
     MICHIGAN STATE UNIVERSITY:
          KAROL KOWALSKI, MARTA WLOCH, JEFFREY GOUR, JESSE LUTZ,
          WEI LI, JUN SHEN, J. EMILIANO DEUSTUA, PIOTR PIECUCH
     UNIVERSITY OF MINNESOTA:
          YINAN SHU
     UNIVERSITY OF SILESIA: MONIKA MUSIAL, STANISLAW KUCHARSKI
     FACULTES UNIVERSITAIRES NOTRE-DAME DE LA PAIX:
          OLIVIER QUINET, BENOIT CHAMPAGNE
     UNIVERSITY OF CALIFORNIA - SANTA BARBARA: BERNARD KIRTMAN
     INSTITUTE FOR MOLECULAR SCIENCE:
          KAZUYA ISHIMURA, MICHIO KATOUDA, AND SHIGERU NAGASE
     UNIVERSITY OF NOTRE DAME: ANNA POMOGAEVA, DAN CHIPMAN
     KYUSHU UNIVERSITY:
          HARUYUKI NAKANO,
          FENG LONG GU, JACEK KORCHOWIEC, MARCIN MAKOWSKI, AND YURIKO AOKI,
          HIROTOSHI MORI AND EISAKU MIYOSHI
     PENNSYLVANIA STATE UNIVERSITY:
          TZVETELIN IORDANOV, CHET SWALINA, JONATHAN SKONE,
          SHARON HAMMES-SCHIFFER
     WASEDA UNIVERSITY:
          MASATO KOBAYASHI, TOMOKO AKAMA, TSUGUKI TOUMA,
          TAKESHI YOSHIKAWA, YASUHIRO IKABATA, JUNJI SEINO,
          YUYA NAKAJIMA, HIROMI NAKAI
     NANJING UNIVERSITY: SHUHUA LI
     UNIVERSITY OF NEBRASKA:
          PEIFENG SU, DEJUN SI, NANDUN THELLAMUREGE, YALI WANG, HUI LI
     UNIVERSITY OF ZURICH: ROBERTO PEVERATI, KIM BALDRIDGE
     N. COPERNICUS UNIVERSITY AND JACKSON STATE UNIVERSITY:
          MARIA BARYSZ
     UNIVERSITY OF COPENHAGEN: Jimmy Kromann, CASPER STEINMANN
     TOKYO INSTITUTE OF TECHNOLOGY: HIROYA NAKATA
     NAGOYA UNIVERSITY: YOSHIO NISHIMOTO, STEPHAN IRLE
     MOSCOW STATE UNIVERSITY: VLADIMIR MIRONOV

 EXECUTION OF GAMESS BEGUN Wed Nov 16 18:52:30 2022

            ECHO OF THE FIRST FEW INPUT CARDS -
 INPUT CARD> $system kdiag=3 mwords=100 memddi=1000 parall=.t. $end                         
 INPUT CARD> $contrl runtyp=energy ispher=1 $end                                            
 INPUT CARD> $contrl icut=9 itol=20 inttyp=rysquad qmttol=1.0d-05 nosym=1 $end              
 INPUT CARD> $scf    npunch=2 conv=1.0d-06 dirscf=.t.      $end                             
 INPUT CARD> $contrl scftyp=mcscf  mult=2 maxit=200 icharg=1 mplevl=2 $end                  
 INPUT CARD> $guess  guess=moread norb=29 purify=.t. $end                                   
 INPUT CARD> $basis  gbasis=ccd $end                                                        
 INPUT CARD> $mcscf  cistep=gmcci fullnr=.t. finci=mos                                      
 INPUT CARD>         acurcy=1.d-6 maxit=100 $end                                            
 INPUT CARD> $trans  dirtrf=.t. $end                                                        
 INPUT CARD> $mrmp   mrpt=gmcpt rdvecs=.f. $end                                             
 INPUT CARD> $gmcpt  nmofzc=0 nmodoc=1 nmoact=7 nelact=7 stsym(1)=A                         
 INPUT CARD>         reftyp=ormas nspace=1 mstart(1)=2 mine(1)=7 maxe(1)=7                  
 INPUT CARD>         kstate(1)=1,1,1                                                        
 INPUT CARD>         wstate(1)=1,1,1                                                        
 INPUT CARD>         iwgt=0 thrwgt=-1.0 krot=.f. kszdoe=.f. knospn=.f.                      
 INPUT CARD>         thrde=-1.0 edshft=0.02 $end                                            
 INPUT CARD> $data                                                                          
 INPUT CARD> NH3+ 3 states calculation at NH3 structure.                                    
 INPUT CARD> c1                                                                             
 INPUT CARD>N 7.0 0.006228917999999998 0.024915612000000004 -0.1693806302                   
 INPUT CARD>H 1.0 -0.669090663 0.7406030328000001 0.1782157131                              
 INPUT CARD>H 1.0 -0.36338939299999995 -0.7949109138 0.36110161510000005                    
 INPUT CARD>H 1.0 0.945927582 -0.291902978 0.23006252910000002                              
 INPUT CARD>$end                                                                            
 INPUT CARD>--- OPTIMIZED RHF      MO-S --- GENERATED AT Mon Nov 14 16:47:08 2022           
 INPUT CARD>E=      -56.3825050291, E(NUC)=   11.8429239490                                 
 INPUT CARD> $VEC                                                                           
 INPUT CARD> 1  1-1.00134066E+00-2.25158504E-03 3.44925845E-03 0.00000000E+00 0.00000000E+00
 INPUT CARD> 1  2-2.13170927E-03 0.00000000E+00 0.00000000E+00 6.57129898E-04-6.87950443E-05
 INPUT CARD> 1  3-6.87950443E-05 1.37590089E-04 0.00000000E+00 0.00000000E+00 0.00000000E+00
 INPUT CARD> 1  4 3.25502815E-04-4.84772356E-04 3.62525460E-04-6.27912517E-04-3.45956485E-04
 INPUT CARD> 1  5 3.25502815E-04-4.84772356E-04 3.62525460E-04 6.27912517E-04-3.45956485E-04
 INPUT CARD> 1  6 3.25502815E-04-4.84772356E-04-7.25050921E-04 0.00000000E+00-3.45956485E-04
 INPUT CARD> 2  1 1.31286642E-02-4.05911371E-01-2.82090992E-01 0.00000000E+00 0.00000000E+00
 INPUT CARD> 2  2-7.71489043E-02 0.00000000E+00 0.00000000E+00 9.73717494E-03 6.62450916E-04
 INPUT CARD> 2  3 6.62450916E-04-1.32490183E-03 0.00000000E+00 0.00000000E+00 0.00000000E+00
 INPUT CARD> 2  4-1.96090317E-01-1.96656153E-02-1.74855877E-02 3.02859263E-02 8.68214399E-03
 INPUT CARD> 2  5-1.96090317E-01-1.96656153E-02-1.74855877E-02-3.02859263E-02 8.68214399E-03
 INPUT CARD> 2  6-1.96090317E-01-1.96656153E-02 3.49711754E-02 0.00000000E+00 8.68214399E-03
 INPUT CARD> 3  1 0.00000000E+00 0.00000000E+00 0.00000000E+00 4.48608762E-01 0.00000000E+00
 INPUT CARD> 3  2 0.00000000E+00 2.18692520E-01 0.00000000E+00 0.00000000E+00 1.30198027E-02
 INPUT CARD> 3  3-1.30198027E-02 0.00000000E+00 0.00000000E+00 2.71832968E-02 0.00000000E+00
 INPUT CARD> 3  4-1.85332726E-01-7.03958951E-02 8.47929477E-03 1.95242443E-02 8.32835058E-03
 INPUT CARD> 3  5-1.85332726E-01-7.03958951E-02 8.47929477E-03-1.95242443E-02 8.32835058E-03
 INPUT CARD> 3  6 3.70665453E-01 1.40791790E-01-2.53376884E-02 0.00000000E+00-1.66567012E-02
 INPUT CARD> 4  1 0.00000000E+00 0.00000000E+00 0.00000000E+00 0.00000000E+00 4.48608762E-01
 INPUT CARD> 4  2 0.00000000E+00 0.00000000E+00 2.18692520E-01 0.00000000E+00 0.00000000E+00
 INPUT CARD> 4  3 0.00000000E+00 0.00000000E+00-1.50339731E-02 0.00000000E+00 2.71832968E-02
 INPUT CARD> 4  4 3.21005698E-01 1.21929267E-01 1.95242443E-02-1.40653607E-02-1.44251263E-02
  100000000 WORDS OF MEMORY AVAILABLE

     BASIS OPTIONS
     -------------
     GBASIS=CCD          IGAUSS=       0      POLAR=NONE    
     NDFUNC=       0     NFFUNC=       0     DIFFSP=       F
     NPFUNC=       0      DIFFS=       F     BASNAM=        


     RUN TITLE
     ---------
  NH3+ 3 states calculation at NH3 structure.                                    

 THE POINT GROUP OF THE MOLECULE IS C1      
 THE ORDER OF THE PRINCIPAL AXIS IS     0

 ATOM      ATOMIC                      COORDINATES (BOHR)
           CHARGE         X                   Y                   Z
 N           7.0     0.0117709482        0.0470836795       -0.3200829787
 H           1.0    -1.2643980140        1.3995367977        0.3367788645
 H           1.0    -0.6867063796       -1.5021638117        0.6823831063
 H           1.0     1.7875439342       -0.5516166434        0.4347551400

          INTERNUCLEAR DISTANCES (ANGS.)
          ------------------------------

                1 N          2 H          3 H          4 H     

   1 N       0.0000000    1.0435939 *  1.0440999 *  1.0690942 *
   2 H       1.0435939 *  0.0000000    1.5762943 *  1.9175611 *
   3 H       1.0440999 *  1.5762943 *  0.0000000    1.4087225 *
   4 H       1.0690942 *  1.9175611 *  1.4087225 *  0.0000000  

  * ... LESS THAN  3.000


     ATOMIC BASIS SET
     ----------------
 THE CONTRACTED PRIMITIVE FUNCTIONS HAVE BEEN UNNORMALIZED
 THE CONTRACTED BASIS FUNCTIONS ARE NOW NORMALIZED TO UNITY

  SHELL TYPE  PRIMITIVE        EXPONENT          CONTRACTION COEFFICIENT(S)

 N         

      1   S       1          9046.0000000    0.000699617413
      1   S       2          1357.0000000    0.005386054630
      1   S       3           309.3000000    0.027391021189
      1   S       4            87.7300000    0.103150591982
      1   S       5            28.5600000    0.278570663317
      1   S       6            10.2100000    0.448294849454
      1   S       7             3.8380000    0.278085928395
      1   S       8             0.7466000    0.015431561233

      2   S       9          9046.0000000   -0.000304990096
      2   S      10          1357.0000000   -0.002408026379
      2   S      11           309.3000000   -0.011944448725
      2   S      12            87.7300000   -0.048925992909
      2   S      13            28.5600000   -0.134472724725
      2   S      14            10.2100000   -0.315112577700
      2   S      15             3.8380000   -0.242857832550
      2   S      16             0.7466000    1.094382206854

      3   S      17             0.2248000    1.000000000000

      4   P      18            13.5500000    0.058905676772
      4   P      19             2.9170000    0.320461106714
      4   P      20             0.7973000    0.753042061792

      5   P      21             0.2185000    1.000000000000

      6   D      22             0.8170000    1.000000000000

 H         

      7   S      23            13.0100000    0.033498726390
      7   S      24             1.9620000    0.234800801174
      7   S      25             0.4446000    0.813682957883

      8   S      26             0.1220000    1.000000000000

      9   P      27             0.7270000    1.000000000000

 H         

     10   S      28            13.0100000    0.033498726390
     10   S      29             1.9620000    0.234800801174
     10   S      30             0.4446000    0.813682957883

     11   S      31             0.1220000    1.000000000000

     12   P      32             0.7270000    1.000000000000

 H         

     13   S      33            13.0100000    0.033498726390
     13   S      34             1.9620000    0.234800801174
     13   S      35             0.4446000    0.813682957883

     14   S      36             0.1220000    1.000000000000

     15   P      37             0.7270000    1.000000000000

 TOTAL NUMBER OF BASIS SET SHELLS             =   15
 NUMBER OF CARTESIAN GAUSSIAN BASIS FUNCTIONS =   30
 NOTE: THIS RUN WILL RESTRICT THE MO VARIATION SPACE TO SPHERICAL HARMONICS.
 THE NUMBER OF ORBITALS KEPT IN THE VARIATIONAL SPACE WILL BE PRINTED LATER.
 NUMBER OF ELECTRONS                          =    9
 CHARGE OF MOLECULE                           =    1
 SPIN MULTIPLICITY                            =    2
 NUMBER OF OCCUPIED ORBITALS (ALPHA)          =    5
 NUMBER OF OCCUPIED ORBITALS (BETA )          =    4
 TOTAL NUMBER OF ATOMS                        =    4
 THE NUCLEAR REPULSION ENERGY IS       11.5494448279

     $CONTRL OPTIONS
     ---------------
 SCFTYP=MCSCF        RUNTYP=ENERGY       EXETYP=RUN     
 MPLEVL=       2     CITYP =NONE         CCTYP =NONE         VBTYP =NONE    
 DFTTYP=NONE         TDDFT =NONE    
 MULT  =       2     ICHARG=       1     NZVAR =       0     COORD =UNIQUE  
 PP    =NONE         RELWFN=NONE         LOCAL =NONE         NUMGRD=       F
 ISPHER=       1     NOSYM =       1     MAXIT =     200     UNITS =ANGS    
 PLTORB=       F     MOLPLT=       F     AIMPAC=       F     FRIEND=        
 NPRINT=       7     IREST =       0     GEOM  =INPUT   
 NORMF =       0     NORMP =       0     ITOL  =      20     ICUT  =       9
 INTTYP=RYSQUAD      GRDTYP=BEST         QMTTOL= 1.0E-05

     $SYSTEM OPTIONS
     ---------------
  REPLICATED MEMORY=   100000000 WORDS (ON EVERY NODE).
 DISTRIBUTED MEMDDI=        1000 MILLION WORDS IN AGGREGATE,
 MEMDDI DISTRIBUTED OVER   1 PROCESSORS IS  1000000000 WORDS/PROCESSOR.
 TOTAL MEMORY REQUESTED ON EACH PROCESSOR=  1100000000 WORDS.
 TIMLIM=      525600.00 MINUTES, OR     365.0 DAYS.
 PARALL= T  BALTYP=  DLB     KDIAG=    3  COREFL= F
 MXSEQ2=     300 MXSEQ3=     150  mem10=         0

          ----------------
          PROPERTIES INPUT
          ----------------

     MOMENTS            FIELD           POTENTIAL          DENSITY
 IEMOM =       1   IEFLD =       0   IEPOT =       0   IEDEN =       0
 WHERE =COMASS     WHERE =NUCLEI     WHERE =NUCLEI     WHERE =NUCLEI  
 OUTPUT=BOTH       OUTPUT=BOTH       OUTPUT=BOTH       OUTPUT=BOTH    
 IEMINT=       0   IEFINT=       0                     IEDINT=       0
                                                       MORB  =       0

     -------------------------------
     INTEGRAL TRANSFORMATION OPTIONS
     -------------------------------
     NWORD  =            0
     CUTOFF = 1.0E-09     MPTRAN =       0
     DIRTRF =       T     AOINTS =DUP     

          ----------------------
          MCSCF INPUT PARAMETERS
          ----------------------
 CONVERGER SELECTION: FOCAS = F  SOSCF = F  FULLNR = T  QUD = F  JACOBI = F
 SECULAR EQUATION METHOD CISTEP = GMCCI   
 --- GENERAL INPUT OPTIONS:
 MAXIT =     100  MICIT =       1  ACURCY= 1.000E-06
 DAMP  =   0.000  CANONC=       T  ENGTOL= 1.000E-10
 EKT   =       F  NPUNCH=       2  NWORD =         0
 REGENERATE CI AFTER CONVERGENCE = NONE    
 DIABATIZATION AFTER CONVERGENCE =        F
 --- INPUT FOR FULLNR CONVERGER:
 METHOD=DM2       FORS  =       F  DROPC =       T
 LINSER=       F  FCORE =       F  NORB  =      30

          ----------------------
          INTEGRAL INPUT OPTIONS
          ----------------------
 NOPK  =       1 NORDER=       0 SCHWRZ=       T

 ------------------------------------------
 MULTIREFERENCE PERTURBATION THEORY CONTROL
 ------------------------------------------
 MRPT=GMCPT    READ CONVERGED MCSCF VECTORS= F


     ------------------------------------------
     THE POINT GROUP IS C1 , NAXIS= 1, ORDER= 1
     ------------------------------------------

 -- VARIATIONAL SPACE WILL BE RESTRICTED TO PURE SPHERICAL HARMONICS ONLY --
 AFTER EXCLUDING CONTAMINANT COMBINATIONS FROM THE CARTESIAN GAUSSIAN BASIS
 SET, THE NUMBER OF SPHERICAL HARMONICS KEPT IN THE VARIATION SPACE IS   29

     DIMENSIONS OF THE SYMMETRY SUBSPACES ARE
 A   =   29

 ..... DONE SETTING UP THE RUN .....
 CPU     0: STEP CPU TIME=     0.04 TOTAL CPU TIME=          0.0 (      0.0 MIN)
 TOTAL WALL CLOCK TIME=          0.0 SECONDS, CPU UTILIZATION IS   100.00%

          ********************
          1 ELECTRON INTEGRALS
          ********************
 TIME TO DO   DIPOLE INTEGRALS=      0.00
 ...... END OF ONE-ELECTRON INTEGRALS ......
 CPU     0: STEP CPU TIME=     0.00 TOTAL CPU TIME=          0.0 (      0.0 MIN)
 TOTAL WALL CLOCK TIME=          0.1 SECONDS, CPU UTILIZATION IS    80.00%

          -------------
          GUESS OPTIONS
          -------------
          GUESS =MOREAD            NORB  =      29          NORDER=       0
          MIX   =       F          PRTMO =       F          PUNMO =       F
          TOLZ  = 1.0E-08          TOLE  = 1.0E-05
          SYMDEN=       F          PURIFY=       T

 INITIAL GUESS ORBITALS GENERATED BY MOREAD   ROUTINE.

 STATISTICS FOR GENERATION OF SYMMETRY ORBITAL -Q- MATRIX
 NUMBER OF CARTESIAN ATOMIC ORBITALS=         30
 NUMBER OF SPHERICAL CONTAMINANTS DROPPED=     1
 NUMBER OF LINEARLY DEPENDENT MOS DROPPED=     0
 TOTAL NUMBER OF MOS IN VARIATION SPACE=      29
 ORBITAL PURIFICATION WILL OCCUR

 SYMMETRIES FOR INITIAL GUESS ORBITALS FOLLOW.   BOTH SET(S).
     5 ORBITALS ARE OCCUPIED (    1 CORE ORBITALS).
     1=A        2=A        3=A        4=A        5=A        6=A        7=A   
     8=A        9=A       10=A       11=A       12=A       13=A       14=A   
    15=A       16=A       17=A       18=A       19=A       20=A       21=A   
    22=A       23=A       24=A       25=A       26=A       27=A       28=A   
    29=A   
 ...... END OF INITIAL ORBITAL SELECTION ......
 CPU     0: STEP CPU TIME=     0.01 TOTAL CPU TIME=          0.0 (      0.0 MIN)
 TOTAL WALL CLOCK TIME=          0.1 SECONDS, CPU UTILIZATION IS   100.00%

                    ----------------------
                    AO INTEGRAL TECHNOLOGY
                    ----------------------
     S,P,L SHELL ROTATED AXIS INTEGRALS, REPROGRAMMED BY
        KAZUYA ISHIMURA (IMS) AND JOSE SIERRA (SYNSTAR).
     S,P,D,L SHELL ROTATED AXIS INTEGRALS PROGRAMMED BY
        KAZUYA ISHIMURA (INSTITUTE FOR MOLECULAR SCIENCE).
     S,P,D,F,G SHELL TO TOTAL QUARTET ANGULAR MOMENTUM SUM 5,
        ERIC PROGRAM BY GRAHAM FLETCHER (ELORET AND NASA ADVANCED
        SUPERCOMPUTING DIVISION, AMES RESEARCH CENTER).
     S,P,D,F,G,L SHELL GENERAL RYS QUADRATURE PROGRAMMED BY
        MICHEL DUPUIS (PACIFIC NORTHWEST NATIONAL LABORATORY).

          --------------------
          2 ELECTRON INTEGRALS
          --------------------

 DIRECT SCF METHOD SKIPS INTEGRAL STORAGE ON DISK.
 DIRECT TRANSFORMATION SKIPS AO INTEGRAL STORAGE ON DISK.
  ...... END OF TWO-ELECTRON INTEGRALS .....
 STEP CPU TIME =     0.02 TOTAL CPU TIME =          0.1 (      0.0 MIN)
 TOTAL WALL CLOCK TIME=          0.1 SECONDS, CPU UTILIZATION IS    87.50%
 DDI: Creating Array [0] - 900 x 36 = 32400 words.
 DDI: Creating Array [1] - 21 x 288 = 6048 words.
 DDI: Creating Array [2] - 36 x 36 = 1296 words.
 DDI: Creating Array [3] - 465 x 36 = 16740 words.

          -----------------
          MCSCF CALCULATION
          -----------------

 ----- NUCLEAR ENERGY ----- =        11.5494448279

     -------------------------------------------------
     GMC-PT/GMC-QDPT or general MCSCF input parameters
     -------------------------------------------------
 # of frozen core orbs. =         0 ->         0
 # of doubly occ. orbs. =         1
 # of active      orbs. =         7
 # of virtual     orbs. =        21
 # of active electrons  =         7
 # of states in CI      =         3
 Highest state in CI    =         3
 kstate =  1 1 1
 avecoe =  0.333 0.333 0.333
 State symmetry           = A           
 Assigned symmetry number = 1

 <<<Act. MO sym.: 1111111

 <<<Division of 1-ext.:  0
 <<<Division of 2-ext.:  0

 *** Reference space

 Reference type: ORMAS (= Occupation restricted multiple active space)
 # of orbitals          =  7
 # of minimum electrons =  7
 # of maximum electrons =  7
 State symmetry    =    1 (input)
 2*Sz              =    1 (input)
 Spin multiplicity =    2 (input)
 Dimension of reference space =      1225  (from      3432 walks)

 Dimension of reference space =      1225  (from      1225 walks)

 <<<Ionized spaces for Ref-CI:
      0:         1225 /   -1-0:         1960 /  0-1-0:         2891

 EVALUATING EXCHANGE INTEGRALS FOR DIRECT INTEGRAL TRANSFORMATION
 SCHWARZ INEQUALITY OVERHEAD:       465 INTEGRALS, T=        0.00

     --------------------------------------------
     PARTIAL TWO ELECTRON INTEGRAL TRANSFORMATION
     --------------------------------------------

 NUMBER OF CORE MOLECULAR ORBITALS     =    1
 NUMBER OF OCCUPIED MOLECULAR ORBITALS =    8
 TOTAL NUMBER OF MOLECULAR ORBITALS    =   29
 TOTAL NUMBER OF ATOMIC ORBITALS       =   30
 THRESHOLD FOR KEEPING TRANSFORMED 2E- INTEGRALS = 1.000E-09

 -------------------------------     ------------------------------
 DISTRIBUTED DATA TRANSFORMATION     PROGRAM WRITTEN BY G. FLETCHER
 -------------------------------     ------------------------------

 THE DISTRIBUTED MEMORY REQUIRED FOR THIS STEP IS MEMDDI=         1 MWORDS
 CREATING DISTRIBUTED STORAGE FOR [VIR OCC|VIR OCC] INTEGRALS
 CREATING DISTRIBUTED STORAGE FOR [VIR OCC|OCC OCC] INTEGRALS
 CREATING DISTRIBUTED STORAGE FOR [OCC OCC|OCC OCC] INTEGRALS
 CREATING DISTRIBUTED STORAGE FOR [VIR VIR|OCC OCC] INTEGRALS
 FOR    1 PROCESSORS, THE REPLICATED MEMORY NEEDED IS       73700 WORDS.
 SCHWARZ INEQUALITY OVERHEAD:       465 INTEGRALS, T=        0.00

      DIRECT 4-INDEX TRANSFORMATION 
      SCHWARZ INEQUALITY TEST SKIPPED          0 INTEGRAL BLOCKS
 ----- FROZEN CORE ENERGY =       -47.7498340999
 ... END OF INTEGRAL TRANSFORMATION ...
 CPU     0: STEP CPU TIME=     0.22 TOTAL CPU TIME=          0.3 (      0.0 MIN)
 TOTAL WALL CLOCK TIME=          0.3 SECONDS, CPU UTILIZATION IS    96.67%

     --------------------------------     -----------------------------
     MCHF NEWTON-RAPHSON OPTIMIZATION     CODE WRITTEN BY MICHEL DUPUIS
     --------------------------------     -----------------------------
     PARALLEL VERSION WRITTEN BY G. FLETCHER (ELORET)
     NASA ADVANCED SUPERCOMPUTING DIVISION, AMES RESEARCH CENTER

 NUMBER OF INDEPENDENT ORBITAL ROTATION PARAMETERS =   175
 ..... DONE SOLVING NEWTON-RAPHSON EQUATIONS .....
 CPU     0: STEP CPU TIME=     0.91 TOTAL CPU TIME=          1.2 (      0.0 MIN)
 TOTAL WALL CLOCK TIME=          1.2 SECONDS, CPU UTILIZATION IS    99.17%
 ..... DONE WITH NTN-RPH ORBITAL ROTATIONS ..... 
 CPU     0: STEP CPU TIME=     0.00 TOTAL CPU TIME=          1.2 (      0.0 MIN)
 TOTAL WALL CLOCK TIME=          1.2 SECONDS, CPU UTILIZATION IS    99.17%
 MAXIMUM MEMORY USED BY NTN-RPH CODE WAS     57645 WORDS.

 ITER     TOTAL ENERGY      DEL(E)  LAGRANGIAN ASYMMETRY   SQCDF  MICIT   DAMP
   1      -55.660562692 -0.660562692  0.123989   12    5 1.503E-01  1   0.0000
   2      -55.701195293 -0.040632601  0.022874   12    5 4.530E-01  1   0.0000
   3      -55.734379228 -0.033183935  0.012386   11    6 2.137E-01  1   0.0248
   4      -55.748305433 -0.013926205  0.004240   11    6 3.796E-02  1   0.0044
   5      -55.749994628 -0.001689195  0.000695   12    5 9.861E-04  1   0.0000
   6      -55.750040071 -0.000045442  0.000222   12    5 7.193E-05  1   0.0000
   7      -55.750044244 -0.000004173  0.000100   12    5 1.039E-05  1   0.0000
   8      -55.750044900 -0.000000657  0.000044   12    5 1.801E-06  1   0.0000
   9      -55.750045020 -0.000000120  0.000020   23    5 3.607E-07  1   0.0000
  10      -55.750045045 -0.000000025  0.000010   23    5 8.390E-08  1   0.0000
  11      -55.750045050 -0.000000006  0.000005   23    5 2.225E-08  1   0.0000
  12      -55.750045052 -0.000000002  0.000003   12    8 6.494E-09  1   0.0000
  13      -55.750045052 -0.000000000  0.000002   12    8 2.008E-09  1   0.0000
  14      -55.750045053 -0.000000000  0.000001   12    8 6.350E-10  1   0.0000

          --------------------
          LAGRANGIAN CONVERGED
          --------------------

 FINAL MCSCF ENERGY IS      -55.7500450526 AFTER  14 ITERATIONS

 -MCCI- BASED ON OPTIMIZED ORBITALS
 ----------------------------------

 PLEASE NOTE: IF THE ACTIVE ORBITALS ARE CANONICALIZED BELOW,
 THE FOLLOWING CI EXPANSION COEFFICIENTS AND THE DENSITY DO NOT
 CORRESPOND TO THE PRINTED ORBITALS.  THE PRINTED EXPANSIONS MATCH
 THE ORBITALS USED DURING THE LAST ITERATION.  IF YOU WISH TO SEE
 CI EXPANSIONS BASED ON THE CANONICAL (OR NATURAL) ORBITALS, YOU
 MUST RUN A CI CALCULATION WITH THAT ORBITAL CHOICE READ IN $VEC.

 Averaged energy =     -55.750045053

 State #    1  Energy =     -55.890920945  S =  0.500

      Det      Coef    Occupancy (Ignoring core)
      ---      ----    --------- --------- -----
        1   -0.937913  11110001110000
        2   -0.054183  11101001110000
        5    0.063238  01111001110000
        8    0.128863  10110101110000
       17    0.129134  11010011110000
       36    0.150982  11110001101000
       71   -0.066787  11110001011000
      386   -0.103273  11110001010010
      393   -0.055714  10110101010010
      701   -0.097025  11110001100001
      717   -0.064201  11010011100001

 State #    2  Energy =     -55.732693039  S =  0.500

      Det      Coef    Occupancy (Ignoring core)
      ---      ----    --------- --------- -----
        1    0.154788  11110001110000
       36    0.736339  11110001101000
       43   -0.073785  10110101101000
       52   -0.058896  11010011101000
       71   -0.605893  11110001011000
       87    0.059243  11010011011000
      456    0.077171  11110001001010
      806    0.061944  11110001001001

 State #    3  Energy =     -55.626521174  S =  0.500

      Det      Coef    Occupancy (Ignoring core)
      ---      ----    --------- --------- -----
       36    0.608403  11110001101000
       43   -0.055487  10110101101000
       71    0.752642  11110001011000
       87   -0.065104  11010011011000
      316    0.054270  11110000011100
      456    0.056751  11110001001010
      806   -0.078488  11110001001001
      822   -0.055075  11010011001001

 DENSITY MATRIX OVER ACTIVE MO-S

             1           2           3           4           5

    1    1.9781179
    2   -0.0054835   1.6349740
    3   -0.0129060  -0.0006843   1.6348377
    4    0.0022665  -0.0012637  -0.0020732   1.6547718
    5    0.0985061   0.0095367   0.0195175   0.0396542   0.0262451
    6   -0.0032809  -0.1441563   0.0139359  -0.0107546  -0.0025072
    7   -0.0016801  -0.0043296   0.1434681   0.0270071   0.0037844

             6           7

    6    0.0341806
    7   -0.0019179   0.0368729

 FORMING THE "STANDARD FOCK OPERATOR" IN DIRECT AO INTEGRAL MODE...
 ONLY THE    1 CORE AND   21 VIRTUAL ORBITALS WILL BE CANONICALIZED

          ----------------------
          MCSCF NATURAL ORBITALS
          ----------------------

                      1          2          3          4          5
                  -15.9855     1.9836     1.6563     1.6500     1.6453
                     A          A          A          A          A   
    1  N  1  S    1.001254   0.008905  -0.010523   0.001052   0.002193
    2  N  1  S   -0.001845   0.438026  -0.175880   0.041901   0.056969
    3  N  1  S   -0.006335   0.297152  -0.277899   0.057862   0.085007
    4  N  1  X   -0.000050  -0.012101  -0.002912  -0.340092   0.368712
    5  N  1  Y    0.000021  -0.030534   0.096859   0.339220   0.365853
    6  N  1  Z    0.001141   0.095045   0.589484  -0.057728  -0.028478
    7  N  1  X   -0.000030   0.002272   0.011045  -0.123602   0.181724
    8  N  1  Y   -0.000047   0.002673   0.068730   0.126275   0.183895
    9  N  1  Z   -0.000455   0.008284   0.384316  -0.027071   0.004951
   10  N  1 XX    0.000144  -0.000594  -0.011717   0.000150   0.009081
   11  N  1 YY    0.000044  -0.000326  -0.012241   0.002624  -0.007540
   12  N  1 ZZ   -0.000188   0.000919   0.023958  -0.002775  -0.001541
   13  N  1 XY   -0.000318  -0.001508  -0.001233  -0.005677  -0.013152
   14  N  1 XZ   -0.000055   0.000051  -0.001602  -0.015029   0.017589
   15  N  1 YZ   -0.000124  -0.001634   0.001039   0.016530   0.018351
   16  H  2  S   -0.001999   0.178096   0.141088   0.353031   0.062928
   17  H  2  S    0.000569  -0.000014   0.030979   0.043678   0.017500
   18  H  2  X   -0.000666   0.022518   0.012692   0.022113   0.016908
   19  H  2  Y    0.000805  -0.027572  -0.013258  -0.026825   0.011539
   20  H  2  Z    0.000398  -0.005251   0.018049  -0.016759  -0.003801
   21  H  3  S   -0.001961   0.209366   0.090481  -0.121347  -0.363335
   22  H  3  S    0.000317   0.007625   0.020693  -0.015997  -0.075709
   23  H  3  X   -0.000387   0.014238   0.007839  -0.023889  -0.005732
   24  H  3  Y   -0.000834   0.031926   0.017003   0.001158  -0.026823
   25  H  3  Z    0.000498  -0.014634   0.019853   0.004471   0.020049
   26  H  4  S   -0.001871   0.179465   0.086871  -0.292562   0.233010
   27  H  4  S    0.000474   0.000134   0.026053  -0.038450   0.051758
   28  H  4  X    0.000932  -0.032827  -0.013088   0.032230  -0.014174
   29  H  4  Y   -0.000233   0.009009   0.004412   0.002450   0.022199
   30  H  4  Z    0.000423  -0.007217   0.020628   0.010699  -0.011039

                      6          7          8
                    0.0265     0.0195     0.0187
                     A          A          A   
    1  N  1  S    0.096258  -0.199619  -0.111359
    2  N  1  S    0.304573  -0.656404  -0.345510
    3  N  1  S   -0.013566  -0.170814  -0.034644
    4  N  1  X    0.505369  -0.117650   0.750419
    5  N  1  Y    0.595776   0.465232  -0.454300
    6  N  1  Z    0.114437  -0.624362  -0.241318
    7  N  1  X   -0.005412  -0.006714   0.063286
    8  N  1  Y   -0.005113   0.072940  -0.028642
    9  N  1  Z   -0.032960   0.083023   0.046582
   10  N  1 XX   -0.020428  -0.014255   0.025976
   11  N  1 YY    0.018561   0.007252  -0.025337
   12  N  1 ZZ    0.001867   0.007004  -0.000639
   13  N  1 XY    0.043643  -0.028855   0.006746
   14  N  1 XZ   -0.013610   0.004259  -0.045330
   15  N  1 YZ   -0.010899  -0.047025   0.016298
   16  H  2  S   -0.380957   0.128860   0.783193
   17  H  2  S   -0.064320  -0.012149   0.137390
   18  H  2  X   -0.036551   0.017314   0.048654
   19  H  2  Y    0.017843  -0.026507  -0.068079
   20  H  2  Z    0.003976   0.008541   0.016370
   21  H  3  S    0.535295   0.667968   0.157203
   22  H  3  S    0.137485   0.098560   0.022551
   23  H  3  X    0.007334   0.051698  -0.020826
   24  H  3  Y    0.027978   0.059843   0.038465
   25  H  3  Z   -0.017284   0.006383  -0.000253
   26  H  4  S   -0.572336   0.517048  -0.369129
   27  H  4  S   -0.116421   0.068168  -0.095354
   28  H  4  X    0.049168  -0.070366   0.027861
   29  H  4  Y   -0.032074   0.000120   0.002704
   30  H  4  Z    0.005910   0.021546  -0.003959

          ------------------------
          MCSCF OPTIMIZED ORBITALS
          ------------------------

                      1          2          3          4          5
                  -15.9855     0.0000     0.0000     0.0000     0.0000
                     A          A          A          A          A   
    1  N  1  S    1.001254  -0.003202   0.000256  -0.005672  -0.017065
    2  N  1  S   -0.001845   0.401750   0.005192   0.015252  -0.197288
    3  N  1  S   -0.006335   0.295347   0.021378   0.063840  -0.285352
    4  N  1  X   -0.000050  -0.004792   0.416815   0.049735   0.005753
    5  N  1  Y    0.000021  -0.009018   0.007827   0.428007   0.028387
    6  N  1  Z    0.001141   0.052820  -0.001922  -0.000405   0.579082
    7  N  1  X   -0.000030   0.007559   0.208144   0.055227   0.014309
    8  N  1  Y   -0.000047   0.013266   0.032695   0.222791   0.045850
    9  N  1  Z   -0.000455   0.008933   0.008090   0.029516   0.386616
   10  N  1 XX    0.000144  -0.000045   0.005332   0.008603  -0.011617
   11  N  1 YY    0.000044  -0.000796  -0.005477  -0.007852  -0.012602
   12  N  1 ZZ   -0.000188   0.000841   0.000145  -0.000751   0.024219
   13  N  1 XY   -0.000318  -0.003902  -0.007853  -0.015283  -0.001321
   14  N  1 XZ   -0.000055   0.000122   0.026927   0.001145  -0.001116
   15  N  1 YZ   -0.000124  -0.002424  -0.001312   0.027533  -0.002009
   16  H  2  S   -0.001999   0.208288  -0.258691   0.352796   0.121674
   17  H  2  S    0.000569   0.003631  -0.028294   0.057053   0.028058
   18  H  2  X   -0.000666   0.025409  -0.006928   0.032169   0.011307
   19  H  2  Y    0.000805  -0.029954   0.031782  -0.013860  -0.012942
   20  H  2  Z    0.000398  -0.005229   0.007876  -0.011479   0.020001
   21  H  3  S   -0.001961   0.217696  -0.186864  -0.391690   0.124560
   22  H  3  S    0.000317   0.007161  -0.046663  -0.075065   0.025013
   23  H  3  X   -0.000387   0.015435   0.015282  -0.022821   0.011146
   24  H  3  Y   -0.000834   0.033641  -0.022974  -0.019770   0.019330
   25  H  3  Z    0.000498  -0.013488   0.010679   0.021304   0.018436
   26  H  4  S   -0.001871   0.208016   0.430336  -0.016402   0.123227
   27  H  4  S    0.000474   0.004401   0.075957   0.016138   0.029714
   28  H  4  X    0.000932  -0.036101  -0.038006   0.010966  -0.017891
   29  H  4  Y   -0.000233   0.010310   0.014268   0.020339   0.003792
   30  H  4  Z    0.000423  -0.006838  -0.015548   0.000358   0.020038

                      6          7          8          9         10
                    0.0000     0.0000     0.0000     0.1520     0.2017
                     A          A          A          A          A   
    1  N  1  S    0.244743  -0.007573   0.037683  -0.149759  -0.008529
    2  N  1  S    0.811678  -0.014603   0.105784  -0.229736  -0.020367
    3  N  1  S    0.169237  -0.009834  -0.068825   1.489785   0.010164
    4  N  1  X   -0.016379   0.952616   0.011161   0.014191  -0.107001
    5  N  1  Y   -0.071427  -0.116592   0.913333   0.035718   0.073672
    6  N  1  Z    0.691572  -0.035422  -0.064573  -0.224455  -0.021466
    7  N  1  X   -0.015699   0.068301  -0.030991  -0.032613   0.532600
    8  N  1  Y   -0.051185  -0.036177   0.061228  -0.144014  -0.568045
    9  N  1  Z   -0.089866   0.010358  -0.001507   0.509249   0.067081
   10  N  1 XX   -0.002754   0.012522  -0.033371   0.031207   0.007246
   11  N  1 YY    0.007585  -0.012144   0.028225   0.015227  -0.016717
   12  N  1 ZZ   -0.004832  -0.000378   0.005146  -0.046434   0.009471
   13  N  1 XY    0.035382   0.033619   0.017248  -0.058848   0.055782
   14  N  1 XZ    0.008767  -0.043097   0.011584  -0.013104   0.067789
   15  N  1 YZ    0.032923   0.014184  -0.033982  -0.046870  -0.084451
   16  H  2  S   -0.490792   0.387786  -0.560812   0.321464  -0.525882
   17  H  2  S   -0.055939   0.076293  -0.111931  -0.876011   1.876640
   18  H  2  X   -0.041589   0.016287  -0.039935  -0.068858   0.068764
   19  H  2  Y    0.051453  -0.039195   0.031524   0.078800  -0.070817
   20  H  2  Z   -0.012212   0.015285  -0.001221   0.002296  -0.076892
   21  H  3  S   -0.487221   0.312124   0.608393   0.178389   0.234617
   22  H  3  S   -0.056144   0.076456   0.134581  -0.704101  -0.842241
   23  H  3  X   -0.035453  -0.019308   0.035796  -0.012276  -0.031346
   24  H  3  Y   -0.057158   0.036310   0.029380  -0.095105  -0.023083
   25  H  3  Z   -0.010486  -0.009913  -0.008478   0.057380   0.040877
   26  H  4  S   -0.476297  -0.660821  -0.057853   0.325184   0.248687
   27  H  4  S   -0.058323  -0.146656  -0.016955  -0.934769  -0.984244
   28  H  4  X    0.064380   0.057322  -0.003887   0.082141   0.059284
   29  H  4  Y   -0.009417  -0.014462  -0.024490  -0.052072  -0.006065
   30  H  4  Z   -0.015957  -0.004544   0.016227   0.026068   0.070390

                     11         12         13         14         15
                    0.2114     0.5382     0.6029     0.6382     0.7855
                     A          A          A          A          A   
    1  N  1  S    0.029783  -0.061344  -0.035359  -0.078227  -0.173804
    2  N  1  S    0.058242  -0.068684  -0.175601  -0.269104  -0.401535
    3  N  1  S   -0.196165   0.456084  -0.276341  -0.050488   0.690365
    4  N  1  X   -0.039928  -0.295411  -0.392834   0.234761  -0.077623
    5  N  1  Y    0.025949  -0.515825  -0.012053  -0.271874   0.047028
    6  N  1  Z    0.048678  -0.368733   0.414664   0.417593   0.149929
    7  N  1  X    0.469893   0.614973   1.418773  -0.993812   0.446552
    8  N  1  Y    0.179119   1.262632  -0.006236   1.307092  -0.268897
    9  N  1  Z   -0.139856   0.471317  -0.733375  -0.764829  -0.066724
   10  N  1 XX    0.061428   0.007877  -0.024296   0.047759   0.135067
   11  N  1 YY   -0.055971  -0.023836   0.063669  -0.008840  -0.099711
   12  N  1 ZZ   -0.005457   0.015958  -0.039373  -0.038919  -0.035356
   13  N  1 XY   -0.060624  -0.010606  -0.048007  -0.005936   0.085764
   14  N  1 XZ    0.070667   0.016219  -0.009201   0.016683  -0.096223
   15  N  1 YZ    0.043132   0.032493  -0.012892  -0.045268   0.044156
   16  H  2  S    0.091563  -0.421367   0.671520  -0.296600   0.085363
   17  H  2  S   -0.164315  -0.515493   0.206116  -0.773802   0.002707
   18  H  2  X   -0.015493  -0.032547   0.126691  -0.164512  -0.090014
   19  H  2  Y   -0.035802   0.055149   0.036378   0.092122  -0.234602
   20  H  2  Z   -0.015096   0.068195  -0.036320  -0.089119   0.231340
   21  H  3  S   -0.563259   0.180099   0.557905   0.585933   0.053615
   22  H  3  S    1.955946   0.865998   0.408959   0.244299  -0.106551
   23  H  3  X    0.031878   0.006288   0.107311   0.035216  -0.481010
   24  H  3  Y    0.082951   0.110938  -0.013115   0.050777   0.120173
   25  H  3  Z   -0.055008  -0.065911  -0.065154  -0.008655  -0.017361
   26  H  4  S    0.502289  -0.314693  -0.208988   0.744740  -0.066161
   27  H  4  S   -1.642650  -0.504320  -0.719687   0.262962  -0.324018
   28  H  4  X    0.057141   0.055659   0.060581  -0.103000   0.337086
   29  H  4  Y   -0.021094   0.025286  -0.169232   0.080037   0.273326
   30  H  4  Z    0.031113   0.075065  -0.017300   0.027575  -0.211268

                     16         17         18         19         20
                    0.9705     1.0084     1.2806     1.4446     1.4932
                     A          A          A          A          A   
    1  N  1  S   -0.539130  -0.206667   0.015735  -0.486873  -0.264530
    2  N  1  S   -1.144308  -0.436393   0.032022  -1.015359  -0.536900
    3  N  1  S    2.299654   1.059708  -0.052508   1.817640   1.159734
    4  N  1  X    0.011880   0.047003  -0.218420   0.003565  -0.078643
    5  N  1  Y    0.069352   0.028180   0.101182   0.024775  -0.100362
    6  N  1  Z    0.163540   0.068562   0.008842  -0.036015   0.009299
    7  N  1  X   -0.086200  -0.322962   0.791097  -0.090242  -0.072975
    8  N  1  Y   -0.322954  -0.247781  -0.512956   0.312177  -0.691899
    9  N  1  Z   -0.032995   0.337366   0.006484   0.753423   0.561898
   10  N  1 XX   -0.119501  -0.054450   0.068869   0.133606  -0.003753
   11  N  1 YY   -0.096760   0.153973  -0.072435   0.111519   0.011539
   12  N  1 ZZ    0.216261  -0.099523   0.003566  -0.245125  -0.007786
   13  N  1 XY   -0.034984   0.108891   0.048240   0.014225  -0.059338
   14  N  1 XZ    0.023814   0.162592   0.044460  -0.000431   0.076177
   15  N  1 YZ    0.036492   0.167573  -0.000507  -0.015184   0.104694
   16  H  2  S   -0.264117  -0.174648   0.441236  -0.608173  -0.157245
   17  H  2  S   -0.304909  -0.155397   0.204585  -0.231928   0.062736
   18  H  2  X    0.010694   0.243835  -0.514784  -0.322954   0.264415
   19  H  2  Y    0.004719   0.367796  -0.179189  -0.354096   0.362968
   20  H  2  Z    0.296909   0.038757  -0.345522  -0.208267  -0.677050
   21  H  3  S   -0.451418  -0.271112  -0.001712  -0.434816  -0.473294
   22  H  3  S   -0.332954  -0.241185  -0.016894  -0.131397  -0.354841
   23  H  3  X    0.121206  -0.111826   0.154079   0.164747  -0.168279
   24  H  3  Y    0.067993  -0.389875  -0.151908  -0.234019   0.030085
   25  H  3  Z    0.315080  -0.459740   0.008289  -0.342680   0.526479
   26  H  4  S   -0.345313  -0.061347  -0.434334  -0.426552  -0.396517
   27  H  4  S   -0.285565  -0.052152  -0.157326  -0.094482   0.002717
   28  H  4  X   -0.060620   0.109954  -0.116975  -0.124742   0.062115
   29  H  4  Y   -0.060765   0.229707   0.588481  -0.381905   0.234606
   30  H  4  Z    0.351384   0.173198   0.359175  -0.396019  -0.406759

                     21         22         23         24         25
                    1.6202     1.8442     1.9015     1.9729     2.1677
                     A          A          A          A          A   
    1  N  1  S   -0.094725  -0.083626  -0.016968   0.153121  -0.100650
    2  N  1  S   -0.191269  -0.144046  -0.007820   0.426373  -0.197954
    3  N  1  S    0.361429   0.713462   0.317054   1.192101   0.398061
    4  N  1  X    0.126198   0.010091   0.500612  -0.123288  -0.026385
    5  N  1  Y    0.120669   0.382799  -0.306729  -0.145362   0.115470
    6  N  1  Z   -0.020022  -0.005546   0.055245   0.326231  -0.008484
    7  N  1  X    0.804862  -0.231229   0.055532   0.134473  -0.031607
    8  N  1  Y   -0.370649  -0.070121  -0.074286   0.209716   0.000991
    9  N  1  Z    0.155078   0.275795   0.142014   0.459018   0.465789
   10  N  1 XX    0.005396  -0.017561  -0.244228  -0.091416  -0.463448
   11  N  1 YY    0.083314   0.106079   0.188023  -0.132984  -0.330508
   12  N  1 ZZ   -0.088710  -0.088518   0.056205   0.224401   0.793956
   13  N  1 XY    0.025783   0.239011  -0.099531   0.103494  -0.531018
   14  N  1 XZ   -0.137148   0.026990  -0.148449   0.154522  -0.080787
   15  N  1 YZ   -0.032658  -0.094467   0.091786   0.198573  -0.419199
   16  H  2  S    0.228790  -0.149295  -0.068429  -0.304691  -0.176002
   17  H  2  S    0.091897  -0.420587   0.243988  -0.284942  -0.122388
   18  H  2  X   -0.138638  -0.411887   0.165632  -0.712767  -0.118745
   19  H  2  Y    0.108553   0.572458  -0.508861   0.351839   0.181663
   20  H  2  Z   -0.470968   0.108787  -0.395372  -0.038281  -0.149391
   21  H  3  S   -0.188049  -0.300597  -0.079692  -0.222340  -0.149352
   22  H  3  S    0.148752   0.369708   0.045206  -0.207584   0.051068
   23  H  3  X   -0.581794   0.559370   0.289871  -0.329478  -0.203533
   24  H  3  Y    0.518319   0.516255  -0.104063  -0.647883  -0.105168
   25  H  3  Z   -0.255980  -0.107321   0.049132   0.290508  -0.647256
   26  H  4  S   -0.347243  -0.092760  -0.071585  -0.285886  -0.126535
   27  H  4  S   -0.336319  -0.244809  -0.443927  -0.222428  -0.001000
   28  H  4  X   -0.026454   0.515098   0.907980   0.419570   0.118493
   29  H  4  Y   -0.377924   0.057995   0.021749  -0.608830   0.207956
   30  H  4  Z    0.558758  -0.262245   0.296893  -0.017164  -0.337029

                     26         27         28         29
                    2.3287     2.5734     2.6883     3.0240
                     A          A          A          A   
    1  N  1  S    0.054309  -0.076688  -0.036242  -0.006434
    2  N  1  S    0.088019   0.001643  -0.066154  -0.073448
    3  N  1  S   -0.460989   2.315602   0.060524  -0.672276
    4  N  1  X   -0.073435  -0.163315   0.477496  -0.209126
    5  N  1  Y    0.070429  -0.197230  -0.313625  -0.460030
    6  N  1  Z   -0.040394   0.337772   0.000134  -0.051912
    7  N  1  X    0.275347  -0.334859   1.210937  -0.316043
    8  N  1  Y    0.109950  -0.669214  -0.825163  -0.721708
    9  N  1  Z   -0.250731   0.605707   0.051612   0.014596
   10  N  1 XX   -0.742621   0.158319   0.429485  -0.823383
   11  N  1 YY    0.871521   0.494028  -0.442677   0.399670
   12  N  1 ZZ   -0.128900  -0.652347   0.013192   0.423713
   13  N  1 XY   -0.290910  -0.372761   0.233615   1.233755
   14  N  1 XZ    0.589997  -0.338705   1.029311  -0.338540
   15  N  1 YZ    0.091158  -0.829310  -0.689096  -0.608425
   16  H  2  S    0.116619  -0.663735   1.092327   0.929310
   17  H  2  S   -0.005477  -0.136665   0.451074   0.276383
   18  H  2  X   -0.407195  -0.176740   0.615623   0.467531
   19  H  2  Y   -0.362122   0.452615  -0.560815  -0.569528
   20  H  2  Z    0.264258   0.390138  -0.118589  -0.408217
   21  H  3  S    0.222040  -1.283067  -0.092400  -1.010049
   22  H  3  S    0.115446  -0.511181  -0.009265  -0.331750
   23  H  3  X   -0.383957  -0.383667  -0.166689  -0.313405
   24  H  3  Y    0.401698  -0.731828   0.077571  -0.713092
   25  H  3  Z    0.154582   0.530804  -0.006744   0.456372
   26  H  4  S    0.097742  -0.584198  -1.075981   0.839604
   27  H  4  S    0.044098  -0.064375  -0.437815   0.259260
   28  H  4  X   -0.095882   0.349931   0.737624  -0.708182
   29  H  4  Y    0.196379   0.176312  -0.315829   0.196186
   30  H  4  Z   -0.199109   0.293155   0.192307  -0.430559
 .....DONE WITH MCSCF ITERATIONS.....
 CPU     0: STEP CPU TIME=     8.66 TOTAL CPU TIME=          9.9 (      0.2 MIN)
 TOTAL WALL CLOCK TIME=          9.9 SECONDS, CPU UTILIZATION IS    99.80%

     ----------------------------------------------------------------
     PROPERTY VALUES FOR THE MCSCF SELF-CONSISTENT FIELD WAVEFUNCTION
     ----------------------------------------------------------------

          -----------------
          ENERGY COMPONENTS
          -----------------

         WAVEFUNCTION NORMALIZATION =       1.0000000000

                ONE ELECTRON ENERGY =     -94.5509828375
                TWO ELECTRON ENERGY =      27.2514929570
           NUCLEAR REPULSION ENERGY =      11.5494448279
                                      ------------------
                       TOTAL ENERGY =     -55.7500450526

 ELECTRON-ELECTRON POTENTIAL ENERGY =      27.2514929570
  NUCLEUS-ELECTRON POTENTIAL ENERGY =    -150.4023367059
   NUCLEUS-NUCLEUS POTENTIAL ENERGY =      11.5494448279
                                      ------------------
             TOTAL POTENTIAL ENERGY =    -111.6013989211
               TOTAL KINETIC ENERGY =      55.8513538685
                 VIRIAL RATIO (V/T) =       1.9981860992

          ---------------------------------------
          MULLIKEN AND LOWDIN POPULATION ANALYSES
          ---------------------------------------

     ATOMIC MULLIKEN POPULATION IN EACH MOLECULAR ORBITAL

                      1          2          3          4          5

                  2.000000   1.983633   1.656296   1.649966   1.645347

    1             2.000916   1.317350   1.540659   0.915179   1.073743
    2            -0.000314   0.195642   0.057530   0.403996   0.020498
    3            -0.000331   0.270443   0.032646   0.054110   0.378644
    4            -0.000271   0.200198   0.025461   0.276681   0.172461

                      6          7          8

                  0.026523   0.019548   0.018688

    1             0.012609   0.010557   0.010001
    2             0.002761   0.000138   0.006970
    3             0.004928   0.005405   0.000281
    4             0.006224   0.003448   0.001436
 WARNING! MCSCF POPULATIONS SHOWN ABOVE ARE FOR THE NATURAL ORBITALS.
 IGNORE THE ABOVE DATA FOR MCSCF FUNCTIONS WHICH ARE NOT OF -FORS- TYPE.
 THE FOLLOWING POPULATIONS ARE CORRECT FOR ANY MCSCF WAVEFUNCTION.

               ----- POPULATIONS IN EACH AO -----
                             MULLIKEN      LOWDIN
              1  N  1  S      2.00260     1.89704
              2  N  1  S      0.82544     0.57642
              3  N  1  S      0.64366     0.39623
              4  N  1  X      0.68366     0.60869
              5  N  1  Y      0.69489     0.62413
              6  N  1  Z      0.88225     0.82554
              7  N  1  X      0.29987     0.40058
              8  N  1  Y      0.30994     0.40491
              9  N  1  Z      0.52039     0.55760
             10  N  1 XX      0.00056     0.17159
             11  N  1 YY      0.00180     0.16376
             12  N  1 ZZ      0.00380     0.14238
             13  N  1 XY      0.00567     0.01215
             14  N  1 XZ      0.00647     0.01049
             15  N  1 YZ      0.00000     0.01266
             16  H  2  S      0.59831     0.46482
             17  H  2  S      0.03148     0.14375
             18  H  2  X      0.02072     0.03945
             19  H  2  Y      0.02408     0.04123
             20  H  2  Z      0.01262     0.03406
             21  H  3  S      0.63871     0.49388
             22  H  3  S      0.04738     0.14263
             23  H  3  X      0.01417     0.02845
             24  H  3  Y      0.02769     0.04743
             25  H  3  Z      0.01818     0.04319
             26  H  4  S      0.59091     0.45893
             27  H  4  S      0.03806     0.14495
             28  H  4  X      0.03245     0.05380
             29  H  4  Y      0.01085     0.02517
             30  H  4  Z      0.01336     0.03406

          ----- MULLIKEN ATOMIC OVERLAP POPULATIONS -----
          (OFF-DIAGONAL ELEMENTS NEED TO BE MULTIPLIED BY 2)

             1           2           3           4

    1    5.9692931
    2    0.3114706   0.3872703
    3    0.3021027  -0.0054229   0.4568221
    4    0.2981487  -0.0060969  -0.0073752   0.4009604

          TOTAL MULLIKEN AND LOWDIN ATOMIC POPULATIONS
       ATOM         MULL.POP.    CHARGE          LOW.POP.     CHARGE
    1 N             6.881015    0.118985         6.804187    0.195813
    2 H             0.687221    0.312779         0.723315    0.276685
    3 H             0.746127    0.253873         0.755581    0.244419
    4 H             0.685637    0.314363         0.716917    0.283083

          MULLIKEN SPHERICAL HARMONIC POPULATIONS
       ATOM           S       P       D      F      G      H      I    TOTAL
    1 N             3.47    3.39    0.02   0.00   0.00   0.00   0.00    6.88
    2 H             0.63    0.06    0.00   0.00   0.00   0.00   0.00    0.69
    3 H             0.69    0.06    0.00   0.00   0.00   0.00   0.00    0.75
    4 H             0.63    0.06    0.00   0.00   0.00   0.00   0.00    0.69

          ---------------------
          ELECTROSTATIC MOMENTS
          ---------------------

 POINT   1           X           Y           Z (BOHR)    CHARGE
                -0.000001   -0.000003   -0.177185        1.00 (A.U.)
         DX          DY          DZ         /D/  (DEBYE)
    -0.102327   -0.431832    2.143285    2.188748
 ...... END OF PROPERTY EVALUATION ......
 CPU     0: STEP CPU TIME=     0.01 TOTAL CPU TIME=          9.9 (      0.2 MIN)
 TOTAL WALL CLOCK TIME=          9.9 SECONDS, CPU UTILIZATION IS    99.90%

     -------------------------------------------------
     GMC-PT/GMC-QDPT or general MCSCF input parameters
     -------------------------------------------------
 # of frozen core orbs. =         0 ->         0
 # of doubly occ. orbs. =         1
 # of active      orbs. =         7
 # of virtual     orbs. =        21
 # of active electrons  =         7
 # of states in CI      =         3
 Highest state in CI    =         3
 kstate =  1 1 1
 avecoe =  0.333 0.333 0.333
 State symmetry           = A           
 Assigned symmetry number = 1

 <<<Act. MO sym.: 1111111

 <<<Division of 1-ext.:  0
 <<<Division of 2-ext.:  0

     ------------------------
     Orbital canonicalization
     ------------------------

 MOs are canonicalized for core, virtual, and invariant-active orbital spaces.
 This is a part of the GMC-QDPT calculation.
 SCHWARZ INEQUALITY OVERHEAD:       465 INTEGRALS, T=        0.00
 DIRECT TRANSFORMATION SKIPS AO INTEGRAL STORAGE ON DISK.

 Averaged energy =     -55.750045053

 State #    1  Energy =     -55.890920945  S =  0.500
 State #    2  Energy =     -55.732693039  S =  0.500
 State #    3  Energy =     -55.626521174  S =  0.500

 Orbital energies for filled orbital space
  -15.985469
 Orbital energies for active orbital space
   -1.524477  -0.980969  -0.871790  -0.749758   0.393164
    0.415781   0.248615
 Orbital energies for external orbital space
    0.151992   0.201688   0.211384   0.538237   0.602854
    0.638205   0.785531   0.970475   1.008410   1.280641
    1.444645   1.493203   1.620191   1.844229   1.901522
    1.972897   2.167728   2.328743   2.573430   2.688321
    3.024029

 Zero values mean non-canonical orbitals.
 ... done with orbital canonicalization ...
 CPU     0: STEP CPU TIME=     0.57 TOTAL CPU TIME=         10.4 (      0.2 MIN)
 TOTAL WALL CLOCK TIME=         10.5 SECONDS, CPU UTILIZATION IS    99.81%

     --------------------------------------------
     PARTIAL TWO ELECTRON INTEGRAL TRANSFORMATION
     --------------------------------------------

 NUMBER OF CORE MOLECULAR ORBITALS     =    0
 NUMBER OF OCCUPIED MOLECULAR ORBITALS =    8
 TOTAL NUMBER OF MOLECULAR ORBITALS    =   29
 TOTAL NUMBER OF ATOMIC ORBITALS       =   30
 THRESHOLD FOR KEEPING TRANSFORMED 2E- INTEGRALS = 1.000E-09
 AO INTEGRALS WILL BE CALCULATED IN DIRECT MODE...
 DIRECT TRANSFORMATION SKIPS AO INTEGRAL STORAGE ON DISK.
 SCHWARZ INEQUALITY OVERHEAD:       465 INTEGRALS, T=        0.00

 PLAN A: REQUIREMENTS FOR FULLY IN-MEMORY TRANSFORMATION:
 # OF WORDS AVAILABLE =            100000000
 # OF WORDS NEEDED    =               221798

 PARALLEL ONLY WORKS WITH THE SEGMENTED ALGORITHM.
 ADJUSTING MEMORY TO USE SEGMENTED ALGORITHM.


 PLAN B: REQUIREMENTS FOR THE SEGMENTED TRANSFORMATION:
       MINIMUM=         124148 WORDS FOR 1 MOLECULAR ORBITAL PER PASS
       MAXIMUM=         221798 WORDS FOR ALL MOLECULAR ORBITALS IN 1 PASS
              (          13950 EXTRA WORDS INCLUDES 1 EXTRA ORBITAL/PASS)
 THIS RUN USES=         221798 WORDS,
 DISTRIBUTING   1 PASSES EACH CONTAINING     8 ORBITALS OVER   1 PROCESSORS.

 CHOOSING SEGMENTED PARTIAL TRANSFORMATION...
 DIRECT TRANSFORMATION SKIPS AO INTEGRAL STORAGE ON DISK.
 PASS #   1 TOOK        0.05 SECONDS.
 TOTAL NUMBER OF TRANSFORMED 2E- INTEGRALS KEPT =        29226
 ... END OF INTEGRAL TRANSFORMATION ...
 CPU     0: STEP CPU TIME=     0.05 TOTAL CPU TIME=         10.5 (      0.2 MIN)
 TOTAL WALL CLOCK TIME=         10.5 SECONDS, CPU UTILIZATION IS    99.90%

     --------     ------------------------------------------
     GMC-QDPT     Program written by H.Nakano (Kyushu Univ.)
     --------     ------------------------------------------

 *** Reference space

 Reference type: ORMAS (= Occupation restricted multiple active space)
 # of orbitals          =  7
 # of minimum electrons =  7
 # of maximum electrons =  7
 State symmetry    =    1 (input)
 2*Sz              =    1 (input)
 Spin multiplicity =    2 (input)
 Dimension of reference space =      1225  (from      3432 walks)

 Dimension of reference space =      1225  (from      1225 walks)

 <<<Ionized spaces for Ref-CI:
      0:         1225 /   -1-0:         1960 /  0-1-0:         2891

 ***                    ***
 *** Reference space CI ***
 ***                    ***

 Converged after   26 iterations

 Reference wavefunctions:

 State #    1  Energy =     -55.890920945  S =  0.500

      Det      Coef    Occupancy (Ignoring core)
      ---      ----    --------- --------- -----
        1   -0.977919  11110001110000
      393   -0.060956  10110101010010
      717   -0.068178  11010011100001

 State #    2  Energy =     -55.732693039  S =  0.500

      Det      Coef    Occupancy (Ignoring core)
      ---      ----    --------- --------- -----
       36    0.982473  11110001101000
      463    0.061309  10110101001010

 State #    3  Energy =     -55.626521174  S =  0.500

      Det      Coef    Occupancy (Ignoring core)
      ---      ----    --------- --------- -----
       71   -0.980759  11110001011000
      822    0.068731  11010011001001

 Davidson method: CPU/Wall time =           0.39 /           0.39 sec.

 Oscillator strength (invalid if E(1)/=E(GS)):
 -----------------------------------------
   State                        f
 -----------------------------------------
     2     F(REF-CI)=        0.0012029235
     3     F(REF-CI)=        0.0014531161
 -----------------------------------------

 Dipole moment matrix elements, x, y, z, in A.U.

 Dimension of ionized spaces for PT:
 (N-2) space:         1715 /  (N-1) space:         2842 /  N space:         2891
 (N+1) space:         2842 /  (N+2) space:         1715

 <<<Ionized spaces for internal:
         0:         1225 /      -1-0:         1960 /     0-1-0:         2891
  -1-0-1-0:         2842 / 0-1-0-1-0:         3381

 Diagonal elements of averaged one-particle density matrix:
       2       3       4       5       6       7       8
  0.9940  0.9886  0.9871  0.9928  0.0109  0.0111  0.0156
  0.9896  0.6612  0.6583  0.6632  0.0088  0.0078  0.0110

 Orbital energies:
 -------- Doubly-occupied orbitals (highest several orbs.) -------
             1
 -1.598547D+01
 -------- Active orbitals ----------------------------------------
             2            3            4            5            6
 -1.524477D+00-9.809689D-01-8.717900D-01-7.497576D-01 3.931638D-01
             7            8
  4.157807D-01 2.486152D-01
 -------- External orbitals (lowest several orbs.) ---------------
             9           10           11           12           13
  1.519920D-01 2.016879D-01 2.113843D-01 5.382371D-01 6.028535D-01
            14           15           16           17           18
  6.382050D-01 7.855308D-01 9.704755D-01 1.008410D+00 1.280641D+00

 *** Quasi-degeneracy checking

 === Det (|Ci| > 1.0D-01 and dE < 5.0D-03)

 # of small denominators (single excitations)
 State       dEmin  dE < 5.0D-03  dE < 5.0D-04  dE < 5.0D-05  dE < 5.0D-06
 ----- ----------- ------------- ------------- ------------- -------------
     1    5.00D-03             0             0             0             0
     2    5.00D-03             0             0             0             0
     3    5.00D-03             0             0             0             0

 # of small denominators (double excitations)
 State       dEmin  dE < 5.0D-03  dE < 5.0D-04  dE < 5.0D-05  dE < 5.0D-06
 ----- ----------- ------------- ------------- ------------- -------------
     1    5.00D-03             0             0             0             0
     2    5.00D-03             0             0             0             0
     3    5.00D-03             0             0             0             0

 *** Zeroth-Order Setup (Granovsky's zeroth-order vectors)
 Zeroth-order effective Hamiltonian
  (= Sum_i e(i)*<I|a+(i)a(i)|J> ):
                   1            2            3
     1 -7.402018D+00
     2 -9.466444D-03-7.300997D+00
     3  1.405314D-03-1.679514D-03-7.185297D+00

 Zeroth-order vectors:
 State #    1
       MC st            1           2           3
       Coeff    9.957D-01   9.240D-02  -5.717D-03
 State #    2
       MC st            2           1           3
       Coeff   -9.956D-01   9.230D-02  -1.569D-02
 State #    3
       MC st            3           2           1
       Coeff    9.999D-01  -1.509D-02   7.142D-03

 *** GMC-QDPT computation

 (Integral reading:  CPU/Wall time =           0.00 /           0.00 sec.)

 One-external:
   0 -ionized terms: CPU/Wall time =           0.03 /           0.03 sec.
 (-1)-ionized terms: CPU/Wall time =           0.08 /           0.09 sec.
 (+1)-ionized terms: CPU/Wall time =           0.03 /           0.03 sec.
 (+1)-ionized terms: CPU/Wall time =           0.00 /           0.00 sec.
 (+2)-ionized terms: CPU/Wall time =           0.01 /           0.00 sec.

 Internal:
 # of macro loops for internal contribution =         1 (input)
 Loop:    1
 Dimension of internal CISD space     =         0  (after screening)
 Space construction: CPU/Wall time =           0.01 /           0.02 sec.
 Internal terms:     CPU/Wall time =           0.00 /           0.00 sec.

 Two-external:
   0 -ionized terms: CPU/Wall time =           0.06 /           0.06 sec.
 (-1)-ionized terms: CPU/Wall time =           1.00 /           1.00 sec.
 (-2)-ionized terms: CPU/Wall time =           0.16 /           0.16 sec.

 Total time:         CPU/Wall time =           1.38 /           1.39 sec.

 ***                  ***
 *** GMC-QDPT Results ***
 ***                  ***

 Diagonal elements of effective Hamiltonian:
 Heff(  1) =   -55.98761148
 Heff(  2) =   -55.84250738
 Heff(  3) =   -55.73752754

 Off-diagonal elements of effective Hamiltonian:
                   1            2
     2 -1.292654D-02
     3 -1.475430D-03-1.633702D-03

 ******** GMC-QDPT energies ********
 ----------------------------------------------------------------------------
   State                        1st order                           2nd order
 ----------------------------------------------------------------------------
     1     E(REF-CI)=      -55.8909209450   E(GMC-QDPT2)=      -55.9887644007
     2     E(REF-CI)=      -55.7326930392   E(GMC-QDPT2)=      -55.8413864059
     3     E(REF-CI)=      -55.6265211736   E(GMC-QDPT2)=      -55.7374955924
 ----------------------------------------------------------------------------

 Excitation energies (invalid if E(1)/=E(GS)):
 ----------------------------------------------------------------------------
   State                        1st order                           2nd order
 ----------------------------------------------------------------------------

     TZ Sorted GMC-PT ENERGIES:
         1      -55.9887644007
         2      -55.8413864059
         3      -55.7374955924
     2     E(REF-CI)=        4.3056028 eV   E(GMC-QDPT2)=        4.0103616 eV
     3     E(REF-CI)=        7.1946879 eV   E(GMC-QDPT2)=        6.8373761 eV
 ----------------------------------------------------------------------------

 Main characters of perturbed GMC-QDPT states:

 State #    1  Energy =     -55.988764401  S =  0.500

      Det      Coef    Occupancy (Ignoring core)
      ---      ----    --------- --------- -----
        1    0.978099  11110001110000
      393    0.060952  10110101010010
      717    0.068137  11010011100001

 State #    2  Energy =     -55.841386406  S =  0.500

      Det      Coef    Occupancy (Ignoring core)
      ---      ----    --------- --------- -----
       36    0.982648  11110001101000
      463    0.061317  10110101001010

 State #    3  Energy =     -55.737495592  S =  0.500

      Det      Coef    Occupancy (Ignoring core)
      ---      ----    --------- --------- -----
       71   -0.980767  11110001011000
      822    0.068734  11010011001001

 <<<Max |V/de| = 2.261D-02  Thresh = 1.000D+00

 Oscillator strength (invalid if E(1)/=E(GS)):
 ----------------------------------------------------------------------------
   State                        1st order                           2nd order
 ----------------------------------------------------------------------------
     2     F(REF-CI)=        0.0012029235     F(GMC-PT2)=        0.0011631309
     3     F(REF-CI)=        0.0014531161     F(GMC-PT2)=        0.0014163041
 ----------------------------------------------------------------------------

 Dipole moment matrix elements, x, y, z, in A.U.
States    1    1       -0.0442097539       -0.2077139691        0.7443790773
States    1    2       -0.0108520068       -0.0260208491        0.1050875399
States    1    3        0.0686233841       -0.0523183282       -0.0317574832
States    2    1       -0.0108520068       -0.0260208491        0.1050875399
States    2    2       -0.1089626228       -0.0747320802        0.2741228542
States    2    3       -0.2415761528        0.0679943496        0.0014691077
States    3    1        0.0686233841       -0.0523183282       -0.0317574832
States    3    2       -0.2415761528        0.0679943496        0.0014691077
States    3    3       -0.0401731576       -0.4643993879        0.2639978490

 Oscillator strength (valid only when positive): 
 ----------------------------------------------------------------------------
  States                        1st order                           2nd order
 ----------------------------------------------------------------------------
  1  1     F(REF-CI)=        0.0000000000     F(GMC-PT2)=        0.0000000000
  1  2     F(REF-CI)=       -0.0012029235     F(GMC-PT2)=       -0.0011631309
  1  3     F(REF-CI)=       -0.0014531161     F(GMC-PT2)=       -0.0014163041
  2  1     F(REF-CI)=        0.0012029235     F(GMC-PT2)=        0.0011631309
  2  2     F(REF-CI)=        0.0000000000     F(GMC-PT2)=        0.0000000000
  2  3     F(REF-CI)=       -0.0044745304     F(GMC-PT2)=       -0.0043623356
  3  1     F(REF-CI)=        0.0014531161     F(GMC-PT2)=        0.0014163041
  3  2     F(REF-CI)=        0.0044745304     F(GMC-PT2)=        0.0043623356
  3  3     F(REF-CI)=        0.0000000000     F(GMC-PT2)=        0.0000000000
 CPU     0: STEP CPU TIME=     1.85 TOTAL CPU TIME=         12.3 (      0.2 MIN)
 TOTAL WALL CLOCK TIME=         12.4 SECONDS, CPU UTILIZATION IS    99.92%

     !!! DIABATIZATION FOR REF CI STATES !!!

 *******************************************************
          $DMO GROUP FOUND IN THE INPUT.
        DIABATIZATION OF ADIABATIC STATES BEGINS.
     PROGRAMMED BY TAO ZENG (CARLETON UNIVERSITY).
               Email: toby.zeng@carleton.ca
     See T. Zeng, J. Chem. Phys. 2017, 146, 144103
 *******************************************************

 *************************************************************************
     STEP 1: TRANSFORMATION OF ADIABATIC STATES TO THE DMO REPRESENTATION
         See Atchity and Ruedenberg, J. Chem. Phys. 1999, 111, 2910
 *************************************************************************

Read in Diabatic Molecualr Orbitals:

                      1          2          3          4          5

    1  N  1  S    0.008609   0.000000   0.000000  -0.013219   0.279491
    2  N  1  S    0.442914  -0.000000   0.000000  -0.184329   0.867803
    3  N  1  S    0.276913   0.000000  -0.000000  -0.288315   0.144236
    4  N  1  X   -0.000000   0.493155  -0.024636  -0.000000  -0.000000
    5  N  1  Y    0.000000   0.024636   0.493155  -0.000000   0.000000
    6  N  1  Z    0.090197   0.000000   0.000000   0.593421   0.705309
    7  N  1  X   -0.000000   0.210628  -0.010522   0.000000   0.000000
    8  N  1  Y    0.000000   0.010522   0.210628  -0.000000  -0.000000
    9  N  1  Z   -0.004381   0.000000   0.000000   0.381592  -0.106092
   10  N  1 XX   -0.000457   0.010719  -0.000535  -0.012387   0.006153
   11  N  1 YY   -0.000457  -0.010719   0.000535  -0.012387   0.006153
   12  N  1 ZZ    0.000914  -0.000000   0.000000   0.024773  -0.012306
   13  N  1 XY    0.000000  -0.000618  -0.012377  -0.000000   0.000000
   14  N  1 XZ   -0.000000   0.026529  -0.001325  -0.000000   0.000000
   15  N  1 YZ    0.000000   0.001325   0.026529  -0.000000   0.000000
   16  H  2  S    0.194462  -0.176074   0.343485   0.112865  -0.523343
   17  H  2  S    0.003574  -0.023812   0.046452   0.024014  -0.054445
   18  H  2  X    0.018760   0.009101   0.022834   0.009336  -0.039151
   19  H  2  Y   -0.032493   0.022287  -0.020044  -0.016171   0.067811
   20  H  2  Z   -0.009251   0.008464  -0.016511   0.018769  -0.010566
   21  H  3  S    0.194462  -0.209430  -0.324227   0.112865  -0.523343
   22  H  3  S    0.003574  -0.028322  -0.043847   0.024014  -0.054445
   23  H  3  X    0.018760   0.006781  -0.023627   0.009336  -0.039151
   24  H  3  Y    0.032493  -0.024174  -0.017723   0.016171  -0.067811
   25  H  3  Z   -0.009251   0.010067   0.015585   0.018769  -0.010566
   26  H  4  S    0.194462   0.385503  -0.019258   0.112865  -0.523343
   27  H  4  S    0.003574   0.052134  -0.002604   0.024014  -0.054445
   28  H  4  X   -0.037519  -0.032295   0.001613  -0.018672   0.078302
   29  H  4  Y    0.000000   0.001067   0.021353  -0.000000   0.000000
   30  H  4  Z   -0.009251  -0.018530   0.000926   0.018769  -0.010566

                      6          7

    1  N  1  S    0.000000  -0.000000
    2  N  1  S    0.000000  -0.000000
    3  N  1  S   -0.000000   0.000000
    4  N  1  X   -0.930415  -0.002083
    5  N  1  Y   -0.002083   0.930415
    6  N  1  Z   -0.000000   0.000000
    7  N  1  X   -0.046866  -0.000105
    8  N  1  Y   -0.000105   0.046866
    9  N  1  Z   -0.000000   0.000000
   10  N  1 XX    0.001538   0.000003
   11  N  1 YY   -0.001538  -0.000003
   12  N  1 ZZ   -0.000000   0.000000
   13  N  1 XY   -0.000004   0.001776
   14  N  1 XZ    0.039985   0.000090
   15  N  1 YZ    0.000090  -0.039985
   16  H  2  S   -0.362630  -0.631354
   17  H  2  S   -0.065964  -0.114846
   18  H  2  X    0.002763  -0.037520
   19  H  2  Y    0.037435   0.040736
   20  H  2  Z    0.001882   0.003276
   21  H  3  S   -0.365454   0.629724
   22  H  3  S   -0.066477   0.114549
   23  H  3  X    0.002595   0.037532
   24  H  3  Y   -0.037617   0.040567
   25  H  3  Z    0.001896  -0.003268
   26  H  4  S    0.728084   0.001630
   27  H  4  S    0.132441   0.000297
   28  H  4  X   -0.062317  -0.000140
   29  H  4  Y    0.000055  -0.024345
   30  H  4  Z   -0.003778  -0.000008

NUMBER OF SUB ACTIVE SPACES:   1
ROTATE ACTIVE MOS TO DMOS IN EACH SUB-SPACE

SPACE  1:

OVERLAP BETWEEN ORTHONORMAL AND PRE-ORTHONORMAL REF. DMOS

             1           2           3           4           5

    1    0.9911681  -0.0094554  -0.0198758  -0.0030098   0.0014696
    2   -0.0094554   0.9887936  -0.0447881  -0.0096098   0.0119701
    3   -0.0198758  -0.0447881   0.9831466  -0.0267645   0.0480983
    4   -0.0030098  -0.0096098  -0.0267645   0.9979857  -0.0042212
    5    0.0014696   0.0119701   0.0480983  -0.0042212   1.0505309
    6    0.0001596  -0.0008872  -0.0352165  -0.0053632  -0.0217004
    7   -0.0029835   0.0391298   0.0067334   0.0294229   0.0090840

             6           7

    1    0.0001596  -0.0029835
    2   -0.0008872   0.0391298
    3   -0.0352165   0.0067334
    4   -0.0053632   0.0294229
    5   -0.0217004   0.0090840
    6    1.0156841  -0.0190760
    7   -0.0190760   1.0284796
REFERENCE DMOS AFTER ORTHONORMALIZATION:

                      1          2          3          4          5

    1  N  1  S    0.007946  -0.003802  -0.013205  -0.012408   0.266755
    2  N  1  S    0.444269  -0.009148  -0.036257  -0.180843   0.826795
    3  N  1  S    0.278123  -0.002512  -0.009005  -0.287978   0.136148
    4  N  1  X    0.004143   0.498192  -0.033790  -0.000018  -0.022773
    5  N  1  Y    0.012828   0.012182   0.498493  -0.013032  -0.030184
    6  N  1  Z    0.091450  -0.001225  -0.014191   0.598106   0.674859
    7  N  1  X    0.001979   0.213304  -0.002329   0.002003  -0.003196
    8  N  1  Y    0.004667   0.018915   0.215815   0.004700  -0.010295
    9  N  1  Z   -0.002770   0.006024   0.015616   0.382715  -0.100136
   10  N  1 XX   -0.000418   0.010623  -0.000629  -0.012293   0.005749
   11  N  1 YY   -0.000625  -0.011099  -0.000663  -0.012542   0.005928
   12  N  1 ZZ    0.001043   0.000476   0.001291   0.024834  -0.011677
   13  N  1 XY   -0.000264  -0.001289  -0.012720  -0.000409   0.000571
   14  N  1 XZ    0.000277   0.026935   0.001291   0.000516   0.000452
   15  N  1 YZ    0.000482   0.004178   0.027563   0.001936  -0.000957
   16  H  2  S    0.201728  -0.127834   0.367665   0.136371  -0.515512
   17  H  2  S    0.004255  -0.016514   0.048386   0.027957  -0.054142
   18  H  2  X    0.019562   0.012640   0.026705   0.011193  -0.038251
   19  H  2  Y   -0.033099   0.018693  -0.022803  -0.017418   0.065803
   20  H  2  Z   -0.009494   0.007952  -0.015640   0.018328  -0.009342
   21  H  3  S    0.190195  -0.242943  -0.328182   0.080189  -0.493317
   22  H  3  S    0.002832  -0.034383  -0.046206   0.018635  -0.051576
   23  H  3  X    0.018730   0.005127  -0.021608   0.007656  -0.036613
   24  H  3  Y    0.032469  -0.025594  -0.016637   0.013948  -0.064621
   25  H  3  Z   -0.008815   0.011370   0.017360   0.019445  -0.010809
   26  H  4  S    0.202124   0.402045   0.055498   0.120783  -0.490443
   27  H  4  S    0.004407   0.054070   0.007685   0.025279  -0.050020
   28  H  4  X   -0.038482  -0.034480  -0.007008  -0.019353   0.073984
   29  H  4  Y    0.000406   0.003056   0.022120   0.001329  -0.000828
   30  H  4  Z   -0.009423  -0.018506   0.000758   0.018554  -0.009874

                      6          7

    1  N  1  S    0.005140  -0.001652
    2  N  1  S    0.015375   0.000030
    3  N  1  S    0.001181   0.008019
    4  N  1  X   -0.917977  -0.037572
    5  N  1  Y    0.031472   0.902184
    6  N  1  Z    0.016649  -0.022358
    7  N  1  X   -0.046265  -0.009084
    8  N  1  Y    0.008018   0.043554
    9  N  1  Z    0.000233  -0.010399
   10  N  1 XX    0.001558  -0.000068
   11  N  1 YY   -0.001473   0.000701
   12  N  1 ZZ   -0.000085  -0.000632
   13  N  1 XY   -0.000401   0.001857
   14  N  1 XZ    0.039444  -0.000233
   15  N  1 YZ    0.000300  -0.039258
   16  H  2  S   -0.366307  -0.616972
   17  H  2  S   -0.066412  -0.112895
   18  H  2  X    0.002201  -0.037021
   19  H  2  Y    0.038145   0.039574
   20  H  2  Z    0.001264   0.002539
   21  H  3  S   -0.369914   0.619432
   22  H  3  S   -0.065989   0.111694
   23  H  3  X    0.001754   0.036630
   24  H  3  Y   -0.038194   0.040084
   25  H  3  Z    0.002274  -0.004168
   26  H  4  S    0.709254   0.000543
   27  H  4  S    0.129780   0.000319
   28  H  4  X   -0.060145  -0.000105
   29  H  4  Y    0.000363  -0.023954
   30  H  4  Z   -0.003818   0.000149

 -------------------------------------------
       MAXIMIZING MORMO OVERLAP TERM        
 -------------------------------------------
   SWEEP    VALUE       PROGRESS
     0     4.78313
     1     6.94173     2.15859956
     2     6.98334     0.04160520
     3     6.98334     0.00000866
     4     6.98334     0.00000000
     5     6.98334     0.00000000
 THE ROTATION IS DONE
ACTIVE ORBITALS AFTER MORMO:

                      1          2          3          4          5

    1  N  1  S    0.007438  -0.006486  -0.018592  -0.012399   0.245265
    2  N  1  S    0.436000  -0.017260  -0.042387  -0.185275   0.799403
    3  N  1  S    0.301055   0.021980   0.032877  -0.282187   0.163624
    4  N  1  X   -0.001151   0.487130  -0.044246  -0.006774  -0.016933
    5  N  1  Y    0.004125   0.001563   0.484553  -0.024614  -0.016146
    6  N  1  Z    0.087100  -0.006171  -0.026570   0.597670   0.672366
    7  N  1  X    0.009578   0.218614   0.030154   0.011205  -0.012278
    8  N  1  Y    0.017016   0.050807   0.227047   0.035127  -0.036596
    9  N  1  Z    0.008912   0.017266   0.045340   0.382700  -0.096622
   10  N  1 XX   -0.000266   0.008559   0.005263  -0.010614  -0.003061
   11  N  1 YY   -0.000584  -0.008681  -0.005855  -0.013239   0.008320
   12  N  1 ZZ    0.000851   0.000122   0.000592   0.023853  -0.005259
   13  N  1 XY   -0.002650  -0.008222  -0.017499  -0.000865   0.034683
   14  N  1 XZ    0.000811   0.022973   0.001072  -0.001382   0.009863
   15  N  1 YZ   -0.000650   0.003649   0.022678  -0.000611   0.033417
   16  H  2  S    0.189513  -0.158857   0.351165   0.121078  -0.503449
   17  H  2  S    0.001673  -0.010282   0.052952   0.029473  -0.057541
   18  H  2  X    0.024037   0.000006   0.031808   0.010774  -0.042346
   19  H  2  Y   -0.027623   0.025096  -0.015797  -0.012373   0.053732
   20  H  2  Z   -0.005791   0.008242  -0.011589   0.019927  -0.013149
   21  H  3  S    0.191470  -0.224388  -0.324952   0.095504  -0.507462
   22  H  3  S    0.003849  -0.053629  -0.062786   0.019854  -0.058345
   23  H  3  X    0.013834   0.010236  -0.018778   0.009254  -0.036181
   24  H  3  Y    0.030866  -0.022759  -0.014380   0.016891  -0.059734
   25  H  3  Z   -0.013281   0.012913   0.021645   0.017964  -0.009020
   26  H  4  S    0.190657   0.385991   0.006192   0.113174  -0.478709
   27  H  4  S    0.002938   0.068198   0.020593   0.028757  -0.056360
   28  H  4  X   -0.033487  -0.033020   0.007196  -0.016182   0.065761
   29  H  4  Y    0.010306   0.016406   0.018750   0.003891  -0.009177
   30  H  4  Z   -0.007353  -0.015945   0.004745   0.019128  -0.015632

                      6          7

    1  N  1  S    0.003962   0.030703
    2  N  1  S    0.004871   0.072275
    3  N  1  S    0.016144  -0.088327
    4  N  1  X   -0.918406  -0.032834
    5  N  1  Y    0.027577   0.894748
    6  N  1  Z    0.030542  -0.057245
    7  N  1  X   -0.052702  -0.025710
    8  N  1  Y    0.023150   0.055947
    9  N  1  Z   -0.014598   0.015261
   10  N  1 XX   -0.009787  -0.034592
   11  N  1 YY    0.009986   0.028259
   12  N  1 ZZ   -0.000199   0.006333
   13  N  1 XY   -0.034725   0.014195
   14  N  1 XZ    0.043844   0.015652
   15  N  1 YZ   -0.013040  -0.037342
   16  H  2  S   -0.377100  -0.600455
   17  H  2  S   -0.072104  -0.118505
   18  H  2  X   -0.015061  -0.041477
   19  H  2  Y    0.039405   0.034772
   20  H  2  Z   -0.014131   0.000037
   21  H  3  S   -0.350281   0.611762
   22  H  3  S   -0.086051   0.132525
   23  H  3  X    0.018742   0.040412
   24  H  3  Y   -0.038954   0.028710
   25  H  3  Z    0.010125  -0.007184
   26  H  4  S    0.694620   0.030968
   27  H  4  S    0.151795  -0.000447
   28  H  4  X   -0.060133  -0.012958
   29  H  4  Y    0.016342  -0.023284
   30  H  4  Z    0.001975   0.016846

Actually Used Diabatic Molecualr Orbitals:

                      1          2          3          4          5

    1  N  1  S    0.007438  -0.006486  -0.018592  -0.012399   0.245265
    2  N  1  S    0.436000  -0.017260  -0.042387  -0.185275   0.799403
    3  N  1  S    0.301055   0.021980   0.032877  -0.282187   0.163624
    4  N  1  X   -0.001151   0.487130  -0.044246  -0.006774  -0.016933
    5  N  1  Y    0.004125   0.001563   0.484553  -0.024614  -0.016146
    6  N  1  Z    0.087100  -0.006171  -0.026570   0.597670   0.672366
    7  N  1  X    0.009578   0.218614   0.030154   0.011205  -0.012278
    8  N  1  Y    0.017016   0.050807   0.227047   0.035127  -0.036596
    9  N  1  Z    0.008912   0.017266   0.045340   0.382700  -0.096622
   10  N  1 XX   -0.000266   0.008559   0.005263  -0.010614  -0.003061
   11  N  1 YY   -0.000584  -0.008681  -0.005855  -0.013239   0.008320
   12  N  1 ZZ    0.000851   0.000122   0.000592   0.023853  -0.005259
   13  N  1 XY   -0.002650  -0.008222  -0.017499  -0.000865   0.034683
   14  N  1 XZ    0.000811   0.022973   0.001072  -0.001382   0.009863
   15  N  1 YZ   -0.000650   0.003649   0.022678  -0.000611   0.033417
   16  H  2  S    0.189513  -0.158857   0.351165   0.121078  -0.503449
   17  H  2  S    0.001673  -0.010282   0.052952   0.029473  -0.057541
   18  H  2  X    0.024037   0.000006   0.031808   0.010774  -0.042346
   19  H  2  Y   -0.027623   0.025096  -0.015797  -0.012373   0.053732
   20  H  2  Z   -0.005791   0.008242  -0.011589   0.019927  -0.013149
   21  H  3  S    0.191470  -0.224388  -0.324952   0.095504  -0.507462
[...]
      123   -0.039415    0.039415  +-2200+
      111    0.036342   -0.036342  +22-0+0
      248    0.036241   -0.036241  2+02200
      262    0.035393    0.035393  2+02-0+
      463    0.035334   -0.035334  20+2020
      813    0.029338   -0.029338  20+20+-
      808   -0.026225    0.026225  2+02+0-
       41    0.026188   -0.026188  22+-0+0
      250    0.024193    0.024193  -++2200
       86   -0.023661   -0.023661  2+2-00+
      320    0.022845    0.022845  0+22200
       53    0.022773    0.022773  2-+200+
       18    0.022430   -0.022430  2-2+00+
      823    0.021334   -0.021334  20+2002
      285    0.021045   -0.021045  02+2200
      876    0.020434    0.020434  ++2200-
      421   -0.020413   -0.020413  +22+0-0
      391    0.020245   -0.020245  2+20020

 State #    3  Energy =     -55.800372962

      Det      Coef        Coefp    Occupancy (Ignoring core)
      ---      ----        ----    --------- --------- -----
       36   -0.695539   -0.695539  22+2000
       71    0.660322   -0.660322  2+22000
        1   -0.212735    0.212735  222+000
      463    0.048303   -0.048303  20+2020
      822   -0.047942    0.047942  2+02002
      122    0.040296    0.040296  +2-200+
      472   -0.032417   -0.032417  2+020-+
       38   -0.028871    0.028871  2202+00
      823    0.025772   -0.025772  20+2002
       88    0.025296   -0.025296  202200+
      107    0.023663   -0.023663  +22-+00
      285    0.023210   -0.023210  02+2200
       16   -0.023190    0.023190  222000+
      157    0.022518   -0.022518  220+-0+
      460   -0.022097   -0.022097  -++2+-0
      111   -0.021586    0.021586  +22-0+0
      320   -0.021508   -0.021508  0+22200
       76    0.021096    0.021096  2+2-0+0
      142    0.020989    0.020989  22+0200
       54   -0.020517    0.020517  -2+200+
      248   -0.020270    0.020270  2+02200

 ---------------------------------------
    -DIABATIC STATES IN PROTOTYPES-     
 ---------------------------------------

     STATE:    1
 Group Ref#    Coefficients
     1    1    0.984093
     2    2   -0.001512
     3    3   -0.001703

WEIGHT OF LISTED PROTOTYPES:   96.84%

     STATE:    2
 Group Ref#    Coefficients
     1    1   -0.001512
     2    2    0.981371
     3    3    0.002029

WEIGHT OF LISTED PROTOTYPES:   96.31%

     STATE:    3
 Group Ref#    Coefficients
     1    1   -0.001703
     2    2    0.002029
     3    3    0.983489

WEIGHT OF LISTED PROTOTYPES:   96.73%

 --------------------------------------------------
 IN DIRECT MAX. DIABATIZATION FOR GMC-QDPT

 DIRECT MAXIMIZATION (DM) WITHOUT TRUNCATING ADIABATS
 EXPANSIONS INTO THE REFERENCE CONFIGURATION SPACE
 --------------------------------------------------

 -------------------------------------------
 - DM DIABT PT HAMILTONIAN MATRIX ELEMENTS -
 -------------------------------------------
                                            
 --- DIABATIC ENERGIES (DIAGONAL ELEMENT) ---       HARTREE            EV
 STATE #  1'S GMC-PT-LEVEL DIABATIC ENERGY=     -55.982089425       0.000000000
 STATE #  2'S GMC-PT-LEVEL DIABATIC ENERGY=     -55.785184219       5.358063564
 STATE #  3'S GMC-PT-LEVEL DIABATIC ENERGY=     -55.800372755       4.944762452

 --- DIABATIC COUPLINGS (OFF DIAGONAL ELEMENTS)---  HATREE            EV
 STATE #  1 &  2'S GMC-PT-LEVEL COUPLING  =       0.008183515       0.222684792
 STATE #  1 &  3'S GMC-PT-LEVEL COUPLING  =       0.031074568       0.845582063
 STATE #  2 &  3'S GMC-PT-LEVEL COUPLING  =      -0.053899129      -1.466669995

 ---------------------------------------
     - ROTATION TO DIABATIC STATES -    
 ---------------------------------------
 ROWS=ADIABATIC, COLUMNS=DIABATIC STATES

             1           2           3

    1   -0.9783818   0.0887804   0.1867810
    2   -0.1979667  -0.6632972  -0.7216966
    3    0.0598188  -0.7430712   0.6665335

 ---------------------------------------
          - DIABATIC STATES -           
 ---------------------------------------

 State #    1  Energy =     -55.982089425

      Det      Coef        Coefp    Occupancy (Ignoring core)
      ---      ----        ----    --------- --------- -----
        1    0.966102   -0.966102  222+000
      717   -0.073631   -0.073631  220+002
      393   -0.071618   -0.071618  202+020
        3    0.069574    0.069574  22-++00
      141   -0.067354   -0.067354  22++-00
       17    0.063976    0.063976  22-+00+
        8   -0.054462    0.054462  2-2+0+0
       18    0.050880   -0.050880  2-2+00+
       16    0.047837   -0.047837  222000+
      736   -0.047321    0.047321  2+2+00-
        7   -0.039896   -0.039896  22-+0+0
      351    0.039007    0.039007  22++0-0
      402    0.037750   -0.037750  2+-+0-+
      708    0.037476   -0.037476  2-++0+-
      701   -0.035754   -0.035754  22++00-
      215   -0.035347   -0.035347  022+200
      218    0.033473   -0.033473  +-2+-+0
      390    0.033329   -0.033329  -+2++-0
      227   -0.032887   -0.032887  +2-+-0+
      705   -0.032846   -0.032846  -2+++0-
      212    0.028630    0.028630  +220200
       76    0.028484    0.028484  2+2-0+0
       51   -0.028222    0.028222  22+-00+
        2    0.027030   -0.027030  2220+00
      122    0.026235    0.026235  +2-200+
      386    0.025979   -0.025979  2+2+0-0
      113   -0.025235    0.025235  +-220+0
      179   -0.024384   -0.024384  202+200
      773    0.023532   -0.023532  +2-++0-
        4    0.022751   -0.022751  2-2++00
      702    0.022611    0.022611  22+0+0-
      387   -0.022572    0.022572  2+20+-0
      159    0.022317   -0.022317  -2++-0+
      424   -0.022256   -0.022256  +-2++-0
      184   -0.021750   -0.021750  -+2+-+0
      176   -0.021627    0.021627  2+2+-00
     1051   -0.020301   -0.020301  2+++0--

 State #    2  Energy =     -55.785184219

      Det      Coef        Coefp    Occupancy (Ignoring core)
      ---      ----        ----    --------- --------- -----
       71   -0.968301    0.968301  2+22000
      246   -0.078304   -0.078304  2++2-00
       73    0.076213   -0.076213  2+-2+00
      822    0.074285   -0.074285  2+02002
      736   -0.058684    0.058684  2+2+00-
       86    0.056219    0.056219  2+2-00+
       77   -0.047931    0.047931  2+-20+0
       36    0.046597    0.046597  22+2000
      456    0.046066    0.046066  2++20-0
      813    0.042070   -0.042070  20+20+-
       88   -0.039565    0.039565  202200+
      111    0.038996   -0.038996  +22-0+0
      320    0.035301    0.035301  0+22200
      806   -0.034262   -0.034262  2++200-
      810   -0.033930   -0.033930  -++2+0-
      332   -0.033416    0.033416  ++-2-0+
      323   -0.032470    0.032470  +022-+0
      180   -0.029236    0.029236  -+2+200
      317    0.029119   -0.029119  ++2-200
      177    0.027841   -0.027841  2+20200
      122    0.027756    0.027756  +2-200+
       99   -0.026943    0.026943  20-20++
        6    0.026020   -0.026020  22200+0
      183   -0.025307    0.025307  202+-+0
      807   -0.024862    0.024862  2++-+0-
      192   -0.024628    0.024628  2+-+-0+
      391    0.024577   -0.024577  2+20020
      878    0.023493    0.023493  ++-2+0-
       87    0.023482   -0.023482  2+-200+
      264    0.023013   -0.023013  -++2-0+
      113    0.022633   -0.022633  +-220+0
       38   -0.022442    0.022442  2202+00
      248    0.021108   -0.021108  2+02200
      421   -0.020663   -0.020663  +22+0-0

 State #    3  Energy =     -55.800372755

      Det      Coef        Coefp    Occupancy (Ignoring core)
      ---      ----        ----    --------- --------- -----
       36   -0.968425   -0.968425  22+2000
      463    0.071382   -0.071382  20+2020
       38   -0.066872    0.066872  2202+00
       53   -0.057431   -0.057431  2-+200+
       51    0.055354   -0.055354  22+-00+
      701   -0.055165   -0.055165  22++00-
      806    0.051853    0.051853  2++200-
       39   -0.050991   -0.050991  2-+2+00
      106   -0.050153   -0.050153  +222000
       71   -0.046548    0.046548  2+22000
      472   -0.041384   -0.041384  2+020-+
       41   -0.038196    0.038196  22+-0+0
      121   -0.035386    0.035386  +22-00+
       42    0.035200   -0.035200  22020+0
      285    0.034938   -0.034938  02+2200
      288   -0.034203   -0.034203  +-+2-+0
      460   -0.034188   -0.034188  -++2+-0
      297    0.033048   -0.033048  +202-0+
      123    0.031479   -0.031479  +-2200+
       73    0.030497   -0.030497  2+-2+00
      145   -0.029517   -0.029517  -2++200
      282    0.029364    0.029364  +2+-200
      351    0.028066    0.028066  22++0-0
      142    0.027684    0.027684  22+0200
       64    0.026981   -0.026981  2-020++
      249    0.026226   -0.026226  20+2200
      157    0.025695   -0.025695  220+-0+
       16   -0.025370    0.025370  222000+
       86    0.025000    0.025000  2+2-00+
      457   -0.024290    0.024290  2++-+-0
      148   -0.023932   -0.023932  2-++-+0
      112   -0.023101   -0.023101  +2-20+0
      494    0.022651   -0.022651  +-+2+-0
      716    0.022287    0.022287  22+0002
      254    0.021403   -0.021403  -++2-+0
      246    0.020493    0.020493  2++2-00
      356    0.020067    0.020067  22+0020

 ---------------------------------------
      - DIABATIC STATES IN CMO -        
 ---------------------------------------

 State #    1  Energy =     -55.982089425

      Det      Coef        Coefp    Occupancy (Ignoring core)
      ---      ----        ----    --------- --------- -----
        1    0.948895   -0.948895  222+000
       36   -0.230879   -0.230879  22+2000
      717   -0.068588   -0.068588  220+002
       71    0.062023   -0.062023  2+22000
      393   -0.060137   -0.060137  202+020
        8   -0.040659    0.040659  2-2+0+0
      708    0.036213   -0.036213  2-++0+-
      143   -0.035937   -0.035937  220+200
       17    0.034499    0.034499  22-+00+
      215   -0.031011   -0.031011  022+200
      753   -0.030742   -0.030742  202+002
      402    0.030661   -0.030661  2+-+0-+
      106   -0.027846   -0.027846  +222000
      703    0.027154    0.027154  220++0-
      705   -0.026432   -0.026432  -2+++0-
        3   -0.026282   -0.026282  22-++00
      122    0.024643    0.024643  +2-200+
       51   -0.024348    0.024348  22+-00+
       76    0.023659    0.023659  2+2-0+0
      157   -0.022713    0.022713  220+-0+
       16    0.022548   -0.022548  222000+
      113   -0.022100    0.022100  +-220+0
      218    0.021882   -0.021882  +-2+-+0
      390    0.021810   -0.021810  -+2++-0
      368   -0.021718   -0.021718  2-++0-+
      227   -0.021412   -0.021412  +2-+-0+
      213   -0.021266    0.021266  +2-+200
      702    0.020702    0.020702  22+0+0-
        2    0.020467   -0.020467  2220+00
      719   -0.020207   -0.020207  -2++002

 State #    2  Energy =     -55.785184219

      Det      Coef        Coefp    Occupancy (Ignoring core)
      ---      ----        ----    --------- --------- -----
       71   -0.722581    0.722581  2+22000
       36   -0.655777   -0.655777  22+2000
        1   -0.112447    0.112447  222+000
      822    0.049083   -0.049083  2+02002
      123   -0.039415    0.039415  +-2200+
      111    0.036342   -0.036342  +22-0+0
      248    0.036241   -0.036241  2+02200
      262    0.035393    0.035393  2+02-0+
      463    0.035334   -0.035334  20+2020
      813    0.029338   -0.029338  20+20+-
      808   -0.026225    0.026225  2+02+0-
       41    0.026188   -0.026188  22+-0+0
      250    0.024193    0.024193  -++2200
       86   -0.023661   -0.023661  2+2-00+
      320    0.022845    0.022845  0+22200
       53    0.022773    0.022773  2-+200+
       18    0.022430   -0.022430  2-2+00+
      823    0.021334   -0.021334  20+2002
      285    0.021045   -0.021045  02+2200
      876    0.020434    0.020434  ++2200-
      421   -0.020413   -0.020413  +22+0-0
      391    0.020245   -0.020245  2+20020

 State #    3  Energy =     -55.800372755

      Det      Coef        Coefp    Occupancy (Ignoring core)
      ---      ----        ----    --------- --------- -----
       36   -0.695537   -0.695537  22+2000
       71    0.660324   -0.660324  2+22000
        1   -0.212735    0.212735  222+000
      463    0.048303   -0.048303  20+2020
      822   -0.047942    0.047942  2+02002
      122    0.040296    0.040296  +2-200+
      472   -0.032417   -0.032417  2+020-+
       38   -0.028871    0.028871  2202+00
      823    0.025772   -0.025772  20+2002
       88    0.025296   -0.025296  202200+
      107    0.023663   -0.023663  +22-+00
      285    0.023210   -0.023210  02+2200
       16   -0.023190    0.023190  222000+
      157    0.022518   -0.022518  220+-0+
      460   -0.022097   -0.022097  -++2+-0
      111   -0.021586    0.021586  +22-0+0
      320   -0.021508   -0.021508  0+22200
       76    0.021096    0.021096  2+2-0+0
      142    0.020989    0.020989  22+0200
       54   -0.020517    0.020517  -2+200+
      248   -0.020270    0.020270  2+02200

 ---------------------------------------
    -DIABATIC STATES IN PROTOTYPES-     
 ---------------------------------------

     STATE:    1
 Group Ref#    Coefficients
     1    1    0.984093
     2    2   -0.001510
     3    3   -0.001703

WEIGHT OF LISTED PROTOTYPES:   96.84%

     STATE:    2
 Group Ref#    Coefficients
     1    1   -0.001514
     2    2    0.981371
     3    3    0.002031

WEIGHT OF LISTED PROTOTYPES:   96.31%

     STATE:    3
 Group Ref#    Coefficients
     1    1   -0.001704
     2    2    0.002027
     3    3    0.983489

WEIGHT OF LISTED PROTOTYPES:   96.73%

     DIRECT MAX. DIABATIZATION FINISHED    
 CPU     0: STEP CPU TIME=     0.25 TOTAL CPU TIME=         12.6 (      0.2 MIN)
 TOTAL WALL CLOCK TIME=         12.6 SECONDS, CPU UTILIZATION IS    99.92%

DIABATS FOR SPIN-ORBIT CALCULATION ARE READY

TRANSITION DIPOLES BETWEEN ADIABATS (in A.U.):

STATE PAIR      X         Y         Z
    1    1 -0.044210 -0.207714  0.744379
    2    1 -0.010852 -0.026021  0.105088
    2    2 -0.108963 -0.074732  0.274123
    3    1  0.068623 -0.052318 -0.031757
    3    2 -0.241576  0.067994  0.001469
    3    3 -0.040173 -0.464399  0.263998


TRANSITION DIPOLES BETWEEN DIABATS (in A.U.):

STATE PAIR      X         Y         Z
    1    1 -0.053248 -0.208987  0.768621
    2    1  0.008769 -0.018567  0.002856
    2    2 -0.316380 -0.213945  0.265500
    3    1 -0.018031  0.012980  0.004074
    3    2 -0.059169  0.206249 -0.004273
    3    3  0.176282 -0.323914  0.248378

TRANSITION DIPOLES BETWEEN DIRECT MAX. DIABATS (in A.U.):

STATE PAIR      X         Y         Z
    1    1 -0.053248 -0.208987  0.768621
    2    1  0.008769 -0.018567  0.002855
    2    2 -0.316381 -0.213944  0.265500
    3    1 -0.018031  0.012980  0.004074
    3    2 -0.059168  0.206249 -0.004273
    3    3  0.176283 -0.323915  0.248378
 No $TRANST Group Found.
 Quit without doing spin-orbit coupling
 ..... DONE WITH MP2 ENERGY .....
 CPU     0: STEP CPU TIME=     0.00 TOTAL CPU TIME=         12.6 (      0.2 MIN)
 TOTAL WALL CLOCK TIME=         12.6 SECONDS, CPU UTILIZATION IS    99.92%
            100000000  WORDS OF DYNAMIC MEMORY USED
 EXECUTION OF GAMESS TERMINATED NORMALLY Wed Nov 16 18:52:42 2022
 DDI: 715512 bytes (0.7 MB / 0 MWords) used by master data server.

 ----------------------------------------
 CPU timing information for all processes
 ========================================
 0: 12.357 + 0.240 = 12.597
 ----------------------------------------
Note: The following floating-point exceptions are signalling: IEEE_DENORMAL
 ddikick.x: exited gracefully.
unset echo
----- accounting info -----
Files used on the master node io002 were:
-rw-r--r-- 1 bsonghao nooijen   20725 Nov 16 18:52 /scratch/bsonghao/nh3_diabatization_2d_at_mode_7_8_dist-0.4_-0.1.F05
-rw-r--r-- 1 bsonghao nooijen  363520 Nov 16 18:52 /scratch/bsonghao/nh3_diabatization_2d_at_mode_7_8_dist-0.4_-0.1.F09
-rw-r--r-- 1 bsonghao nooijen 1995920 Nov 16 18:52 /scratch/bsonghao/nh3_diabatization_2d_at_mode_7_8_dist-0.4_-0.1.F10
-rw-r--r-- 1 bsonghao nooijen  131264 Nov 16 18:52 /scratch/bsonghao/nh3_diabatization_2d_at_mode_7_8_dist-0.4_-0.1.F13
-rw-r--r-- 1 bsonghao nooijen  180312 Nov 16 18:52 /scratch/bsonghao/nh3_diabatization_2d_at_mode_7_8_dist-0.4_-0.1.F15
-rw-r--r-- 1 bsonghao nooijen       0 Nov 16 18:52 /scratch/bsonghao/nh3_diabatization_2d_at_mode_7_8_dist-0.4_-0.1.F16
-rw-r--r-- 1 bsonghao nooijen    9808 Nov 16 18:52 /scratch/bsonghao/nh3_diabatization_2d_at_mode_7_8_dist-0.4_-0.1.F70
-rw-r--r-- 1 bsonghao nooijen    9808 Nov 16 18:52 /scratch/bsonghao/nh3_diabatization_2d_at_mode_7_8_dist-0.4_-0.1.F71
-rw-r--r-- 1 bsonghao nooijen   19608 Nov 16 18:52 /scratch/bsonghao/nh3_diabatization_2d_at_mode_7_8_dist-0.4_-0.1.F72
-rw-r--r-- 1 bsonghao nooijen   19608 Nov 16 18:52 /scratch/bsonghao/nh3_diabatization_2d_at_mode_7_8_dist-0.4_-0.1.F73
-rw-r--r-- 1 bsonghao nooijen 1920824 Nov 16 18:52 /scratch/bsonghao/nh3_diabatization_2d_at_mode_7_8_dist-0.4_-0.1.F74
-rw-r--r-- 1 bsonghao nooijen       0 Nov 16 18:52 /scratch/bsonghao/nh3_diabatization_2d_at_mode_7_8_dist-0.4_-0.1.F75
-rw-r--r-- 1 bsonghao nooijen   58848 Nov 16 18:52 /scratch/bsonghao/nh3_diabatization_2d_at_mode_7_8_dist-0.4_-0.1.F76
-rw-r--r-- 1 bsonghao nooijen       0 Nov 16 18:52 /scratch/bsonghao/nh3_diabatization_2d_at_mode_7_8_dist-0.4_-0.1.F77
-rw-r--r-- 1 bsonghao nooijen    1864 Nov 16 18:52 /scratch/bsonghao/nh3_diabatization_2d_at_mode_7_8_dist-0.4_-0.1.F78
-rw-r--r-- 1 bsonghao nooijen   39208 Nov 16 18:52 /scratch/bsonghao/nh3_diabatization_2d_at_mode_7_8_dist-0.4_-0.1.F79
-rw-r--r-- 1 bsonghao nooijen     104 Nov 16 18:52 /scratch/bsonghao/nh3_diabatization_2d_at_mode_7_8_dist-0.4_-0.1.F80
-rw-r--r-- 1 bsonghao nooijen   13472 Nov 16 18:52 /scratch/bsonghao/nh3_diabatization_2d_at_mode_7_8_dist-0.4_-0.1.F81
-rw-r--r-- 1 bsonghao nooijen      16 Nov 16 18:52 /scratch/bsonghao/nh3_diabatization_2d_at_mode_7_8_dist-0.4_-0.1.F82
-rw-r--r-- 1 bsonghao nooijen   19216 Nov 16 18:52 /scratch/bsonghao/nh3_diabatization_2d_at_mode_7_8_dist-0.4_-0.1.F83
-rw-r--r-- 1 bsonghao nooijen   29712 Nov 16 18:52 /scratch/bsonghao/nh3_diabatization_2d_at_mode_7_8_dist-0.4_-0.1.F84
-rw-r--r-- 1 bsonghao nooijen  401576 Nov 16 18:52 /scratch/bsonghao/nh3_diabatization_2d_at_mode_7_8_dist-0.4_-0.1.F85
-rw-r--r-- 1 bsonghao nooijen  903672 Nov 16 18:52 /scratch/bsonghao/nh3_diabatization_2d_at_mode_7_8_dist-0.4_-0.1.F86
-rw-r--r-- 1 bsonghao nooijen     656 Nov 16 18:52 /scratch/bsonghao/nh3_diabatization_2d_at_mode_7_8_dist-0.4_-0.1.F87
-rw-r--r-- 1 bsonghao nooijen   32112 Nov 16 18:52 /scratch/bsonghao/nh3_diabatization_2d_at_mode_7_8_dist-0.4_-0.1.F88
-rw-r--r-- 1 bsonghao nooijen     240 Nov 16 18:52 /scratch/bsonghao/nh3_diabatization_2d_at_mode_7_8_dist-0.4_-0.1.F89
-rw-r--r-- 1 bsonghao nooijen       0 Nov 16 18:52 /scratch/bsonghao/nh3_diabatization_2d_at_mode_7_8_dist-0.4_-0.1.F90
-rw-r--r-- 1 bsonghao nooijen   13760 Nov 16 18:52 /scratch/bsonghao/nh3_diabatization_2d_at_mode_7_8_dist-0.4_-0.1.F91
-rw-r--r-- 1 bsonghao nooijen   22776 Nov 16 18:52 /scratch/bsonghao/nh3_diabatization_2d_at_mode_7_8_dist-0.4_-0.1.F92
-rw-r--r-- 1 bsonghao nooijen   23168 Nov 16 18:52 /scratch/bsonghao/nh3_diabatization_2d_at_mode_7_8_dist-0.4_-0.1.F93
-rw-r--r-- 1 bsonghao nooijen   22776 Nov 16 18:52 /scratch/bsonghao/nh3_diabatization_2d_at_mode_7_8_dist-0.4_-0.1.F94
-rw-r--r-- 1 bsonghao nooijen   13760 Nov 16 18:52 /scratch/bsonghao/nh3_diabatization_2d_at_mode_7_8_dist-0.4_-0.1.F95
-rw-r--r-- 1 bsonghao nooijen   29440 Nov 16 18:52 /scratch/bsonghao/nh3_diabatization_2d_at_mode_7_8_dist-0.4_-0.1.F96
-rw-r--r-- 1 bsonghao nooijen    1184 Nov 16 18:52 /scratch/bsonghao/nh3_diabatization_2d_at_mode_7_8_dist-0.4_-0.1.F97
-rw-r--r-- 1 bsonghao nooijen    9808 Nov 16 18:52 /scratch/bsonghao/nh3_diabatization_2d_at_mode_7_8_dist-0.4_-0.1.F98
-rw-r--r-- 1 bsonghao nooijen   30264 Nov 16 18:52 /scratch/bsonghao/nh3_diabatization_2d_at_mode_7_8_dist-0.4_-0.1.F99
ls: No match.
ls: No match.
ls: No match.
Wed 16 Nov 2022 06:52:45 PM EST
0.285u 0.049s 0:15.98 2.0%	0+0k 48+232io 0pf+0w
