----- GAMESS execution script 'rungms' -----
This job is running on host io002
under operating system Linux at Wed 16 Nov 2022 06:48:49 PM EST
Available scratch disk space (Kbyte units) at beginning of the job is
Filesystem       1K-blocks       Used   Available Use% Mounted on
/dev/sdc1      15378471580 3278917120 11318349060  23% /scratch
GAMESS temporary binary files will be written to /scratch/bsonghao
GAMESS supplementary output files will be written to /home/bsonghao/.gamess_ascii_files/267638
Copying input file nh3_diabatization_2d_at_mode_7_8_dist-0.5_0.8.inp to your run's scratch directory...
cp nh3_diabatization_2d_at_mode_7_8_dist-0.5_0.8.inp /scratch/bsonghao/nh3_diabatization_2d_at_mode_7_8_dist-0.5_0.8.F05
unset echo
/home/bjb2chen/gamess/ddikick.x /home/bjb2chen/gamess/gamess.00.x nh3_diabatization_2d_at_mode_7_8_dist-0.5_0.8 -ddi 1 1 io002 -scr /scratch/bsonghao

 Distributed Data Interface kickoff program.
 Initiating 1 compute processes on 1 nodes to run the following command:
 /home/bjb2chen/gamess/gamess.00.x nh3_diabatization_2d_at_mode_7_8_dist-0.5_0.8 

          ******************************************************
          *         GAMESS VERSION = 02 AUG 2018 (R2)         *
          *             FROM IOWA STATE UNIVERSITY             *
          * M.W.SCHMIDT, K.K.BALDRIDGE, J.A.BOATZ, S.T.ELBERT, *
          *   M.S.GORDON, J.H.JENSEN, S.KOSEKI, N.MATSUNAGA,   *
          *          K.A.NGUYEN, S.J.SU, T.L.WINDUS,           *
          *       TOGETHER WITH M.DUPUIS, J.A.MONTGOMERY       *
          *         J.COMPUT.CHEM.  14, 1347-1363(1993)        *
          **************** 64 BIT LINUX VERSION ****************

  SINCE 1993, STUDENTS AND POSTDOCS WORKING AT IOWA STATE UNIVERSITY
  AND ALSO IN THEIR VARIOUS JOBS AFTER LEAVING ISU HAVE MADE IMPORTANT
  CONTRIBUTIONS TO THE CODE:
     IVANA ADAMOVIC, CHRISTINE AIKENS, YURI ALEXEEV, POOJA ARORA,
     ANDREY ASADCHEV, ROB BELL, PRADIPTA BANDYOPADHYAY, JONATHAN BENTZ,
     BRETT BODE, KURT BRORSEN, CALEB CARLIN, GALINA CHABAN, WEI CHEN,
     CHEOL HO CHOI, PAUL DAY, ALBERT DEFUSCO, NUWAN DESILVA, TIM DUDLEY,
     DMITRI FEDOROV, ALEX FINDLATER, GRAHAM FLETCHER, MARK FREITAG,
     KURT GLAESEMANN, ANASTASIA GUININA,
     DAN KEMP, GRANT MERRILL, NORIYUKI MINEZAWA, JONATHAN MULLIN,
     TAKESHI NAGATA, SEAN NEDD, HEATHER NETZLOFF, BOSILJKA NJEGIC, RYAN OLSON,
     MIKE PAK, BUU PHAM,
     SPENCER PRUITT, LUKE ROSKOP, JIM SHOEMAKER, LYUDMILA SLIPCHENKO,
     TONY SMITH, SAROM SOK LEANG, JIE SONG, TETSUYA TAKETSUGU, SIMON WEBB,
     PENG XU, SOOHAENG YOO, FEDERICO ZAHARIEV

  ADDITIONAL CODE HAS BEEN PROVIDED BY COLLABORATORS IN OTHER GROUPS:
     IOWA STATE UNIVERSITY:
          JOE IVANIC, AARON WEST, LAIMUTIS BYTAUTAS, KLAUS RUEDENBERG
     UNIVERSITY OF TOKYO: KIMIHIKO HIRAO, TAKAHITO NAKAJIMA,
          TAKAO TSUNEDA, MUNEAKI KAMIYA, SUSUMU YANAGISAWA,
          KIYOSHI YAGI, MAHITO CHIBA, SEIKEN TOKURA, NAOAKI KAWAKAMI
     UNIVERSITY OF AARHUS: FRANK JENSEN
     UNIVERSITY OF IOWA: VISVALDAS KAIRYS, HUI LI
     NATIONAL INST. OF STANDARDS AND TECHNOLOGY: WALT STEVENS, DAVID GARMER
     UNIVERSITY OF PISA: BENEDETTA MENNUCCI, JACOPO TOMASI
     UNIVERSITY OF MEMPHIS: HENRY KURTZ, PRAKASHAN KORAMBATH
     UNIVERSITY OF ALBERTA: TOBY ZENG, MARIUSZ KLOBUKOWSKI
     UNIVERSITY OF NEW ENGLAND: MARK SPACKMAN
     MIE UNIVERSITY: HIROAKI UMEDA
     NAT. INST. OF ADVANCED INDUSTRIAL SCIENCE AND TECHNOLOGY: KAZUO KITAURA
     MICHIGAN STATE UNIVERSITY:
          KAROL KOWALSKI, MARTA WLOCH, JEFFREY GOUR, JESSE LUTZ,
          WEI LI, JUN SHEN, J. EMILIANO DEUSTUA, PIOTR PIECUCH
     UNIVERSITY OF MINNESOTA:
          YINAN SHU
     UNIVERSITY OF SILESIA: MONIKA MUSIAL, STANISLAW KUCHARSKI
     FACULTES UNIVERSITAIRES NOTRE-DAME DE LA PAIX:
          OLIVIER QUINET, BENOIT CHAMPAGNE
     UNIVERSITY OF CALIFORNIA - SANTA BARBARA: BERNARD KIRTMAN
     INSTITUTE FOR MOLECULAR SCIENCE:
          KAZUYA ISHIMURA, MICHIO KATOUDA, AND SHIGERU NAGASE
     UNIVERSITY OF NOTRE DAME: ANNA POMOGAEVA, DAN CHIPMAN
     KYUSHU UNIVERSITY:
          HARUYUKI NAKANO,
          FENG LONG GU, JACEK KORCHOWIEC, MARCIN MAKOWSKI, AND YURIKO AOKI,
          HIROTOSHI MORI AND EISAKU MIYOSHI
     PENNSYLVANIA STATE UNIVERSITY:
          TZVETELIN IORDANOV, CHET SWALINA, JONATHAN SKONE,
          SHARON HAMMES-SCHIFFER
     WASEDA UNIVERSITY:
          MASATO KOBAYASHI, TOMOKO AKAMA, TSUGUKI TOUMA,
          TAKESHI YOSHIKAWA, YASUHIRO IKABATA, JUNJI SEINO,
          YUYA NAKAJIMA, HIROMI NAKAI
     NANJING UNIVERSITY: SHUHUA LI
     UNIVERSITY OF NEBRASKA:
          PEIFENG SU, DEJUN SI, NANDUN THELLAMUREGE, YALI WANG, HUI LI
     UNIVERSITY OF ZURICH: ROBERTO PEVERATI, KIM BALDRIDGE
     N. COPERNICUS UNIVERSITY AND JACKSON STATE UNIVERSITY:
          MARIA BARYSZ
     UNIVERSITY OF COPENHAGEN: Jimmy Kromann, CASPER STEINMANN
     TOKYO INSTITUTE OF TECHNOLOGY: HIROYA NAKATA
     NAGOYA UNIVERSITY: YOSHIO NISHIMOTO, STEPHAN IRLE
     MOSCOW STATE UNIVERSITY: VLADIMIR MIRONOV

 EXECUTION OF GAMESS BEGUN Wed Nov 16 18:48:49 2022

            ECHO OF THE FIRST FEW INPUT CARDS -
 INPUT CARD> $system kdiag=3 mwords=100 memddi=1000 parall=.t. $end                         
 INPUT CARD> $contrl runtyp=energy ispher=1 $end                                            
 INPUT CARD> $contrl icut=9 itol=20 inttyp=rysquad qmttol=1.0d-05 nosym=1 $end              
 INPUT CARD> $scf    npunch=2 conv=1.0d-06 dirscf=.t.      $end                             
 INPUT CARD> $contrl scftyp=mcscf  mult=2 maxit=200 icharg=1 mplevl=2 $end                  
 INPUT CARD> $guess  guess=moread norb=29 purify=.t. $end                                   
 INPUT CARD> $basis  gbasis=ccd $end                                                        
 INPUT CARD> $mcscf  cistep=gmcci fullnr=.t. finci=mos                                      
 INPUT CARD>         acurcy=1.d-6 maxit=100 $end                                            
 INPUT CARD> $trans  dirtrf=.t. $end                                                        
 INPUT CARD> $mrmp   mrpt=gmcpt rdvecs=.f. $end                                             
 INPUT CARD> $gmcpt  nmofzc=0 nmodoc=1 nmoact=7 nelact=7 stsym(1)=A                         
 INPUT CARD>         reftyp=ormas nspace=1 mstart(1)=2 mine(1)=7 maxe(1)=7                  
 INPUT CARD>         kstate(1)=1,1,1                                                        
 INPUT CARD>         wstate(1)=1,1,1                                                        
 INPUT CARD>         iwgt=0 thrwgt=-1.0 krot=.f. kszdoe=.f. knospn=.f.                      
 INPUT CARD>         thrde=-1.0 edshft=0.02 $end                                            
 INPUT CARD> $data                                                                          
 INPUT CARD> NH3+ 3 states calculation at NH3 structure.                                    
 INPUT CARD> c1                                                                             
 INPUT CARD>N 7.0 -0.049831344 0.031144515 -0.1693811162                                    
 INPUT CARD>H 1.0 -0.249083935 1.0777282998 0.036569042100000004                            
 INPUT CARD>H 1.0 0.13304263400000005 -1.1456131418000002 0.2651764011                      
 INPUT CARD>H 1.0 0.808461204 -0.364878704 0.46764185710000006                              
 INPUT CARD>$end                                                                            
 INPUT CARD>--- OPTIMIZED RHF      MO-S --- GENERATED AT Mon Nov 14 16:47:08 2022           
 INPUT CARD>E=      -56.3825050291, E(NUC)=   11.8429239490                                 
 INPUT CARD> $VEC                                                                           
 INPUT CARD> 1  1-1.00134066E+00-2.25158504E-03 3.44925845E-03 0.00000000E+00 0.00000000E+00
 INPUT CARD> 1  2-2.13170927E-03 0.00000000E+00 0.00000000E+00 6.57129898E-04-6.87950443E-05
 INPUT CARD> 1  3-6.87950443E-05 1.37590089E-04 0.00000000E+00 0.00000000E+00 0.00000000E+00
 INPUT CARD> 1  4 3.25502815E-04-4.84772356E-04 3.62525460E-04-6.27912517E-04-3.45956485E-04
 INPUT CARD> 1  5 3.25502815E-04-4.84772356E-04 3.62525460E-04 6.27912517E-04-3.45956485E-04
 INPUT CARD> 1  6 3.25502815E-04-4.84772356E-04-7.25050921E-04 0.00000000E+00-3.45956485E-04
 INPUT CARD> 2  1 1.31286642E-02-4.05911371E-01-2.82090992E-01 0.00000000E+00 0.00000000E+00
 INPUT CARD> 2  2-7.71489043E-02 0.00000000E+00 0.00000000E+00 9.73717494E-03 6.62450916E-04
 INPUT CARD> 2  3 6.62450916E-04-1.32490183E-03 0.00000000E+00 0.00000000E+00 0.00000000E+00
 INPUT CARD> 2  4-1.96090317E-01-1.96656153E-02-1.74855877E-02 3.02859263E-02 8.68214399E-03
 INPUT CARD> 2  5-1.96090317E-01-1.96656153E-02-1.74855877E-02-3.02859263E-02 8.68214399E-03
 INPUT CARD> 2  6-1.96090317E-01-1.96656153E-02 3.49711754E-02 0.00000000E+00 8.68214399E-03
 INPUT CARD> 3  1 0.00000000E+00 0.00000000E+00 0.00000000E+00 4.48608762E-01 0.00000000E+00
 INPUT CARD> 3  2 0.00000000E+00 2.18692520E-01 0.00000000E+00 0.00000000E+00 1.30198027E-02
 INPUT CARD> 3  3-1.30198027E-02 0.00000000E+00 0.00000000E+00 2.71832968E-02 0.00000000E+00
 INPUT CARD> 3  4-1.85332726E-01-7.03958951E-02 8.47929477E-03 1.95242443E-02 8.32835058E-03
 INPUT CARD> 3  5-1.85332726E-01-7.03958951E-02 8.47929477E-03-1.95242443E-02 8.32835058E-03
 INPUT CARD> 3  6 3.70665453E-01 1.40791790E-01-2.53376884E-02 0.00000000E+00-1.66567012E-02
 INPUT CARD> 4  1 0.00000000E+00 0.00000000E+00 0.00000000E+00 0.00000000E+00 4.48608762E-01
 INPUT CARD> 4  2 0.00000000E+00 0.00000000E+00 2.18692520E-01 0.00000000E+00 0.00000000E+00
 INPUT CARD> 4  3 0.00000000E+00 0.00000000E+00-1.50339731E-02 0.00000000E+00 2.71832968E-02
 INPUT CARD> 4  4 3.21005698E-01 1.21929267E-01 1.95242443E-02-1.40653607E-02-1.44251263E-02
  100000000 WORDS OF MEMORY AVAILABLE

     BASIS OPTIONS
     -------------
     GBASIS=CCD          IGAUSS=       0      POLAR=NONE    
     NDFUNC=       0     NFFUNC=       0     DIFFSP=       F
     NPFUNC=       0      DIFFS=       F     BASNAM=        


     RUN TITLE
     ---------
  NH3+ 3 states calculation at NH3 structure.                                    

 THE POINT GROUP OF THE MOLECULE IS C1      
 THE ORDER OF THE PRINCIPAL AXIS IS     0

 ATOM      ATOMIC                      COORDINATES (BOHR)
           CHARGE         X                   Y                   Z
 N           7.0    -0.0941675858        0.0588545994       -0.3200838971
 H           1.0    -0.4707003851        2.0366111758        0.0691054692
 H           1.0     0.2514141229       -2.1648949259        0.5011107365
 H           1.0     1.5277701473       -0.6895207693        0.8837149703

          INTERNUCLEAR DISTANCES (ANGS.)
          ------------------------------

                1 N          2 H          3 H          4 H     

   1 N       0.0000000    1.0851058 *  1.2676915 *  1.1398679 *
   2 H       1.0851058 *  0.0000000    2.2674940 *  1.8399295 *
   3 H       1.2676915 *  2.2674940 *  0.0000000    1.0520118 *
   4 H       1.1398679 *  1.8399295 *  1.0520118 *  0.0000000  

  * ... LESS THAN  3.000


     ATOMIC BASIS SET
     ----------------
 THE CONTRACTED PRIMITIVE FUNCTIONS HAVE BEEN UNNORMALIZED
 THE CONTRACTED BASIS FUNCTIONS ARE NOW NORMALIZED TO UNITY

  SHELL TYPE  PRIMITIVE        EXPONENT          CONTRACTION COEFFICIENT(S)

 N         

      1   S       1          9046.0000000    0.000699617413
      1   S       2          1357.0000000    0.005386054630
      1   S       3           309.3000000    0.027391021189
      1   S       4            87.7300000    0.103150591982
      1   S       5            28.5600000    0.278570663317
      1   S       6            10.2100000    0.448294849454
      1   S       7             3.8380000    0.278085928395
      1   S       8             0.7466000    0.015431561233

      2   S       9          9046.0000000   -0.000304990096
      2   S      10          1357.0000000   -0.002408026379
      2   S      11           309.3000000   -0.011944448725
      2   S      12            87.7300000   -0.048925992909
      2   S      13            28.5600000   -0.134472724725
      2   S      14            10.2100000   -0.315112577700
      2   S      15             3.8380000   -0.242857832550
      2   S      16             0.7466000    1.094382206854

      3   S      17             0.2248000    1.000000000000

      4   P      18            13.5500000    0.058905676772
      4   P      19             2.9170000    0.320461106714
      4   P      20             0.7973000    0.753042061792

      5   P      21             0.2185000    1.000000000000

      6   D      22             0.8170000    1.000000000000

 H         

      7   S      23            13.0100000    0.033498726390
      7   S      24             1.9620000    0.234800801174
      7   S      25             0.4446000    0.813682957883

      8   S      26             0.1220000    1.000000000000

      9   P      27             0.7270000    1.000000000000

 H         

     10   S      28            13.0100000    0.033498726390
     10   S      29             1.9620000    0.234800801174
     10   S      30             0.4446000    0.813682957883

     11   S      31             0.1220000    1.000000000000

     12   P      32             0.7270000    1.000000000000

 H         

     13   S      33            13.0100000    0.033498726390
     13   S      34             1.9620000    0.234800801174
     13   S      35             0.4446000    0.813682957883

     14   S      36             0.1220000    1.000000000000

     15   P      37             0.7270000    1.000000000000

 TOTAL NUMBER OF BASIS SET SHELLS             =   15
 NUMBER OF CARTESIAN GAUSSIAN BASIS FUNCTIONS =   30
 NOTE: THIS RUN WILL RESTRICT THE MO VARIATION SPACE TO SPHERICAL HARMONICS.
 THE NUMBER OF ORBITALS KEPT IN THE VARIATIONAL SPACE WILL BE PRINTED LATER.
 NUMBER OF ELECTRONS                          =    9
 CHARGE OF MOLECULE                           =    1
 SPIN MULTIPLICITY                            =    2
 NUMBER OF OCCUPIED ORBITALS (ALPHA)          =    5
 NUMBER OF OCCUPIED ORBITALS (BETA )          =    4
 TOTAL NUMBER OF ATOMS                        =    4
 THE NUCLEAR REPULSION ENERGY IS       10.6094581628

     $CONTRL OPTIONS
     ---------------
 SCFTYP=MCSCF        RUNTYP=ENERGY       EXETYP=RUN     
 MPLEVL=       2     CITYP =NONE         CCTYP =NONE         VBTYP =NONE    
 DFTTYP=NONE         TDDFT =NONE    
 MULT  =       2     ICHARG=       1     NZVAR =       0     COORD =UNIQUE  
 PP    =NONE         RELWFN=NONE         LOCAL =NONE         NUMGRD=       F
 ISPHER=       1     NOSYM =       1     MAXIT =     200     UNITS =ANGS    
 PLTORB=       F     MOLPLT=       F     AIMPAC=       F     FRIEND=        
 NPRINT=       7     IREST =       0     GEOM  =INPUT   
 NORMF =       0     NORMP =       0     ITOL  =      20     ICUT  =       9
 INTTYP=RYSQUAD      GRDTYP=BEST         QMTTOL= 1.0E-05

     $SYSTEM OPTIONS
     ---------------
  REPLICATED MEMORY=   100000000 WORDS (ON EVERY NODE).
 DISTRIBUTED MEMDDI=        1000 MILLION WORDS IN AGGREGATE,
 MEMDDI DISTRIBUTED OVER   1 PROCESSORS IS  1000000000 WORDS/PROCESSOR.
 TOTAL MEMORY REQUESTED ON EACH PROCESSOR=  1100000000 WORDS.
 TIMLIM=      525600.00 MINUTES, OR     365.0 DAYS.
 PARALL= T  BALTYP=  DLB     KDIAG=    3  COREFL= F
 MXSEQ2=     300 MXSEQ3=     150  mem10=         0

          ----------------
          PROPERTIES INPUT
          ----------------

     MOMENTS            FIELD           POTENTIAL          DENSITY
 IEMOM =       1   IEFLD =       0   IEPOT =       0   IEDEN =       0
 WHERE =COMASS     WHERE =NUCLEI     WHERE =NUCLEI     WHERE =NUCLEI  
 OUTPUT=BOTH       OUTPUT=BOTH       OUTPUT=BOTH       OUTPUT=BOTH    
 IEMINT=       0   IEFINT=       0                     IEDINT=       0
                                                       MORB  =       0

     -------------------------------
     INTEGRAL TRANSFORMATION OPTIONS
     -------------------------------
     NWORD  =            0
     CUTOFF = 1.0E-09     MPTRAN =       0
     DIRTRF =       T     AOINTS =DUP     

          ----------------------
          MCSCF INPUT PARAMETERS
          ----------------------
 CONVERGER SELECTION: FOCAS = F  SOSCF = F  FULLNR = T  QUD = F  JACOBI = F
 SECULAR EQUATION METHOD CISTEP = GMCCI   
 --- GENERAL INPUT OPTIONS:
 MAXIT =     100  MICIT =       1  ACURCY= 1.000E-06
 DAMP  =   0.000  CANONC=       T  ENGTOL= 1.000E-10
 EKT   =       F  NPUNCH=       2  NWORD =         0
 REGENERATE CI AFTER CONVERGENCE = NONE    
 DIABATIZATION AFTER CONVERGENCE =        F
 --- INPUT FOR FULLNR CONVERGER:
 METHOD=DM2       FORS  =       F  DROPC =       T
 LINSER=       F  FCORE =       F  NORB  =      30

          ----------------------
          INTEGRAL INPUT OPTIONS
          ----------------------
 NOPK  =       1 NORDER=       0 SCHWRZ=       T

 ------------------------------------------
 MULTIREFERENCE PERTURBATION THEORY CONTROL
 ------------------------------------------
 MRPT=GMCPT    READ CONVERGED MCSCF VECTORS= F


     ------------------------------------------
     THE POINT GROUP IS C1 , NAXIS= 1, ORDER= 1
     ------------------------------------------

 -- VARIATIONAL SPACE WILL BE RESTRICTED TO PURE SPHERICAL HARMONICS ONLY --
 AFTER EXCLUDING CONTAMINANT COMBINATIONS FROM THE CARTESIAN GAUSSIAN BASIS
 SET, THE NUMBER OF SPHERICAL HARMONICS KEPT IN THE VARIATION SPACE IS   29

     DIMENSIONS OF THE SYMMETRY SUBSPACES ARE
 A   =   29

 ..... DONE SETTING UP THE RUN .....
 CPU     0: STEP CPU TIME=     0.04 TOTAL CPU TIME=          0.0 (      0.0 MIN)
 TOTAL WALL CLOCK TIME=          0.0 SECONDS, CPU UTILIZATION IS   100.00%

          ********************
          1 ELECTRON INTEGRALS
          ********************
 TIME TO DO   DIPOLE INTEGRALS=      0.00
 ...... END OF ONE-ELECTRON INTEGRALS ......
 CPU     0: STEP CPU TIME=     0.00 TOTAL CPU TIME=          0.0 (      0.0 MIN)
 TOTAL WALL CLOCK TIME=          0.1 SECONDS, CPU UTILIZATION IS    80.00%

          -------------
          GUESS OPTIONS
          -------------
          GUESS =MOREAD            NORB  =      29          NORDER=       0
          MIX   =       F          PRTMO =       F          PUNMO =       F
          TOLZ  = 1.0E-08          TOLE  = 1.0E-05
          SYMDEN=       F          PURIFY=       T

 INITIAL GUESS ORBITALS GENERATED BY MOREAD   ROUTINE.

 STATISTICS FOR GENERATION OF SYMMETRY ORBITAL -Q- MATRIX
 NUMBER OF CARTESIAN ATOMIC ORBITALS=         30
 NUMBER OF SPHERICAL CONTAMINANTS DROPPED=     1
 NUMBER OF LINEARLY DEPENDENT MOS DROPPED=     0
 TOTAL NUMBER OF MOS IN VARIATION SPACE=      29
 ORBITAL PURIFICATION WILL OCCUR

 SYMMETRIES FOR INITIAL GUESS ORBITALS FOLLOW.   BOTH SET(S).
     5 ORBITALS ARE OCCUPIED (    1 CORE ORBITALS).
     1=A        2=A        3=A        4=A        5=A        6=A        7=A   
     8=A        9=A       10=A       11=A       12=A       13=A       14=A   
    15=A       16=A       17=A       18=A       19=A       20=A       21=A   
    22=A       23=A       24=A       25=A       26=A       27=A       28=A   
    29=A   
 ...... END OF INITIAL ORBITAL SELECTION ......
 CPU     0: STEP CPU TIME=     0.01 TOTAL CPU TIME=          0.0 (      0.0 MIN)
 TOTAL WALL CLOCK TIME=          0.1 SECONDS, CPU UTILIZATION IS   100.00%

                    ----------------------
                    AO INTEGRAL TECHNOLOGY
                    ----------------------
     S,P,L SHELL ROTATED AXIS INTEGRALS, REPROGRAMMED BY
        KAZUYA ISHIMURA (IMS) AND JOSE SIERRA (SYNSTAR).
     S,P,D,L SHELL ROTATED AXIS INTEGRALS PROGRAMMED BY
        KAZUYA ISHIMURA (INSTITUTE FOR MOLECULAR SCIENCE).
     S,P,D,F,G SHELL TO TOTAL QUARTET ANGULAR MOMENTUM SUM 5,
        ERIC PROGRAM BY GRAHAM FLETCHER (ELORET AND NASA ADVANCED
        SUPERCOMPUTING DIVISION, AMES RESEARCH CENTER).
     S,P,D,F,G,L SHELL GENERAL RYS QUADRATURE PROGRAMMED BY
        MICHEL DUPUIS (PACIFIC NORTHWEST NATIONAL LABORATORY).

          --------------------
          2 ELECTRON INTEGRALS
          --------------------

 DIRECT SCF METHOD SKIPS INTEGRAL STORAGE ON DISK.
 DIRECT TRANSFORMATION SKIPS AO INTEGRAL STORAGE ON DISK.
  ...... END OF TWO-ELECTRON INTEGRALS .....
 STEP CPU TIME =     0.02 TOTAL CPU TIME =          0.1 (      0.0 MIN)
 TOTAL WALL CLOCK TIME=          0.1 SECONDS, CPU UTILIZATION IS   100.00%
 DDI: Creating Array [0] - 900 x 36 = 32400 words.
 DDI: Creating Array [1] - 21 x 288 = 6048 words.
 DDI: Creating Array [2] - 36 x 36 = 1296 words.
 DDI: Creating Array [3] - 465 x 36 = 16740 words.

          -----------------
          MCSCF CALCULATION
          -----------------

 ----- NUCLEAR ENERGY ----- =        10.6094581628

     -------------------------------------------------
     GMC-PT/GMC-QDPT or general MCSCF input parameters
     -------------------------------------------------
 # of frozen core orbs. =         0 ->         0
 # of doubly occ. orbs. =         1
 # of active      orbs. =         7
 # of virtual     orbs. =        21
 # of active electrons  =         7
 # of states in CI      =         3
 Highest state in CI    =         3
 kstate =  1 1 1
 avecoe =  0.333 0.333 0.333
 State symmetry           = A           
 Assigned symmetry number = 1

 <<<Act. MO sym.: 1111111

 <<<Division of 1-ext.:  0
 <<<Division of 2-ext.:  0

 *** Reference space

 Reference type: ORMAS (= Occupation restricted multiple active space)
 # of orbitals          =  7
 # of minimum electrons =  7
 # of maximum electrons =  7
 State symmetry    =    1 (input)
 2*Sz              =    1 (input)
 Spin multiplicity =    2 (input)
 Dimension of reference space =      1225  (from      3432 walks)

 Dimension of reference space =      1225  (from      1225 walks)

 <<<Ionized spaces for Ref-CI:
      0:         1225 /   -1-0:         1960 /  0-1-0:         2891

 EVALUATING EXCHANGE INTEGRALS FOR DIRECT INTEGRAL TRANSFORMATION
 SCHWARZ INEQUALITY OVERHEAD:       465 INTEGRALS, T=        0.01

     --------------------------------------------
     PARTIAL TWO ELECTRON INTEGRAL TRANSFORMATION
     --------------------------------------------

 NUMBER OF CORE MOLECULAR ORBITALS     =    1
 NUMBER OF OCCUPIED MOLECULAR ORBITALS =    8
 TOTAL NUMBER OF MOLECULAR ORBITALS    =   29
 TOTAL NUMBER OF ATOMIC ORBITALS       =   30
 THRESHOLD FOR KEEPING TRANSFORMED 2E- INTEGRALS = 1.000E-09

 -------------------------------     ------------------------------
 DISTRIBUTED DATA TRANSFORMATION     PROGRAM WRITTEN BY G. FLETCHER
 -------------------------------     ------------------------------

 THE DISTRIBUTED MEMORY REQUIRED FOR THIS STEP IS MEMDDI=         1 MWORDS
 CREATING DISTRIBUTED STORAGE FOR [VIR OCC|VIR OCC] INTEGRALS
 CREATING DISTRIBUTED STORAGE FOR [VIR OCC|OCC OCC] INTEGRALS
 CREATING DISTRIBUTED STORAGE FOR [OCC OCC|OCC OCC] INTEGRALS
 CREATING DISTRIBUTED STORAGE FOR [VIR VIR|OCC OCC] INTEGRALS
 FOR    1 PROCESSORS, THE REPLICATED MEMORY NEEDED IS       73700 WORDS.
 SCHWARZ INEQUALITY OVERHEAD:       465 INTEGRALS, T=        0.00

      DIRECT 4-INDEX TRANSFORMATION 
      SCHWARZ INEQUALITY TEST SKIPPED          0 INTEGRAL BLOCKS
 ----- FROZEN CORE ENERGY =       -47.4705513118
 ... END OF INTEGRAL TRANSFORMATION ...
 CPU     0: STEP CPU TIME=     0.21 TOTAL CPU TIME=          0.3 (      0.0 MIN)
 TOTAL WALL CLOCK TIME=          0.3 SECONDS, CPU UTILIZATION IS    96.55%

     --------------------------------     -----------------------------
     MCHF NEWTON-RAPHSON OPTIMIZATION     CODE WRITTEN BY MICHEL DUPUIS
     --------------------------------     -----------------------------
     PARALLEL VERSION WRITTEN BY G. FLETCHER (ELORET)
     NASA ADVANCED SUPERCOMPUTING DIVISION, AMES RESEARCH CENTER

 NUMBER OF INDEPENDENT ORBITAL ROTATION PARAMETERS =   175
 ..... DONE SOLVING NEWTON-RAPHSON EQUATIONS .....
 CPU     0: STEP CPU TIME=     0.93 TOTAL CPU TIME=          1.2 (      0.0 MIN)
 TOTAL WALL CLOCK TIME=          1.2 SECONDS, CPU UTILIZATION IS    99.18%
 ..... DONE WITH NTN-RPH ORBITAL ROTATIONS ..... 
 CPU     0: STEP CPU TIME=     0.00 TOTAL CPU TIME=          1.2 (      0.0 MIN)
 TOTAL WALL CLOCK TIME=          1.2 SECONDS, CPU UTILIZATION IS    99.18%
 MAXIMUM MEMORY USED BY NTN-RPH CODE WAS     57645 WORDS.

 ITER     TOTAL ENERGY      DEL(E)  LAGRANGIAN ASYMMETRY   SQCDF  MICIT   DAMP
   1      -55.515404527 -0.515404527  0.140566    9    3 8.492E-02  1   0.0000
   2      -55.601850869 -0.086446342  0.031033   12    5 3.376E-01  1   0.0000
   3      -55.652161364 -0.050310495  0.024914   10    4 2.359E-01  1   0.0237
   4      -55.671737378 -0.019576014  0.008344   13    3 4.855E-02  1   0.0058
   5      -55.674656405 -0.002919027  0.001694   13    3 1.489E-03  1   0.0000
   6      -55.674776418 -0.000120013  0.000662   27    6 1.526E-04  1   0.0000
   7      -55.674794436 -0.000018018  0.000330   27    6 3.165E-05  1   0.0000
   8      -55.674798479 -0.000004042  0.000162   27    6 7.227E-06  1   0.0000
   9      -55.674799424 -0.000000945  0.000079   27    6 1.682E-06  1   0.0000
  10      -55.674799646 -0.000000223  0.000039   27    6 3.939E-07  1   0.0000
  11      -55.674799699 -0.000000053  0.000019   27    6 9.249E-08  1   0.0000
  12      -55.674799711 -0.000000012  0.000009   27    6 2.182E-08  1   0.0000
  13      -55.674799714 -0.000000003  0.000005   27    6 4.982E-09  1   0.0000
  14      -55.674799715 -0.000000001  0.000003   24    3 1.323E-09  1   0.0000
  15      -55.674799715 -0.000000000  0.000001   27    6 2.914E-10  1   0.0000
  16      -55.674799715 -0.000000000  0.000001   27    6 6.581E-11  1   0.0000

          --------------------
          LAGRANGIAN CONVERGED
          --------------------

 FINAL MCSCF ENERGY IS      -55.6747997153 AFTER  16 ITERATIONS

 -MCCI- BASED ON OPTIMIZED ORBITALS
 ----------------------------------

 PLEASE NOTE: IF THE ACTIVE ORBITALS ARE CANONICALIZED BELOW,
 THE FOLLOWING CI EXPANSION COEFFICIENTS AND THE DENSITY DO NOT
 CORRESPOND TO THE PRINTED ORBITALS.  THE PRINTED EXPANSIONS MATCH
 THE ORBITALS USED DURING THE LAST ITERATION.  IF YOU WISH TO SEE
 CI EXPANSIONS BASED ON THE CANONICAL (OR NATURAL) ORBITALS, YOU
 MUST RUN A CI CALCULATION WITH THAT ORBITAL CHOICE READ IN $VEC.

 Averaged energy =     -55.674799715

 State #    1  Energy =     -55.791289725  S =  0.500

      Det      Coef    Occupancy (Ignoring core)
      ---      ----    --------- --------- -----
        1   -0.832318  11110001110000
        4    0.062696  10111001110000
        5    0.070033  01111001110000
        6   -0.051424  11100101110000
        8    0.160820  10110101110000
       17    0.112493  11010011110000
       36   -0.086276  11110001101000
       71    0.411493  11110001011000
       76    0.064608  11100101011000
       78   -0.077539  10110101011000
      176   -0.054334  11110001010100
      386   -0.096212  11110001010010
      393   -0.062298  10110101010010
      701   -0.090622  11110001100001

 State #    2  Energy =     -55.699808224  S =  0.500

      Det      Coef    Occupancy (Ignoring core)
      ---      ----    --------- --------- -----
        1    0.389767  11110001110000
        8   -0.063151  10110101110000
       17   -0.055418  11010011110000
       36   -0.468348  11110001101000
       39    0.052301  10111001101000
       43    0.079308  10110101101000
       52    0.050029  11010011101000
       71    0.705556  11110001011000
       74   -0.104544  10111001011000
       75   -0.057560  01111001011000
       76    0.052123  11100101011000
       78   -0.119302  10110101011000
       87   -0.083414  11010011011000
      246   -0.058881  11110001001100
      386    0.115275  11110001010010
      456   -0.051003  11110001001010
      806   -0.051220  11110001001001

 State #    3  Energy =     -55.533301196  S =  0.500

      Det      Coef    Occupancy (Ignoring core)
      ---      ----    --------- --------- -----
        1   -0.052798  11110001110000
        2    0.451151  11101001110000
        3    0.102905  11011001110000
        4   -0.297998  10111001110000
        5   -0.056267  01111001110000
        6    0.104228  11100101110000
       11   -0.092725  10101101110000
       16   -0.187065  11100011110000
       18    0.117825  10110011110000
       20   -0.072073  11001011110000
       36   -0.073694  11110001101000
       37    0.228375  11101001101000
       39   -0.079907  10111001101000
       41    0.060595  11100101101000
       51   -0.134921  11100011101000
       72   -0.468454  11101001011000
       74    0.192322  10111001011000
       76   -0.130620  11100101011000
       81    0.090859  10101101011000
       86    0.195678  11100011011000
       88   -0.070584  10110011011000
       90    0.067065  11001011011000
      107   -0.108742  11101000111000
      141    0.125470  11110001100100
      176   -0.170456  11110001010100
      211   -0.052475  11110000110100
      386   -0.081449  11110001010010
      387    0.077828  11101001010010
      701   -0.091570  11110001100001
      702    0.096459  11101001100001
      704   -0.057653  10111001100001
      736    0.077853  11110001010001
      807    0.094670  11101001001001

 DENSITY MATRIX OVER ACTIVE MO-S

             1           2           3           4           5

    1    1.9641177
    2    0.0584097   1.4848566
    3    0.0298377  -0.2258918   1.8096481
    4   -0.0348078   0.2696959   0.0385381   1.2554539
    5    0.1024472  -0.0657679   0.0354509  -0.0413438   0.3036881
    6    0.0060236  -0.2158238  -0.0265805   0.0247899   0.0758557
    7   -0.0072419  -0.0081496   0.1973124   0.0356761  -0.1162178

             6           7

    6    0.0842677
    7   -0.0348270   0.0979679

 FORMING THE "STANDARD FOCK OPERATOR" IN DIRECT AO INTEGRAL MODE...
 ONLY THE    1 CORE AND   21 VIRTUAL ORBITALS WILL BE CANONICALIZED

          ----------------------
          MCSCF NATURAL ORBITALS
          ----------------------

                      1          2          3          4          5
                  -16.0260     1.9780     1.9592     1.5905     1.0612
                     A          A          A          A          A   
    1  N  1  S    1.000864   0.015206   0.001452  -0.010970  -0.005381
    2  N  1  S   -0.003063   0.449855  -0.009846  -0.178374  -0.083269
    3  N  1  S   -0.007130   0.357797   0.031659  -0.243131  -0.143598
    4  N  1  X    0.000965   0.033706  -0.188346   0.369804  -0.408047
    5  N  1  Y   -0.001652   0.098723   0.395700   0.265751  -0.032820
    6  N  1  Z    0.000633   0.060509  -0.082141   0.335733   0.473071
    7  N  1  X   -0.000047   0.008766  -0.068771   0.205957  -0.267748
    8  N  1  Y   -0.000654   0.035670   0.147691   0.161069  -0.017983
    9  N  1  Z   -0.000486   0.014592  -0.024073   0.197822   0.321568
   10  N  1 XX   -0.000070  -0.003143  -0.004712   0.007013  -0.016557
   11  N  1 YY    0.000271   0.005919   0.007218  -0.011468   0.004709
   12  N  1 ZZ   -0.000201  -0.002776  -0.002506   0.004455   0.011849
   13  N  1 XY   -0.000237  -0.002241   0.006141   0.000608   0.002613
   14  N  1 XZ    0.000265   0.002052  -0.008684   0.018497  -0.008034
   15  N  1 YZ   -0.000050   0.001039   0.013674   0.005751  -0.008053
   16  H  2  S   -0.002962   0.230328   0.275206   0.094894   0.094407
   17  H  2  S    0.000460   0.010685   0.040041   0.011360   0.029124
   18  H  2  X   -0.000164   0.010038   0.002417   0.015568  -0.010491
   19  H  2  Y    0.000916  -0.036135  -0.029316  -0.009223  -0.010963
   20  H  2  Z    0.000229  -0.004149  -0.008717   0.008945   0.012682
   21  H  3  S   -0.000089   0.076460  -0.272170  -0.101305   0.185023
   22  H  3  S    0.000331  -0.007447  -0.046517  -0.069559   0.105503
   23  H  3  X    0.000070  -0.001509  -0.004990   0.012739  -0.011261
   24  H  3  Y   -0.000341   0.014563  -0.033186  -0.009861   0.014168
   25  H  3  Z    0.000187  -0.003730   0.006889   0.013883   0.012678
   26  H  4  S   -0.000755   0.155979  -0.278545   0.267027  -0.032379
   27  H  4  S    0.000446   0.005162  -0.031282   0.103742  -0.027769
   28  H  4  X    0.000623  -0.025418   0.026890  -0.018029  -0.012191
   29  H  4  Y   -0.000275   0.012879   0.007536   0.016941  -0.010290
   30  H  4  Z    0.000437  -0.016071   0.018255  -0.007479   0.024608

                      6          7          8
                    0.3587     0.0289     0.0234
                     A          A          A   
    1  N  1  S   -0.036044  -0.001087   0.152432
    2  N  1  S   -0.294305  -0.039638   0.470616
    3  N  1  S   -0.516948  -0.112718  -0.004475
    4  N  1  X    0.004160  -0.689469   0.024837
    5  N  1  Y    0.266708   0.171667   0.812746
    6  N  1  Z   -0.286737  -0.359210   0.187544
    7  N  1  X    0.001336   0.028622  -0.041868
    8  N  1  Y    0.162518   0.099958   0.017627
    9  N  1  Z   -0.185360   0.026574  -0.039141
   10  N  1 XX   -0.028134   0.014879  -0.004853
   11  N  1 YY    0.046519  -0.039756   0.024807
   12  N  1 ZZ   -0.018385   0.024877  -0.019954
   13  N  1 XY   -0.014597  -0.020507  -0.002631
   14  N  1 XZ    0.005294   0.026031  -0.015677
   15  N  1 YZ   -0.002433  -0.006690  -0.007083
   16  H  2  S    0.273621  -0.218517  -0.769332
   17  H  2  S    0.148200  -0.079090  -0.141700
   18  H  2  X   -0.000284   0.008000  -0.024308
   19  H  2  Y    0.000009   0.011601   0.064591
   20  H  2  Z   -0.015054   0.008219  -0.006774
   21  H  3  S    0.575535  -0.197088   0.275546
   22  H  3  S    0.540199  -0.223725   0.127043
   23  H  3  X    0.021506   0.037567   0.005821
   24  H  3  Y   -0.010614  -0.007234   0.005604
   25  H  3  Z    0.011338   0.026589   0.006980
   26  H  4  S    0.056161   0.788947  -0.168940
   27  H  4  S   -0.000237   0.258163  -0.074394
   28  H  4  X    0.008728  -0.039021   0.013815
   29  H  4  Y   -0.050635   0.008964  -0.036877
   30  H  4  Z    0.012931  -0.014965   0.006634

          ------------------------
          MCSCF OPTIMIZED ORBITALS
          ------------------------

                      1          2          3          4          5
                  -16.0260     0.0000     0.0000     0.0000     0.0000
                     A          A          A          A          A   
    1  N  1  S    1.000864   0.010110   0.004243  -0.012946  -0.014676
    2  N  1  S   -0.003063   0.418373  -0.031716  -0.010464  -0.194322
    3  N  1  S   -0.007130   0.313273  -0.066216   0.037920  -0.262092
    4  N  1  X    0.000965   0.016113   0.454533   0.078749  -0.045476
    5  N  1  Y   -0.001652  -0.001964   0.009781   0.393563   0.034721
    6  N  1  Z    0.000633   0.063674  -0.019809  -0.006641   0.602262
    7  N  1  X   -0.000047  -0.008072   0.314349   0.105057  -0.085112
    8  N  1  Y   -0.000654   0.002373   0.033825   0.204617   0.048328
    9  N  1  Z   -0.000486   0.017526  -0.016863   0.029992   0.376481
   10  N  1 XX   -0.000070  -0.005290   0.020743   0.004830  -0.008627
   11  N  1 YY    0.000271   0.007647  -0.023118  -0.006104  -0.003202
   12  N  1 ZZ   -0.000201  -0.002357   0.002375   0.001275   0.011829
   13  N  1 XY   -0.000237  -0.004324  -0.005775   0.004243   0.003195
   14  N  1 XZ    0.000265   0.002781   0.023182   0.006558   0.004235
   15  N  1 YZ   -0.000050  -0.002880  -0.000057   0.016231  -0.004413
   16  H  2  S   -0.002962   0.194282  -0.227960   0.353639   0.108875
   17  H  2  S    0.000460   0.014420  -0.061325   0.037151   0.029541
   18  H  2  X   -0.000164   0.007902   0.014340   0.016679   0.000021
   19  H  2  Y    0.000916  -0.030017   0.020356  -0.040008  -0.010614
   20  H  2  Z    0.000229  -0.002705   0.005792  -0.004364   0.016640
   21  H  3  S   -0.000089   0.182016  -0.101184  -0.356321   0.118462
   22  H  3  S    0.000331   0.045460  -0.158463  -0.145424   0.051908
   23  H  3  X    0.000070  -0.000547   0.020361   0.004232  -0.003500
   24  H  3  Y   -0.000341   0.021942   0.003049  -0.031673   0.009941
   25  H  3  Z    0.000187  -0.004347   0.001423   0.009008   0.015485
   26  H  4  S   -0.000755   0.200884   0.429208  -0.002266   0.117694
   27  H  4  S    0.000446   0.005464   0.131461   0.051792   0.028942
   28  H  4  X    0.000623  -0.029874  -0.024051   0.006084  -0.020933
   29  H  4  Y   -0.000275   0.006514   0.017036   0.025951   0.001189
   30  H  4  Z    0.000437  -0.016618  -0.030393   0.000615   0.013994

                      6          7          8          9         10
                    0.0000     0.0000     0.0000     0.1647     0.2157
                     A          A          A          A          A   
    1  N  1  S    0.087083  -0.036411   0.124523   0.066275   0.039329
    2  N  1  S    0.474472  -0.121953   0.311409   0.120076   0.046381
    3  N  1  S    0.524515  -0.007202  -0.202216  -0.816890  -0.449999
    4  N  1  X    0.167740   0.748691   0.109837   0.096993  -0.012594
    5  N  1  Y   -0.001201  -0.250110   0.883420  -0.011865   0.195234
    6  N  1  Z    0.414763   0.205967   0.108087   0.114728   0.013390
    7  N  1  X   -0.042133   0.043841  -0.025076  -0.332600   0.224906
    8  N  1  Y   -0.169934  -0.051881   0.095621  -0.072205  -0.779095
    9  N  1  Z    0.139674  -0.084668  -0.100110  -0.221633   0.010074
   10  N  1 XX    0.018057  -0.015658  -0.016267   0.017220   0.040599
   11  N  1 YY   -0.020177   0.040309   0.043914  -0.053949  -0.074819
   12  N  1 ZZ    0.002119  -0.024651  -0.027647   0.036729   0.034220
   13  N  1 XY    0.017866   0.016114  -0.005602   0.066689   0.006769
   14  N  1 XZ   -0.018801  -0.017008  -0.013743  -0.059078   0.028978
   15  N  1 YZ    0.001490   0.008270  -0.005001   0.031461  -0.068030
   16  H  2  S   -0.431640   0.393581  -0.541620  -0.376849  -0.539389
   17  H  2  S   -0.157235   0.128013  -0.060498   0.498812   1.905437
   18  H  2  X   -0.010863  -0.000007  -0.021206   0.039270   0.013674
   19  H  2  Y    0.016469  -0.021152   0.054127  -0.066402  -0.133797
   20  H  2  Z    0.007980  -0.010235  -0.012995   0.029764  -0.052709
   21  H  3  S   -0.351964   0.228702   0.458126  -0.454561   0.218641
   22  H  3  S   -0.368278   0.280031   0.333363   0.093211  -0.494235
   23  H  3  X   -0.028850  -0.028798   0.010827  -0.071726   0.033433
   24  H  3  Y    0.014420   0.001861  -0.001903   0.006022  -0.033614
   25  H  3  Z   -0.015726  -0.024820   0.009690  -0.028144   0.054735
   26  H  4  S   -0.343627  -0.655648  -0.204978  -0.505648   0.222370
   27  H  4  S   -0.105377  -0.213170  -0.085693   1.459796  -0.738538
   28  H  4  X    0.007817   0.034890   0.020196  -0.059778   0.015174
   29  H  4  Y    0.029475  -0.009281  -0.051548   0.100593  -0.015232
   30  H  4  Z   -0.004627   0.010415   0.012733  -0.048920   0.039016

                     11         12         13         14         15
                    0.3010     0.5601     0.5953     0.7135     0.8668
                     A          A          A          A          A   
    1  N  1  S   -0.019932  -0.016680   0.024115   0.020435  -0.601464
    2  N  1  S   -0.041637   0.065238   0.026491   0.061840  -1.345757
    3  N  1  S    0.036166   0.447249  -0.257484   0.060492   2.211789
    4  N  1  X    0.038518  -0.402694  -0.599459  -0.197425   0.010991
    5  N  1  Y   -0.073947  -0.055529   0.017275  -0.483270   0.193021
    6  N  1  Z   -0.021063  -0.513183   0.641616   0.196876   0.133321
    7  N  1  X    0.169103   1.126123   0.902662   0.076962   0.098490
    8  N  1  Y    0.410957  -0.200238  -0.395156   1.669687  -0.273283
    9  N  1  Z    0.113441   0.996495  -0.620123  -0.333175  -0.021299
   10  N  1 XX    0.057835  -0.010765   0.022096  -0.058312  -0.038506
   11  N  1 YY   -0.086615  -0.009813  -0.010745   0.003574  -0.004574
   12  N  1 ZZ    0.028780   0.020578  -0.011351   0.054738   0.043079
   13  N  1 XY   -0.009005   0.046059  -0.007264   0.063935   0.121646
   14  N  1 XZ    0.041280  -0.013158  -0.004435  -0.000869   0.041781
   15  N  1 YZ    0.020907   0.013078   0.032198  -0.124066   0.015756
   16  H  2  S   -0.231255  -0.138429   0.286329  -0.665906  -0.103779
   17  H  2  S    0.192704   0.311573   0.347414  -0.422010  -0.457348
   18  H  2  X   -0.021503   0.089606   0.012541   0.055287   0.164760
   19  H  2  Y    0.013814  -0.005070  -0.094792   0.154509   0.115647
   20  H  2  Z    0.008030   0.064140   0.028831  -0.150550   0.101755
   21  H  3  S   -0.769714  -0.124969  -0.153461   0.494580   0.016666
   22  H  3  S    2.200895   0.418335   0.355658   0.525543  -0.473232
   23  H  3  X    0.049042  -0.074039   0.049494  -0.124496  -0.219594
   24  H  3  Y    0.089537  -0.089449  -0.005014   0.179182  -0.139472
   25  H  3  Z    0.019077   0.020334  -0.131373   0.166765   0.116494
   26  H  4  S    0.530948  -0.658924  -0.098237  -0.005559  -0.035889
   27  H  4  S   -1.928746  -0.810123  -0.410213  -0.062229  -0.279521
   28  H  4  X    0.079824   0.106752   0.081508  -0.221535   0.081918
   29  H  4  Y    0.098623  -0.017984  -0.018661   0.008886   0.168654
   30  H  4  Z    0.034095   0.116074  -0.050132   0.107999   0.252263

                     16         17         18         19         20
                    1.0217     1.1150     1.2336     1.2775     1.4059
                     A          A          A          A          A   
    1  N  1  S   -0.326543  -0.154739   0.170275  -0.188384  -0.269559
    2  N  1  S   -0.684488  -0.304601   0.369352  -0.397460  -0.600333
    3  N  1  S    1.406787   0.675728  -0.614562   0.728734   0.807317
    4  N  1  X   -0.023265   0.013175   0.066837   0.065825  -0.008783
    5  N  1  Y   -0.251251   0.027716  -0.202105   0.041945   0.048008
    6  N  1  Z   -0.034257   0.049594   0.011221  -0.003665  -0.134420
    7  N  1  X   -0.035454   0.294393  -0.571101  -0.249395   0.224253
    8  N  1  Y    1.157698  -0.190540   0.629270  -0.014700   0.079945
    9  N  1  Z    0.329932  -0.131671  -0.318756   0.309097   0.482736
   10  N  1 XX    0.170134  -0.144923  -0.088153   0.078062  -0.179852
   11  N  1 YY   -0.068381  -0.126050   0.048356   0.034601   0.093596
   12  N  1 ZZ   -0.101753   0.270973   0.039796  -0.112663   0.086256
   13  N  1 XY   -0.109129  -0.159550   0.093652   0.119972  -0.139184
   14  N  1 XZ   -0.109560  -0.098198   0.285606  -0.086646  -0.039203
   15  N  1 YZ    0.035874   0.076051   0.222305  -0.092295  -0.035002
   16  H  2  S   -0.738270   0.018751  -0.221013  -0.161969  -0.268652
   17  H  2  S   -0.512220  -0.037652  -0.083098  -0.092105  -0.069626
   18  H  2  X   -0.305989  -0.175666   0.457006   0.634941  -0.128328
   19  H  2  Y    0.016861  -0.080755  -0.025582   0.145912  -0.072501
   20  H  2  Z    0.198954   0.411325   0.402194  -0.128560  -0.472879
   21  H  3  S    0.388524  -0.254010   0.419034  -0.325963  -0.252996
   22  H  3  S    0.067309  -0.015540   0.014920   0.048477   0.177160
   23  H  3  X    0.188806   0.335625   0.305331   0.289741   0.269523
   24  H  3  Y   -0.194813   0.017241  -0.197178   0.175311   0.104661
   25  H  3  Z   -0.187289   0.329156  -0.380970   0.050587  -0.687431
   26  H  4  S   -0.166625  -0.311592   0.323702  -0.159691  -0.296732
   27  H  4  S   -0.205893  -0.108995   0.184039  -0.084886  -0.174286
   28  H  4  X    0.225747  -0.273836  -0.165728   0.176867  -0.230318
   29  H  4  Y   -0.046955  -0.314276   0.179969  -0.486102  -0.021429
   30  H  4  Z   -0.412799   0.277454   0.117731  -0.269936   0.344134

                     21         22         23         24         25
                    1.5835     1.6602     1.8375     1.9451     2.1215
                     A          A          A          A          A   
    1  N  1  S    0.050325   0.129244   0.139245  -0.014223  -0.029837
    2  N  1  S    0.025657   0.376585   0.319368  -0.022018  -0.043090
    3  N  1  S   -0.618493   0.274121   0.070872  -0.020467   0.362439
    4  N  1  X    0.064143   0.295850  -0.074587   0.025072   0.039882
    5  N  1  Y   -0.075313  -0.295270   0.438313  -0.116133   0.080450
    6  N  1  Z   -0.064671   0.252225   0.024639   0.001369   0.024386
    7  N  1  X   -0.109342   0.056813  -0.203837  -0.188095   0.179465
    8  N  1  Y    0.816750   0.154608   0.462503  -0.153261   0.055187
    9  N  1  Z   -0.327203   0.059086  -0.055261   0.187382   0.231256
   10  N  1 XX   -0.169441  -0.047995  -0.092085  -0.639858  -0.488159
   11  N  1 YY    0.161516  -0.002639  -0.154920  -0.142483   0.220548
   12  N  1 ZZ    0.007925   0.050634   0.247004   0.782341   0.267611
   13  N  1 XY   -0.017337   0.113965   0.052897  -0.405398   0.595446
   14  N  1 XZ   -0.026489  -0.307354  -0.136434   0.046353   0.384827
   15  N  1 YZ   -0.079833  -0.012749  -0.317888   0.002393   0.050794
   16  H  2  S   -0.287003  -0.121407  -0.119782   0.042934  -0.126683
   17  H  2  S    0.039828   0.055019  -0.496596   0.069894  -0.037835
   18  H  2  X    0.011061  -0.081909  -0.121935   0.310404  -0.538639
   19  H  2  Y   -0.434499   0.004753   0.924245  -0.077259   0.076192
   20  H  2  Z    0.525409  -0.097623   0.409636  -0.271498  -0.067377
   21  H  3  S    0.178101   0.075878   0.064775  -0.064806   0.193787
   22  H  3  S    0.550867  -0.061424   0.086469  -0.201266   0.240063
   23  H  3  X   -0.519092   0.021857  -0.124748  -0.207438   0.534179
   24  H  3  Y    0.621655  -0.354869   0.081490  -0.303259   0.447545
   25  H  3  Z   -0.300044  -0.102676  -0.464608   0.064102   0.177024
   26  H  4  S    0.364369   0.228143   0.145798   0.124049  -0.450764
   27  H  4  S   -0.179344  -0.442107   0.207596   0.093860  -0.311660
   28  H  4  X    0.154390   0.614006  -0.089088   0.244385   0.584528
   29  H  4  Y   -0.206167  -0.371531  -0.078902  -0.049780   0.242945
   30  H  4  Z   -0.025847   0.602959  -0.089723  -0.463565  -0.159451

                     26         27         28         29
                    2.2696     2.3754     2.6271     2.9985
                     A          A          A          A   
    1  N  1  S    0.128887   0.033747  -0.172562  -0.136698
    2  N  1  S    0.221363   0.115585  -0.209434  -0.162336
    3  N  1  S   -0.685738   0.640298   1.677436   1.422001
    4  N  1  X    0.015789   0.018443   0.228439  -0.175665
    5  N  1  Y    0.060279   0.273700  -0.069834   0.267522
    6  N  1  Z   -0.007101   0.113239   0.219721   0.054222
    7  N  1  X   -0.418198   0.005419   0.706008  -0.222599
    8  N  1  Y   -0.106504   1.022039  -0.589789   0.476570
    9  N  1  Z   -0.338829   0.153826   0.542936   0.121926
   10  N  1 XX   -0.065443   0.106248   0.188283  -0.803953
   11  N  1 YY    0.093115   0.014282   0.079891   1.438362
   12  N  1 ZZ   -0.027672  -0.120531  -0.268174  -0.634409
   13  N  1 XY   -0.315638  -0.440784  -0.664791  -0.223070
   14  N  1 XZ   -0.543440   0.134460   0.854389  -0.218969
   15  N  1 YZ   -0.185284   0.907253  -0.654267   0.063375
   16  H  2  S    0.116272  -0.820249  -0.111203  -1.185596
   17  H  2  S    0.093693  -0.409700   0.044746  -0.364591
   18  H  2  X    0.360410  -0.033125   0.016352  -0.230129
   19  H  2  Y    0.004940   0.850015   0.130353   0.965100
   20  H  2  Z    0.177001  -0.176297   0.196649   0.317883
   21  H  3  S    0.574933   0.490827  -0.313164  -0.646366
   22  H  3  S    0.194470   0.402455  -0.056975  -0.159207
   23  H  3  X    0.667526  -0.147788   0.204451  -0.033421
   24  H  3  Y    0.593997   0.678131  -0.172990  -0.792816
   25  H  3  Z    0.225372  -0.025169   0.193134   0.296937
   26  H  4  S   -0.079587  -0.307805  -1.213854   0.480034
   27  H  4  S   -0.057767  -0.253388  -0.532145   0.071370
   28  H  4  X    0.381906   0.368758   0.888569  -0.421152
   29  H  4  Y    1.128948  -0.093303  -0.233772  -0.042276
   30  H  4  Z    0.114046   0.221312   0.652845  -0.266374
 .....DONE WITH MCSCF ITERATIONS.....
 CPU     0: STEP CPU TIME=    10.97 TOTAL CPU TIME=         12.2 (      0.2 MIN)
 TOTAL WALL CLOCK TIME=         12.2 SECONDS, CPU UTILIZATION IS    99.84%

     ----------------------------------------------------------------
     PROPERTY VALUES FOR THE MCSCF SELF-CONSISTENT FIELD WAVEFUNCTION
     ----------------------------------------------------------------

          -----------------
          ENERGY COMPONENTS
          -----------------

         WAVEFUNCTION NORMALIZATION =       1.0000000000

                ONE ELECTRON ENERGY =     -92.6409967933
                TWO ELECTRON ENERGY =      26.3567389153
           NUCLEAR REPULSION ENERGY =      10.6094581628
                                      ------------------
                       TOTAL ENERGY =     -55.6747997153

 ELECTRON-ELECTRON POTENTIAL ENERGY =      26.3567389153
  NUCLEUS-ELECTRON POTENTIAL ENERGY =    -148.2882690513
   NUCLEUS-NUCLEUS POTENTIAL ENERGY =      10.6094581628
                                      ------------------
             TOTAL POTENTIAL ENERGY =    -111.3220719732
               TOTAL KINETIC ENERGY =      55.6472722580
                 VIRIAL RATIO (V/T) =       2.0004946776

          ---------------------------------------
          MULLIKEN AND LOWDIN POPULATION ANALYSES
          ---------------------------------------

     ATOMIC MULLIKEN POPULATION IN EACH MOLECULAR ORBITAL

                      1          2          3          4          5

                  2.000000   1.978050   1.959154   1.590528   1.061242

    1             2.000400   1.457707   0.944942   1.325003   0.958402
    2            -0.000313   0.303768   0.298710   0.027712   0.020181
    3             0.000008   0.047129   0.371852   0.052431   0.073222
    4            -0.000095   0.169446   0.343650   0.185382   0.009437

                      6          7          8

                  0.358714   0.028905   0.023407

    1             0.090271   0.013201   0.012002
    2             0.039563   0.001022   0.009471
    3             0.219448   0.001243   0.001335
    4             0.009431   0.013438   0.000599
 WARNING! MCSCF POPULATIONS SHOWN ABOVE ARE FOR THE NATURAL ORBITALS.
 IGNORE THE ABOVE DATA FOR MCSCF FUNCTIONS WHICH ARE NOT OF -FORS- TYPE.
 THE FOLLOWING POPULATIONS ARE CORRECT FOR ANY MCSCF WAVEFUNCTION.

               ----- POPULATIONS IN EACH AO -----
                             MULLIKEN      LOWDIN
              1  N  1  S      2.00196     1.90770
              2  N  1  S      0.86065     0.61772
              3  N  1  S      0.71994     0.42964
              4  N  1  X      0.69446     0.64225
              5  N  1  Y      0.75103     0.65680
              6  N  1  Z      0.66803     0.62794
              7  N  1  X      0.37220     0.42902
              8  N  1  Y      0.33173     0.45755
              9  N  1  Z      0.38500     0.42269
             10  N  1 XX      0.00100     0.16182
             11  N  1 YY      0.00697     0.19233
             12  N  1 ZZ      0.00119     0.15658
             13  N  1 XY      0.00426     0.00404
             14  N  1 XZ      0.00351     0.00819
             15  N  1 YZ      0.00000     0.00759
             16  H  2  S      0.60101     0.48081
             17  H  2  S      0.04876     0.17176
             18  H  2  X      0.00779     0.01993
             19  H  2  Y      0.03573     0.06877
             20  H  2  Z      0.00682     0.01900
             21  H  3  S      0.55668     0.42942
             22  H  3  S      0.16788     0.21963
             23  H  3  X      0.00764     0.02637
             24  H  3  Y      0.02728     0.06482
             25  H  3  Z      0.00718     0.01858
             26  H  4  S      0.61362     0.46330
             27  H  4  S      0.05633     0.16466
             28  H  4  X      0.02620     0.04710
             29  H  4  Y      0.01864     0.05176
             30  H  4  Z      0.01649     0.03224

          ----- MULLIKEN ATOMIC OVERLAP POPULATIONS -----
          (OFF-DIAGONAL ELEMENTS NEED TO BE MULTIPLIED BY 2)

             1           2           3           4

    1    6.2748253
    2    0.2887866   0.4048218
    3    0.0094917   0.0115813   0.6975172
    4    0.2288254  -0.0050741   0.0480771   0.4594598

          TOTAL MULLIKEN AND LOWDIN ATOMIC POPULATIONS
       ATOM         MULL.POP.    CHARGE          LOW.POP.     CHARGE
    1 N             6.801929    0.198071         6.721860    0.278140
    2 H             0.700116    0.299884         0.760262    0.239738
    3 H             0.766667    0.233333         0.758822    0.241178
    4 H             0.731288    0.268712         0.759055    0.240945

          MULLIKEN SPHERICAL HARMONIC POPULATIONS
       ATOM           S       P       D      F      G      H      I    TOTAL
    1 N             3.58    3.20    0.02   0.00   0.00   0.00   0.00    6.80
    2 H             0.65    0.05    0.00   0.00   0.00   0.00   0.00    0.70
    3 H             0.72    0.04    0.00   0.00   0.00   0.00   0.00    0.77
    4 H             0.67    0.06    0.00   0.00   0.00   0.00   0.00    0.73

          ---------------------
          ELECTROSTATIC MOMENTS
          ---------------------

 POINT   1           X           Y           Z (BOHR)    CHARGE
                 0.000005   -0.000003   -0.177185        1.00 (A.U.)
         DX          DY          DZ         /D/  (DEBYE)
     1.091582   -0.046324    1.634679    1.966182
 ...... END OF PROPERTY EVALUATION ......
 CPU     0: STEP CPU TIME=     0.01 TOTAL CPU TIME=         12.2 (      0.2 MIN)
 TOTAL WALL CLOCK TIME=         12.2 SECONDS, CPU UTILIZATION IS    99.92%

     -------------------------------------------------
     GMC-PT/GMC-QDPT or general MCSCF input parameters
     -------------------------------------------------
 # of frozen core orbs. =         0 ->         0
 # of doubly occ. orbs. =         1
 # of active      orbs. =         7
 # of virtual     orbs. =        21
 # of active electrons  =         7
 # of states in CI      =         3
 Highest state in CI    =         3
 kstate =  1 1 1
 avecoe =  0.333 0.333 0.333
 State symmetry           = A           
 Assigned symmetry number = 1

 <<<Act. MO sym.: 1111111

 <<<Division of 1-ext.:  0
 <<<Division of 2-ext.:  0

     ------------------------
     Orbital canonicalization
     ------------------------

 MOs are canonicalized for core, virtual, and invariant-active orbital spaces.
 This is a part of the GMC-QDPT calculation.
 SCHWARZ INEQUALITY OVERHEAD:       465 INTEGRALS, T=        0.00
 DIRECT TRANSFORMATION SKIPS AO INTEGRAL STORAGE ON DISK.

 Averaged energy =     -55.674799715

 State #    1  Energy =     -55.791289725  S =  0.500
 State #    2  Energy =     -55.699808224  S =  0.500
 State #    3  Energy =     -55.533301196  S =  0.500

 Orbital energies for filled orbital space
  -16.026039
 Orbital energies for active orbital space
   -1.488748  -0.782675  -1.068258  -0.588254  -0.213461
    0.201179   0.343471
 Orbital energies for external orbital space
    0.164709   0.215674   0.300967   0.560078   0.595271
    0.713538   0.866803   1.021702   1.115049   1.233592
    1.277503   1.405868   1.583494   1.660236   1.837491
    1.945057   2.121495   2.269564   2.375420   2.627134
    2.998492

 Zero values mean non-canonical orbitals.
 ... done with orbital canonicalization ...
 CPU     0: STEP CPU TIME=     0.60 TOTAL CPU TIME=         12.8 (      0.2 MIN)
 TOTAL WALL CLOCK TIME=         12.8 SECONDS, CPU UTILIZATION IS    99.92%

     --------------------------------------------
     PARTIAL TWO ELECTRON INTEGRAL TRANSFORMATION
     --------------------------------------------

 NUMBER OF CORE MOLECULAR ORBITALS     =    0
 NUMBER OF OCCUPIED MOLECULAR ORBITALS =    8
 TOTAL NUMBER OF MOLECULAR ORBITALS    =   29
 TOTAL NUMBER OF ATOMIC ORBITALS       =   30
 THRESHOLD FOR KEEPING TRANSFORMED 2E- INTEGRALS = 1.000E-09
 AO INTEGRALS WILL BE CALCULATED IN DIRECT MODE...
 DIRECT TRANSFORMATION SKIPS AO INTEGRAL STORAGE ON DISK.
 SCHWARZ INEQUALITY OVERHEAD:       465 INTEGRALS, T=        0.00

 PLAN A: REQUIREMENTS FOR FULLY IN-MEMORY TRANSFORMATION:
 # OF WORDS AVAILABLE =            100000000
 # OF WORDS NEEDED    =               221798

 PARALLEL ONLY WORKS WITH THE SEGMENTED ALGORITHM.
 ADJUSTING MEMORY TO USE SEGMENTED ALGORITHM.


 PLAN B: REQUIREMENTS FOR THE SEGMENTED TRANSFORMATION:
       MINIMUM=         124148 WORDS FOR 1 MOLECULAR ORBITAL PER PASS
       MAXIMUM=         221798 WORDS FOR ALL MOLECULAR ORBITALS IN 1 PASS
              (          13950 EXTRA WORDS INCLUDES 1 EXTRA ORBITAL/PASS)
 THIS RUN USES=         221798 WORDS,
 DISTRIBUTING   1 PASSES EACH CONTAINING     8 ORBITALS OVER   1 PROCESSORS.

 CHOOSING SEGMENTED PARTIAL TRANSFORMATION...
 DIRECT TRANSFORMATION SKIPS AO INTEGRAL STORAGE ON DISK.
 PASS #   1 TOOK        0.05 SECONDS.
 TOTAL NUMBER OF TRANSFORMED 2E- INTEGRALS KEPT =        29226
 ... END OF INTEGRAL TRANSFORMATION ...
 CPU     0: STEP CPU TIME=     0.05 TOTAL CPU TIME=         12.8 (      0.2 MIN)
 TOTAL WALL CLOCK TIME=         12.8 SECONDS, CPU UTILIZATION IS    99.92%

     --------     ------------------------------------------
     GMC-QDPT     Program written by H.Nakano (Kyushu Univ.)
     --------     ------------------------------------------

 *** Reference space

 Reference type: ORMAS (= Occupation restricted multiple active space)
 # of orbitals          =  7
 # of minimum electrons =  7
 # of maximum electrons =  7
 State symmetry    =    1 (input)
 2*Sz              =    1 (input)
 Spin multiplicity =    2 (input)
 Dimension of reference space =      1225  (from      3432 walks)

 Dimension of reference space =      1225  (from      1225 walks)

 <<<Ionized spaces for Ref-CI:
      0:         1225 /   -1-0:         1960 /  0-1-0:         2891

 ***                    ***
 *** Reference space CI ***
 ***                    ***

 Converged after   27 iterations

 Reference wavefunctions:

 State #    1  Energy =     -55.791289725  S =  0.500

      Det      Coef    Occupancy (Ignoring core)
      ---      ----    --------- --------- -----
        1    0.956165  11110001110000
       71    0.173046  11110001011000
      106    0.050319  11110000111000
      143    0.056884  11011001100100
      393    0.073141  10110101010010

 State #    2  Energy =     -55.699808224  S =  0.500

      Det      Coef    Occupancy (Ignoring core)
      ---      ----    --------- --------- -----
        1    0.176228  11110001110000
       71   -0.958433  11110001011000
      177    0.059782  11101001010100
      248    0.059959  11011001001100

 State #    3  Energy =     -55.533301196  S =  0.500

      Det      Coef    Occupancy (Ignoring core)
      ---      ----    --------- --------- -----
        1   -0.059407  11110001110000
        2    0.888831  11101001110000
        4    0.133578  10111001110000
       11   -0.055190  10101101110000
       36   -0.058938  11110001101000
       72   -0.136605  11101001011000
       74   -0.147479  10111001011000
      107   -0.063066  11101000111000
      110   -0.059745  01111000111000
      142   -0.077261  11101001100100
      176   -0.270183  11110001010100
      211   -0.058820  11110000110100
      396    0.054161  10101101010010
      720    0.050683  11001011100001

 Davidson method: CPU/Wall time =           0.40 /           0.39 sec.

 Oscillator strength (invalid if E(1)/=E(GS)):
 -----------------------------------------
   State                        f
 -----------------------------------------
     2     F(REF-CI)=        0.0023478706
     3     F(REF-CI)=        0.0019703990
 -----------------------------------------

 Dipole moment matrix elements, x, y, z, in A.U.

 Dimension of ionized spaces for PT:
 (N-2) space:         1715 /  (N-1) space:         2842 /  N space:         2891
 (N+1) space:         2842 /  (N+2) space:         1715

 <<<Ionized spaces for internal:
         0:         1225 /      -1-0:         1960 /     0-1-0:         2891
  -1-0-1-0:         2842 / 0-1-0-1-0:         3381

 Diagonal elements of averaged one-particle density matrix:
       2       3       4       5       6       7       8
  0.9921  0.9724  0.9837  0.7084  0.3137  0.0171  0.0126
  0.9839  0.6188  0.9762  0.3526  0.0448  0.0123  0.0114

 Orbital energies:
 -------- Doubly-occupied orbitals (highest several orbs.) -------
             1
 -1.602604D+01
 -------- Active orbitals ----------------------------------------
             2            3            4            5            6
 -1.488748D+00-7.826746D-01-1.068258D+00-5.882542D-01-2.134607D-01
             7            8
  2.011786D-01 3.434714D-01
 -------- External orbitals (lowest several orbs.) ---------------
             9           10           11           12           13
  1.647091D-01 2.156742D-01 3.009670D-01 5.600781D-01 5.952709D-01
            14           15           16           17           18
  7.135375D-01 8.668025D-01 1.021702D+00 1.115049D+00 1.233592D+00

 *** Quasi-degeneracy checking

 === Det (|Ci| > 1.0D-01 and dE < 5.0D-03)

 # of small denominators (single excitations)
 State       dEmin  dE < 5.0D-03  dE < 5.0D-04  dE < 5.0D-05  dE < 5.0D-06
 ----- ----------- ------------- ------------- ------------- -------------
     1    5.00D-03             0             0             0             0
     2    5.00D-03             0             0             0             0
     3    5.00D-03             0             0             0             0

 # of small denominators (double excitations)
 State       dEmin  dE < 5.0D-03  dE < 5.0D-04  dE < 5.0D-05  dE < 5.0D-06
 ----- ----------- ------------- ------------- ------------- -------------
     1    5.00D-03             0             0             0             0
     2    5.00D-03             0             0             0             0
     3    5.00D-03             0             0             0             0

 *** Zeroth-Order Setup (Granovsky's zeroth-order vectors)
 Zeroth-order effective Hamiltonian
  (= Sum_i e(i)*<I|a+(i)a(i)|J> ):
                   1            2            3
     1 -7.155918D+00
     2 -3.730800D-02-6.991314D+00
     3  3.030911D-02 4.181686D-04-6.754484D+00

 Zeroth-order vectors:
 State #    1
       MC st            1           2           3
       Coeff   -9.754D-01  -2.083D-01   7.203D-02
 State #    2
       MC st            2           1           3
       Coeff   -9.780D-01   2.070D-01  -2.562D-02
 State #    3
       MC st            3           1           2
       Coeff    9.971D-01   7.578D-02  -1.008D-02

 *** GMC-QDPT computation

 (Integral reading:  CPU/Wall time =           0.00 /           0.00 sec.)

 One-external:
   0 -ionized terms: CPU/Wall time =           0.03 /           0.03 sec.
 (-1)-ionized terms: CPU/Wall time =           0.09 /           0.09 sec.
 (+1)-ionized terms: CPU/Wall time =           0.02 /           0.02 sec.
 (+1)-ionized terms: CPU/Wall time =           0.01 /           0.00 sec.
 (+2)-ionized terms: CPU/Wall time =           0.00 /           0.01 sec.

 Internal:
 # of macro loops for internal contribution =         1 (input)
 Loop:    1
 Dimension of internal CISD space     =         0  (after screening)
 Space construction: CPU/Wall time =           0.01 /           0.01 sec.
 Internal terms:     CPU/Wall time =           0.00 /           0.00 sec.

 Two-external:
   0 -ionized terms: CPU/Wall time =           0.06 /           0.06 sec.
 (-1)-ionized terms: CPU/Wall time =           1.00 /           1.01 sec.
 (-2)-ionized terms: CPU/Wall time =           0.17 /           0.17 sec.

 Total time:         CPU/Wall time =           1.39 /           1.40 sec.

 ***                  ***
 *** GMC-QDPT Results ***
 ***                  ***

 Diagonal elements of effective Hamiltonian:
 Heff(  1) =   -55.89187141
 Heff(  2) =   -55.82194335
 Heff(  3) =   -55.64345877

 Off-diagonal elements of effective Hamiltonian:
                   1            2
     2  1.441158D-02
     3  2.030520D-02-4.701592D-03

 ******** GMC-QDPT energies ********
 ----------------------------------------------------------------------------
   State                        1st order                           2nd order
 ----------------------------------------------------------------------------
     1     E(REF-CI)=      -55.7912897251   E(GMC-QDPT2)=      -55.8964404840
     2     E(REF-CI)=      -55.6998082244   E(GMC-QDPT2)=      -55.8190921627
     3     E(REF-CI)=      -55.5333011962   E(GMC-QDPT2)=      -55.6417408924
 ----------------------------------------------------------------------------

 Excitation energies (invalid if E(1)/=E(GS)):
 ----------------------------------------------------------------------------
   State                        1st order                           2nd order
 ----------------------------------------------------------------------------

     TZ Sorted GMC-PT ENERGIES:
         1      -55.8964404840
         2      -55.8190921627
         3      -55.6417408924
     2     E(REF-CI)=        2.4893397 eV   E(GMC-QDPT2)=        2.1047561 eV
     3     E(REF-CI)=        7.0202291 eV   E(GMC-QDPT2)=        6.9307325 eV
 ----------------------------------------------------------------------------

 Main characters of perturbed GMC-QDPT states:

 State #    1  Energy =     -55.896440484  S =  0.500

      Det      Coef    Occupancy (Ignoring core)
      ---      ----    --------- --------- -----
        1   -0.957943  11110001110000
       71   -0.160771  11110001011000
      143   -0.057156  11011001100100
      393   -0.073186  10110101010010

 State #    2  Energy =     -55.819092163  S =  0.500

      Det      Coef    Occupancy (Ignoring core)
      ---      ----    --------- --------- -----
        1   -0.163464  11110001110000
       71    0.960518  11110001011000
      177   -0.059943  11101001010100
      248   -0.060105  11011001001100

 State #    3  Energy =     -55.641740892  S =  0.500

      Det      Coef    Occupancy (Ignoring core)
      ---      ----    --------- --------- -----
        1   -0.066789  11110001110000
        2    0.888335  11101001110000
        4    0.133548  10111001110000
       11   -0.055303  10101101110000
       36   -0.058653  11110001101000
       72   -0.136490  11101001011000
       74   -0.147613  10111001011000
      107   -0.062783  11101000111000
      110   -0.059759  01111000111000
      142   -0.077419  11101001100100
      176   -0.270037  11110001010100
      211   -0.058543  11110000110100
      396    0.054105  10101101010010
      720    0.050670  11001011100001

 <<<Max |V/de| = 7.929D-02  Thresh = 1.000D+00

 Oscillator strength (invalid if E(1)/=E(GS)):
 ----------------------------------------------------------------------------
   State                        1st order                           2nd order
 ----------------------------------------------------------------------------
     2     F(REF-CI)=        0.0023478706     F(GMC-PT2)=        0.0020690377
     3     F(REF-CI)=        0.0019703990     F(GMC-PT2)=        0.0017639644
 ----------------------------------------------------------------------------

 Dipole moment matrix elements, x, y, z, in A.U.
States    1    1        0.3365287326       -0.2797173843        0.5679407602
States    1    2        0.0181817486        0.0553000261       -0.1916657297
States    1    3       -0.0248463470       -0.0569238855        0.0808135488
States    2    1        0.0181817486        0.0553000261       -0.1916657297
States    2    2        0.4740627141       -0.1137568301        0.3867380372
States    2    3       -0.0030856899       -0.0862503106        0.0279309471
States    3    1       -0.0248463470       -0.0569238855        0.0808135488
States    3    2       -0.0030856899       -0.0862503106        0.0279309471
States    3    3        0.4129229682       -1.1204319773        0.9284470081

 Oscillator strength (valid only when positive): 
 ----------------------------------------------------------------------------
  States                        1st order                           2nd order
 ----------------------------------------------------------------------------
  1  1     F(REF-CI)=        0.0000000000     F(GMC-PT2)=        0.0000000000
  1  2     F(REF-CI)=       -0.0023478706     F(GMC-PT2)=       -0.0020690377
  1  3     F(REF-CI)=       -0.0019703990     F(GMC-PT2)=       -0.0017639644
  2  1     F(REF-CI)=        0.0023478706     F(GMC-PT2)=        0.0020690377
  2  2     F(REF-CI)=        0.0000000000     F(GMC-PT2)=        0.0000000000
  2  3     F(REF-CI)=       -0.0011301736     F(GMC-PT2)=       -0.0009729225
  3  1     F(REF-CI)=        0.0019703990     F(GMC-PT2)=        0.0017639644
  3  2     F(REF-CI)=        0.0011301736     F(GMC-PT2)=        0.0009729225
  3  3     F(REF-CI)=        0.0000000000     F(GMC-PT2)=        0.0000000000
 CPU     0: STEP CPU TIME=     1.87 TOTAL CPU TIME=         14.7 (      0.2 MIN)
 TOTAL WALL CLOCK TIME=         14.7 SECONDS, CPU UTILIZATION IS   100.00%

     !!! DIABATIZATION FOR REF CI STATES !!!

 *******************************************************
          $DMO GROUP FOUND IN THE INPUT.
        DIABATIZATION OF ADIABATIC STATES BEGINS.
     PROGRAMMED BY TAO ZENG (CARLETON UNIVERSITY).
               Email: toby.zeng@carleton.ca
     See T. Zeng, J. Chem. Phys. 2017, 146, 144103
 *******************************************************

 *************************************************************************
     STEP 1: TRANSFORMATION OF ADIABATIC STATES TO THE DMO REPRESENTATION
         See Atchity and Ruedenberg, J. Chem. Phys. 1999, 111, 2910
 *************************************************************************

Read in Diabatic Molecualr Orbitals:

                      1          2          3          4          5

    1  N  1  S    0.008609   0.000000   0.000000  -0.013219   0.279491
    2  N  1  S    0.442914  -0.000000   0.000000  -0.184329   0.867803
    3  N  1  S    0.276913   0.000000  -0.000000  -0.288315   0.144236
    4  N  1  X   -0.000000   0.493155  -0.024636  -0.000000  -0.000000
    5  N  1  Y    0.000000   0.024636   0.493155  -0.000000   0.000000
    6  N  1  Z    0.090197   0.000000   0.000000   0.593421   0.705309
    7  N  1  X   -0.000000   0.210628  -0.010522   0.000000   0.000000
    8  N  1  Y    0.000000   0.010522   0.210628  -0.000000  -0.000000
    9  N  1  Z   -0.004381   0.000000   0.000000   0.381592  -0.106092
   10  N  1 XX   -0.000457   0.010719  -0.000535  -0.012387   0.006153
   11  N  1 YY   -0.000457  -0.010719   0.000535  -0.012387   0.006153
   12  N  1 ZZ    0.000914  -0.000000   0.000000   0.024773  -0.012306
   13  N  1 XY    0.000000  -0.000618  -0.012377  -0.000000   0.000000
   14  N  1 XZ   -0.000000   0.026529  -0.001325  -0.000000   0.000000
   15  N  1 YZ    0.000000   0.001325   0.026529  -0.000000   0.000000
   16  H  2  S    0.194462  -0.176074   0.343485   0.112865  -0.523343
   17  H  2  S    0.003574  -0.023812   0.046452   0.024014  -0.054445
   18  H  2  X    0.018760   0.009101   0.022834   0.009336  -0.039151
   19  H  2  Y   -0.032493   0.022287  -0.020044  -0.016171   0.067811
   20  H  2  Z   -0.009251   0.008464  -0.016511   0.018769  -0.010566
   21  H  3  S    0.194462  -0.209430  -0.324227   0.112865  -0.523343
   22  H  3  S    0.003574  -0.028322  -0.043847   0.024014  -0.054445
   23  H  3  X    0.018760   0.006781  -0.023627   0.009336  -0.039151
   24  H  3  Y    0.032493  -0.024174  -0.017723   0.016171  -0.067811
   25  H  3  Z   -0.009251   0.010067   0.015585   0.018769  -0.010566
   26  H  4  S    0.194462   0.385503  -0.019258   0.112865  -0.523343
   27  H  4  S    0.003574   0.052134  -0.002604   0.024014  -0.054445
   28  H  4  X   -0.037519  -0.032295   0.001613  -0.018672   0.078302
   29  H  4  Y    0.000000   0.001067   0.021353  -0.000000   0.000000
   30  H  4  Z   -0.009251  -0.018530   0.000926   0.018769  -0.010566

                      6          7

    1  N  1  S    0.000000  -0.000000
    2  N  1  S    0.000000  -0.000000
    3  N  1  S   -0.000000   0.000000
    4  N  1  X   -0.930415  -0.002083
    5  N  1  Y   -0.002083   0.930415
    6  N  1  Z   -0.000000   0.000000
    7  N  1  X   -0.046866  -0.000105
    8  N  1  Y   -0.000105   0.046866
    9  N  1  Z   -0.000000   0.000000
   10  N  1 XX    0.001538   0.000003
   11  N  1 YY   -0.001538  -0.000003
   12  N  1 ZZ   -0.000000   0.000000
   13  N  1 XY   -0.000004   0.001776
   14  N  1 XZ    0.039985   0.000090
   15  N  1 YZ    0.000090  -0.039985
   16  H  2  S   -0.362630  -0.631354
   17  H  2  S   -0.065964  -0.114846
   18  H  2  X    0.002763  -0.037520
   19  H  2  Y    0.037435   0.040736
   20  H  2  Z    0.001882   0.003276
   21  H  3  S   -0.365454   0.629724
   22  H  3  S   -0.066477   0.114549
   23  H  3  X    0.002595   0.037532
   24  H  3  Y   -0.037617   0.040567
   25  H  3  Z    0.001896  -0.003268
   26  H  4  S    0.728084   0.001630
   27  H  4  S    0.132441   0.000297
   28  H  4  X   -0.062317  -0.000140
   29  H  4  Y    0.000055  -0.024345
   30  H  4  Z   -0.003778  -0.000008

NUMBER OF SUB ACTIVE SPACES:   1
ROTATE ACTIVE MOS TO DMOS IN EACH SUB-SPACE

SPACE  1:

OVERLAP BETWEEN ORTHONORMAL AND PRE-ORTHONORMAL REF. DMOS

             1           2           3           4           5

    1    0.9611071   0.0386817  -0.0042387  -0.0135447   0.0021471
    2    0.0386817   0.8558084  -0.0655293   0.0483648  -0.0639302
    3   -0.0042387  -0.0655293   1.0143613  -0.0241296   0.0616188
    4   -0.0135447   0.0483648  -0.0241296   0.9908075  -0.0165427
    5    0.0021471  -0.0639302   0.0616188  -0.0165427   1.2164627
    6    0.0057309  -0.0927383  -0.0814758   0.0527428   0.0164127
    7   -0.0010269   0.0450683  -0.0401526   0.0454406  -0.0956662

             6           7

    1    0.0057309  -0.0010269
    2   -0.0927383   0.0450683
    3   -0.0814758  -0.0401526
    4    0.0527428   0.0454406
    5    0.0164127  -0.0956662
    6    1.0880773   0.0112658
    7    0.0112658   1.0726226
REFERENCE DMOS AFTER ORTHONORMALIZATION:

                      1          2          3          4          5

    1  N  1  S    0.007646   0.015314  -0.012812  -0.011183   0.232668
    2  N  1  S    0.455279   0.035573  -0.041364  -0.173408   0.719687
    3  N  1  S    0.283261   0.011390  -0.010297  -0.287545   0.116858
    4  N  1  X   -0.014767   0.485925  -0.061220   0.019481   0.038933
    5  N  1  Y    0.001322   0.030267   0.522490  -0.030511   0.044325
    6  N  1  Z    0.101408  -0.002575  -0.023417   0.610723   0.591634
    7  N  1  X   -0.009961   0.246389   0.002446  -0.010363   0.012314
    8  N  1  Y   -0.000198   0.027474   0.213174   0.000524  -0.005670
    9  N  1  Z    0.002373  -0.028486   0.010174   0.387405  -0.085456
   10  N  1 XX   -0.001260   0.014073  -0.000009  -0.013301   0.005611
   11  N  1 YY   -0.000165  -0.011875  -0.000898  -0.011828   0.004455
   12  N  1 ZZ    0.001425  -0.002198   0.000907   0.025130  -0.010066
   13  N  1 XY    0.000022  -0.001802  -0.012398  -0.000206   0.000651
   14  N  1 XZ   -0.001733   0.036119   0.004051  -0.003751   0.000986
   15  N  1 YZ   -0.000125   0.005365   0.025543   0.001841  -0.003935
   16  H  2  S    0.218289  -0.242210   0.307839   0.173457  -0.500546
   17  H  2  S    0.006023  -0.031946   0.038768   0.034141  -0.055789
   18  H  2  X    0.019340   0.010998   0.024671   0.010605  -0.035827
   19  H  2  Y   -0.035856   0.033794  -0.017409  -0.021695   0.060978
   20  H  2  Z   -0.009733   0.007660  -0.014884   0.017889  -0.007217
   21  H  3  S    0.221985  -0.387811  -0.327798   0.117283  -0.383637
   22  H  3  S    0.006650  -0.054079  -0.045517   0.024268  -0.035849
   23  H  3  X    0.019570   0.001394  -0.019919   0.007187  -0.028583
   24  H  3  Y    0.036086  -0.042443  -0.018259   0.018132  -0.053666
   25  H  3  Z   -0.009793   0.012414   0.017210   0.018498  -0.009041
   26  H  4  S    0.180066   0.496731   0.096321   0.051851  -0.423311
   27  H  4  S    0.000386   0.072413   0.015159   0.013841  -0.043907
   28  H  4  X   -0.037502  -0.038309  -0.009887  -0.013753   0.064196
   29  H  4  Y   -0.000083   0.003993   0.020783   0.001178  -0.002617
   30  H  4  Z   -0.008325  -0.023792  -0.000127   0.020193  -0.009608

                      6          7

    1  N  1  S   -0.002870   0.020140
    2  N  1  S   -0.005628   0.068986
    3  N  1  S    0.010657   0.021899
    4  N  1  X   -0.819583  -0.013410
    5  N  1  Y    0.031371   0.890626
    6  N  1  Z   -0.041311   0.026657
    7  N  1  X   -0.021431  -0.008606
    8  N  1  Y    0.017753   0.049804
    9  N  1  Z   -0.018938  -0.022255
   10  N  1 XX    0.003174   0.000441
   11  N  1 YY   -0.002000   0.001381
   12  N  1 ZZ   -0.001174  -0.001822
   13  N  1 XY   -0.001100   0.001346
   14  N  1 XZ    0.040322  -0.001461
   15  N  1 YZ    0.002806  -0.037006
   16  H  2  S   -0.326506  -0.615261
   17  H  2  S   -0.060149  -0.110061
   18  H  2  X    0.005644  -0.038203
   19  H  2  Y    0.035868   0.041853
   20  H  2  Z    0.000553   0.000759
   21  H  3  S   -0.400298   0.556344
   22  H  3  S   -0.070860   0.103887
   23  H  3  X    0.000668   0.031344
   24  H  3  Y   -0.040166   0.033822
   25  H  3  Z    0.003428  -0.004559
   26  H  4  S    0.722274  -0.063110
   27  H  4  S    0.129100  -0.008057
   28  H  4  X   -0.061465   0.008027
   29  H  4  Y    0.002161  -0.022392
   30  H  4  Z   -0.006293  -0.000667

 -------------------------------------------
       MAXIMIZING MORMO OVERLAP TERM        
 -------------------------------------------
   SWEEP    VALUE       PROGRESS
     0     4.98321
     1     6.78180     1.79859272
     2     6.79144     0.00963757
     3     6.79144     0.00000109
     4     6.79144     0.00000000
     5     6.79144     0.00000000
 THE ROTATION IS DONE
ACTIVE ORBITALS AFTER MORMO:

                      1          2          3          4          5

    1  N  1  S    0.013173   0.006952  -0.004820  -0.020269   0.099202
    2  N  1  S    0.431146   0.033186  -0.009905  -0.212144   0.497346
    3  N  1  S    0.322825   0.039277  -0.024755  -0.247152   0.497870
    4  N  1  X    0.000597   0.431884  -0.083132   0.044616   0.109732
    5  N  1  Y    0.007712   0.018985   0.495384  -0.027655   0.121503
    6  N  1  Z    0.088106  -0.023507  -0.032846   0.620858   0.405858
    7  N  1  X   -0.023832   0.321536   0.053641  -0.063552  -0.074084
    8  N  1  Y   -0.001231   0.037232   0.225470   0.034520  -0.149519
    9  N  1  Z    0.028826  -0.006474   0.034915   0.373228   0.126258
   10  N  1 XX   -0.005911   0.025121   0.000789  -0.007461   0.014626
   11  N  1 YY    0.008258  -0.030164  -0.002599  -0.003563  -0.014046
   12  N  1 ZZ   -0.002347   0.005042   0.001810   0.011024  -0.000581
   13  N  1 XY   -0.003612  -0.003864   0.001069   0.005000   0.017511
   14  N  1 XZ    0.001334   0.023145   0.005874   0.004021  -0.022005
   15  N  1 YZ   -0.002950   0.002470   0.014083  -0.003536   0.001696
   16  H  2  S    0.188736  -0.203932   0.312755   0.132217  -0.459233
   17  H  2  S    0.012462  -0.075854   0.036054   0.034203  -0.157064
   18  H  2  X    0.006856   0.016877   0.013265   0.001131  -0.014047
   19  H  2  Y   -0.030119   0.013028  -0.035582  -0.012056   0.019500
   20  H  2  Z   -0.002494   0.006250  -0.004938   0.016850   0.005674
   21  H  3  S    0.181505  -0.230204  -0.290827   0.102441  -0.317187
   22  H  3  S    0.044939  -0.253844  -0.095447   0.042491  -0.325592
   23  H  3  X   -0.002056   0.018256   0.008252  -0.006077  -0.028463
   24  H  3  Y    0.022284   0.000361  -0.032656   0.010635   0.011108
   25  H  3  Z   -0.004352   0.000532   0.014437   0.012458  -0.013534
   26  H  4  S    0.175749   0.429094   0.035748   0.080872  -0.400105
   27  H  4  S   -0.002361   0.139295   0.061787   0.018070  -0.120228
   28  H  4  X   -0.028939  -0.024836   0.005376  -0.019356   0.013279
   29  H  4  Y    0.006246   0.027648   0.017219   0.004013   0.022810
   30  H  4  Z   -0.015108  -0.032929   0.005411   0.012642   0.000360

                      6          7

    1  N  1  S    0.011057   0.119580
    2  N  1  S    0.042663   0.263854
[...]
      386   -0.124162    0.124162  2+2+0-0
       88   -0.117188    0.117188  202200+
        1    0.108883   -0.108883  222+000
       16   -0.097015    0.097015  222000+
        6    0.096048   -0.096048  22200+0
       18    0.090643   -0.090643  2-2+00+
        8   -0.090447    0.090447  2-2+0+0
       77   -0.082390    0.082390  2+-20+0
      806    0.079411    0.079411  2++200-
       83   -0.076319    0.076319  20-2++0
       73    0.075135   -0.075135  2+-2+00
      107   -0.074526    0.074526  +22-+00
      109    0.072369   -0.072369  +-22+00
       86   -0.070808   -0.070808  2+2-00+
       39    0.067569    0.067569  2-+2+00
      106    0.066036    0.066036  +222000
       38   -0.064919    0.064919  2202+00
      393   -0.062200   -0.062200  202+020
       37    0.057455   -0.057455  22+-+00
       41    0.055683   -0.055683  22+-0+0
      177    0.054069   -0.054069  2+20200
       75   -0.052310   -0.052310  -+22+00
       53   -0.052237   -0.052237  2-+200+
      253    0.051114    0.051114  20+2-+0
       43    0.050574    0.050574  2-+20+0
        5    0.049785    0.049785  -22++00
       99   -0.048472    0.048472  20-20++
       80    0.047886    0.047886  2+--++0
      113    0.046707   -0.046707  +-220+0
      141   -0.045428   -0.045428  22++-00
      813    0.045301   -0.045301  20+20+-
      822    0.041165   -0.041165  2+02002
      176   -0.040952    0.040952  2+2+-00
      252   -0.040234   -0.040234  2+02-+0
      351   -0.038908   -0.038908  22++0-0
      810   -0.037505   -0.037505  -++2+0-
       51   -0.034732    0.034732  22+-00+
      737   -0.034408    0.034408  2+20+0-
       10   -0.033915   -0.033915  22-0++0
       79   -0.032409   -0.032409  -+220+0
      249   -0.032365    0.032365  20+2200
       13   -0.031999   -0.031999  2--+++0
      186   -0.031858    0.031858  20202+0
      456    0.031817    0.031817  2++20-0
      463    0.031168   -0.031168  20+2020
      396   -0.031113   -0.031113  2020+20
      323   -0.030974    0.030974  +022-+0
       11   -0.030547    0.030547  2-20++0
      248    0.030020   -0.030020  2+02200
      332   -0.029491    0.029491  ++-2-0+
       87   -0.027173    0.027173  2+-200+
      387    0.027061   -0.027061  2+20+-0
      179    0.026926    0.026926  202+200
       89    0.026281    0.026281  -+2200+
      529    0.026219    0.026219  +022+-0
      251   -0.025970   -0.025970  2++--+0
      739   -0.025726   -0.025726  202++0-
      111   -0.025587    0.025587  +22-0+0
      180   -0.025551    0.025551  -+2+200
      459    0.025204   -0.025204  20+2+-0
       48    0.024829   -0.024829  2-02++0
      211    0.024742    0.024742  +22+-00
      352    0.024666    0.024666  22+0+-0
      401    0.024622    0.024622  2+200-+
      123   -0.024426    0.024426  +-2200+
      457   -0.024098    0.024098  2++-+-0
      320    0.023510    0.023510  0+22200
       52    0.023464   -0.023464  220200+
      702   -0.022459   -0.022459  22+0+0-
      366    0.021881   -0.021881  22+00-+
      878    0.021815    0.021815  ++-2+0-
      828   -0.021758   -0.021758  2002+02
      751    0.021388   -0.021388  2+20002
      247    0.020886   -0.020886  2++-200
      263   -0.020547   -0.020547  20+2-0+
      191    0.020401    0.020401  2+20-0+
      264    0.020159   -0.020159  -++2-0+
      316   -0.020058   -0.020058  ++22-00

 State #    3  Energy =     -55.709522048

      Det      Coef        Coefp    Occupancy (Ignoring core)
      ---      ----        ----    --------- --------- -----
       71   -0.470781    0.470781  2+22000
       72   -0.398581   -0.398581  2+2-+00
        2   -0.293666    0.293666  2220+00
        4    0.279528   -0.279528  2-2++00
       36   -0.273525   -0.273525  22+2000
       86    0.223803    0.223803  2+2-00+
        1   -0.199870    0.199870  222+000
       18   -0.128339    0.128339  2-2+00+
       37   -0.124086    0.124086  22+-+00
       16    0.123216   -0.123216  222000+
        6   -0.122445    0.122445  22200+0
        8    0.119288   -0.119288  2-2+0+0
       51    0.119178   -0.119178  22+-00+
      176    0.119053   -0.119053  2+2+-00
      141    0.104638    0.104638  22++-00
      107    0.102786   -0.102786  +22-+00
      736   -0.095464    0.095464  2+2+00-
       81    0.091278    0.091278  202-++0
      701   -0.090808   -0.090808  22++00-
       74   -0.081035    0.081035  2022+00
       76   -0.078969   -0.078969  2+2-0+0
       77   -0.074534    0.074534  2+-20+0
       80   -0.072548   -0.072548  2+--++0
        5   -0.064273   -0.064273  -22++00
      111    0.061277   -0.061277  +22-0+0
      246   -0.058712   -0.058712  2++2-00
      121   -0.056429    0.056429  +22-00+
       43    0.052572    0.052572  2-+20+0
       78    0.050402   -0.050402  20220+0
       97    0.049077    0.049077  202-0++
       13    0.047421    0.047421  2--+++0
       10    0.047248    0.047248  22-0++0
       73    0.046999   -0.046999  2+-2+00
       88    0.046222   -0.046222  202200+
      389   -0.045805   -0.045805  202++-0
      148   -0.045583   -0.045583  2-++-+0
      183   -0.045473    0.045473  202+-+0
       96   -0.044615   -0.044615  2+--0++
       11    0.044017   -0.044017  2-20++0
       42    0.043959   -0.043959  22020+0
      387   -0.042441    0.042441  2+20+-0
      396    0.042393    0.042393  2020+20
        7    0.041357    0.041357  22-+0+0
      386   -0.040319    0.040319  2+2+0-0
        9   -0.039072   -0.039072  -22+0+0
      211   -0.038513   -0.038513  +22+-00
       19    0.037381    0.037381  -22+00+
      247   -0.035649    0.035649  2++-200
      742    0.035137    0.035137  2+-+0+-
      354   -0.035105    0.035105  2-+++-0
      737    0.034778   -0.034778  2+20+0-
      822    0.033833   -0.033833  2+02002
      352   -0.033622   -0.033622  22+0+-0
       46    0.033267   -0.033267  2-+-++0
      316    0.031944    0.031944  ++22-00
      825    0.031305    0.031305  2+0-+02
      109   -0.031061    0.031061  +-22+00
       62    0.030040   -0.030040  2-+-0++
      186    0.029134   -0.029134  20202+0
      807   -0.029109    0.029109  2++-+0-
      317    0.028822   -0.028822  ++2-200
      743   -0.028525   -0.028525  202+0+-
      144    0.028438   -0.028438  2-++200
       17   -0.028370   -0.028370  22-+00+
      708   -0.027119    0.027119  2-++0+-
      471    0.026060    0.026060  2++-0-+
      106    0.025582    0.025582  +222000
      813    0.025567   -0.025567  20+20+-
      320    0.025494    0.025494  0+22200
      457    0.024365   -0.024365  2++-+-0
      147   -0.024316    0.024316  220+-+0
      702    0.023690    0.023690  22+0+0-
      282    0.023690    0.023690  +2+-200
      142    0.023472    0.023472  22+0200
      358   -0.023070    0.023070  2-++020
      182    0.022527   -0.022527  2+-+-+0
       21   -0.022273    0.022273  2-20+0+
       90    0.022222    0.022222  2+--+0+
      421   -0.022205   -0.022205  +22+0-0
      351   -0.022190   -0.022190  22++0-0
      110    0.021974   -0.021974  0222+00
      456    0.021962    0.021962  2++20-0
      192   -0.021362    0.021362  2+-+-0+
      723   -0.021085    0.021085  2-0++02
      368   -0.020963   -0.020963  2-++0-+
      463    0.020817   -0.020817  20+2020
      720    0.020730    0.020730  2200+02
      403   -0.020552    0.020552  202+0-+
      366   -0.020329    0.020329  22+00-+
      145   -0.020320   -0.020320  -2++200
      177   -0.020300    0.020300  2+20200
      461    0.020077   -0.020077  2++-020

 ---------------------------------------
      - DIABATIC STATES IN CMO -        
 ---------------------------------------

 State #    1  Energy =     -55.852918752

      Det      Coef        Coefp    Occupancy (Ignoring core)
      ---      ----        ----    --------- --------- -----
        1    0.756938   -0.756938  222+000
       71    0.538878   -0.538878  2+22000
        2   -0.280842    0.280842  2220+00
      106   -0.068150   -0.068150  +222000
      393   -0.060274   -0.060274  202+020
      176    0.047420   -0.047420  2+2+-00
      142   -0.043144   -0.043144  22+0200
       74    0.041684   -0.041684  2022+00
      717   -0.039686   -0.039686  220+002
      177   -0.039515    0.039515  2+20200
      143   -0.037293   -0.037293  220+200
       72   -0.037081   -0.037081  2+2-+00
      248   -0.033669    0.033669  2+02200
      212    0.033080    0.033080  +220200
      392   -0.032558   -0.032558  2+-+020
       11    0.030873   -0.030873  2-20++0
      358    0.029101   -0.029101  2-++020
      702    0.028307    0.028307  22+0+0-
      387   -0.028091    0.028091  2+20+-0
      215   -0.028075   -0.028075  022+200
      822   -0.027786    0.027786  2+02002
      357   -0.027299   -0.027299  220+020
      156   -0.026924    0.026924  22+0-0+
      110    0.025655   -0.025655  0222+00
      179   -0.025480   -0.025480  202+200
        6    0.025091   -0.025091  22200+0
      561   -0.023341   -0.023341  2+++--0
      316    0.022884    0.022884  ++22-00
      246    0.021632    0.021632  2++2-00
       75   -0.020412   -0.020412  -+22+00

 State #    2  Energy =     -55.794832739

      Det      Coef        Coefp    Occupancy (Ignoring core)
      ---      ----        ----    --------- --------- -----
        1    0.595139   -0.595139  222+000
       71   -0.542332    0.542332  2+22000
        2    0.504947   -0.504947  2220+00
      176   -0.152073    0.152073  2+2+-00
       72    0.080883    0.080883  2+2-+00
        4    0.071190   -0.071190  2-2++00
       74   -0.064698    0.064698  2022+00
      107   -0.056971    0.056971  +22-+00
       36    0.055555    0.055555  22+2000
      211    0.054007    0.054007  +22+-00
      143   -0.047491   -0.047491  220+200
       73    0.044128   -0.044128  2+-2+00
      393   -0.041589   -0.041589  202+020
      141   -0.040554   -0.040554  22++-00
      248    0.039483   -0.039483  2+02200
      246   -0.034286   -0.034286  2++2-00
      386   -0.033697    0.033697  2+2+0-0
      396   -0.032936   -0.032936  2020+20
        3    0.030904    0.030904  22-++00
      110   -0.030045    0.030045  0222+00
      701    0.029292    0.029292  22++00-
      822    0.028102   -0.028102  2+02002
      316   -0.027994   -0.027994  ++22-00
      717   -0.027828   -0.027828  220+002
       51   -0.027510    0.027510  22+-00+
      720   -0.027482   -0.027482  2200+02
      142    0.026757    0.026757  22+0200
       38   -0.023667    0.023667  2202+00
      358    0.023258   -0.023258  2-++020
       75    0.022982    0.022982  -+22+00
        8    0.022485   -0.022485  2-2+0+0
       13   -0.022360   -0.022360  2--+++0
      392   -0.022086   -0.022086  2+-+020
      144   -0.021850    0.021850  2-++200
      705   -0.021077   -0.021077  -2+++0-
       83   -0.020498    0.020498  20-2++0
      357   -0.020283   -0.020283  220+020

 State #    3  Energy =     -55.709522048

      Det      Coef        Coefp    Occupancy (Ignoring core)
      ---      ----        ----    --------- --------- -----
        2   -0.677062    0.677062  2220+00
       71   -0.603363    0.603363  2+22000
      176    0.223202   -0.223202  2+2+-00
        1    0.147279   -0.147279  222+000
       74    0.127271   -0.127271  2022+00
        4   -0.118707    0.118707  2-2++00
       72   -0.104494   -0.104494  2+2-+00
      142   -0.062231   -0.062231  22+0200
      177    0.058389   -0.058389  2+20200
      110    0.045188   -0.045188  0222+00
       11    0.044422   -0.044422  2-20++0
      211   -0.043862   -0.043862  +22+-00
      107    0.042623   -0.042623  +22-+00
      109    0.042406   -0.042406  +-22+00
        6    0.041492   -0.041492  22200+0
      396    0.040981    0.040981  2020+20
      720    0.038946    0.038946  2200+02
      178   -0.038819   -0.038819  2+-+200
       37   -0.035698    0.035698  22+-+00
      702    0.034043    0.034043  22+0+0-
      248    0.031857   -0.031857  2+02200
      156   -0.031427    0.031427  22+0-0+
      387   -0.031113    0.031113  2+20+-0
      822    0.031100   -0.031100  2+02002
       36   -0.030169   -0.030169  22+2000
      183   -0.029922    0.029922  202+-+0
      180   -0.028750    0.028750  -+2+200
      317    0.026844   -0.026844  ++2-200
      361   -0.026747    0.026747  2-+0+20
      192   -0.026543    0.026543  2+-+-0+
       75   -0.026525   -0.026525  -+22+00
      360    0.025669    0.025669  2200+20
      247    0.024964   -0.024964  2++-200
      738    0.024952    0.024952  2+-++0-
      463    0.024308   -0.024308  20+2020
      395    0.022947    0.022947  2+-0+20
      462    0.022906   -0.022906  2+02020
      246   -0.022577   -0.022577  2++2-00
      112   -0.021884   -0.021884  +2-20+0
      261    0.021850    0.021850  2++--0+
      141    0.021622    0.021622  22++-00
      386    0.020584   -0.020584  2+2+0-0
       81    0.020543    0.020543  202-++0
      751    0.020254   -0.020254  2+20002

 ---------------------------------------
    -DIABATIC STATES IN PROTOTYPES-     
 ---------------------------------------

     STATE:    1
 Group Ref#    Coefficients
     1    1    0.826917
     2    2    0.119500
     3    3   -0.099755

WEIGHT OF LISTED PROTOTYPES:   70.80%

     STATE:    2
 Group Ref#    Coefficients
     1    1    0.126899
     2    2    0.662590
     3    3    0.218972

WEIGHT OF LISTED PROTOTYPES:   50.31%

     STATE:    3
 Group Ref#    Coefficients
     1    1   -0.222315
     2    2    0.459549
     3    3    0.304910

WEIGHT OF LISTED PROTOTYPES:   35.36%

     DIRECT MAX. DIABATIZATION FINISHED    
 CPU     0: STEP CPU TIME=     0.25 TOTAL CPU TIME=         15.0 (      0.2 MIN)
 TOTAL WALL CLOCK TIME=         15.0 SECONDS, CPU UTILIZATION IS    99.93%

DIABATS FOR SPIN-ORBIT CALCULATION ARE READY

TRANSITION DIPOLES BETWEEN ADIABATS (in A.U.):

STATE PAIR      X         Y         Z
    1    1  0.336529 -0.279717  0.567941
    2    1  0.018182  0.055300 -0.191666
    2    2  0.474063 -0.113757  0.386738
    3    1 -0.024846 -0.056924  0.080814
    3    2 -0.003086 -0.086250  0.027931
    3    3  0.412923 -1.120432  0.928447


TRANSITION DIPOLES BETWEEN DIABATS (in A.U.):

STATE PAIR      X         Y         Z
    1    1  0.349177 -0.329601  0.724376
    2    1 -0.048191 -0.006350 -0.034366
    2    2  0.454319 -0.143677  0.284976
    3    1 -0.021186 -0.196318  0.096406
    3    2  0.007717  0.205762 -0.126229
    3    3  0.420018 -1.040629  0.873774

TRANSITION DIPOLES BETWEEN DIRECT MAX. DIABATS (in A.U.):

STATE PAIR      X         Y         Z
    1    1  0.343922 -0.394440  0.751786
    2    1 -0.041394  0.094822 -0.082121
    2    2  0.446200 -0.300067  0.382047
    3    1 -0.022093 -0.266736  0.093874
    3    2  0.019980  0.385168 -0.243450
    3    3  0.433393 -0.819399  0.749293
 No $TRANST Group Found.
 Quit without doing spin-orbit coupling
 ..... DONE WITH MP2 ENERGY .....
 CPU     0: STEP CPU TIME=     0.00 TOTAL CPU TIME=         15.0 (      0.2 MIN)
 TOTAL WALL CLOCK TIME=         15.0 SECONDS, CPU UTILIZATION IS    99.93%
            100000000  WORDS OF DYNAMIC MEMORY USED
 EXECUTION OF GAMESS TERMINATED NORMALLY Wed Nov 16 18:49:04 2022
 DDI: 715512 bytes (0.7 MB / 0 MWords) used by master data server.

 ----------------------------------------
 CPU timing information for all processes
 ========================================
 0: 14.654 + 0.315 = 14.970
 ----------------------------------------
Note: The following floating-point exceptions are signalling: IEEE_DENORMAL
 ddikick.x: exited gracefully.
unset echo
----- accounting info -----
Files used on the master node io002 were:
-rw-r--r-- 1 bsonghao nooijen   20708 Nov 16 18:48 /scratch/bsonghao/nh3_diabatization_2d_at_mode_7_8_dist-0.5_0.8.F05
-rw-r--r-- 1 bsonghao nooijen  363520 Nov 16 18:49 /scratch/bsonghao/nh3_diabatization_2d_at_mode_7_8_dist-0.5_0.8.F09
-rw-r--r-- 1 bsonghao nooijen 1995920 Nov 16 18:49 /scratch/bsonghao/nh3_diabatization_2d_at_mode_7_8_dist-0.5_0.8.F10
-rw-r--r-- 1 bsonghao nooijen  131264 Nov 16 18:49 /scratch/bsonghao/nh3_diabatization_2d_at_mode_7_8_dist-0.5_0.8.F13
-rw-r--r-- 1 bsonghao nooijen  180312 Nov 16 18:49 /scratch/bsonghao/nh3_diabatization_2d_at_mode_7_8_dist-0.5_0.8.F15
-rw-r--r-- 1 bsonghao nooijen       0 Nov 16 18:48 /scratch/bsonghao/nh3_diabatization_2d_at_mode_7_8_dist-0.5_0.8.F16
-rw-r--r-- 1 bsonghao nooijen    9808 Nov 16 18:49 /scratch/bsonghao/nh3_diabatization_2d_at_mode_7_8_dist-0.5_0.8.F70
-rw-r--r-- 1 bsonghao nooijen    9808 Nov 16 18:49 /scratch/bsonghao/nh3_diabatization_2d_at_mode_7_8_dist-0.5_0.8.F71
-rw-r--r-- 1 bsonghao nooijen   19608 Nov 16 18:49 /scratch/bsonghao/nh3_diabatization_2d_at_mode_7_8_dist-0.5_0.8.F72
-rw-r--r-- 1 bsonghao nooijen   19608 Nov 16 18:49 /scratch/bsonghao/nh3_diabatization_2d_at_mode_7_8_dist-0.5_0.8.F73
-rw-r--r-- 1 bsonghao nooijen 1920824 Nov 16 18:49 /scratch/bsonghao/nh3_diabatization_2d_at_mode_7_8_dist-0.5_0.8.F74
-rw-r--r-- 1 bsonghao nooijen       0 Nov 16 18:48 /scratch/bsonghao/nh3_diabatization_2d_at_mode_7_8_dist-0.5_0.8.F75
-rw-r--r-- 1 bsonghao nooijen   58848 Nov 16 18:49 /scratch/bsonghao/nh3_diabatization_2d_at_mode_7_8_dist-0.5_0.8.F76
-rw-r--r-- 1 bsonghao nooijen       0 Nov 16 18:48 /scratch/bsonghao/nh3_diabatization_2d_at_mode_7_8_dist-0.5_0.8.F77
-rw-r--r-- 1 bsonghao nooijen    1864 Nov 16 18:49 /scratch/bsonghao/nh3_diabatization_2d_at_mode_7_8_dist-0.5_0.8.F78
-rw-r--r-- 1 bsonghao nooijen   39208 Nov 16 18:49 /scratch/bsonghao/nh3_diabatization_2d_at_mode_7_8_dist-0.5_0.8.F79
-rw-r--r-- 1 bsonghao nooijen     104 Nov 16 18:49 /scratch/bsonghao/nh3_diabatization_2d_at_mode_7_8_dist-0.5_0.8.F80
-rw-r--r-- 1 bsonghao nooijen   13472 Nov 16 18:49 /scratch/bsonghao/nh3_diabatization_2d_at_mode_7_8_dist-0.5_0.8.F81
-rw-r--r-- 1 bsonghao nooijen      16 Nov 16 18:49 /scratch/bsonghao/nh3_diabatization_2d_at_mode_7_8_dist-0.5_0.8.F82
-rw-r--r-- 1 bsonghao nooijen   19216 Nov 16 18:49 /scratch/bsonghao/nh3_diabatization_2d_at_mode_7_8_dist-0.5_0.8.F83
-rw-r--r-- 1 bsonghao nooijen   29712 Nov 16 18:49 /scratch/bsonghao/nh3_diabatization_2d_at_mode_7_8_dist-0.5_0.8.F84
-rw-r--r-- 1 bsonghao nooijen  401576 Nov 16 18:49 /scratch/bsonghao/nh3_diabatization_2d_at_mode_7_8_dist-0.5_0.8.F85
-rw-r--r-- 1 bsonghao nooijen  903672 Nov 16 18:49 /scratch/bsonghao/nh3_diabatization_2d_at_mode_7_8_dist-0.5_0.8.F86
-rw-r--r-- 1 bsonghao nooijen     656 Nov 16 18:49 /scratch/bsonghao/nh3_diabatization_2d_at_mode_7_8_dist-0.5_0.8.F87
-rw-r--r-- 1 bsonghao nooijen   49168 Nov 16 18:49 /scratch/bsonghao/nh3_diabatization_2d_at_mode_7_8_dist-0.5_0.8.F88
-rw-r--r-- 1 bsonghao nooijen     240 Nov 16 18:49 /scratch/bsonghao/nh3_diabatization_2d_at_mode_7_8_dist-0.5_0.8.F89
-rw-r--r-- 1 bsonghao nooijen       0 Nov 16 18:48 /scratch/bsonghao/nh3_diabatization_2d_at_mode_7_8_dist-0.5_0.8.F90
-rw-r--r-- 1 bsonghao nooijen   13760 Nov 16 18:49 /scratch/bsonghao/nh3_diabatization_2d_at_mode_7_8_dist-0.5_0.8.F91
-rw-r--r-- 1 bsonghao nooijen   22776 Nov 16 18:49 /scratch/bsonghao/nh3_diabatization_2d_at_mode_7_8_dist-0.5_0.8.F92
-rw-r--r-- 1 bsonghao nooijen   23168 Nov 16 18:49 /scratch/bsonghao/nh3_diabatization_2d_at_mode_7_8_dist-0.5_0.8.F93
-rw-r--r-- 1 bsonghao nooijen   22776 Nov 16 18:49 /scratch/bsonghao/nh3_diabatization_2d_at_mode_7_8_dist-0.5_0.8.F94
-rw-r--r-- 1 bsonghao nooijen   13760 Nov 16 18:49 /scratch/bsonghao/nh3_diabatization_2d_at_mode_7_8_dist-0.5_0.8.F95
-rw-r--r-- 1 bsonghao nooijen   29440 Nov 16 18:49 /scratch/bsonghao/nh3_diabatization_2d_at_mode_7_8_dist-0.5_0.8.F96
-rw-r--r-- 1 bsonghao nooijen    1184 Nov 16 18:49 /scratch/bsonghao/nh3_diabatization_2d_at_mode_7_8_dist-0.5_0.8.F97
-rw-r--r-- 1 bsonghao nooijen    9808 Nov 16 18:49 /scratch/bsonghao/nh3_diabatization_2d_at_mode_7_8_dist-0.5_0.8.F98
-rw-r--r-- 1 bsonghao nooijen   30264 Nov 16 18:49 /scratch/bsonghao/nh3_diabatization_2d_at_mode_7_8_dist-0.5_0.8.F99
ls: No match.
ls: No match.
ls: No match.
Wed 16 Nov 2022 06:49:07 PM EST
0.303u 0.028s 0:18.34 1.7%	0+0k 48+224io 0pf+0w
