----- GAMESS execution script 'rungms' -----
This job is running on host io002
under operating system Linux at Wed 16 Nov 2022 07:14:58 PM EST
Available scratch disk space (Kbyte units) at beginning of the job is
Filesystem       1K-blocks       Used   Available Use% Mounted on
/dev/sdc1      15378471580 3278917120 11318349060  23% /scratch
GAMESS temporary binary files will be written to /scratch/bsonghao
GAMESS supplementary output files will be written to /home/bsonghao/.gamess_ascii_files/267638
Copying input file nh3_diabatization_2d_at_mode_7_8_dist-0.1_-0.2.inp to your run's scratch directory...
cp nh3_diabatization_2d_at_mode_7_8_dist-0.1_-0.2.inp /scratch/bsonghao/nh3_diabatization_2d_at_mode_7_8_dist-0.1_-0.2.F05
unset echo
/home/bjb2chen/gamess/ddikick.x /home/bjb2chen/gamess/gamess.00.x nh3_diabatization_2d_at_mode_7_8_dist-0.1_-0.2 -ddi 1 1 io002 -scr /scratch/bsonghao

 Distributed Data Interface kickoff program.
 Initiating 1 compute processes on 1 nodes to run the following command:
 /home/bjb2chen/gamess/gamess.00.x nh3_diabatization_2d_at_mode_7_8_dist-0.1_-0.2 

          ******************************************************
          *         GAMESS VERSION = 02 AUG 2018 (R2)         *
          *             FROM IOWA STATE UNIVERSITY             *
          * M.W.SCHMIDT, K.K.BALDRIDGE, J.A.BOATZ, S.T.ELBERT, *
          *   M.S.GORDON, J.H.JENSEN, S.KOSEKI, N.MATSUNAGA,   *
          *          K.A.NGUYEN, S.J.SU, T.L.WINDUS,           *
          *       TOGETHER WITH M.DUPUIS, J.A.MONTGOMERY       *
          *         J.COMPUT.CHEM.  14, 1347-1363(1993)        *
          **************** 64 BIT LINUX VERSION ****************

  SINCE 1993, STUDENTS AND POSTDOCS WORKING AT IOWA STATE UNIVERSITY
  AND ALSO IN THEIR VARIOUS JOBS AFTER LEAVING ISU HAVE MADE IMPORTANT
  CONTRIBUTIONS TO THE CODE:
     IVANA ADAMOVIC, CHRISTINE AIKENS, YURI ALEXEEV, POOJA ARORA,
     ANDREY ASADCHEV, ROB BELL, PRADIPTA BANDYOPADHYAY, JONATHAN BENTZ,
     BRETT BODE, KURT BRORSEN, CALEB CARLIN, GALINA CHABAN, WEI CHEN,
     CHEOL HO CHOI, PAUL DAY, ALBERT DEFUSCO, NUWAN DESILVA, TIM DUDLEY,
     DMITRI FEDOROV, ALEX FINDLATER, GRAHAM FLETCHER, MARK FREITAG,
     KURT GLAESEMANN, ANASTASIA GUININA,
     DAN KEMP, GRANT MERRILL, NORIYUKI MINEZAWA, JONATHAN MULLIN,
     TAKESHI NAGATA, SEAN NEDD, HEATHER NETZLOFF, BOSILJKA NJEGIC, RYAN OLSON,
     MIKE PAK, BUU PHAM,
     SPENCER PRUITT, LUKE ROSKOP, JIM SHOEMAKER, LYUDMILA SLIPCHENKO,
     TONY SMITH, SAROM SOK LEANG, JIE SONG, TETSUYA TAKETSUGU, SIMON WEBB,
     PENG XU, SOOHAENG YOO, FEDERICO ZAHARIEV

  ADDITIONAL CODE HAS BEEN PROVIDED BY COLLABORATORS IN OTHER GROUPS:
     IOWA STATE UNIVERSITY:
          JOE IVANIC, AARON WEST, LAIMUTIS BYTAUTAS, KLAUS RUEDENBERG
     UNIVERSITY OF TOKYO: KIMIHIKO HIRAO, TAKAHITO NAKAJIMA,
          TAKAO TSUNEDA, MUNEAKI KAMIYA, SUSUMU YANAGISAWA,
          KIYOSHI YAGI, MAHITO CHIBA, SEIKEN TOKURA, NAOAKI KAWAKAMI
     UNIVERSITY OF AARHUS: FRANK JENSEN
     UNIVERSITY OF IOWA: VISVALDAS KAIRYS, HUI LI
     NATIONAL INST. OF STANDARDS AND TECHNOLOGY: WALT STEVENS, DAVID GARMER
     UNIVERSITY OF PISA: BENEDETTA MENNUCCI, JACOPO TOMASI
     UNIVERSITY OF MEMPHIS: HENRY KURTZ, PRAKASHAN KORAMBATH
     UNIVERSITY OF ALBERTA: TOBY ZENG, MARIUSZ KLOBUKOWSKI
     UNIVERSITY OF NEW ENGLAND: MARK SPACKMAN
     MIE UNIVERSITY: HIROAKI UMEDA
     NAT. INST. OF ADVANCED INDUSTRIAL SCIENCE AND TECHNOLOGY: KAZUO KITAURA
     MICHIGAN STATE UNIVERSITY:
          KAROL KOWALSKI, MARTA WLOCH, JEFFREY GOUR, JESSE LUTZ,
          WEI LI, JUN SHEN, J. EMILIANO DEUSTUA, PIOTR PIECUCH
     UNIVERSITY OF MINNESOTA:
          YINAN SHU
     UNIVERSITY OF SILESIA: MONIKA MUSIAL, STANISLAW KUCHARSKI
     FACULTES UNIVERSITAIRES NOTRE-DAME DE LA PAIX:
          OLIVIER QUINET, BENOIT CHAMPAGNE
     UNIVERSITY OF CALIFORNIA - SANTA BARBARA: BERNARD KIRTMAN
     INSTITUTE FOR MOLECULAR SCIENCE:
          KAZUYA ISHIMURA, MICHIO KATOUDA, AND SHIGERU NAGASE
     UNIVERSITY OF NOTRE DAME: ANNA POMOGAEVA, DAN CHIPMAN
     KYUSHU UNIVERSITY:
          HARUYUKI NAKANO,
          FENG LONG GU, JACEK KORCHOWIEC, MARCIN MAKOWSKI, AND YURIKO AOKI,
          HIROTOSHI MORI AND EISAKU MIYOSHI
     PENNSYLVANIA STATE UNIVERSITY:
          TZVETELIN IORDANOV, CHET SWALINA, JONATHAN SKONE,
          SHARON HAMMES-SCHIFFER
     WASEDA UNIVERSITY:
          MASATO KOBAYASHI, TOMOKO AKAMA, TSUGUKI TOUMA,
          TAKESHI YOSHIKAWA, YASUHIRO IKABATA, JUNJI SEINO,
          YUYA NAKAJIMA, HIROMI NAKAI
     NANJING UNIVERSITY: SHUHUA LI
     UNIVERSITY OF NEBRASKA:
          PEIFENG SU, DEJUN SI, NANDUN THELLAMUREGE, YALI WANG, HUI LI
     UNIVERSITY OF ZURICH: ROBERTO PEVERATI, KIM BALDRIDGE
     N. COPERNICUS UNIVERSITY AND JACKSON STATE UNIVERSITY:
          MARIA BARYSZ
     UNIVERSITY OF COPENHAGEN: Jimmy Kromann, CASPER STEINMANN
     TOKYO INSTITUTE OF TECHNOLOGY: HIROYA NAKATA
     NAGOYA UNIVERSITY: YOSHIO NISHIMOTO, STEPHAN IRLE
     MOSCOW STATE UNIVERSITY: VLADIMIR MIRONOV

 EXECUTION OF GAMESS BEGUN Wed Nov 16 19:14:58 2022

            ECHO OF THE FIRST FEW INPUT CARDS -
 INPUT CARD> $system kdiag=3 mwords=100 memddi=1000 parall=.t. $end                         
 INPUT CARD> $contrl runtyp=energy ispher=1 $end                                            
 INPUT CARD> $contrl icut=9 itol=20 inttyp=rysquad qmttol=1.0d-05 nosym=1 $end              
 INPUT CARD> $scf    npunch=2 conv=1.0d-06 dirscf=.t.      $end                             
 INPUT CARD> $contrl scftyp=mcscf  mult=2 maxit=200 icharg=1 mplevl=2 $end                  
 INPUT CARD> $guess  guess=moread norb=29 purify=.t. $end                                   
 INPUT CARD> $basis  gbasis=ccd $end                                                        
 INPUT CARD> $mcscf  cistep=gmcci fullnr=.t. finci=mos                                      
 INPUT CARD>         acurcy=1.d-6 maxit=100 $end                                            
 INPUT CARD> $trans  dirtrf=.t. $end                                                        
 INPUT CARD> $mrmp   mrpt=gmcpt rdvecs=.f. $end                                             
 INPUT CARD> $gmcpt  nmofzc=0 nmodoc=1 nmoact=7 nelact=7 stsym(1)=A                         
 INPUT CARD>         reftyp=ormas nspace=1 mstart(1)=2 mine(1)=7 maxe(1)=7                  
 INPUT CARD>         kstate(1)=1,1,1                                                        
 INPUT CARD>         wstate(1)=1,1,1                                                        
 INPUT CARD>         iwgt=0 thrwgt=-1.0 krot=.f. kszdoe=.f. knospn=.f.                      
 INPUT CARD>         thrde=-1.0 edshft=0.02 $end                                            
 INPUT CARD> $data                                                                          
 INPUT CARD> NH3+ 3 states calculation at NH3 structure.                                    
 INPUT CARD> c1                                                                             
 INPUT CARD>N 7.0 0.012457835999999996 0.006228902999999999 -0.1693805762                   
 INPUT CARD>H 1.0 -0.605365957 0.7227558458000001 0.25999636410000004                       
 INPUT CARD>H 1.0 -0.528940636 -0.7363328178 0.3057178431                                   
 INPUT CARD>H 1.0 0.961201624 -0.07297574799999998 0.20366482310000003                      
 INPUT CARD>$end                                                                            
 INPUT CARD>--- OPTIMIZED RHF      MO-S --- GENERATED AT Mon Nov 14 16:47:08 2022           
 INPUT CARD>E=      -56.3825050291, E(NUC)=   11.8429239490                                 
 INPUT CARD> $VEC                                                                           
 INPUT CARD> 1  1-1.00134066E+00-2.25158504E-03 3.44925845E-03 0.00000000E+00 0.00000000E+00
 INPUT CARD> 1  2-2.13170927E-03 0.00000000E+00 0.00000000E+00 6.57129898E-04-6.87950443E-05
 INPUT CARD> 1  3-6.87950443E-05 1.37590089E-04 0.00000000E+00 0.00000000E+00 0.00000000E+00
 INPUT CARD> 1  4 3.25502815E-04-4.84772356E-04 3.62525460E-04-6.27912517E-04-3.45956485E-04
 INPUT CARD> 1  5 3.25502815E-04-4.84772356E-04 3.62525460E-04 6.27912517E-04-3.45956485E-04
 INPUT CARD> 1  6 3.25502815E-04-4.84772356E-04-7.25050921E-04 0.00000000E+00-3.45956485E-04
 INPUT CARD> 2  1 1.31286642E-02-4.05911371E-01-2.82090992E-01 0.00000000E+00 0.00000000E+00
 INPUT CARD> 2  2-7.71489043E-02 0.00000000E+00 0.00000000E+00 9.73717494E-03 6.62450916E-04
 INPUT CARD> 2  3 6.62450916E-04-1.32490183E-03 0.00000000E+00 0.00000000E+00 0.00000000E+00
 INPUT CARD> 2  4-1.96090317E-01-1.96656153E-02-1.74855877E-02 3.02859263E-02 8.68214399E-03
 INPUT CARD> 2  5-1.96090317E-01-1.96656153E-02-1.74855877E-02-3.02859263E-02 8.68214399E-03
 INPUT CARD> 2  6-1.96090317E-01-1.96656153E-02 3.49711754E-02 0.00000000E+00 8.68214399E-03
 INPUT CARD> 3  1 0.00000000E+00 0.00000000E+00 0.00000000E+00 4.48608762E-01 0.00000000E+00
 INPUT CARD> 3  2 0.00000000E+00 2.18692520E-01 0.00000000E+00 0.00000000E+00 1.30198027E-02
 INPUT CARD> 3  3-1.30198027E-02 0.00000000E+00 0.00000000E+00 2.71832968E-02 0.00000000E+00
 INPUT CARD> 3  4-1.85332726E-01-7.03958951E-02 8.47929477E-03 1.95242443E-02 8.32835058E-03
 INPUT CARD> 3  5-1.85332726E-01-7.03958951E-02 8.47929477E-03-1.95242443E-02 8.32835058E-03
 INPUT CARD> 3  6 3.70665453E-01 1.40791790E-01-2.53376884E-02 0.00000000E+00-1.66567012E-02
 INPUT CARD> 4  1 0.00000000E+00 0.00000000E+00 0.00000000E+00 0.00000000E+00 4.48608762E-01
 INPUT CARD> 4  2 0.00000000E+00 0.00000000E+00 2.18692520E-01 0.00000000E+00 0.00000000E+00
 INPUT CARD> 4  3 0.00000000E+00 0.00000000E+00-1.50339731E-02 0.00000000E+00 2.71832968E-02
 INPUT CARD> 4  4 3.21005698E-01 1.21929267E-01 1.95242443E-02-1.40653607E-02-1.44251263E-02
  100000000 WORDS OF MEMORY AVAILABLE

     BASIS OPTIONS
     -------------
     GBASIS=CCD          IGAUSS=       0      POLAR=NONE    
     NDFUNC=       0     NFFUNC=       0     DIFFSP=       F
     NPFUNC=       0      DIFFS=       F     BASNAM=        


     RUN TITLE
     ---------
  NH3+ 3 states calculation at NH3 structure.                                    

 THE POINT GROUP OF THE MOLECULE IS C1      
 THE ORDER OF THE PRINCIPAL AXIS IS     0

 ATOM      ATOMIC                      COORDINATES (BOHR)
           CHARGE         X                   Y                   Z
 N           7.0     0.0235418964        0.0117709199       -0.3200828767
 H           1.0    -1.1439757810        1.3658105046        0.4913218860
 H           1.0    -0.9995528658       -1.3914672614        0.5777229530
 H           1.0     1.8164076883       -0.1379041675        0.3848707090

          INTERNUCLEAR DISTANCES (ANGS.)
          ------------------------------

                1 N          2 H          3 H          4 H     

   1 N       0.0000000    1.0389811 *  1.0345186 *  1.0225219 *
   2 H       1.0389811 *  0.0000000    1.4618040 *  1.7579807 *
   3 H       1.0345186 *  1.4618040 *  0.0000000    1.6343137 *
   4 H       1.0225219 *  1.7579807 *  1.6343137 *  0.0000000  

  * ... LESS THAN  3.000


     ATOMIC BASIS SET
     ----------------
 THE CONTRACTED PRIMITIVE FUNCTIONS HAVE BEEN UNNORMALIZED
 THE CONTRACTED BASIS FUNCTIONS ARE NOW NORMALIZED TO UNITY

  SHELL TYPE  PRIMITIVE        EXPONENT          CONTRACTION COEFFICIENT(S)

 N         

      1   S       1          9046.0000000    0.000699617413
      1   S       2          1357.0000000    0.005386054630
      1   S       3           309.3000000    0.027391021189
      1   S       4            87.7300000    0.103150591982
      1   S       5            28.5600000    0.278570663317
      1   S       6            10.2100000    0.448294849454
      1   S       7             3.8380000    0.278085928395
      1   S       8             0.7466000    0.015431561233

      2   S       9          9046.0000000   -0.000304990096
      2   S      10          1357.0000000   -0.002408026379
      2   S      11           309.3000000   -0.011944448725
      2   S      12            87.7300000   -0.048925992909
      2   S      13            28.5600000   -0.134472724725
      2   S      14            10.2100000   -0.315112577700
      2   S      15             3.8380000   -0.242857832550
      2   S      16             0.7466000    1.094382206854

      3   S      17             0.2248000    1.000000000000

      4   P      18            13.5500000    0.058905676772
      4   P      19             2.9170000    0.320461106714
      4   P      20             0.7973000    0.753042061792

      5   P      21             0.2185000    1.000000000000

      6   D      22             0.8170000    1.000000000000

 H         

      7   S      23            13.0100000    0.033498726390
      7   S      24             1.9620000    0.234800801174
      7   S      25             0.4446000    0.813682957883

      8   S      26             0.1220000    1.000000000000

      9   P      27             0.7270000    1.000000000000

 H         

     10   S      28            13.0100000    0.033498726390
     10   S      29             1.9620000    0.234800801174
     10   S      30             0.4446000    0.813682957883

     11   S      31             0.1220000    1.000000000000

     12   P      32             0.7270000    1.000000000000

 H         

     13   S      33            13.0100000    0.033498726390
     13   S      34             1.9620000    0.234800801174
     13   S      35             0.4446000    0.813682957883

     14   S      36             0.1220000    1.000000000000

     15   P      37             0.7270000    1.000000000000

 TOTAL NUMBER OF BASIS SET SHELLS             =   15
 NUMBER OF CARTESIAN GAUSSIAN BASIS FUNCTIONS =   30
 NOTE: THIS RUN WILL RESTRICT THE MO VARIATION SPACE TO SPHERICAL HARMONICS.
 THE NUMBER OF ORBITALS KEPT IN THE VARIATIONAL SPACE WILL BE PRINTED LATER.
 NUMBER OF ELECTRONS                          =    9
 CHARGE OF MOLECULE                           =    1
 SPIN MULTIPLICITY                            =    2
 NUMBER OF OCCUPIED ORBITALS (ALPHA)          =    5
 NUMBER OF OCCUPIED ORBITALS (BETA )          =    4
 TOTAL NUMBER OF ATOMS                        =    4
 THE NUCLEAR REPULSION ENERGY IS       11.7553656206

     $CONTRL OPTIONS
     ---------------
 SCFTYP=MCSCF        RUNTYP=ENERGY       EXETYP=RUN     
 MPLEVL=       2     CITYP =NONE         CCTYP =NONE         VBTYP =NONE    
 DFTTYP=NONE         TDDFT =NONE    
 MULT  =       2     ICHARG=       1     NZVAR =       0     COORD =UNIQUE  
 PP    =NONE         RELWFN=NONE         LOCAL =NONE         NUMGRD=       F
 ISPHER=       1     NOSYM =       1     MAXIT =     200     UNITS =ANGS    
 PLTORB=       F     MOLPLT=       F     AIMPAC=       F     FRIEND=        
 NPRINT=       7     IREST =       0     GEOM  =INPUT   
 NORMF =       0     NORMP =       0     ITOL  =      20     ICUT  =       9
 INTTYP=RYSQUAD      GRDTYP=BEST         QMTTOL= 1.0E-05

     $SYSTEM OPTIONS
     ---------------
  REPLICATED MEMORY=   100000000 WORDS (ON EVERY NODE).
 DISTRIBUTED MEMDDI=        1000 MILLION WORDS IN AGGREGATE,
 MEMDDI DISTRIBUTED OVER   1 PROCESSORS IS  1000000000 WORDS/PROCESSOR.
 TOTAL MEMORY REQUESTED ON EACH PROCESSOR=  1100000000 WORDS.
 TIMLIM=      525600.00 MINUTES, OR     365.0 DAYS.
 PARALL= T  BALTYP=  DLB     KDIAG=    3  COREFL= F
 MXSEQ2=     300 MXSEQ3=     150  mem10=         0

          ----------------
          PROPERTIES INPUT
          ----------------

     MOMENTS            FIELD           POTENTIAL          DENSITY
 IEMOM =       1   IEFLD =       0   IEPOT =       0   IEDEN =       0
 WHERE =COMASS     WHERE =NUCLEI     WHERE =NUCLEI     WHERE =NUCLEI  
 OUTPUT=BOTH       OUTPUT=BOTH       OUTPUT=BOTH       OUTPUT=BOTH    
 IEMINT=       0   IEFINT=       0                     IEDINT=       0
                                                       MORB  =       0

     -------------------------------
     INTEGRAL TRANSFORMATION OPTIONS
     -------------------------------
     NWORD  =            0
     CUTOFF = 1.0E-09     MPTRAN =       0
     DIRTRF =       T     AOINTS =DUP     

          ----------------------
          MCSCF INPUT PARAMETERS
          ----------------------
 CONVERGER SELECTION: FOCAS = F  SOSCF = F  FULLNR = T  QUD = F  JACOBI = F
 SECULAR EQUATION METHOD CISTEP = GMCCI   
 --- GENERAL INPUT OPTIONS:
 MAXIT =     100  MICIT =       1  ACURCY= 1.000E-06
 DAMP  =   0.000  CANONC=       T  ENGTOL= 1.000E-10
 EKT   =       F  NPUNCH=       2  NWORD =         0
 REGENERATE CI AFTER CONVERGENCE = NONE    
 DIABATIZATION AFTER CONVERGENCE =        F
 --- INPUT FOR FULLNR CONVERGER:
 METHOD=DM2       FORS  =       F  DROPC =       T
 LINSER=       F  FCORE =       F  NORB  =      30

          ----------------------
          INTEGRAL INPUT OPTIONS
          ----------------------
 NOPK  =       1 NORDER=       0 SCHWRZ=       T

 ------------------------------------------
 MULTIREFERENCE PERTURBATION THEORY CONTROL
 ------------------------------------------
 MRPT=GMCPT    READ CONVERGED MCSCF VECTORS= F


     ------------------------------------------
     THE POINT GROUP IS C1 , NAXIS= 1, ORDER= 1
     ------------------------------------------

 -- VARIATIONAL SPACE WILL BE RESTRICTED TO PURE SPHERICAL HARMONICS ONLY --
 AFTER EXCLUDING CONTAMINANT COMBINATIONS FROM THE CARTESIAN GAUSSIAN BASIS
 SET, THE NUMBER OF SPHERICAL HARMONICS KEPT IN THE VARIATION SPACE IS   29

     DIMENSIONS OF THE SYMMETRY SUBSPACES ARE
 A   =   29

 ..... DONE SETTING UP THE RUN .....
 CPU     0: STEP CPU TIME=     0.03 TOTAL CPU TIME=          0.0 (      0.0 MIN)
 TOTAL WALL CLOCK TIME=          0.0 SECONDS, CPU UTILIZATION IS    60.00%

          ********************
          1 ELECTRON INTEGRALS
          ********************
 TIME TO DO   DIPOLE INTEGRALS=      0.00
 ...... END OF ONE-ELECTRON INTEGRALS ......
 CPU     0: STEP CPU TIME=     0.00 TOTAL CPU TIME=          0.0 (      0.0 MIN)
 TOTAL WALL CLOCK TIME=          0.0 SECONDS, CPU UTILIZATION IS    60.00%

          -------------
          GUESS OPTIONS
          -------------
          GUESS =MOREAD            NORB  =      29          NORDER=       0
          MIX   =       F          PRTMO =       F          PUNMO =       F
          TOLZ  = 1.0E-08          TOLE  = 1.0E-05
          SYMDEN=       F          PURIFY=       T

 INITIAL GUESS ORBITALS GENERATED BY MOREAD   ROUTINE.

 STATISTICS FOR GENERATION OF SYMMETRY ORBITAL -Q- MATRIX
 NUMBER OF CARTESIAN ATOMIC ORBITALS=         30
 NUMBER OF SPHERICAL CONTAMINANTS DROPPED=     1
 NUMBER OF LINEARLY DEPENDENT MOS DROPPED=     0
 TOTAL NUMBER OF MOS IN VARIATION SPACE=      29
 ORBITAL PURIFICATION WILL OCCUR

 SYMMETRIES FOR INITIAL GUESS ORBITALS FOLLOW.   BOTH SET(S).
     5 ORBITALS ARE OCCUPIED (    1 CORE ORBITALS).
     1=A        2=A        3=A        4=A        5=A        6=A        7=A   
     8=A        9=A       10=A       11=A       12=A       13=A       14=A   
    15=A       16=A       17=A       18=A       19=A       20=A       21=A   
    22=A       23=A       24=A       25=A       26=A       27=A       28=A   
    29=A   
 ...... END OF INITIAL ORBITAL SELECTION ......
 CPU     0: STEP CPU TIME=     0.02 TOTAL CPU TIME=          0.0 (      0.0 MIN)
 TOTAL WALL CLOCK TIME=          0.1 SECONDS, CPU UTILIZATION IS    83.33%

                    ----------------------
                    AO INTEGRAL TECHNOLOGY
                    ----------------------
     S,P,L SHELL ROTATED AXIS INTEGRALS, REPROGRAMMED BY
        KAZUYA ISHIMURA (IMS) AND JOSE SIERRA (SYNSTAR).
     S,P,D,L SHELL ROTATED AXIS INTEGRALS PROGRAMMED BY
        KAZUYA ISHIMURA (INSTITUTE FOR MOLECULAR SCIENCE).
     S,P,D,F,G SHELL TO TOTAL QUARTET ANGULAR MOMENTUM SUM 5,
        ERIC PROGRAM BY GRAHAM FLETCHER (ELORET AND NASA ADVANCED
        SUPERCOMPUTING DIVISION, AMES RESEARCH CENTER).
     S,P,D,F,G,L SHELL GENERAL RYS QUADRATURE PROGRAMMED BY
        MICHEL DUPUIS (PACIFIC NORTHWEST NATIONAL LABORATORY).

          --------------------
          2 ELECTRON INTEGRALS
          --------------------

 DIRECT SCF METHOD SKIPS INTEGRAL STORAGE ON DISK.
 DIRECT TRANSFORMATION SKIPS AO INTEGRAL STORAGE ON DISK.
  ...... END OF TWO-ELECTRON INTEGRALS .....
 STEP CPU TIME =     0.02 TOTAL CPU TIME =          0.1 (      0.0 MIN)
 TOTAL WALL CLOCK TIME=          0.1 SECONDS, CPU UTILIZATION IS    87.50%
 DDI: Creating Array [0] - 900 x 36 = 32400 words.
 DDI: Creating Array [1] - 21 x 288 = 6048 words.
 DDI: Creating Array [2] - 36 x 36 = 1296 words.
 DDI: Creating Array [3] - 465 x 36 = 16740 words.

          -----------------
          MCSCF CALCULATION
          -----------------

 ----- NUCLEAR ENERGY ----- =        11.7553656206

     -------------------------------------------------
     GMC-PT/GMC-QDPT or general MCSCF input parameters
     -------------------------------------------------
 # of frozen core orbs. =         0 ->         0
 # of doubly occ. orbs. =         1
 # of active      orbs. =         7
 # of virtual     orbs. =        21
 # of active electrons  =         7
 # of states in CI      =         3
 Highest state in CI    =         3
 kstate =  1 1 1
 avecoe =  0.333 0.333 0.333
 State symmetry           = A           
 Assigned symmetry number = 1

 <<<Act. MO sym.: 1111111

 <<<Division of 1-ext.:  0
 <<<Division of 2-ext.:  0

 *** Reference space

 Reference type: ORMAS (= Occupation restricted multiple active space)
 # of orbitals          =  7
 # of minimum electrons =  7
 # of maximum electrons =  7
 State symmetry    =    1 (input)
 2*Sz              =    1 (input)
 Spin multiplicity =    2 (input)
 Dimension of reference space =      1225  (from      3432 walks)

 Dimension of reference space =      1225  (from      1225 walks)

 <<<Ionized spaces for Ref-CI:
      0:         1225 /   -1-0:         1960 /  0-1-0:         2891

 EVALUATING EXCHANGE INTEGRALS FOR DIRECT INTEGRAL TRANSFORMATION
 SCHWARZ INEQUALITY OVERHEAD:       465 INTEGRALS, T=        0.01

     --------------------------------------------
     PARTIAL TWO ELECTRON INTEGRAL TRANSFORMATION
     --------------------------------------------

 NUMBER OF CORE MOLECULAR ORBITALS     =    1
 NUMBER OF OCCUPIED MOLECULAR ORBITALS =    8
 TOTAL NUMBER OF MOLECULAR ORBITALS    =   29
 TOTAL NUMBER OF ATOMIC ORBITALS       =   30
 THRESHOLD FOR KEEPING TRANSFORMED 2E- INTEGRALS = 1.000E-09

 -------------------------------     ------------------------------
 DISTRIBUTED DATA TRANSFORMATION     PROGRAM WRITTEN BY G. FLETCHER
 -------------------------------     ------------------------------

 THE DISTRIBUTED MEMORY REQUIRED FOR THIS STEP IS MEMDDI=         1 MWORDS
 CREATING DISTRIBUTED STORAGE FOR [VIR OCC|VIR OCC] INTEGRALS
 CREATING DISTRIBUTED STORAGE FOR [VIR OCC|OCC OCC] INTEGRALS
 CREATING DISTRIBUTED STORAGE FOR [OCC OCC|OCC OCC] INTEGRALS
 CREATING DISTRIBUTED STORAGE FOR [VIR VIR|OCC OCC] INTEGRALS
 FOR    1 PROCESSORS, THE REPLICATED MEMORY NEEDED IS       73700 WORDS.
 SCHWARZ INEQUALITY OVERHEAD:       465 INTEGRALS, T=        0.00

      DIRECT 4-INDEX TRANSFORMATION 
      SCHWARZ INEQUALITY TEST SKIPPED          0 INTEGRAL BLOCKS
 ----- FROZEN CORE ENERGY =       -47.8088658815
 ... END OF INTEGRAL TRANSFORMATION ...
 CPU     0: STEP CPU TIME=     0.22 TOTAL CPU TIME=          0.3 (      0.0 MIN)
 TOTAL WALL CLOCK TIME=          0.3 SECONDS, CPU UTILIZATION IS    96.67%

     --------------------------------     -----------------------------
     MCHF NEWTON-RAPHSON OPTIMIZATION     CODE WRITTEN BY MICHEL DUPUIS
     --------------------------------     -----------------------------
     PARALLEL VERSION WRITTEN BY G. FLETCHER (ELORET)
     NASA ADVANCED SUPERCOMPUTING DIVISION, AMES RESEARCH CENTER

 NUMBER OF INDEPENDENT ORBITAL ROTATION PARAMETERS =   175
 ..... DONE SOLVING NEWTON-RAPHSON EQUATIONS .....
 CPU     0: STEP CPU TIME=     0.77 TOTAL CPU TIME=          1.1 (      0.0 MIN)
 TOTAL WALL CLOCK TIME=          1.1 SECONDS, CPU UTILIZATION IS    99.07%
 ..... DONE WITH NTN-RPH ORBITAL ROTATIONS ..... 
 CPU     0: STEP CPU TIME=     0.00 TOTAL CPU TIME=          1.1 (      0.0 MIN)
 TOTAL WALL CLOCK TIME=          1.1 SECONDS, CPU UTILIZATION IS    99.07%
 MAXIMUM MEMORY USED BY NTN-RPH CODE WAS     57645 WORDS.

 ITER     TOTAL ENERGY      DEL(E)  LAGRANGIAN ASYMMETRY   SQCDF  MICIT   DAMP
   1      -55.679666459 -0.679666459  0.137809   13    3 1.702E-01  1   0.0000
   2      -55.716020164 -0.036353705  0.024934   12    5 4.510E-01  1   0.0000
   3      -55.747853262 -0.031833098  0.012316   12    5 2.111E-01  1   0.0263
   4      -55.761030389 -0.013177127  0.004068   11    6 3.719E-02  1   0.0045
   5      -55.762620112 -0.001589722  0.000749   12    5 1.124E-03  1   0.0000
   6      -55.762668725 -0.000048613  0.000249   12    5 9.287E-05  1   0.0000
   7      -55.762673555 -0.000004831  0.000111   12    5 1.258E-05  1   0.0000
   8      -55.762674252 -0.000000697  0.000049   12    5 1.862E-06  1   0.0000
   9      -55.762674358 -0.000000106  0.000021   12    5 2.875E-07  1   0.0000
  10      -55.762674375 -0.000000017  0.000008   12    5 4.696E-08  1   0.0000
  11      -55.762674377 -0.000000003  0.000003   12    5 8.471E-09  1   0.0000
  12      -55.762674378 -0.000000001  0.000001   12    5 1.765E-09  1   0.0000
  13      -55.762674378 -0.000000000  0.000001   12    5 4.301E-10  1   0.0000

          --------------------
          LAGRANGIAN CONVERGED
          --------------------

 FINAL MCSCF ENERGY IS      -55.7626743781 AFTER  13 ITERATIONS

 -MCCI- BASED ON OPTIMIZED ORBITALS
 ----------------------------------

 PLEASE NOTE: IF THE ACTIVE ORBITALS ARE CANONICALIZED BELOW,
 THE FOLLOWING CI EXPANSION COEFFICIENTS AND THE DENSITY DO NOT
 CORRESPOND TO THE PRINTED ORBITALS.  THE PRINTED EXPANSIONS MATCH
 THE ORBITALS USED DURING THE LAST ITERATION.  IF YOU WISH TO SEE
 CI EXPANSIONS BASED ON THE CANONICAL (OR NATURAL) ORBITALS, YOU
 MUST RUN A CI CALCULATION WITH THAT ORBITAL CHOICE READ IN $VEC.

 Averaged energy =     -55.762674378

 State #    1  Energy =     -55.905360191  S =  0.500

      Det      Coef    Occupancy (Ignoring core)
      ---      ----    --------- --------- -----
        1   -0.952402  11110001110000
        2   -0.055773  11101001110000
        5    0.059610  01111001110000
        8    0.132167  10110101110000
       17    0.121707  11010011110000
       71   -0.051917  11110001011000
      386   -0.107961  11110001010010
      393   -0.052741  10110101010010
      701   -0.091944  11110001100001
      717   -0.066550  11010011100001

 State #    2  Energy =     -55.726286713  S =  0.500

      Det      Coef    Occupancy (Ignoring core)
      ---      ----    --------- --------- -----
       36   -0.954466  11110001101000
       40    0.053067  01111001101000
       43    0.095776  10110101101000
       52    0.060064  11010011101000
       71    0.167312  11110001011000
      281   -0.055114  11110000101100
      456   -0.099809  11110001001010
      463   -0.055918  10110101001010

 State #    3  Energy =     -55.656376231  S =  0.500

      Det      Coef    Occupancy (Ignoring core)
      ---      ----    --------- --------- -----
       36   -0.170143  11110001101000
       71   -0.955223  11110001011000
       78    0.066016  10110101011000
       87    0.077138  11010011011000
      316   -0.063007  11110000011100
      806    0.090573  11110001001001
      822    0.069478  11010011001001

 DENSITY MATRIX OVER ACTIVE MO-S

             1           2           3           4           5

    1    1.9799421
    2   -0.0044992   1.6370550
    3   -0.0036282   0.0001964   1.6376935
    4    0.0037600  -0.0001922  -0.0004172   1.6558107
    5    0.0934895   0.0029273   0.0036857   0.0435599   0.0236468
    6    0.0038914  -0.1497559   0.0038809  -0.0067740  -0.0003234
    7   -0.0005446  -0.0028797   0.1285496   0.0058655   0.0009434

             6           7

    6    0.0329120
    7   -0.0002503   0.0329400

 FORMING THE "STANDARD FOCK OPERATOR" IN DIRECT AO INTEGRAL MODE...
 ONLY THE    1 CORE AND   21 VIRTUAL ORBITALS WILL BE CANONICALIZED

          ----------------------
          MCSCF NATURAL ORBITALS
          ----------------------

                      1          2          3          4          5
                  -15.9874     1.9846     1.6570     1.6509     1.6478
                     A          A          A          A          A   
    1  N  1  S    1.001351   0.008397  -0.011416   0.000940   0.000755
    2  N  1  S   -0.001755   0.439107  -0.182055   0.036767   0.022385
    3  N  1  S   -0.006401   0.281231  -0.286168   0.051471   0.033042
    4  N  1  X    0.000047  -0.013451   0.065971   0.483551   0.081828
    5  N  1  Y   -0.000002  -0.008698   0.018842  -0.079528   0.507974
    6  N  1  Z    0.001166   0.097820   0.592487  -0.051489  -0.016755
    7  N  1  X   -0.000031   0.002174   0.039162   0.182735   0.038924
    8  N  1  Y   -0.000024   0.001911   0.016388  -0.029402   0.236577
    9  N  1  Z   -0.000434   0.004193   0.381442  -0.023661  -0.002262
   10  N  1 XX    0.000272   0.000136  -0.011533   0.009174   0.003163
   11  N  1 YY   -0.000090  -0.001328  -0.012873  -0.006706  -0.002314
   12  N  1 ZZ   -0.000181   0.001192   0.024405  -0.002468  -0.000849
   13  N  1 XY   -0.000095  -0.000139  -0.000289   0.000427  -0.013789
   14  N  1 XZ   -0.000060  -0.000892   0.001907   0.024493   0.004401
   15  N  1 YZ   -0.000042  -0.000206  -0.000054  -0.003631   0.025633
   16  H  2  S   -0.002020   0.192279   0.092718  -0.260607   0.275939
   17  H  2  S    0.000461   0.002865   0.023522  -0.032422   0.047512
   18  H  2  X   -0.000609   0.023053   0.010242  -0.003175   0.025825
   19  H  2  Y    0.000799  -0.028179  -0.012406   0.027949  -0.008675
   20  H  2  Z    0.000447  -0.009011   0.019788   0.010739  -0.013997
   21  H  3  S   -0.002026   0.201966   0.088235  -0.153180  -0.351237
   22  H  3  S    0.000394   0.005630   0.021245  -0.019068  -0.059841
   23  H  3  X   -0.000552   0.021337   0.009974   0.009322  -0.022901
   24  H  3  Y   -0.000803   0.029452   0.013962  -0.022055  -0.018325
   25  H  3  Z    0.000464  -0.011598   0.019859   0.005964   0.017839
   26  H  4  S   -0.002116   0.187055   0.138471   0.361768   0.047944
   27  H  4  S    0.000561   0.001500   0.027823   0.042391   0.008723
   28  H  4  X    0.001081  -0.037620  -0.018995  -0.032305  -0.001712
   29  H  4  Y   -0.000057   0.002193   0.001408   0.000235   0.020241
   30  H  4  Z    0.000423  -0.006353   0.017526  -0.018435  -0.002836

                      6          7          8
                    0.0229     0.0188     0.0180
                     A          A          A   
    1  N  1  S    0.041267   0.010004   0.265943
    2  N  1  S    0.125757   0.017220   0.837709
    3  N  1  S   -0.008390  -0.043674   0.151857
    4  N  1  X    0.186962   0.924868  -0.002246
    5  N  1  Y    0.854499  -0.202614  -0.124894
    6  N  1  Z    0.043315  -0.063601   0.687433
    7  N  1  X    0.004567   0.069956  -0.022318
    8  N  1  Y    0.018981  -0.012497  -0.018219
    9  N  1  Z   -0.010691   0.001425  -0.102254
   10  N  1 XX   -0.008311   0.014393  -0.012577
   11  N  1 YY    0.007703  -0.017754   0.022271
   12  N  1 ZZ    0.000608   0.003361  -0.009694
   13  N  1 XY    0.022951   0.005973   0.007191
   14  N  1 XZ   -0.005266  -0.049766   0.015813
   15  N  1 YZ   -0.029382   0.010473   0.013001
   16  H  2  S   -0.585785   0.512087  -0.420539
   17  H  2  S   -0.112478   0.095079  -0.038317
   18  H  2  X   -0.045523   0.011969  -0.035433
   19  H  2  Y    0.031506  -0.049343   0.056934
   20  H  2  Z    0.008144   0.005965  -0.013002
   21  H  3  S    0.634176   0.243996  -0.567708
   22  H  3  S    0.132121   0.041807  -0.067705
   23  H  3  X    0.033412  -0.014371  -0.042673
   24  H  3  Y    0.034329   0.034958  -0.067247
   25  H  3  Z   -0.011441   0.003696  -0.009706
   26  H  4  S   -0.213328  -0.687936  -0.548183
   27  H  4  S   -0.034321  -0.125781  -0.058293
   28  H  4  X    0.019617   0.061241   0.077551
   29  H  4  Y   -0.018707  -0.000128  -0.001322
   30  H  4  Z    0.002547  -0.003047  -0.010709

          ------------------------
          MCSCF OPTIMIZED ORBITALS
          ------------------------

                      1          2          3          4          5
                  -15.9874     0.0000     0.0000     0.0000     0.0000
                     A          A          A          A          A   
    1  N  1  S    1.001351  -0.004061  -0.003378  -0.000866  -0.018545
    2  N  1  S   -0.001755   0.402472   0.007326   0.005345  -0.200091
    3  N  1  S   -0.006401   0.279598   0.027616   0.018099  -0.289241
    4  N  1  X    0.000047  -0.003101   0.405623   0.012541   0.016010
    5  N  1  Y   -0.000002  -0.002571   0.002465   0.442501   0.007601
    6  N  1  Z    0.001166   0.053566   0.002365   0.000392   0.578284
    7  N  1  X   -0.000031   0.005894   0.182218   0.012738   0.021572
    8  N  1  Y   -0.000024   0.004924   0.008068   0.235970   0.012036
    9  N  1  Z   -0.000434   0.002077   0.013007   0.007877   0.384504
   10  N  1 XX    0.000272   0.001202   0.007284   0.002376  -0.012042
   11  N  1 YY   -0.000090  -0.002394  -0.006767  -0.002255  -0.012752
   12  N  1 ZZ   -0.000181   0.001192  -0.000517  -0.000121   0.024794
   13  N  1 XY   -0.000095  -0.000715  -0.002589  -0.015271  -0.000261
   14  N  1 XZ   -0.000060  -0.001487   0.029339   0.000381  -0.000780
   15  N  1 YZ   -0.000042  -0.000362  -0.000354   0.028343  -0.000669
   16  H  2  S   -0.002020   0.215127  -0.243021   0.361560   0.125089
   17  H  2  S    0.000461   0.005364  -0.029142   0.062103   0.026570
   18  H  2  X   -0.000609   0.025054   0.001201   0.029343   0.011310
   19  H  2  Y    0.000799  -0.030702   0.028939  -0.015529  -0.016743
   20  H  2  Z    0.000447  -0.008764   0.009879  -0.015564   0.019253
   21  H  3  S   -0.002026   0.218662  -0.225218  -0.372479   0.126087
   22  H  3  S    0.000394   0.007033  -0.031103  -0.065753   0.025586
   23  H  3  X   -0.000552   0.022766   0.007438  -0.027122   0.011058
   24  H  3  Y   -0.000803   0.031811  -0.026720  -0.017343   0.018439
   25  H  3  Z    0.000464  -0.011091   0.010395   0.018040   0.018781
   26  H  4  S   -0.002116   0.213503   0.441270  -0.005395   0.123512
   27  H  4  S    0.000561   0.004012   0.057739   0.002786   0.025538
   28  H  4  X    0.001081  -0.041154  -0.039531   0.003263  -0.018823
   29  H  4  Y   -0.000057   0.002569   0.003619   0.021347   0.000957
   30  H  4  Z    0.000423  -0.006462  -0.016452  -0.000030   0.019356

                      6          7          8          9         10
                    0.0000     0.0000     0.0000     0.1546     0.1974
                     A          A          A          A          A   
    1  N  1  S    0.267291   0.029233   0.007718  -0.161603  -0.012922
    2  N  1  S    0.858512   0.077497   0.023011  -0.251752  -0.024871
    3  N  1  S    0.158641  -0.037254  -0.016788   1.594828   0.067027
    4  N  1  X   -0.041549   0.984228   0.002611   0.015249   0.090904
    5  N  1  Y   -0.020927  -0.033369   0.924221   0.011427  -0.018693
    6  N  1  Z    0.709780  -0.021614  -0.022036  -0.238710  -0.030138
    7  N  1  X   -0.024999   0.085634  -0.005871  -0.075554  -0.691469
    8  N  1  Y   -0.014185  -0.009022   0.041893  -0.036138   0.025429
    9  N  1  Z   -0.092513  -0.002384   0.003007   0.557378   0.080462
   10  N  1 XX   -0.014539   0.012549  -0.009358   0.056827  -0.066720
   11  N  1 YY    0.023617  -0.015610   0.008227  -0.010500   0.060779
   12  N  1 ZZ   -0.009078   0.003061   0.001131  -0.046327   0.005941
   13  N  1 XY    0.009067   0.010597   0.019224  -0.017463   0.011701
   14  N  1 XZ    0.018358  -0.046582   0.002739  -0.023496  -0.107182
   15  N  1 YZ    0.009219   0.004840  -0.029998  -0.012637   0.000125
   16  H  2  S   -0.498167   0.344118  -0.594607   0.259935   0.213354
   17  H  2  S   -0.054896   0.066426  -0.119007  -0.886225  -0.842630
   18  H  2  X   -0.039167   0.001118  -0.040387  -0.085854  -0.005787
   19  H  2  Y    0.061177  -0.037005   0.032551   0.066868   0.057157
   20  H  2  Z   -0.012387   0.007988   0.007101   0.028352   0.056251
   21  H  3  S   -0.501650   0.323148   0.608409   0.188821   0.292400
   22  H  3  S   -0.055456   0.062134   0.123630  -0.757796  -1.064738
   23  H  3  X   -0.036681  -0.008485   0.038223  -0.077339  -0.003350
   24  H  3  Y   -0.063622   0.035957   0.033165  -0.070270  -0.060079
   25  H  3  Z   -0.011044   0.001929  -0.009301   0.040724   0.051181
   26  H  4  S   -0.508258  -0.701821  -0.011922   0.300352  -0.539468
   27  H  4  S   -0.052384  -0.127625  -0.002061  -0.912920   1.872137
   28  H  4  X    0.072632   0.063821  -0.001430   0.116561  -0.093516
   29  H  4  Y   -0.003047  -0.003664  -0.016409  -0.010383   0.009934
   30  H  4  Z   -0.010009  -0.004375   0.004411   0.006245  -0.075916

                     11         12         13         14         15
                    0.2017     0.5462     0.5673     0.6245     0.8286
                     A          A          A          A          A   
    1  N  1  S   -0.012699  -0.030764  -0.008425  -0.093416  -0.161386
    2  N  1  S   -0.023454  -0.017205   0.038547  -0.342311  -0.361697
    3  N  1  S    0.093505   0.323016   0.281906  -0.133419   0.735963
    4  N  1  X   -0.023963  -0.272396  -0.360973  -0.219948   0.085579
    5  N  1  Y    0.026836  -0.499578   0.324998  -0.027788  -0.021511
    6  N  1  Z   -0.020860  -0.248748  -0.254933   0.593132   0.110982
    7  N  1  X    0.086237   0.881775   1.377746   1.064433  -0.546812
    8  N  1  Y   -0.509351   1.419803  -1.087750   0.126269   0.130034
    9  N  1  Z    0.056295   0.351348   0.403652  -0.996576   0.052935
   10  N  1 XX   -0.001055  -0.014004  -0.044684   0.039858  -0.113694
   11  N  1 YY    0.000221  -0.000277   0.023629   0.025434   0.150651
   12  N  1 ZZ    0.000834   0.014282   0.021055  -0.065292  -0.036958
   13  N  1 XY    0.095259  -0.007937  -0.011385  -0.009096  -0.038811
   14  N  1 XZ    0.008987   0.019981   0.017803  -0.028154   0.132239
   15  N  1 YZ   -0.084933   0.032666  -0.011757  -0.008550  -0.035445
   16  H  2  S   -0.529464  -0.362085   0.394499   0.640141  -0.131497
   17  H  2  S    1.753921  -0.555267   0.826655   0.051982  -0.273709
   18  H  2  X    0.055905   0.000003   0.167645   0.017457   0.144978
   19  H  2  Y   -0.051684   0.073113  -0.033103  -0.016989   0.437913
   20  H  2  Z   -0.047933   0.074387  -0.028274  -0.023936  -0.215340
   21  H  3  S    0.513924   0.355944  -0.242049   0.714565  -0.066380
   22  H  3  S   -1.740384   0.973656  -0.205940   0.208805  -0.175163
   23  H  3  X   -0.060396   0.109512   0.069584   0.011833   0.288660
   24  H  3  Y   -0.056419   0.076780  -0.058147   0.029071  -0.401228
   25  H  3  Z    0.047326  -0.074358   0.046646  -0.034036  -0.095955
   26  H  4  S    0.010255  -0.444064  -0.709646   0.059154   0.082858
   27  H  4  S   -0.103402  -0.515355  -0.656468  -0.582192   0.053202
   28  H  4  X    0.018361   0.072929   0.104313   0.136273  -0.137379
   29  H  4  Y    0.047615   0.041100  -0.085992  -0.018267  -0.106545
   30  H  4  Z    0.013244   0.060591   0.055830  -0.070954   0.292390

                     16         17         18         19         20
                    0.9587     0.9809     1.3538     1.4832     1.5292
                     A          A          A          A          A   
    1  N  1  S   -0.534080  -0.077035  -0.012779  -0.475699  -0.421452
    2  N  1  S   -1.134632  -0.163716  -0.026348  -0.981516  -0.856982
    3  N  1  S    2.294942   0.423153   0.044897   1.829209   1.764367
    4  N  1  X    0.038691   0.007620  -0.087518  -0.026467   0.030302
    5  N  1  Y    0.019976   0.068310   0.100628   0.005367  -0.035274
    6  N  1  Z    0.170615   0.032856  -0.002933  -0.026117  -0.004478
    7  N  1  X   -0.156533  -0.057851   0.399380   0.650723  -0.847495
    8  N  1  Y   -0.093923  -0.434450  -0.328113   0.038336  -0.106997
    9  N  1  Z   -0.067743   0.136804   0.008078   0.727856   0.769017
   10  N  1 XX   -0.083645  -0.001613   0.031417   0.130178   0.080342
   11  N  1 YY   -0.133455   0.042533  -0.025792   0.113210   0.078836
   12  N  1 ZZ    0.217100  -0.040920  -0.005626  -0.243387  -0.159179
   13  N  1 XY   -0.001156   0.178070   0.030724  -0.004388  -0.001935
   14  N  1 XZ    0.008846   0.039602  -0.004000  -0.043661   0.072007
   15  N  1 YZ    0.017367   0.242792  -0.006575  -0.009961   0.040258
   16  H  2  S   -0.349409   0.038236   0.242500  -0.361494  -0.668549
   17  H  2  S   -0.304127   0.057227   0.084149  -0.076289  -0.198955
   18  H  2  X    0.003685   0.256279  -0.599114  -0.318069   0.159972
   19  H  2  Y   -0.097599   0.089103  -0.186922  -0.164592   0.081664
   20  H  2  Z    0.345597   0.289815  -0.250895  -0.442570  -0.104444
   21  H  3  S   -0.394840  -0.180821  -0.058143  -0.357548  -0.690466
   22  H  3  S   -0.322868  -0.192628  -0.006730  -0.081988  -0.289354
   23  H  3  X    0.003883  -0.271868   0.355878  -0.443985   0.313324
   24  H  3  Y    0.114985  -0.165447  -0.120466   0.113257  -0.169233
   25  H  3  Z    0.321295  -0.429063   0.051237  -0.463491   0.184489
   26  H  4  S   -0.281565  -0.055626  -0.206889  -0.774558  -0.163082
   27  H  4  S   -0.317375  -0.048503  -0.094726  -0.313790   0.037491
   28  H  4  X   -0.033228   0.072408  -0.076299  -0.171802   0.254879
   29  H  4  Y    0.010035   0.467483   0.693041  -0.250352   0.165301
   30  H  4  Z    0.296851   0.039742   0.178156   0.051550  -0.851352

                     21         22         23         24         25
                    1.6042     1.8373     1.8672     2.0856     2.2391
                     A          A          A          A          A   
    1  N  1  S   -0.018069  -0.053197  -0.000837   0.044797   0.109460
    2  N  1  S   -0.040020  -0.107750  -0.011509   0.219958   0.256037
    3  N  1  S    0.015405   0.251953  -0.033907   2.043809   0.219820
    4  N  1  X    0.042834   0.262066   0.566054  -0.017853  -0.129056
    5  N  1  Y    0.184722   0.375421  -0.233883  -0.028056  -0.017101
    6  N  1  Z   -0.013081  -0.027415  -0.031329   0.381620   0.106865
    7  N  1  X   -0.217553  -0.014462   0.043938   0.081532   0.075503
    8  N  1  Y    0.728195  -0.207928   0.030368   0.089885   0.127553
    9  N  1  Z   -0.005141   0.088880  -0.035475   0.894583  -0.223543
   10  N  1 XX    0.009307  -0.069340  -0.196255  -0.241728  -0.164300
   11  N  1 YY    0.036569   0.154446   0.270838  -0.148835   0.864347
   12  N  1 ZZ   -0.045876  -0.085107  -0.074582   0.390563  -0.700047
   13  N  1 XY    0.011270   0.215364  -0.119439   0.047854   0.214858
   14  N  1 XZ    0.004696  -0.076519  -0.158747   0.010454   0.408887
   15  N  1 YZ   -0.202142  -0.118147   0.083416   0.080869   0.281056
   16  H  2  S   -0.204204   0.023614  -0.053341  -0.589276  -0.082854
   17  H  2  S   -0.272924  -0.255066   0.357332  -0.312801  -0.115632
   18  H  2  X   -0.323140  -0.116869   0.287765  -0.725212  -0.438751
   19  H  2  Y   -0.313363   0.543625  -0.679066   0.451742  -0.141326
   20  H  2  Z    0.641768  -0.020777  -0.310588  -0.084335   0.407659
   21  H  3  S    0.084221  -0.216061   0.012532  -0.564659  -0.020817
   22  H  3  S    0.248265   0.404949   0.015538  -0.221838  -0.063263
   23  H  3  X    0.483994   0.270953   0.123367  -0.509954  -0.209609
   24  H  3  Y   -0.257147   0.852141  -0.026879  -0.547091   0.082584
   25  H  3  Z   -0.562070  -0.208726  -0.077162   0.019973   0.638545
   26  H  4  S    0.109037  -0.018880   0.066098  -0.609068  -0.035737
   27  H  4  S    0.028043  -0.229069  -0.355445  -0.378273   0.003112
   28  H  4  X    0.034602   0.397263   0.686840   0.876279   0.013230
   29  H  4  Y   -0.395187   0.021796   0.040185  -0.224355  -0.191180
   30  H  4  Z   -0.098641   0.119102   0.391654  -0.137402   0.088416

                     26         27         28         29
                    2.3541     2.5338     2.7868     2.9220
                     A          A          A          A   
    1  N  1  S    0.015972   0.008056  -0.042868   0.028660
    2  N  1  S    0.008832   0.147662  -0.094292   0.078931
    3  N  1  S   -0.412017   1.924010  -0.115470   0.241727
    4  N  1  X    0.070998  -0.057532  -0.629083   0.255014
    5  N  1  Y    0.011970  -0.096703   0.244263   0.568610
    6  N  1  Z   -0.058349   0.308859  -0.026212   0.030526
    7  N  1  X   -0.060677  -0.449502  -1.345120   0.445653
    8  N  1  Y    0.458191  -0.264526   0.503170   0.971185
    9  N  1  Z   -0.149295   0.376989   0.045467  -0.033894
   10  N  1 XX    0.365510   0.894661  -0.736265   0.504023
   11  N  1 YY   -0.401632  -0.126293   0.617458  -0.314534
   12  N  1 ZZ    0.036122  -0.768368   0.118807  -0.189490
   13  N  1 XY    0.695558  -0.050693  -0.347681  -1.170358
   14  N  1 XZ   -0.206611  -0.614270  -1.080264   0.348538
   15  N  1 YZ    0.758686  -0.300409   0.423408   0.836002
   16  H  2  S    0.016729  -0.667859  -1.044607  -0.904366
   17  H  2  S   -0.046281  -0.159075  -0.403818  -0.325846
   18  H  2  X   -0.033484   0.036144  -0.490057  -0.498698
   19  H  2  Y   -0.048247   0.516202   0.545747   0.546894
   20  H  2  Z   -0.326588   0.375896   0.253139   0.416963
   21  H  3  S    0.261166  -0.932626  -0.167316   1.249437
   22  H  3  S    0.174238  -0.349719  -0.048449   0.455318
   23  H  3  X    0.568184  -0.167625   0.050764   0.580803
   24  H  3  Y   -0.091099  -0.616667  -0.111631   0.736572
   25  H  3  Z    0.119894   0.427103  -0.010238  -0.485424
   26  H  4  S    0.122371  -0.527480   1.345205  -0.632333
   27  H  4  S    0.020715  -0.107551   0.508437  -0.210909
   28  H  4  X   -0.095865   0.392519  -0.984583   0.486586
   29  H  4  Y   -0.630648   0.084908   0.098181  -0.011856
   30  H  4  Z    0.139471   0.564201  -0.343893   0.262027
 .....DONE WITH MCSCF ITERATIONS.....
 CPU     0: STEP CPU TIME=     8.18 TOTAL CPU TIME=          9.2 (      0.2 MIN)
 TOTAL WALL CLOCK TIME=          9.3 SECONDS, CPU UTILIZATION IS    99.78%

     ----------------------------------------------------------------
     PROPERTY VALUES FOR THE MCSCF SELF-CONSISTENT FIELD WAVEFUNCTION
     ----------------------------------------------------------------

          -----------------
          ENERGY COMPONENTS
          -----------------

         WAVEFUNCTION NORMALIZATION =       1.0000000000

                ONE ELECTRON ENERGY =     -94.9025679956
                TWO ELECTRON ENERGY =      27.3845279968
           NUCLEAR REPULSION ENERGY =      11.7553656206
                                      ------------------
                       TOTAL ENERGY =     -55.7626743781

 ELECTRON-ELECTRON POTENTIAL ENERGY =      27.3845279968
  NUCLEUS-ELECTRON POTENTIAL ENERGY =    -150.8344729784
   NUCLEUS-NUCLEUS POTENTIAL ENERGY =      11.7553656206
                                      ------------------
             TOTAL POTENTIAL ENERGY =    -111.6945793610
               TOTAL KINETIC ENERGY =      55.9319049829
                 VIRIAL RATIO (V/T) =       1.9969743458

          ---------------------------------------
          MULLIKEN AND LOWDIN POPULATION ANALYSES
          ---------------------------------------

     ATOMIC MULLIKEN POPULATION IN EACH MOLECULAR ORBITAL

                      1          2          3          4          5

                  2.000000   1.984610   1.656963   1.650871   1.647839

    1             2.001045   1.292729   1.543174   0.940074   1.033285
    2            -0.000334   0.227274   0.029176   0.215892   0.233766
    3            -0.000346   0.250505   0.029179   0.079735   0.365643
    4            -0.000365   0.214102   0.055434   0.415170   0.015145

                      6          7          8

                  0.022900   0.018847   0.017971

    1             0.011536   0.010063   0.009591
    2             0.004993   0.002922   0.001876
    3             0.005731   0.000668   0.003386
    4             0.000639   0.005193   0.003117
 WARNING! MCSCF POPULATIONS SHOWN ABOVE ARE FOR THE NATURAL ORBITALS.
 IGNORE THE ABOVE DATA FOR MCSCF FUNCTIONS WHICH ARE NOT OF -FORS- TYPE.
 THE FOLLOWING POPULATIONS ARE CORRECT FOR ANY MCSCF WAVEFUNCTION.

               ----- POPULATIONS IN EACH AO -----
                             MULLIKEN      LOWDIN
              1  N  1  S      2.00279     1.89295
              2  N  1  S      0.82798     0.57613
              3  N  1  S      0.61257     0.38770
              4  N  1  X      0.67864     0.59840
              5  N  1  Y      0.70439     0.63606
              6  N  1  Z      0.89002     0.83081
              7  N  1  X      0.26391     0.37726
              8  N  1  Y      0.32635     0.40564
              9  N  1  Z      0.51550     0.55242
             10  N  1 XX      0.00056     0.17568
             11  N  1 YY      0.00187     0.15811
             12  N  1 ZZ      0.00362     0.14182
             13  N  1 XY      0.00694     0.01275
             14  N  1 XZ      0.00638     0.01351
             15  N  1 YZ      0.00000     0.01114
             16  H  2  S      0.62088     0.48089
             17  H  2  S      0.03615     0.14137
             18  H  2  X      0.01933     0.03523
             19  H  2  Y      0.02439     0.04235
             20  H  2  Z      0.01482     0.03841
             21  H  3  S      0.63464     0.49102
             22  H  3  S      0.04035     0.14071
             23  H  3  X      0.01757     0.03134
             24  H  3  Y      0.02556     0.04462
             25  H  3  Z      0.01637     0.04131
             26  H  4  S      0.62006     0.48326
             27  H  4  S      0.02978     0.14087
             28  H  4  X      0.03671     0.06073
             29  H  4  Y      0.00829     0.02007
             30  H  4  Z      0.01360     0.03744

          ----- MULLIKEN ATOMIC OVERLAP POPULATIONS -----
          (OFF-DIAGONAL ELEMENTS NEED TO BE MULTIPLIED BY 2)

             1           2           3           4

    1    5.8937672
    2    0.3127275   0.4140506
    3    0.3129271  -0.0057424   0.4322448
    4    0.3220763  -0.0054695  -0.0049288   0.3967570

          TOTAL MULLIKEN AND LOWDIN ATOMIC POPULATIONS
       ATOM         MULL.POP.    CHARGE          LOW.POP.     CHARGE
    1 N             6.841498    0.158502         6.770382    0.229618
    2 H             0.715566    0.284434         0.738248    0.261752
    3 H             0.734501    0.265499         0.749005    0.250995
    4 H             0.708435    0.291565         0.742365    0.257635

          MULLIKEN SPHERICAL HARMONIC POPULATIONS
       ATOM           S       P       D      F      G      H      I    TOTAL
    1 N             3.44    3.38    0.02   0.00   0.00   0.00   0.00    6.84
    2 H             0.66    0.06    0.00   0.00   0.00   0.00   0.00    0.72
    3 H             0.67    0.06    0.00   0.00   0.00   0.00   0.00    0.73
    4 H             0.65    0.06    0.00   0.00   0.00   0.00   0.00    0.71

          ---------------------
          ELECTROSTATIC MOMENTS
          ---------------------

 POINT   1           X           Y           Z (BOHR)    CHARGE
                -0.000001   -0.000001   -0.177185        1.00 (A.U.)
         DX          DY          DZ         /D/  (DEBYE)
    -0.205710   -0.100017    2.147087    2.159236
 ...... END OF PROPERTY EVALUATION ......
 CPU     0: STEP CPU TIME=     0.00 TOTAL CPU TIME=          9.2 (      0.2 MIN)
 TOTAL WALL CLOCK TIME=          9.3 SECONDS, CPU UTILIZATION IS    99.78%

     -------------------------------------------------
     GMC-PT/GMC-QDPT or general MCSCF input parameters
     -------------------------------------------------
 # of frozen core orbs. =         0 ->         0
 # of doubly occ. orbs. =         1
 # of active      orbs. =         7
 # of virtual     orbs. =        21
 # of active electrons  =         7
 # of states in CI      =         3
 Highest state in CI    =         3
 kstate =  1 1 1
 avecoe =  0.333 0.333 0.333
 State symmetry           = A           
 Assigned symmetry number = 1

 <<<Act. MO sym.: 1111111

 <<<Division of 1-ext.:  0
 <<<Division of 2-ext.:  0

     ------------------------
     Orbital canonicalization
     ------------------------

 MOs are canonicalized for core, virtual, and invariant-active orbital spaces.
 This is a part of the GMC-QDPT calculation.
 SCHWARZ INEQUALITY OVERHEAD:       465 INTEGRALS, T=        0.00
 DIRECT TRANSFORMATION SKIPS AO INTEGRAL STORAGE ON DISK.

 Averaged energy =     -55.762674378

 State #    1  Energy =     -55.905360191  S =  0.500
 State #    2  Energy =     -55.726286713  S =  0.500
 State #    3  Energy =     -55.656376231  S =  0.500

 Orbital energies for filled orbital space
  -15.987397
 Orbital energies for active orbital space
   -1.536433  -0.977079  -0.902931  -0.760816   0.427411
    0.411590   0.321370
 Orbital energies for external orbital space
    0.154557   0.197383   0.201656   0.546177   0.567279
    0.624533   0.828578   0.958730   0.980913   1.353802
    1.483207   1.529158   1.604215   1.837255   1.867155
    2.085585   2.239103   2.354124   2.533770   2.786834
    2.922027

 Zero values mean non-canonical orbitals.
 ... done with orbital canonicalization ...
 CPU     0: STEP CPU TIME=     0.60 TOTAL CPU TIME=          9.8 (      0.2 MIN)
 TOTAL WALL CLOCK TIME=          9.9 SECONDS, CPU UTILIZATION IS    99.80%

     --------------------------------------------
     PARTIAL TWO ELECTRON INTEGRAL TRANSFORMATION
     --------------------------------------------

 NUMBER OF CORE MOLECULAR ORBITALS     =    0
 NUMBER OF OCCUPIED MOLECULAR ORBITALS =    8
 TOTAL NUMBER OF MOLECULAR ORBITALS    =   29
 TOTAL NUMBER OF ATOMIC ORBITALS       =   30
 THRESHOLD FOR KEEPING TRANSFORMED 2E- INTEGRALS = 1.000E-09
 AO INTEGRALS WILL BE CALCULATED IN DIRECT MODE...
 DIRECT TRANSFORMATION SKIPS AO INTEGRAL STORAGE ON DISK.
 SCHWARZ INEQUALITY OVERHEAD:       465 INTEGRALS, T=        0.00

 PLAN A: REQUIREMENTS FOR FULLY IN-MEMORY TRANSFORMATION:
 # OF WORDS AVAILABLE =            100000000
 # OF WORDS NEEDED    =               221798

 PARALLEL ONLY WORKS WITH THE SEGMENTED ALGORITHM.
 ADJUSTING MEMORY TO USE SEGMENTED ALGORITHM.


 PLAN B: REQUIREMENTS FOR THE SEGMENTED TRANSFORMATION:
       MINIMUM=         124148 WORDS FOR 1 MOLECULAR ORBITAL PER PASS
       MAXIMUM=         221798 WORDS FOR ALL MOLECULAR ORBITALS IN 1 PASS
              (          13950 EXTRA WORDS INCLUDES 1 EXTRA ORBITAL/PASS)
 THIS RUN USES=         221798 WORDS,
 DISTRIBUTING   1 PASSES EACH CONTAINING     8 ORBITALS OVER   1 PROCESSORS.

 CHOOSING SEGMENTED PARTIAL TRANSFORMATION...
 DIRECT TRANSFORMATION SKIPS AO INTEGRAL STORAGE ON DISK.
 PASS #   1 TOOK        0.05 SECONDS.
 TOTAL NUMBER OF TRANSFORMED 2E- INTEGRALS KEPT =        29226
 ... END OF INTEGRAL TRANSFORMATION ...
 CPU     0: STEP CPU TIME=     0.05 TOTAL CPU TIME=          9.9 (      0.2 MIN)
 TOTAL WALL CLOCK TIME=          9.9 SECONDS, CPU UTILIZATION IS    99.90%

     --------     ------------------------------------------
     GMC-QDPT     Program written by H.Nakano (Kyushu Univ.)
     --------     ------------------------------------------

 *** Reference space

 Reference type: ORMAS (= Occupation restricted multiple active space)
 # of orbitals          =  7
 # of minimum electrons =  7
 # of maximum electrons =  7
 State symmetry    =    1 (input)
 2*Sz              =    1 (input)
 Spin multiplicity =    2 (input)
 Dimension of reference space =      1225  (from      3432 walks)

 Dimension of reference space =      1225  (from      1225 walks)

 <<<Ionized spaces for Ref-CI:
      0:         1225 /   -1-0:         1960 /  0-1-0:         2891

 ***                    ***
 *** Reference space CI ***
 ***                    ***

 Converged after   32 iterations

 Reference wavefunctions:

 State #    1  Energy =     -55.905360191  S =  0.500

      Det      Coef    Occupancy (Ignoring core)
      ---      ----    --------- --------- -----
        1   -0.980001  11110001110000
      393   -0.066313  10110101010010
      717   -0.074762  11010011100001

 State #    2  Energy =     -55.726286713  S =  0.500

      Det      Coef    Occupancy (Ignoring core)
      ---      ----    --------- --------- -----
       36   -0.984493  11110001101000
      463   -0.065877  10110101001010

 State #    3  Energy =     -55.656376231  S =  0.500

      Det      Coef    Occupancy (Ignoring core)
      ---      ----    --------- --------- -----
       71    0.982693  11110001011000
      822   -0.074466  11010011001001

 Davidson method: CPU/Wall time =           0.44 /           0.43 sec.

 Oscillator strength (invalid if E(1)/=E(GS)):
 -----------------------------------------
   State                        f
 -----------------------------------------
     2     F(REF-CI)=        0.0002001721
     3     F(REF-CI)=        0.0005319483
 -----------------------------------------

 Dipole moment matrix elements, x, y, z, in A.U.

 Dimension of ionized spaces for PT:
 (N-2) space:         1715 /  (N-1) space:         2842 /  N space:         2891
 (N+1) space:         2842 /  (N+2) space:         1715

 <<<Ionized spaces for internal:
         0:         1225 /      -1-0:         1960 /     0-1-0:         2891
  -1-0-1-0:         2842 / 0-1-0-1-0:         3381

 Diagonal elements of averaged one-particle density matrix:
       2       3       4       5       6       7       8
  0.9943  0.9894  0.9883  0.9933  0.0099  0.0111  0.0136
  0.9902  0.6612  0.6593  0.6637  0.0082  0.0079  0.0095

 Orbital energies:
 -------- Doubly-occupied orbitals (highest several orbs.) -------
             1
 -1.598740D+01
 -------- Active orbitals ----------------------------------------
             2            3            4            5            6
 -1.536433D+00-9.770788D-01-9.029311D-01-7.608157D-01 4.274106D-01
             7            8
  4.115903D-01 3.213697D-01
 -------- External orbitals (lowest several orbs.) ---------------
             9           10           11           12           13
  1.545571D-01 1.973827D-01 2.016562D-01 5.461775D-01 5.672789D-01
            14           15           16           17           18
  6.245327D-01 8.285781D-01 9.587297D-01 9.809128D-01 1.353802D+00

 *** Quasi-degeneracy checking

 === Det (|Ci| > 1.0D-01 and dE < 5.0D-03)

 # of small denominators (single excitations)
 State       dEmin  dE < 5.0D-03  dE < 5.0D-04  dE < 5.0D-05  dE < 5.0D-06
 ----- ----------- ------------- ------------- ------------- -------------
     1    5.00D-03             0             0             0             0
     2    5.00D-03             0             0             0             0
     3    5.00D-03             0             0             0             0

 # of small denominators (double excitations)
 State       dEmin  dE < 5.0D-03  dE < 5.0D-04  dE < 5.0D-05  dE < 5.0D-06
 ----- ----------- ------------- ------------- ------------- -------------
     1    5.00D-03             0             0             0             0
     2    5.00D-03             0             0             0             0
     3    5.00D-03             0             0             0             0

 *** Zeroth-Order Setup (Granovsky's zeroth-order vectors)
 Zeroth-order effective Hamiltonian
  (= Sum_i e(i)*<I|a+(i)a(i)|J> ):
                   1            2            3
     1 -7.494473D+00
     2  3.008296D-03-7.373271D+00
     3  1.777572D-03 5.720955D-04-7.294155D+00

 Zeroth-order vectors:
 State #    1
       MC st            1           2           3
       Coeff   -9.997D-01   2.475D-02   8.796D-03
 State #    2
       MC st            2           1           3
       Coeff   -9.997D-01  -2.468D-02   7.790D-03
 State #    3
       MC st            3           1           2
       Coeff    9.999D-01   8.986D-03   7.570D-03

 *** GMC-QDPT computation

 (Integral reading:  CPU/Wall time =           0.00 /           0.00 sec.)

 One-external:
   0 -ionized terms: CPU/Wall time =           0.03 /           0.03 sec.
 (-1)-ionized terms: CPU/Wall time =           0.09 /           0.09 sec.
 (+1)-ionized terms: CPU/Wall time =           0.02 /           0.02 sec.
 (+1)-ionized terms: CPU/Wall time =           0.01 /           0.00 sec.
 (+2)-ionized terms: CPU/Wall time =           0.00 /           0.01 sec.

 Internal:
 # of macro loops for internal contribution =         1 (input)
 Loop:    1
 Dimension of internal CISD space     =         0  (after screening)
 Space construction: CPU/Wall time =           0.02 /           0.01 sec.
 Internal terms:     CPU/Wall time =           0.00 /           0.00 sec.

 Two-external:
   0 -ionized terms: CPU/Wall time =           0.06 /           0.06 sec.
 (-1)-ionized terms: CPU/Wall time =           0.98 /           0.99 sec.
 (-2)-ionized terms: CPU/Wall time =           0.17 /           0.17 sec.

 Total time:         CPU/Wall time =           1.38 /           1.38 sec.

 ***                  ***
 *** GMC-QDPT Results ***
 ***                  ***

 Diagonal elements of effective Hamiltonian:
 Heff(  1) =   -56.00277234
 Heff(  2) =   -55.83570762
 Heff(  3) =   -55.76712247

 Off-diagonal elements of effective Hamiltonian:
                   1            2
     2 -3.934624D-03
     3  1.973839D-03 5.290621D-04

 ******** GMC-QDPT energies ********
 ----------------------------------------------------------------------------
   State                        1st order                           2nd order
 ----------------------------------------------------------------------------
     1     E(REF-CI)=      -55.9053601907   E(GMC-QDPT2)=      -56.0028816792
     2     E(REF-CI)=      -55.7262867129   E(GMC-QDPT2)=      -55.8356184037
     3     E(REF-CI)=      -55.6563762308   E(GMC-QDPT2)=      -55.7671023482
 ----------------------------------------------------------------------------

 Excitation energies (invalid if E(1)/=E(GS)):
 ----------------------------------------------------------------------------
   State                        1st order                           2nd order
 ----------------------------------------------------------------------------

     TZ Sorted GMC-PT ENERGIES:
         1      -56.0028816792
         2      -55.8356184037
         3      -55.7671023482
     2     E(REF-CI)=        4.8728400 eV   E(GMC-QDPT2)=        4.5514679 eV
     3     E(REF-CI)=        6.7752021 eV   E(GMC-QDPT2)=        6.4158857 eV
 ----------------------------------------------------------------------------

 Main characters of perturbed GMC-QDPT states:

 State #    1  Energy =     -56.002881679  S =  0.500

      Det      Coef    Occupancy (Ignoring core)
      ---      ----    --------- --------- -----
        1   -0.980016  11110001110000
      393   -0.066305  10110101010010
      717   -0.074762  11010011100001

 State #    2  Energy =     -55.835618404  S =  0.500

      Det      Coef    Occupancy (Ignoring core)
      ---      ----    --------- --------- -----
       36   -0.984507  11110001101000
      463   -0.065876  10110101001010

 State #    3  Energy =     -55.767102348  S =  0.500

      Det      Coef    Occupancy (Ignoring core)
      ---      ----    --------- --------- -----
       71    0.982697  11110001011000
      822   -0.074467  11010011001001

 <<<Max |V/de| = 2.747D-02  Thresh = 1.000D+00

 Oscillator strength (invalid if E(1)/=E(GS)):
 ----------------------------------------------------------------------------
   State                        1st order                           2nd order
 ----------------------------------------------------------------------------
     2     F(REF-CI)=        0.0002001721     F(GMC-PT2)=        0.0001925067
     3     F(REF-CI)=        0.0005319483     F(GMC-PT2)=        0.0005113652
 ----------------------------------------------------------------------------

 Dipole moment matrix elements, x, y, z, in A.U.
States    1    1       -0.1132016868       -0.0529111371        0.7719679931
States    1    2       -0.0071470443       -0.0198330368        0.0358043452
States    1    3        0.0456861879       -0.0115579147        0.0321314722
States    2    1       -0.0071470443       -0.0198330368        0.0358043452
States    2    2        0.1045633313       -0.0088662037        0.2545549246
States    2    3       -0.1088647400        0.2052183663       -0.0006517651
States    3    1        0.0456861879       -0.0115579147        0.0321314722
States    3    2       -0.1088647400        0.2052183663       -0.0006517651
States    3    3       -0.3768454069       -0.1343102989        0.2515062480

 Oscillator strength (valid only when positive): 
 ----------------------------------------------------------------------------
  States                        1st order                           2nd order
 ----------------------------------------------------------------------------
  1  1     F(REF-CI)=        0.0000000000     F(GMC-PT2)=        0.0000000000
  1  2     F(REF-CI)=       -0.0002001721     F(GMC-PT2)=       -0.0001925067
  1  3     F(REF-CI)=       -0.0005319483     F(GMC-PT2)=       -0.0005113652
  2  1     F(REF-CI)=        0.0002001721     F(GMC-PT2)=        0.0001925067
  2  2     F(REF-CI)=        0.0000000000     F(GMC-PT2)=        0.0000000000
  2  3     F(REF-CI)=       -0.0025175050     F(GMC-PT2)=       -0.0024650494
  3  1     F(REF-CI)=        0.0005319483     F(GMC-PT2)=        0.0005113652
  3  2     F(REF-CI)=        0.0025175050     F(GMC-PT2)=        0.0024650494
  3  3     F(REF-CI)=        0.0000000000     F(GMC-PT2)=        0.0000000000
 CPU     0: STEP CPU TIME=     1.88 TOTAL CPU TIME=         11.8 (      0.2 MIN)
 TOTAL WALL CLOCK TIME=         11.8 SECONDS, CPU UTILIZATION IS    99.92%

     !!! DIABATIZATION FOR REF CI STATES !!!

 *******************************************************
          $DMO GROUP FOUND IN THE INPUT.
        DIABATIZATION OF ADIABATIC STATES BEGINS.
     PROGRAMMED BY TAO ZENG (CARLETON UNIVERSITY).
               Email: toby.zeng@carleton.ca
     See T. Zeng, J. Chem. Phys. 2017, 146, 144103
 *******************************************************

 *************************************************************************
     STEP 1: TRANSFORMATION OF ADIABATIC STATES TO THE DMO REPRESENTATION
         See Atchity and Ruedenberg, J. Chem. Phys. 1999, 111, 2910
 *************************************************************************

Read in Diabatic Molecualr Orbitals:

                      1          2          3          4          5

    1  N  1  S    0.008609   0.000000   0.000000  -0.013219   0.279491
    2  N  1  S    0.442914  -0.000000   0.000000  -0.184329   0.867803
    3  N  1  S    0.276913   0.000000  -0.000000  -0.288315   0.144236
    4  N  1  X   -0.000000   0.493155  -0.024636  -0.000000  -0.000000
    5  N  1  Y    0.000000   0.024636   0.493155  -0.000000   0.000000
    6  N  1  Z    0.090197   0.000000   0.000000   0.593421   0.705309
    7  N  1  X   -0.000000   0.210628  -0.010522   0.000000   0.000000
    8  N  1  Y    0.000000   0.010522   0.210628  -0.000000  -0.000000
    9  N  1  Z   -0.004381   0.000000   0.000000   0.381592  -0.106092
   10  N  1 XX   -0.000457   0.010719  -0.000535  -0.012387   0.006153
   11  N  1 YY   -0.000457  -0.010719   0.000535  -0.012387   0.006153
   12  N  1 ZZ    0.000914  -0.000000   0.000000   0.024773  -0.012306
   13  N  1 XY    0.000000  -0.000618  -0.012377  -0.000000   0.000000
   14  N  1 XZ   -0.000000   0.026529  -0.001325  -0.000000   0.000000
   15  N  1 YZ    0.000000   0.001325   0.026529  -0.000000   0.000000
   16  H  2  S    0.194462  -0.176074   0.343485   0.112865  -0.523343
   17  H  2  S    0.003574  -0.023812   0.046452   0.024014  -0.054445
   18  H  2  X    0.018760   0.009101   0.022834   0.009336  -0.039151
   19  H  2  Y   -0.032493   0.022287  -0.020044  -0.016171   0.067811
   20  H  2  Z   -0.009251   0.008464  -0.016511   0.018769  -0.010566
   21  H  3  S    0.194462  -0.209430  -0.324227   0.112865  -0.523343
   22  H  3  S    0.003574  -0.028322  -0.043847   0.024014  -0.054445
   23  H  3  X    0.018760   0.006781  -0.023627   0.009336  -0.039151
   24  H  3  Y    0.032493  -0.024174  -0.017723   0.016171  -0.067811
   25  H  3  Z   -0.009251   0.010067   0.015585   0.018769  -0.010566
   26  H  4  S    0.194462   0.385503  -0.019258   0.112865  -0.523343
   27  H  4  S    0.003574   0.052134  -0.002604   0.024014  -0.054445
   28  H  4  X   -0.037519  -0.032295   0.001613  -0.018672   0.078302
   29  H  4  Y    0.000000   0.001067   0.021353  -0.000000   0.000000
   30  H  4  Z   -0.009251  -0.018530   0.000926   0.018769  -0.010566

                      6          7

    1  N  1  S    0.000000  -0.000000
    2  N  1  S    0.000000  -0.000000
    3  N  1  S   -0.000000   0.000000
    4  N  1  X   -0.930415  -0.002083
    5  N  1  Y   -0.002083   0.930415
    6  N  1  Z   -0.000000   0.000000
    7  N  1  X   -0.046866  -0.000105
    8  N  1  Y   -0.000105   0.046866
    9  N  1  Z   -0.000000   0.000000
   10  N  1 XX    0.001538   0.000003
   11  N  1 YY   -0.001538  -0.000003
   12  N  1 ZZ   -0.000000   0.000000
   13  N  1 XY   -0.000004   0.001776
   14  N  1 XZ    0.039985   0.000090
   15  N  1 YZ    0.000090  -0.039985
   16  H  2  S   -0.362630  -0.631354
   17  H  2  S   -0.065964  -0.114846
   18  H  2  X    0.002763  -0.037520
   19  H  2  Y    0.037435   0.040736
   20  H  2  Z    0.001882   0.003276
   21  H  3  S   -0.365454   0.629724
   22  H  3  S   -0.066477   0.114549
   23  H  3  X    0.002595   0.037532
   24  H  3  Y   -0.037617   0.040567
   25  H  3  Z    0.001896  -0.003268
   26  H  4  S    0.728084   0.001630
   27  H  4  S    0.132441   0.000297
   28  H  4  X   -0.062317  -0.000140
   29  H  4  Y    0.000055  -0.024345
   30  H  4  Z   -0.003778  -0.000008

NUMBER OF SUB ACTIVE SPACES:   1
ROTATE ACTIVE MOS TO DMOS IN EACH SUB-SPACE

SPACE  1:

OVERLAP BETWEEN ORTHONORMAL AND PRE-ORTHONORMAL REF. DMOS

             1           2           3           4           5

    1    0.9974964  -0.0088473  -0.0053331  -0.0008829   0.0000368
    2   -0.0088473   1.0191612  -0.0131870  -0.0135193   0.0279781
    3   -0.0053331  -0.0131870   0.9719785  -0.0065700   0.0111940
    4   -0.0008829  -0.0135193  -0.0065700   0.9993456  -0.0011968
    5    0.0000368   0.0279781   0.0111940  -0.0011968   1.0165434
    6    0.0024374   0.0194675  -0.0101857  -0.0160550   0.0052049
    7   -0.0009594   0.0095180   0.0223992   0.0070520   0.0062476

             6           7

    1    0.0024374  -0.0009594
    2    0.0194675   0.0095180
    3   -0.0101857   0.0223992
    4   -0.0160550   0.0070520
    5    0.0052049   0.0062476
    6    0.9954057  -0.0061508
    7   -0.0061508   1.0169838
REFERENCE DMOS AFTER ORTHONORMALIZATION:

                      1          2          3          4          5

    1  N  1  S    0.008526  -0.007653  -0.003297  -0.013030   0.275191
    2  N  1  S    0.443606  -0.021963  -0.008954  -0.183500   0.854213
    3  N  1  S    0.277305  -0.005236  -0.002227  -0.288281   0.141730
    4  N  1  X    0.006592   0.501860  -0.028092  -0.008499  -0.008603
    5  N  1  Y    0.003649   0.022190   0.487058  -0.002759  -0.011575
    6  N  1  Z    0.090791  -0.010479  -0.003379   0.594710   0.694873
    7  N  1  X    0.001923   0.207746  -0.008408   0.001943  -0.005348
    8  N  1  Y    0.001304   0.012804   0.215996   0.001334  -0.002994
    9  N  1  Z   -0.003977   0.007838   0.003985   0.381967  -0.104195
   10  N  1 XX   -0.000384   0.010166  -0.000552  -0.012236   0.005759
   11  N  1 YY   -0.000560  -0.010831   0.000224  -0.012559   0.006341
   12  N  1 ZZ    0.000945   0.000666   0.000328   0.024795  -0.012100
   13  N  1 XY   -0.000073  -0.000795  -0.012796  -0.000111   0.000151
   14  N  1 XZ    0.000125   0.025302  -0.000589   0.000974  -0.000893
   15  N  1 YZ    0.000131   0.002048   0.028249   0.000497  -0.000122
   16  H  2  S    0.196091  -0.138120   0.369917   0.111746  -0.509286
   17  H  2  S    0.003760  -0.018607   0.050268   0.023803  -0.052536
   18  H  2  X    0.019005   0.010913   0.025150   0.009936  -0.038865
   19  H  2  Y   -0.032598   0.018203  -0.021962  -0.015723   0.065996
   20  H  2  Z   -0.009273   0.008474  -0.016734   0.018773  -0.010452
   21  H  3  S    0.192980  -0.192089  -0.346879   0.097411  -0.507638
   22  H  3  S    0.003382  -0.026464  -0.048007   0.021442  -0.052640
   23  H  3  X    0.018780   0.007278  -0.024437   0.009029  -0.038680
   24  H  3  Y    0.032429  -0.021350  -0.018807   0.014840  -0.065958
   25  H  3  Z   -0.009084   0.010555   0.016491   0.019074  -0.010832
   26  H  4  S    0.196704   0.382253   0.000937   0.129323  -0.528971
   27  H  4  S    0.003735   0.050527   0.000222   0.026779  -0.055605
   28  H  4  X   -0.037780  -0.033238  -0.000678  -0.020080   0.078252
   29  H  4  Y    0.000111   0.001574   0.022559   0.000344  -0.000142
   30  H  4  Z   -0.009402  -0.017678   0.000866   0.018478  -0.009880

                      6          7

    1  N  1  S   -0.001563  -0.001457
    2  N  1  S   -0.008194  -0.003203
    3  N  1  S   -0.005981   0.001452
    4  N  1  X   -0.944993  -0.011724
    5  N  1  Y    0.008050   0.904084
    6  N  1  Z    0.005857  -0.008099
    7  N  1  X   -0.051190  -0.002151
    8  N  1  Y    0.002143   0.041229
    9  N  1  Z    0.006590  -0.002134
   10  N  1 XX    0.001114  -0.000024
   11  N  1 YY   -0.001564   0.000131
   12  N  1 ZZ    0.000451  -0.000107
   13  N  1 XY   -0.000109   0.002034
   14  N  1 XZ    0.039690   0.000103
   15  N  1 YZ    0.000100  -0.039961
   16  H  2  S   -0.357708  -0.627290
   17  H  2  S   -0.065445  -0.114095
   18  H  2  X    0.002906  -0.037344
   19  H  2  Y    0.036756   0.040264
   20  H  2  Z    0.001955   0.003448
   21  H  3  S   -0.359293   0.629097
   22  H  3  S   -0.065442   0.113723
   23  H  3  X    0.002749   0.037584
   24  H  3  Y   -0.036809   0.040614
   25  H  3  Z    0.002231  -0.003736
   26  H  4  S    0.728379   0.004949
   27  H  4  S    0.132785   0.000776
   28  H  4  X   -0.062605  -0.000567
   29  H  4  Y    0.000110  -0.024450
   30  H  4  Z   -0.003068   0.000043

 -------------------------------------------
       MAXIMIZING MORMO OVERLAP TERM        
 -------------------------------------------
   SWEEP    VALUE       PROGRESS
     0     6.55072
     1     6.99339     0.44266575
     2     6.99451     0.00111801
     3     6.99451     0.00000000
     4     6.99451     0.00000000
 THE ROTATION IS DONE
ACTIVE ORBITALS AFTER MORMO:

                      1          2          3          4          5

    1  N  1  S    0.008328  -0.010194  -0.004770  -0.012930   0.267947
    2  N  1  S    0.441137  -0.021637  -0.011256  -0.184511   0.844692
    3  N  1  S    0.285159   0.012341   0.010584  -0.286590   0.151855
    4  N  1  X    0.003777   0.502807  -0.030183  -0.011955  -0.003781
    5  N  1  Y    0.000933   0.019504   0.478632  -0.006172  -0.008214
    6  N  1  Z    0.089421  -0.015528  -0.006020   0.594827   0.692023
    7  N  1  X    0.007029   0.191339   0.000237   0.016658  -0.017600
    8  N  1  Y    0.005922   0.022045   0.236878   0.009381  -0.010544
    9  N  1  Z    0.000092   0.022587   0.011428   0.381838  -0.100541
   10  N  1 XX    0.000587   0.009007   0.001421  -0.012665  -0.013770
   11  N  1 YY   -0.001507  -0.009490  -0.001627  -0.011819   0.023373
   12  N  1 ZZ    0.000920   0.000483   0.000206   0.024484  -0.009603
   13  N  1 XY   -0.000326  -0.002945  -0.014636  -0.000337   0.009158
   14  N  1 XZ   -0.000592   0.023840  -0.000657   0.000269   0.018183
   15  N  1 YZ    0.000201   0.001817   0.026868  -0.000442   0.009589
   16  H  2  S    0.193099  -0.161736   0.351947   0.111357  -0.507176
   17  H  2  S    0.003184  -0.015127   0.058648   0.024992  -0.054688
   18  H  2  X    0.023398   0.004814   0.028069   0.010406  -0.040239
   19  H  2  Y   -0.027879   0.021641  -0.016070  -0.014908   0.062803
   20  H  2  Z   -0.009173   0.010390  -0.015626   0.018747  -0.012069
   21  H  3  S    0.194258  -0.201986  -0.332940   0.104836  -0.514305
   22  H  3  S    0.004448  -0.027539  -0.059031   0.022399  -0.055856
   23  H  3  X    0.021035   0.005794  -0.025337   0.009926  -0.038056
   24  H  3  Y    0.028820  -0.022048  -0.014176   0.016058  -0.065363
   25  H  3  Z   -0.011284   0.012492   0.017303   0.018362  -0.010320
   26  H  4  S    0.190983   0.385867  -0.012260   0.120062  -0.523675
   27  H  4  S    0.001642   0.047015   0.002539   0.026325  -0.054379
   28  H  4  X   -0.037883  -0.035167   0.003427  -0.017750   0.075203
   29  H  4  Y    0.002548   0.004794   0.020521   0.000915  -0.002929
   30  H  4  Z   -0.006976  -0.016080   0.001548   0.019408  -0.010722

                      6          7

    1  N  1  S   -0.023320   0.005323
    2  N  1  S   -0.052483   0.013417
    3  N  1  S    0.050525  -0.020887
    4  N  1  X   -0.938804  -0.011855
    5  N  1  Y    0.008098   0.906627
    6  N  1  Z    0.025546  -0.019646
    7  N  1  X   -0.067690  -0.005373
    8  N  1  Y    0.005608   0.033030
    9  N  1  Z   -0.006702   0.007616
   10  N  1 XX   -0.011624  -0.009642
   11  N  1 YY    0.015467   0.008255
   12  N  1 ZZ   -0.003843   0.001387
   13  N  1 XY   -0.010825   0.019505
   14  N  1 XZ    0.049629   0.003904
   15  N  1 YZ   -0.004327  -0.031245
   16  H  2  S   -0.371196  -0.614109
   17  H  2  S   -0.068939  -0.122405
   18  H  2  X   -0.001495  -0.041186
   19  H  2  Y    0.040807   0.033729
   20  H  2  Z   -0.007621   0.007969
   21  H  3  S   -0.365573   0.617160
   22  H  3  S   -0.068508   0.125050
   23  H  3  X    0.007728   0.039818
   24  H  3  Y   -0.040636   0.033290
   25  H  3  Z   -0.001556  -0.009622
   26  H  4  S    0.729587   0.011937
   27  H  4  S    0.131049   0.001688
   28  H  4  X   -0.065594  -0.003907
   29  H  4  Y    0.004029  -0.017088
   30  H  4  Z    0.001937   0.004564

Actually Used Diabatic Molecualr Orbitals:

                      1          2          3          4          5

    1  N  1  S    0.008328  -0.010194  -0.004770  -0.012930   0.267947
    2  N  1  S    0.441137  -0.021637  -0.011256  -0.184511   0.844692
    3  N  1  S    0.285159   0.012341   0.010584  -0.286590   0.151855
    4  N  1  X    0.003777   0.502807  -0.030183  -0.011955  -0.003781
    5  N  1  Y    0.000933   0.019504   0.478632  -0.006172  -0.008214
    6  N  1  Z    0.089421  -0.015528  -0.006020   0.594827   0.692023
    7  N  1  X    0.007029   0.191339   0.000237   0.016658  -0.017600
    8  N  1  Y    0.005922   0.022045   0.236878   0.009381  -0.010544
    9  N  1  Z    0.000092   0.022587   0.011428   0.381838  -0.100541
   10  N  1 XX    0.000587   0.009007   0.001421  -0.012665  -0.013770
   11  N  1 YY   -0.001507  -0.009490  -0.001627  -0.011819   0.023373
   12  N  1 ZZ    0.000920   0.000483   0.000206   0.024484  -0.009603
   13  N  1 XY   -0.000326  -0.002945  -0.014636  -0.000337   0.009158
   14  N  1 XZ   -0.000592   0.023840  -0.000657   0.000269   0.018183
   15  N  1 YZ    0.000201   0.001817   0.026868  -0.000442   0.009589
   16  H  2  S    0.193099  -0.161736   0.351947   0.111357  -0.507176
   17  H  2  S    0.003184  -0.015127   0.058648   0.024992  -0.054688
   18  H  2  X    0.023398   0.004814   0.028069   0.010406  -0.040239
   19  H  2  Y   -0.027879   0.021641  -0.016070  -0.014908   0.062803
   20  H  2  Z   -0.009173   0.010390  -0.015626   0.018747  -0.012069
   21  H  3  S    0.194258  -0.201986  -0.332940   0.104836  -0.514305
   22  H  3  S    0.004448  -0.027539  -0.059031   0.022399  -0.055856
   23  H  3  X    0.021035   0.005794  -0.025337   0.009926  -0.038056
   24  H  3  Y    0.028820  -0.022048  -0.014176   0.016058  -0.065363
[...]
      813    0.033930   -0.033930  20+20+-
      320    0.032051    0.032051  0+22200
      810   -0.031712   -0.031712  -++2+0-
      122    0.030896    0.030896  +2-200+
      332   -0.030823    0.030823  ++-2-0+
      248    0.027991   -0.027991  2+02200
       38   -0.027051    0.027051  2202+00
      323   -0.025465    0.025465  +022-+0
      391    0.025371   -0.025371  2+20020
      192   -0.025015    0.025015  2+-+-0+
      177    0.024923   -0.024923  2+20200
      180   -0.024343    0.024343  -+2+200
       76    0.024162    0.024162  2+2-0+0
      807   -0.023368    0.023368  2++-+0-
      317    0.023279   -0.023279  ++2-200
      421   -0.022215   -0.022215  +22+0-0
      809    0.021652   -0.021652  20+2+0-
       78   -0.021622    0.021622  20220+0
      878    0.020884    0.020884  ++-2+0-
       99   -0.020805    0.020805  20-20++
      264    0.020560   -0.020560  -++2-0+
        6    0.020421   -0.020421  22200+0
      751    0.020287   -0.020287  2+20002

 State #    3  Energy =     -55.833651990

      Det      Coef        Coefp    Occupancy (Ignoring core)
      ---      ----        ----    --------- --------- -----
       36   -0.965884   -0.965884  22+2000
       71    0.180590   -0.180590  2+22000
      463    0.063958   -0.063958  20+2020
        1   -0.061582    0.061582  222+000
      472   -0.034522   -0.034522  2+020-+
      121   -0.033070    0.033070  +22-00+
      285    0.032034   -0.032034  02+2200
      297    0.031032   -0.031032  +202-0+
      123    0.029330   -0.029330  +-2200+
      157    0.027185   -0.027185  220+-0+
      142    0.027022    0.027022  22+0200
       16   -0.026397    0.026397  222000+
      288   -0.025592   -0.025592  +-+2-+0
      262   -0.025146   -0.025146  2+02-0+
      460   -0.024971   -0.024971  -++2+-0
      145   -0.023902   -0.023902  -2++200
      282    0.022721    0.022721  +2+-200
       73    0.022207   -0.022207  2+-2+00
      356    0.022012    0.022012  22+0020
      249    0.021809   -0.021809  20+2200
       39   -0.021788   -0.021788  2-+2+00
      716    0.021535    0.021535  22+0002
       64    0.021292   -0.021292  2-020++
      823    0.020688   -0.020688  20+2002
      859    0.020036   -0.020036  02+2002

 ---------------------------------------
    -DIABATIC STATES IN PROTOTYPES-     
 ---------------------------------------

     STATE:    1
 Group Ref#    Coefficients
     1    1    0.993170
     2    2   -0.000237
     3    3   -0.000603

WEIGHT OF LISTED PROTOTYPES:   98.64%

     STATE:    2
 Group Ref#    Coefficients
     1    1   -0.000237
     2    2    0.992004
     3    3    0.000443

WEIGHT OF LISTED PROTOTYPES:   98.41%

     STATE:    3
 Group Ref#    Coefficients
     1    1   -0.000603
     2    2    0.000443
     3    3    0.993096

WEIGHT OF LISTED PROTOTYPES:   98.62%

 --------------------------------------------------
 IN DIRECT MAX. DIABATIZATION FOR GMC-QDPT

 DIRECT MAXIMIZATION (DM) WITHOUT TRUNCATING ADIABATS
 EXPANSIONS INTO THE REFERENCE CONFIGURATION SPACE
 --------------------------------------------------

 -------------------------------------------
 - DM DIABT PT HAMILTONIAN MATRIX ELEMENTS -
 -------------------------------------------
                                            
 --- DIABATIC ENERGIES (DIAGONAL ELEMENT) ---       HARTREE            EV
 STATE #  1'S GMC-PT-LEVEL DIABATIC ENERGY=     -56.001364957       0.000000000
 STATE #  2'S GMC-PT-LEVEL DIABATIC ENERGY=     -55.770585490       6.279829157
 STATE #  3'S GMC-PT-LEVEL DIABATIC ENERGY=     -55.833651984       4.563702447

 --- DIABATIC COUPLINGS (OFF DIAGONAL ELEMENTS)---  HATREE            EV
 STATE #  1 &  2'S GMC-PT-LEVEL COUPLING  =       0.015589318       0.424206946
 STATE #  1 &  3'S GMC-PT-LEVEL COUPLING  =       0.008013229       0.218051058
 STATE #  2 &  3'S GMC-PT-LEVEL COUPLING  =      -0.013264789      -0.360953288

 ---------------------------------------
     - ROTATION TO DIABATIC STATES -    
 ---------------------------------------
 ROWS=ADIABATIC, COLUMNS=DIABATIC STATES

             1           2           3

    1    0.9961668  -0.0698586  -0.0526454
    2    0.0647668   0.1845072   0.9806948
    3    0.0587965   0.9803453  -0.1883244

 ---------------------------------------
          - DIABATIC STATES -           
 ---------------------------------------

 State #    1  Energy =     -56.001364957

      Det      Coef        Coefp    Occupancy (Ignoring core)
      ---      ----        ----    --------- --------- -----
        1    0.976499   -0.976499  222+000
      717   -0.075296   -0.075296  220+002
       17    0.072604    0.072604  22-+00+
      393   -0.067442   -0.067442  202+020
      701   -0.043767   -0.043767  22++00-
      402    0.037992   -0.037992  2+-+0-+
      708    0.036844   -0.036844  2-++0+-
        4    0.035164   -0.035164  2-2++00
      176   -0.034301    0.034301  2+2+-00
      215   -0.034202   -0.034202  022+200
      227   -0.033413   -0.033413  +2-+-0+
      705   -0.033089   -0.033089  -2+++0-
      218    0.032094   -0.032094  +-2+-+0
      390    0.031958   -0.031958  -+2++-0
       51   -0.028838    0.028838  22+-00+
        2    0.028394   -0.028394  2220+00
      212    0.027931    0.027931  +220200
      122    0.026785    0.026785  +2-200+
        8   -0.026611    0.026611  2-2+0+0
       76    0.026053    0.026053  2+2-0+0
      113   -0.024195    0.024195  +-220+0
      106   -0.023177   -0.023177  +222000
      773    0.022767   -0.022767  +2-++0-
      179   -0.022457   -0.022457  202+200
      702    0.022194    0.022194  22+0+0-
      159    0.022132   -0.022132  -2++-0+
      143   -0.021693   -0.021693  220+200
      387   -0.021439    0.021439  2+20+-0
        6   -0.021428    0.021428  22200+0
      424   -0.021047   -0.021047  +-2++-0
      184   -0.020528   -0.020528  -+2+-+0
      368   -0.020401   -0.020401  2-++0-+
      742   -0.020171   -0.020171  2+-+0+-

 State #    2  Energy =     -55.770585490

      Det      Coef        Coefp    Occupancy (Ignoring core)
      ---      ----        ----    --------- --------- -----
       71   -0.979300    0.979300  2+22000
      822    0.075936   -0.075936  2+02002
       36    0.047144    0.047144  22+2000
      806   -0.043170   -0.043170  2++200-
      111    0.041481   -0.041481  +22-0+0
      813    0.041184   -0.041184  20+20+-
       78   -0.035694    0.035694  20220+0
      332   -0.034209    0.034209  ++-2-0+
      320    0.034110    0.034110  0+22200
      810   -0.034061   -0.034061  -++2+0-
      122    0.032667    0.032667  +2-200+
       87    0.031964   -0.031964  2+-200+
      323   -0.030637    0.030637  +022-+0
      180   -0.028194    0.028194  -+2+200
      317    0.028068   -0.028068  ++2-200
        6    0.026149   -0.026149  22200+0
      177    0.026132   -0.026132  2+20200
       38   -0.024943    0.024943  2202+00
      391    0.024477   -0.024477  2+20020
       99   -0.024310    0.024310  20-20++
      807   -0.024263    0.024263  2++-+0-
      192   -0.024238    0.024238  2+-+-0+
      248    0.024030   -0.024030  2+02200
      183   -0.023208    0.023208  202+-+0
      878    0.022858    0.022858  ++-2+0-
      264    0.022496   -0.022496  -++2-0+
      106   -0.022440   -0.022440  +222000
      113    0.022371   -0.022371  +-220+0
       51    0.022295   -0.022295  22+-00+
      421   -0.022274   -0.022274  +22+0-0
      751    0.020794   -0.020794  2+20002

 State #    3  Energy =     -55.833651984

      Det      Coef        Coefp    Occupancy (Ignoring core)
      ---      ----        ----    --------- --------- -----
       36   -0.978855   -0.978855  22+2000
      463    0.065936   -0.065936  20+2020
       39   -0.063151   -0.063151  2-+2+00
       41   -0.047234    0.047234  22+-0+0
       71   -0.047132    0.047132  2+22000
      472   -0.040389   -0.040389  2+020-+
      246    0.038906    0.038906  2++2-00
      351    0.037434    0.037434  22++0-0
      121   -0.037253    0.037253  +22-00+
      285    0.033624   -0.033624  02+2200
      297    0.033042   -0.033042  +202-0+
      460   -0.032246   -0.032246  -++2+-0
      288   -0.031746   -0.031746  +-+2-+0
      123    0.028480   -0.028480  +-2200+
      145   -0.028251   -0.028251  -2++200
      282    0.027971    0.027971  +2+-200
      142    0.026163    0.026163  22+0200
      157    0.025869   -0.025869  220+-0+
       16   -0.024945    0.024945  222000+
      716    0.024393    0.024393  22+0002
       73    0.024245   -0.024245  2+-2+00
       64    0.024037   -0.024037  2-020++
      249    0.023423   -0.023423  20+2200
      457   -0.022378    0.022378  2++-+-0
      148   -0.022261   -0.022261  2-++-+0
       86    0.021952    0.021952  2+2-00+
      494    0.021078   -0.021078  +-+2+-0
      356    0.020639    0.020639  22+0020
      859    0.020072   -0.020072  02+2002

 ---------------------------------------
      - DIABATIC STATES IN CMO -        
 ---------------------------------------

 State #    1  Energy =     -56.001364957

      Det      Coef        Coefp    Occupancy (Ignoring core)
      ---      ----        ----    --------- --------- -----
        1    0.975364   -0.975364  222+000
      717   -0.074476   -0.074476  220+002
       36   -0.073474   -0.073474  22+2000
      393   -0.066924   -0.066924  202+020
       71   -0.060962    0.060962  2+22000
       17    0.043934    0.043934  22-+00+
        8   -0.042246    0.042246  2-2+0+0
      708    0.034443   -0.034443  2-++0+-
      402    0.033192   -0.033192  2+-+0-+
      215   -0.032844   -0.032844  022+200
      705   -0.032338   -0.032338  -2+++0-
      227   -0.031455   -0.031455  +2-+-0+
       51   -0.028220    0.028220  22+-00+
        2    0.027562   -0.027562  2220+00
      143   -0.027341   -0.027341  220+200
      390    0.026446   -0.026446  -+2++-0
      218    0.026360   -0.026360  +-2+-+0
      122    0.026026    0.026026  +2-200+
      106   -0.025785   -0.025785  +222000
       76    0.024609    0.024609  2+2-0+0
      212    0.023661    0.023661  +220200
      702    0.023344    0.023344  22+0+0-
      113   -0.023110    0.023110  +-220+0
      159    0.021489   -0.021489  -2++-0+
      773    0.021477   -0.021477  +2-++0-
      704    0.020684   -0.020684  2-+++0-

 State #    2  Energy =     -55.770585490

      Det      Coef        Coefp    Occupancy (Ignoring core)
      ---      ----        ----    --------- --------- -----
       71   -0.964052    0.964052  2+22000
       36   -0.176207   -0.176207  22+2000
        1   -0.073698    0.073698  222+000
      822    0.073031   -0.073031  2+02002
      111    0.039600   -0.039600  +22-0+0
      813    0.033930   -0.033930  20+20+-
      320    0.032051    0.032051  0+22200
      810   -0.031712   -0.031712  -++2+0-
      122    0.030896    0.030896  +2-200+
      332   -0.030823    0.030823  ++-2-0+
      248    0.027991   -0.027991  2+02200
       38   -0.027051    0.027051  2202+00
      323   -0.025465    0.025465  +022-+0
      391    0.025371   -0.025371  2+20020
      192   -0.025015    0.025015  2+-+-0+
      177    0.024923   -0.024923  2+20200
      180   -0.024343    0.024343  -+2+200
       76    0.024162    0.024162  2+2-0+0
      807   -0.023368    0.023368  2++-+0-
      317    0.023279   -0.023279  ++2-200
      421   -0.022215   -0.022215  +22+0-0
      809    0.021652   -0.021652  20+2+0-
       78   -0.021622    0.021622  20220+0
      878    0.020884    0.020884  ++-2+0-
       99   -0.020805    0.020805  20-20++
      264    0.020560   -0.020560  -++2-0+
        6    0.020421   -0.020421  22200+0
      751    0.020287   -0.020287  2+20002

 State #    3  Energy =     -55.833651984

      Det      Coef        Coefp    Occupancy (Ignoring core)
      ---      ----        ----    --------- --------- -----
       36   -0.965884   -0.965884  22+2000
       71    0.180590   -0.180590  2+22000
      463    0.063958   -0.063958  20+2020
        1   -0.061582    0.061582  222+000
      472   -0.034522   -0.034522  2+020-+
      121   -0.033070    0.033070  +22-00+
      285    0.032034   -0.032034  02+2200
      297    0.031032   -0.031032  +202-0+
      123    0.029330   -0.029330  +-2200+
      157    0.027185   -0.027185  220+-0+
      142    0.027022    0.027022  22+0200
       16   -0.026397    0.026397  222000+
      288   -0.025592   -0.025592  +-+2-+0
      262   -0.025146   -0.025146  2+02-0+
      460   -0.024971   -0.024971  -++2+-0
      145   -0.023902   -0.023902  -2++200
      282    0.022721    0.022721  +2+-200
       73    0.022207   -0.022207  2+-2+00
      356    0.022012    0.022012  22+0020
      249    0.021809   -0.021809  20+2200
       39   -0.021788   -0.021788  2-+2+00
      716    0.021535    0.021535  22+0002
       64    0.021292   -0.021292  2-020++
      823    0.020688   -0.020688  20+2002
      859    0.020036   -0.020036  02+2002

 ---------------------------------------
    -DIABATIC STATES IN PROTOTYPES-     
 ---------------------------------------

     STATE:    1
 Group Ref#    Coefficients
     1    1    0.993170
     2    2   -0.000237
     3    3   -0.000603

WEIGHT OF LISTED PROTOTYPES:   98.64%

     STATE:    2
 Group Ref#    Coefficients
     1    1   -0.000237
     2    2    0.992004
     3    3    0.000443

WEIGHT OF LISTED PROTOTYPES:   98.41%

     STATE:    3
 Group Ref#    Coefficients
     1    1   -0.000603
     2    2    0.000443
     3    3    0.993096

WEIGHT OF LISTED PROTOTYPES:   98.62%

     DIRECT MAX. DIABATIZATION FINISHED    
 CPU     0: STEP CPU TIME=     0.24 TOTAL CPU TIME=         12.0 (      0.2 MIN)
 TOTAL WALL CLOCK TIME=         12.0 SECONDS, CPU UTILIZATION IS    99.83%

DIABATS FOR SPIN-ORBIT CALCULATION ARE READY

TRANSITION DIPOLES BETWEEN ADIABATS (in A.U.):

STATE PAIR      X         Y         Z
    1    1 -0.113202 -0.052911  0.771968
    2    1 -0.007147 -0.019833  0.035804
    2    2  0.104563 -0.008866  0.254555
    3    1  0.045686 -0.011558  0.032131
    3    2 -0.108865  0.205218 -0.000652
    3    3 -0.376845 -0.134310  0.251506


TRANSITION DIPOLES BETWEEN DIABATS (in A.U.):

STATE PAIR      X         Y         Z
    1    1 -0.109599 -0.055358  0.776377
    2    1  0.022460 -0.003705  0.001435
    2    2 -0.404627 -0.053308  0.248590
    3    1 -0.003869 -0.004075  0.001598
    3    2 -0.014002  0.215164 -0.002175
    3    3  0.128742 -0.087422  0.253062

TRANSITION DIPOLES BETWEEN DIRECT MAX. DIABATS (in A.U.):

STATE PAIR      X         Y         Z
    1    1 -0.109599 -0.055358  0.776377
    2    1  0.022460 -0.003705  0.001435
    2    2 -0.404627 -0.053308  0.248590
    3    1 -0.003869 -0.004075  0.001598
    3    2 -0.014001  0.215164 -0.002175
    3    3  0.128742 -0.087422  0.253062
 No $TRANST Group Found.
 Quit without doing spin-orbit coupling
 ..... DONE WITH MP2 ENERGY .....
 CPU     0: STEP CPU TIME=     0.01 TOTAL CPU TIME=         12.0 (      0.2 MIN)
 TOTAL WALL CLOCK TIME=         12.0 SECONDS, CPU UTILIZATION IS    99.92%
            100000000  WORDS OF DYNAMIC MEMORY USED
 EXECUTION OF GAMESS TERMINATED NORMALLY Wed Nov 16 19:15:10 2022
 DDI: 715512 bytes (0.7 MB / 0 MWords) used by master data server.

 ----------------------------------------
 CPU timing information for all processes
 ========================================
 0: 11.713 + 0.312 = 12.26
 ----------------------------------------
Note: The following floating-point exceptions are signalling: IEEE_DENORMAL
 ddikick.x: exited gracefully.
unset echo
----- accounting info -----
Files used on the master node io002 were:
-rw-r--r-- 1 bsonghao nooijen   20725 Nov 16 19:14 /scratch/bsonghao/nh3_diabatization_2d_at_mode_7_8_dist-0.1_-0.2.F05
-rw-r--r-- 1 bsonghao nooijen  363520 Nov 16 19:15 /scratch/bsonghao/nh3_diabatization_2d_at_mode_7_8_dist-0.1_-0.2.F09
-rw-r--r-- 1 bsonghao nooijen 1995920 Nov 16 19:15 /scratch/bsonghao/nh3_diabatization_2d_at_mode_7_8_dist-0.1_-0.2.F10
-rw-r--r-- 1 bsonghao nooijen  131264 Nov 16 19:15 /scratch/bsonghao/nh3_diabatization_2d_at_mode_7_8_dist-0.1_-0.2.F13
-rw-r--r-- 1 bsonghao nooijen  180312 Nov 16 19:15 /scratch/bsonghao/nh3_diabatization_2d_at_mode_7_8_dist-0.1_-0.2.F15
-rw-r--r-- 1 bsonghao nooijen       0 Nov 16 19:14 /scratch/bsonghao/nh3_diabatization_2d_at_mode_7_8_dist-0.1_-0.2.F16
-rw-r--r-- 1 bsonghao nooijen    9808 Nov 16 19:15 /scratch/bsonghao/nh3_diabatization_2d_at_mode_7_8_dist-0.1_-0.2.F70
-rw-r--r-- 1 bsonghao nooijen    9808 Nov 16 19:15 /scratch/bsonghao/nh3_diabatization_2d_at_mode_7_8_dist-0.1_-0.2.F71
-rw-r--r-- 1 bsonghao nooijen   19608 Nov 16 19:15 /scratch/bsonghao/nh3_diabatization_2d_at_mode_7_8_dist-0.1_-0.2.F72
-rw-r--r-- 1 bsonghao nooijen   19608 Nov 16 19:15 /scratch/bsonghao/nh3_diabatization_2d_at_mode_7_8_dist-0.1_-0.2.F73
-rw-r--r-- 1 bsonghao nooijen 1920824 Nov 16 19:15 /scratch/bsonghao/nh3_diabatization_2d_at_mode_7_8_dist-0.1_-0.2.F74
-rw-r--r-- 1 bsonghao nooijen       0 Nov 16 19:14 /scratch/bsonghao/nh3_diabatization_2d_at_mode_7_8_dist-0.1_-0.2.F75
-rw-r--r-- 1 bsonghao nooijen   58848 Nov 16 19:15 /scratch/bsonghao/nh3_diabatization_2d_at_mode_7_8_dist-0.1_-0.2.F76
-rw-r--r-- 1 bsonghao nooijen       0 Nov 16 19:14 /scratch/bsonghao/nh3_diabatization_2d_at_mode_7_8_dist-0.1_-0.2.F77
-rw-r--r-- 1 bsonghao nooijen    1864 Nov 16 19:15 /scratch/bsonghao/nh3_diabatization_2d_at_mode_7_8_dist-0.1_-0.2.F78
-rw-r--r-- 1 bsonghao nooijen   39208 Nov 16 19:15 /scratch/bsonghao/nh3_diabatization_2d_at_mode_7_8_dist-0.1_-0.2.F79
-rw-r--r-- 1 bsonghao nooijen     104 Nov 16 19:15 /scratch/bsonghao/nh3_diabatization_2d_at_mode_7_8_dist-0.1_-0.2.F80
-rw-r--r-- 1 bsonghao nooijen   13472 Nov 16 19:15 /scratch/bsonghao/nh3_diabatization_2d_at_mode_7_8_dist-0.1_-0.2.F81
-rw-r--r-- 1 bsonghao nooijen      16 Nov 16 19:15 /scratch/bsonghao/nh3_diabatization_2d_at_mode_7_8_dist-0.1_-0.2.F82
-rw-r--r-- 1 bsonghao nooijen   19216 Nov 16 19:15 /scratch/bsonghao/nh3_diabatization_2d_at_mode_7_8_dist-0.1_-0.2.F83
-rw-r--r-- 1 bsonghao nooijen   29712 Nov 16 19:15 /scratch/bsonghao/nh3_diabatization_2d_at_mode_7_8_dist-0.1_-0.2.F84
-rw-r--r-- 1 bsonghao nooijen  401576 Nov 16 19:15 /scratch/bsonghao/nh3_diabatization_2d_at_mode_7_8_dist-0.1_-0.2.F85
-rw-r--r-- 1 bsonghao nooijen  903672 Nov 16 19:15 /scratch/bsonghao/nh3_diabatization_2d_at_mode_7_8_dist-0.1_-0.2.F86
-rw-r--r-- 1 bsonghao nooijen     656 Nov 16 19:15 /scratch/bsonghao/nh3_diabatization_2d_at_mode_7_8_dist-0.1_-0.2.F87
-rw-r--r-- 1 bsonghao nooijen   27472 Nov 16 19:15 /scratch/bsonghao/nh3_diabatization_2d_at_mode_7_8_dist-0.1_-0.2.F88
-rw-r--r-- 1 bsonghao nooijen     240 Nov 16 19:15 /scratch/bsonghao/nh3_diabatization_2d_at_mode_7_8_dist-0.1_-0.2.F89
-rw-r--r-- 1 bsonghao nooijen       0 Nov 16 19:14 /scratch/bsonghao/nh3_diabatization_2d_at_mode_7_8_dist-0.1_-0.2.F90
-rw-r--r-- 1 bsonghao nooijen   13760 Nov 16 19:15 /scratch/bsonghao/nh3_diabatization_2d_at_mode_7_8_dist-0.1_-0.2.F91
-rw-r--r-- 1 bsonghao nooijen   22776 Nov 16 19:15 /scratch/bsonghao/nh3_diabatization_2d_at_mode_7_8_dist-0.1_-0.2.F92
-rw-r--r-- 1 bsonghao nooijen   23168 Nov 16 19:15 /scratch/bsonghao/nh3_diabatization_2d_at_mode_7_8_dist-0.1_-0.2.F93
-rw-r--r-- 1 bsonghao nooijen   22776 Nov 16 19:15 /scratch/bsonghao/nh3_diabatization_2d_at_mode_7_8_dist-0.1_-0.2.F94
-rw-r--r-- 1 bsonghao nooijen   13760 Nov 16 19:15 /scratch/bsonghao/nh3_diabatization_2d_at_mode_7_8_dist-0.1_-0.2.F95
-rw-r--r-- 1 bsonghao nooijen   29440 Nov 16 19:15 /scratch/bsonghao/nh3_diabatization_2d_at_mode_7_8_dist-0.1_-0.2.F96
-rw-r--r-- 1 bsonghao nooijen    1184 Nov 16 19:15 /scratch/bsonghao/nh3_diabatization_2d_at_mode_7_8_dist-0.1_-0.2.F97
-rw-r--r-- 1 bsonghao nooijen    9808 Nov 16 19:15 /scratch/bsonghao/nh3_diabatization_2d_at_mode_7_8_dist-0.1_-0.2.F98
-rw-r--r-- 1 bsonghao nooijen   30264 Nov 16 19:15 /scratch/bsonghao/nh3_diabatization_2d_at_mode_7_8_dist-0.1_-0.2.F99
ls: No match.
ls: No match.
ls: No match.
Wed 16 Nov 2022 07:15:13 PM EST
0.299u 0.031s 0:15.39 2.0%	0+0k 48+224io 0pf+0w
