----- GAMESS execution script 'rungms' -----
This job is running on host io002
under operating system Linux at Wed 16 Nov 2022 08:15:20 PM EST
Available scratch disk space (Kbyte units) at beginning of the job is
Filesystem       1K-blocks       Used   Available Use% Mounted on
/dev/sdc1      15378471580 3278917120 11318349060  23% /scratch
GAMESS temporary binary files will be written to /scratch/bsonghao
GAMESS supplementary output files will be written to /home/bsonghao/.gamess_ascii_files/267638
Copying input file nh3_diabatization_2d_at_mode_7_8_dist0.7_-0.4.inp to your run's scratch directory...
cp nh3_diabatization_2d_at_mode_7_8_dist0.7_-0.4.inp /scratch/bsonghao/nh3_diabatization_2d_at_mode_7_8_dist0.7_-0.4.F05
unset echo
/home/bjb2chen/gamess/ddikick.x /home/bjb2chen/gamess/gamess.00.x nh3_diabatization_2d_at_mode_7_8_dist0.7_-0.4 -ddi 1 1 io002 -scr /scratch/bsonghao

 Distributed Data Interface kickoff program.
 Initiating 1 compute processes on 1 nodes to run the following command:
 /home/bjb2chen/gamess/gamess.00.x nh3_diabatization_2d_at_mode_7_8_dist0.7_-0.4 

          ******************************************************
          *         GAMESS VERSION = 02 AUG 2018 (R2)         *
          *             FROM IOWA STATE UNIVERSITY             *
          * M.W.SCHMIDT, K.K.BALDRIDGE, J.A.BOATZ, S.T.ELBERT, *
          *   M.S.GORDON, J.H.JENSEN, S.KOSEKI, N.MATSUNAGA,   *
          *          K.A.NGUYEN, S.J.SU, T.L.WINDUS,           *
          *       TOGETHER WITH M.DUPUIS, J.A.MONTGOMERY       *
          *         J.COMPUT.CHEM.  14, 1347-1363(1993)        *
          **************** 64 BIT LINUX VERSION ****************

  SINCE 1993, STUDENTS AND POSTDOCS WORKING AT IOWA STATE UNIVERSITY
  AND ALSO IN THEIR VARIOUS JOBS AFTER LEAVING ISU HAVE MADE IMPORTANT
  CONTRIBUTIONS TO THE CODE:
     IVANA ADAMOVIC, CHRISTINE AIKENS, YURI ALEXEEV, POOJA ARORA,
     ANDREY ASADCHEV, ROB BELL, PRADIPTA BANDYOPADHYAY, JONATHAN BENTZ,
     BRETT BODE, KURT BRORSEN, CALEB CARLIN, GALINA CHABAN, WEI CHEN,
     CHEOL HO CHOI, PAUL DAY, ALBERT DEFUSCO, NUWAN DESILVA, TIM DUDLEY,
     DMITRI FEDOROV, ALEX FINDLATER, GRAHAM FLETCHER, MARK FREITAG,
     KURT GLAESEMANN, ANASTASIA GUININA,
     DAN KEMP, GRANT MERRILL, NORIYUKI MINEZAWA, JONATHAN MULLIN,
     TAKESHI NAGATA, SEAN NEDD, HEATHER NETZLOFF, BOSILJKA NJEGIC, RYAN OLSON,
     MIKE PAK, BUU PHAM,
     SPENCER PRUITT, LUKE ROSKOP, JIM SHOEMAKER, LYUDMILA SLIPCHENKO,
     TONY SMITH, SAROM SOK LEANG, JIE SONG, TETSUYA TAKETSUGU, SIMON WEBB,
     PENG XU, SOOHAENG YOO, FEDERICO ZAHARIEV

  ADDITIONAL CODE HAS BEEN PROVIDED BY COLLABORATORS IN OTHER GROUPS:
     IOWA STATE UNIVERSITY:
          JOE IVANIC, AARON WEST, LAIMUTIS BYTAUTAS, KLAUS RUEDENBERG
     UNIVERSITY OF TOKYO: KIMIHIKO HIRAO, TAKAHITO NAKAJIMA,
          TAKAO TSUNEDA, MUNEAKI KAMIYA, SUSUMU YANAGISAWA,
          KIYOSHI YAGI, MAHITO CHIBA, SEIKEN TOKURA, NAOAKI KAWAKAMI
     UNIVERSITY OF AARHUS: FRANK JENSEN
     UNIVERSITY OF IOWA: VISVALDAS KAIRYS, HUI LI
     NATIONAL INST. OF STANDARDS AND TECHNOLOGY: WALT STEVENS, DAVID GARMER
     UNIVERSITY OF PISA: BENEDETTA MENNUCCI, JACOPO TOMASI
     UNIVERSITY OF MEMPHIS: HENRY KURTZ, PRAKASHAN KORAMBATH
     UNIVERSITY OF ALBERTA: TOBY ZENG, MARIUSZ KLOBUKOWSKI
     UNIVERSITY OF NEW ENGLAND: MARK SPACKMAN
     MIE UNIVERSITY: HIROAKI UMEDA
     NAT. INST. OF ADVANCED INDUSTRIAL SCIENCE AND TECHNOLOGY: KAZUO KITAURA
     MICHIGAN STATE UNIVERSITY:
          KAROL KOWALSKI, MARTA WLOCH, JEFFREY GOUR, JESSE LUTZ,
          WEI LI, JUN SHEN, J. EMILIANO DEUSTUA, PIOTR PIECUCH
     UNIVERSITY OF MINNESOTA:
          YINAN SHU
     UNIVERSITY OF SILESIA: MONIKA MUSIAL, STANISLAW KUCHARSKI
     FACULTES UNIVERSITAIRES NOTRE-DAME DE LA PAIX:
          OLIVIER QUINET, BENOIT CHAMPAGNE
     UNIVERSITY OF CALIFORNIA - SANTA BARBARA: BERNARD KIRTMAN
     INSTITUTE FOR MOLECULAR SCIENCE:
          KAZUYA ISHIMURA, MICHIO KATOUDA, AND SHIGERU NAGASE
     UNIVERSITY OF NOTRE DAME: ANNA POMOGAEVA, DAN CHIPMAN
     KYUSHU UNIVERSITY:
          HARUYUKI NAKANO,
          FENG LONG GU, JACEK KORCHOWIEC, MARCIN MAKOWSKI, AND YURIKO AOKI,
          HIROTOSHI MORI AND EISAKU MIYOSHI
     PENNSYLVANIA STATE UNIVERSITY:
          TZVETELIN IORDANOV, CHET SWALINA, JONATHAN SKONE,
          SHARON HAMMES-SCHIFFER
     WASEDA UNIVERSITY:
          MASATO KOBAYASHI, TOMOKO AKAMA, TSUGUKI TOUMA,
          TAKESHI YOSHIKAWA, YASUHIRO IKABATA, JUNJI SEINO,
          YUYA NAKAJIMA, HIROMI NAKAI
     NANJING UNIVERSITY: SHUHUA LI
     UNIVERSITY OF NEBRASKA:
          PEIFENG SU, DEJUN SI, NANDUN THELLAMUREGE, YALI WANG, HUI LI
     UNIVERSITY OF ZURICH: ROBERTO PEVERATI, KIM BALDRIDGE
     N. COPERNICUS UNIVERSITY AND JACKSON STATE UNIVERSITY:
          MARIA BARYSZ
     UNIVERSITY OF COPENHAGEN: Jimmy Kromann, CASPER STEINMANN
     TOKYO INSTITUTE OF TECHNOLOGY: HIROYA NAKATA
     NAGOYA UNIVERSITY: YOSHIO NISHIMOTO, STEPHAN IRLE
     MOSCOW STATE UNIVERSITY: VLADIMIR MIRONOV

 EXECUTION OF GAMESS BEGUN Wed Nov 16 20:15:20 2022

            ECHO OF THE FIRST FEW INPUT CARDS -
 INPUT CARD> $system kdiag=3 mwords=100 memddi=1000 parall=.t. $end                         
 INPUT CARD> $contrl runtyp=energy ispher=1 $end                                            
 INPUT CARD> $contrl icut=9 itol=20 inttyp=rysquad qmttol=1.0d-05 nosym=1 $end              
 INPUT CARD> $scf    npunch=2 conv=1.0d-06 dirscf=.t.      $end                             
 INPUT CARD> $contrl scftyp=mcscf  mult=2 maxit=200 icharg=1 mplevl=2 $end                  
 INPUT CARD> $guess  guess=moread norb=29 purify=.t. $end                                   
 INPUT CARD> $basis  gbasis=ccd $end                                                        
 INPUT CARD> $mcscf  cistep=gmcci fullnr=.t. finci=mos                                      
 INPUT CARD>         acurcy=1.d-6 maxit=100 $end                                            
 INPUT CARD> $trans  dirtrf=.t. $end                                                        
 INPUT CARD> $mrmp   mrpt=gmcpt rdvecs=.f. $end                                             
 INPUT CARD> $gmcpt  nmofzc=0 nmodoc=1 nmoact=7 nelact=7 stsym(1)=A                         
 INPUT CARD>         reftyp=ormas nspace=1 mstart(1)=2 mine(1)=7 maxe(1)=7                  
 INPUT CARD>         kstate(1)=1,1,1                                                        
 INPUT CARD>         wstate(1)=1,1,1                                                        
 INPUT CARD>         iwgt=0 thrwgt=-1.0 krot=.f. kszdoe=.f. knospn=.f.                      
 INPUT CARD>         thrde=-1.0 edshft=0.02 $end                                            
 INPUT CARD> $data                                                                          
 INPUT CARD> NH3+ 3 states calculation at NH3 structure.                                    
 INPUT CARD> c1                                                                             
 INPUT CARD>N 7.0 0.024915672 -0.043602321 -0.1693804682                                    
 INPUT CARD>H 1.0 -0.401491231 0.7006384398000001 0.4692791421                              
 INPUT CARD>H 1.0 -0.936468442 -0.6055996538 0.14922882510000002                            
 INPUT CARD>H 1.0 0.991749708 0.5108302 0.15086940910000002                                 
 INPUT CARD>$end                                                                            
 INPUT CARD>--- OPTIMIZED RHF      MO-S --- GENERATED AT Mon Nov 14 16:47:08 2022           
 INPUT CARD>E=      -56.3825050291, E(NUC)=   11.8429239490                                 
 INPUT CARD> $VEC                                                                           
 INPUT CARD> 1  1-1.00134066E+00-2.25158504E-03 3.44925845E-03 0.00000000E+00 0.00000000E+00
 INPUT CARD> 1  2-2.13170927E-03 0.00000000E+00 0.00000000E+00 6.57129898E-04-6.87950443E-05
 INPUT CARD> 1  3-6.87950443E-05 1.37590089E-04 0.00000000E+00 0.00000000E+00 0.00000000E+00
 INPUT CARD> 1  4 3.25502815E-04-4.84772356E-04 3.62525460E-04-6.27912517E-04-3.45956485E-04
 INPUT CARD> 1  5 3.25502815E-04-4.84772356E-04 3.62525460E-04 6.27912517E-04-3.45956485E-04
 INPUT CARD> 1  6 3.25502815E-04-4.84772356E-04-7.25050921E-04 0.00000000E+00-3.45956485E-04
 INPUT CARD> 2  1 1.31286642E-02-4.05911371E-01-2.82090992E-01 0.00000000E+00 0.00000000E+00
 INPUT CARD> 2  2-7.71489043E-02 0.00000000E+00 0.00000000E+00 9.73717494E-03 6.62450916E-04
 INPUT CARD> 2  3 6.62450916E-04-1.32490183E-03 0.00000000E+00 0.00000000E+00 0.00000000E+00
 INPUT CARD> 2  4-1.96090317E-01-1.96656153E-02-1.74855877E-02 3.02859263E-02 8.68214399E-03
 INPUT CARD> 2  5-1.96090317E-01-1.96656153E-02-1.74855877E-02-3.02859263E-02 8.68214399E-03
 INPUT CARD> 2  6-1.96090317E-01-1.96656153E-02 3.49711754E-02 0.00000000E+00 8.68214399E-03
 INPUT CARD> 3  1 0.00000000E+00 0.00000000E+00 0.00000000E+00 4.48608762E-01 0.00000000E+00
 INPUT CARD> 3  2 0.00000000E+00 2.18692520E-01 0.00000000E+00 0.00000000E+00 1.30198027E-02
 INPUT CARD> 3  3-1.30198027E-02 0.00000000E+00 0.00000000E+00 2.71832968E-02 0.00000000E+00
 INPUT CARD> 3  4-1.85332726E-01-7.03958951E-02 8.47929477E-03 1.95242443E-02 8.32835058E-03
 INPUT CARD> 3  5-1.85332726E-01-7.03958951E-02 8.47929477E-03-1.95242443E-02 8.32835058E-03
 INPUT CARD> 3  6 3.70665453E-01 1.40791790E-01-2.53376884E-02 0.00000000E+00-1.66567012E-02
 INPUT CARD> 4  1 0.00000000E+00 0.00000000E+00 0.00000000E+00 0.00000000E+00 4.48608762E-01
 INPUT CARD> 4  2 0.00000000E+00 0.00000000E+00 2.18692520E-01 0.00000000E+00 0.00000000E+00
 INPUT CARD> 4  3 0.00000000E+00 0.00000000E+00-1.50339731E-02 0.00000000E+00 2.71832968E-02
 INPUT CARD> 4  4 3.21005698E-01 1.21929267E-01 1.95242443E-02-1.40653607E-02-1.44251263E-02
  100000000 WORDS OF MEMORY AVAILABLE

     BASIS OPTIONS
     -------------
     GBASIS=CCD          IGAUSS=       0      POLAR=NONE    
     NDFUNC=       0     NFFUNC=       0     DIFFSP=       F
     NPFUNC=       0      DIFFS=       F     BASNAM=        


     RUN TITLE
     ---------
  NH3+ 3 states calculation at NH3 structure.                                    

 THE POINT GROUP OF THE MOLECULE IS C1      
 THE ORDER OF THE PRINCIPAL AXIS IS     0

 ATOM      ATOMIC                      COORDINATES (BOHR)
           CHARGE         X                   Y                   Z
 N           7.0     0.0470837929       -0.0823964391       -0.3200826726
 H           1.0    -0.7587084131        1.3240146677        0.8868089903
 H           1.0    -1.7696687515       -1.1444174039        0.2820015889
 H           1.0     1.8741351965        0.9653291043        0.2851018431

          INTERNUCLEAR DISTANCES (ANGS.)
          ------------------------------

                1 N          2 H          3 H          4 H     

   1 N       0.0000000    1.0693939 *  1.1582799 *  1.1596221 *
   2 H       1.0693939 *  0.0000000    1.4473738 *  1.4417116 *
   3 H       1.1582799 *  1.4473738 *  0.0000000    2.2281031 *
   4 H       1.1596221 *  1.4417116 *  2.2281031 *  0.0000000  

  * ... LESS THAN  3.000


     ATOMIC BASIS SET
     ----------------
 THE CONTRACTED PRIMITIVE FUNCTIONS HAVE BEEN UNNORMALIZED
 THE CONTRACTED BASIS FUNCTIONS ARE NOW NORMALIZED TO UNITY

  SHELL TYPE  PRIMITIVE        EXPONENT          CONTRACTION COEFFICIENT(S)

 N         

      1   S       1          9046.0000000    0.000699617413
      1   S       2          1357.0000000    0.005386054630
      1   S       3           309.3000000    0.027391021189
      1   S       4            87.7300000    0.103150591982
      1   S       5            28.5600000    0.278570663317
      1   S       6            10.2100000    0.448294849454
      1   S       7             3.8380000    0.278085928395
      1   S       8             0.7466000    0.015431561233

      2   S       9          9046.0000000   -0.000304990096
      2   S      10          1357.0000000   -0.002408026379
      2   S      11           309.3000000   -0.011944448725
      2   S      12            87.7300000   -0.048925992909
      2   S      13            28.5600000   -0.134472724725
      2   S      14            10.2100000   -0.315112577700
      2   S      15             3.8380000   -0.242857832550
      2   S      16             0.7466000    1.094382206854

      3   S      17             0.2248000    1.000000000000

      4   P      18            13.5500000    0.058905676772
      4   P      19             2.9170000    0.320461106714
      4   P      20             0.7973000    0.753042061792

      5   P      21             0.2185000    1.000000000000

      6   D      22             0.8170000    1.000000000000

 H         

      7   S      23            13.0100000    0.033498726390
      7   S      24             1.9620000    0.234800801174
      7   S      25             0.4446000    0.813682957883

      8   S      26             0.1220000    1.000000000000

      9   P      27             0.7270000    1.000000000000

 H         

     10   S      28            13.0100000    0.033498726390
     10   S      29             1.9620000    0.234800801174
     10   S      30             0.4446000    0.813682957883

     11   S      31             0.1220000    1.000000000000

     12   P      32             0.7270000    1.000000000000

 H         

     13   S      33            13.0100000    0.033498726390
     13   S      34             1.9620000    0.234800801174
     13   S      35             0.4446000    0.813682957883

     14   S      36             0.1220000    1.000000000000

     15   P      37             0.7270000    1.000000000000

 TOTAL NUMBER OF BASIS SET SHELLS             =   15
 NUMBER OF CARTESIAN GAUSSIAN BASIS FUNCTIONS =   30
 NOTE: THIS RUN WILL RESTRICT THE MO VARIATION SPACE TO SPHERICAL HARMONICS.
 THE NUMBER OF ORBITALS KEPT IN THE VARIATIONAL SPACE WILL BE PRINTED LATER.
 NUMBER OF ELECTRONS                          =    9
 CHARGE OF MOLECULE                           =    1
 SPIN MULTIPLICITY                            =    2
 NUMBER OF OCCUPIED ORBITALS (ALPHA)          =    5
 NUMBER OF OCCUPIED ORBITALS (BETA )          =    4
 TOTAL NUMBER OF ATOMS                        =    4
 THE NUCLEAR REPULSION ENERGY IS       10.8264354415

     $CONTRL OPTIONS
     ---------------
 SCFTYP=MCSCF        RUNTYP=ENERGY       EXETYP=RUN     
 MPLEVL=       2     CITYP =NONE         CCTYP =NONE         VBTYP =NONE    
 DFTTYP=NONE         TDDFT =NONE    
 MULT  =       2     ICHARG=       1     NZVAR =       0     COORD =UNIQUE  
 PP    =NONE         RELWFN=NONE         LOCAL =NONE         NUMGRD=       F
 ISPHER=       1     NOSYM =       1     MAXIT =     200     UNITS =ANGS    
 PLTORB=       F     MOLPLT=       F     AIMPAC=       F     FRIEND=        
 NPRINT=       7     IREST =       0     GEOM  =INPUT   
 NORMF =       0     NORMP =       0     ITOL  =      20     ICUT  =       9
 INTTYP=RYSQUAD      GRDTYP=BEST         QMTTOL= 1.0E-05

     $SYSTEM OPTIONS
     ---------------
  REPLICATED MEMORY=   100000000 WORDS (ON EVERY NODE).
 DISTRIBUTED MEMDDI=        1000 MILLION WORDS IN AGGREGATE,
 MEMDDI DISTRIBUTED OVER   1 PROCESSORS IS  1000000000 WORDS/PROCESSOR.
 TOTAL MEMORY REQUESTED ON EACH PROCESSOR=  1100000000 WORDS.
 TIMLIM=      525600.00 MINUTES, OR     365.0 DAYS.
 PARALL= T  BALTYP=  DLB     KDIAG=    3  COREFL= F
 MXSEQ2=     300 MXSEQ3=     150  mem10=         0

          ----------------
          PROPERTIES INPUT
          ----------------

     MOMENTS            FIELD           POTENTIAL          DENSITY
 IEMOM =       1   IEFLD =       0   IEPOT =       0   IEDEN =       0
 WHERE =COMASS     WHERE =NUCLEI     WHERE =NUCLEI     WHERE =NUCLEI  
 OUTPUT=BOTH       OUTPUT=BOTH       OUTPUT=BOTH       OUTPUT=BOTH    
 IEMINT=       0   IEFINT=       0                     IEDINT=       0
                                                       MORB  =       0

     -------------------------------
     INTEGRAL TRANSFORMATION OPTIONS
     -------------------------------
     NWORD  =            0
     CUTOFF = 1.0E-09     MPTRAN =       0
     DIRTRF =       T     AOINTS =DUP     

          ----------------------
          MCSCF INPUT PARAMETERS
          ----------------------
 CONVERGER SELECTION: FOCAS = F  SOSCF = F  FULLNR = T  QUD = F  JACOBI = F
 SECULAR EQUATION METHOD CISTEP = GMCCI   
 --- GENERAL INPUT OPTIONS:
 MAXIT =     100  MICIT =       1  ACURCY= 1.000E-06
 DAMP  =   0.000  CANONC=       T  ENGTOL= 1.000E-10
 EKT   =       F  NPUNCH=       2  NWORD =         0
 REGENERATE CI AFTER CONVERGENCE = NONE    
 DIABATIZATION AFTER CONVERGENCE =        F
 --- INPUT FOR FULLNR CONVERGER:
 METHOD=DM2       FORS  =       F  DROPC =       T
 LINSER=       F  FCORE =       F  NORB  =      30

          ----------------------
          INTEGRAL INPUT OPTIONS
          ----------------------
 NOPK  =       1 NORDER=       0 SCHWRZ=       T

 ------------------------------------------
 MULTIREFERENCE PERTURBATION THEORY CONTROL
 ------------------------------------------
 MRPT=GMCPT    READ CONVERGED MCSCF VECTORS= F


     ------------------------------------------
     THE POINT GROUP IS C1 , NAXIS= 1, ORDER= 1
     ------------------------------------------

 -- VARIATIONAL SPACE WILL BE RESTRICTED TO PURE SPHERICAL HARMONICS ONLY --
 AFTER EXCLUDING CONTAMINANT COMBINATIONS FROM THE CARTESIAN GAUSSIAN BASIS
 SET, THE NUMBER OF SPHERICAL HARMONICS KEPT IN THE VARIATION SPACE IS   29

     DIMENSIONS OF THE SYMMETRY SUBSPACES ARE
 A   =   29

 ..... DONE SETTING UP THE RUN .....
 CPU     0: STEP CPU TIME=     0.04 TOTAL CPU TIME=          0.0 (      0.0 MIN)
 TOTAL WALL CLOCK TIME=          0.0 SECONDS, CPU UTILIZATION IS    80.00%

          ********************
          1 ELECTRON INTEGRALS
          ********************
 TIME TO DO   DIPOLE INTEGRALS=      0.00
 ...... END OF ONE-ELECTRON INTEGRALS ......
 CPU     0: STEP CPU TIME=     0.00 TOTAL CPU TIME=          0.0 (      0.0 MIN)
 TOTAL WALL CLOCK TIME=          0.0 SECONDS, CPU UTILIZATION IS    80.00%

          -------------
          GUESS OPTIONS
          -------------
          GUESS =MOREAD            NORB  =      29          NORDER=       0
          MIX   =       F          PRTMO =       F          PUNMO =       F
          TOLZ  = 1.0E-08          TOLE  = 1.0E-05
          SYMDEN=       F          PURIFY=       T

 INITIAL GUESS ORBITALS GENERATED BY MOREAD   ROUTINE.

 STATISTICS FOR GENERATION OF SYMMETRY ORBITAL -Q- MATRIX
 NUMBER OF CARTESIAN ATOMIC ORBITALS=         30
 NUMBER OF SPHERICAL CONTAMINANTS DROPPED=     1
 NUMBER OF LINEARLY DEPENDENT MOS DROPPED=     0
 TOTAL NUMBER OF MOS IN VARIATION SPACE=      29
 ORBITAL PURIFICATION WILL OCCUR

 SYMMETRIES FOR INITIAL GUESS ORBITALS FOLLOW.   BOTH SET(S).
     5 ORBITALS ARE OCCUPIED (    1 CORE ORBITALS).
     1=A        2=A        3=A        4=A        5=A        6=A        7=A   
     8=A        9=A       10=A       11=A       12=A       13=A       14=A   
    15=A       16=A       17=A       18=A       19=A       20=A       21=A   
    22=A       23=A       24=A       25=A       26=A       27=A       28=A   
    29=A   
 ...... END OF INITIAL ORBITAL SELECTION ......
 CPU     0: STEP CPU TIME=     0.00 TOTAL CPU TIME=          0.0 (      0.0 MIN)
 TOTAL WALL CLOCK TIME=          0.0 SECONDS, CPU UTILIZATION IS    80.00%

                    ----------------------
                    AO INTEGRAL TECHNOLOGY
                    ----------------------
     S,P,L SHELL ROTATED AXIS INTEGRALS, REPROGRAMMED BY
        KAZUYA ISHIMURA (IMS) AND JOSE SIERRA (SYNSTAR).
     S,P,D,L SHELL ROTATED AXIS INTEGRALS PROGRAMMED BY
        KAZUYA ISHIMURA (INSTITUTE FOR MOLECULAR SCIENCE).
     S,P,D,F,G SHELL TO TOTAL QUARTET ANGULAR MOMENTUM SUM 5,
        ERIC PROGRAM BY GRAHAM FLETCHER (ELORET AND NASA ADVANCED
        SUPERCOMPUTING DIVISION, AMES RESEARCH CENTER).
     S,P,D,F,G,L SHELL GENERAL RYS QUADRATURE PROGRAMMED BY
        MICHEL DUPUIS (PACIFIC NORTHWEST NATIONAL LABORATORY).

          --------------------
          2 ELECTRON INTEGRALS
          --------------------

 DIRECT SCF METHOD SKIPS INTEGRAL STORAGE ON DISK.
 DIRECT TRANSFORMATION SKIPS AO INTEGRAL STORAGE ON DISK.
  ...... END OF TWO-ELECTRON INTEGRALS .....
 STEP CPU TIME =     0.02 TOTAL CPU TIME =          0.1 (      0.0 MIN)
 TOTAL WALL CLOCK TIME=          0.1 SECONDS, CPU UTILIZATION IS    75.00%
 DDI: Creating Array [0] - 900 x 36 = 32400 words.
 DDI: Creating Array [1] - 21 x 288 = 6048 words.
 DDI: Creating Array [2] - 36 x 36 = 1296 words.
 DDI: Creating Array [3] - 465 x 36 = 16740 words.

          -----------------
          MCSCF CALCULATION
          -----------------

 ----- NUCLEAR ENERGY ----- =        10.8264354415

     -------------------------------------------------
     GMC-PT/GMC-QDPT or general MCSCF input parameters
     -------------------------------------------------
 # of frozen core orbs. =         0 ->         0
 # of doubly occ. orbs. =         1
 # of active      orbs. =         7
 # of virtual     orbs. =        21
 # of active electrons  =         7
 # of states in CI      =         3
 Highest state in CI    =         3
 kstate =  1 1 1
 avecoe =  0.333 0.333 0.333
 State symmetry           = A           
 Assigned symmetry number = 1

 <<<Act. MO sym.: 1111111

 <<<Division of 1-ext.:  0
 <<<Division of 2-ext.:  0

 *** Reference space

 Reference type: ORMAS (= Occupation restricted multiple active space)
 # of orbitals          =  7
 # of minimum electrons =  7
 # of maximum electrons =  7
 State symmetry    =    1 (input)
 2*Sz              =    1 (input)
 Spin multiplicity =    2 (input)
 Dimension of reference space =      1225  (from      3432 walks)

 Dimension of reference space =      1225  (from      1225 walks)

 <<<Ionized spaces for Ref-CI:
      0:         1225 /   -1-0:         1960 /  0-1-0:         2891

 EVALUATING EXCHANGE INTEGRALS FOR DIRECT INTEGRAL TRANSFORMATION
 SCHWARZ INEQUALITY OVERHEAD:       465 INTEGRALS, T=        0.01

     --------------------------------------------
     PARTIAL TWO ELECTRON INTEGRAL TRANSFORMATION
     --------------------------------------------

 NUMBER OF CORE MOLECULAR ORBITALS     =    1
 NUMBER OF OCCUPIED MOLECULAR ORBITALS =    8
 TOTAL NUMBER OF MOLECULAR ORBITALS    =   29
 TOTAL NUMBER OF ATOMIC ORBITALS       =   30
 THRESHOLD FOR KEEPING TRANSFORMED 2E- INTEGRALS = 1.000E-09

 -------------------------------     ------------------------------
 DISTRIBUTED DATA TRANSFORMATION     PROGRAM WRITTEN BY G. FLETCHER
 -------------------------------     ------------------------------

 THE DISTRIBUTED MEMORY REQUIRED FOR THIS STEP IS MEMDDI=         1 MWORDS
 CREATING DISTRIBUTED STORAGE FOR [VIR OCC|VIR OCC] INTEGRALS
 CREATING DISTRIBUTED STORAGE FOR [VIR OCC|OCC OCC] INTEGRALS
 CREATING DISTRIBUTED STORAGE FOR [OCC OCC|OCC OCC] INTEGRALS
 CREATING DISTRIBUTED STORAGE FOR [VIR VIR|OCC OCC] INTEGRALS
 FOR    1 PROCESSORS, THE REPLICATED MEMORY NEEDED IS       73700 WORDS.
 SCHWARZ INEQUALITY OVERHEAD:       465 INTEGRALS, T=        0.01

      DIRECT 4-INDEX TRANSFORMATION 
      SCHWARZ INEQUALITY TEST SKIPPED          0 INTEGRAL BLOCKS
 ----- FROZEN CORE ENERGY =       -47.5480029075
 ... END OF INTEGRAL TRANSFORMATION ...
 CPU     0: STEP CPU TIME=     0.23 TOTAL CPU TIME=          0.3 (      0.0 MIN)
 TOTAL WALL CLOCK TIME=          0.3 SECONDS, CPU UTILIZATION IS    96.67%

     --------------------------------     -----------------------------
     MCHF NEWTON-RAPHSON OPTIMIZATION     CODE WRITTEN BY MICHEL DUPUIS
     --------------------------------     -----------------------------
     PARALLEL VERSION WRITTEN BY G. FLETCHER (ELORET)
     NASA ADVANCED SUPERCOMPUTING DIVISION, AMES RESEARCH CENTER

 NUMBER OF INDEPENDENT ORBITAL ROTATION PARAMETERS =   175
 ..... DONE SOLVING NEWTON-RAPHSON EQUATIONS .....
 CPU     0: STEP CPU TIME=     0.99 TOTAL CPU TIME=          1.3 (      0.0 MIN)
 TOTAL WALL CLOCK TIME=          1.3 SECONDS, CPU UTILIZATION IS    99.22%
 ..... DONE WITH NTN-RPH ORBITAL ROTATIONS ..... 
 CPU     0: STEP CPU TIME=     0.00 TOTAL CPU TIME=          1.3 (      0.0 MIN)
 TOTAL WALL CLOCK TIME=          1.3 SECONDS, CPU UTILIZATION IS    99.22%
 MAXIMUM MEMORY USED BY NTN-RPH CODE WAS     57645 WORDS.

 ITER     TOTAL ENERGY      DEL(E)  LAGRANGIAN ASYMMETRY   SQCDF  MICIT   DAMP
   1      -55.584372380 -0.584372380  0.103872   12    5 9.399E-02  1   0.0000
   2      -55.650928444 -0.066556063  0.019929   12    5 4.614E-01  1   0.0000
   3      -55.688055940 -0.037127496  0.014528   11    6 2.218E-01  1   0.0165
   4      -55.705011378 -0.016955438  0.005055   11    6 4.102E-02  1   0.0061
   5      -55.707239898 -0.002228520  0.001292   14    5 1.092E-03  1   0.0000
   6      -55.707321778 -0.000081880  0.000549   14    5 9.778E-05  1   0.0000
   7      -55.707332029 -0.000010251  0.000240   14    5 2.004E-05  1   0.0000
   8      -55.707334116 -0.000002087  0.000110   14    5 4.646E-06  1   0.0000
   9      -55.707334584 -0.000000468  0.000052   14    5 1.138E-06  1   0.0000
  10      -55.707334694 -0.000000110  0.000025   14    5 2.910E-07  1   0.0000
  11      -55.707334722 -0.000000027  0.000012   14    5 7.736E-08  1   0.0000
  12      -55.707334728 -0.000000007  0.000006   14    5 2.122E-08  1   0.0000
  13      -55.707334730 -0.000000002  0.000003   23    5 6.001E-09  1   0.0000
  14      -55.707334731 -0.000000001  0.000002   23    5 1.736E-09  1   0.0000
  15      -55.707334731 -0.000000000  0.000001   23    5 5.095E-10  1   0.0000

          --------------------
          LAGRANGIAN CONVERGED
          --------------------

 FINAL MCSCF ENERGY IS      -55.7073347310 AFTER  15 ITERATIONS

 -MCCI- BASED ON OPTIMIZED ORBITALS
 ----------------------------------

 PLEASE NOTE: IF THE ACTIVE ORBITALS ARE CANONICALIZED BELOW,
 THE FOLLOWING CI EXPANSION COEFFICIENTS AND THE DENSITY DO NOT
 CORRESPOND TO THE PRINTED ORBITALS.  THE PRINTED EXPANSIONS MATCH
 THE ORBITALS USED DURING THE LAST ITERATION.  IF YOU WISH TO SEE
 CI EXPANSIONS BASED ON THE CANONICAL (OR NATURAL) ORBITALS, YOU
 MUST RUN A CI CALCULATION WITH THAT ORBITAL CHOICE READ IN $VEC.

 Averaged energy =     -55.707334731

 State #    1  Energy =     -55.846651321  S =  0.500

      Det      Coef    Occupancy (Ignoring core)
      ---      ----    --------- --------- -----
        1   -0.853250  11110001110000
        2   -0.065884  11101001110000
        3   -0.053086  11011001110000
        5    0.076802  01111001110000
        8    0.125809  10110101110000
       16   -0.060152  11100011110000
       17   -0.154599  11010011110000
       36   -0.338927  11110001101000
       51   -0.059237  11100011101000
       52   -0.050918  11010011101000
       71   -0.167157  11110001011000
      211   -0.054104  11110000110100
      386   -0.096693  11110001010010
      393   -0.050898  10110101010010
      701    0.095362  11110001100001
      717   -0.068730  11010011100001

 State #    2  Energy =     -55.699156136  S =  0.500

      Det      Coef    Occupancy (Ignoring core)
      ---      ----    --------- --------- -----
        1   -0.367846  11110001110000
        8    0.058802  10110101110000
       17   -0.055110  11010011110000
       36    0.768703  11110001101000
       38    0.079587  11011001101000
       40   -0.063739  01111001101000
       43   -0.089212  10110101101000
       51    0.055012  11100011101000
       52    0.107599  11010011101000
       71    0.384088  11110001011000
       73    0.050402  11011001011000
       87    0.056506  11010011011000
      106   -0.060845  11110000111000
      122   -0.052659  11010010111000
      141    0.054725  11110001100100
      281    0.050360  11110000101100
      386   -0.051121  11110001010010
      456    0.068138  11110001001010
      463    0.050280  10110101001010
      701    0.110121  11110001100001

 State #    3  Energy =     -55.576196736  S =  0.500

      Det      Coef    Occupancy (Ignoring core)
      ---      ----    --------- --------- -----
       36    0.422176  11110001101000
       71   -0.847052  11110001011000
       78    0.057075  10110101011000
       87   -0.096736  11010011011000
      246   -0.077642  11110001001100
      316   -0.077472  11110000011100
      456    0.061811  11110001001010
      736   -0.059136  11110001010001
      806   -0.128394  11110001001001
      822    0.067979  11010011001001

 DENSITY MATRIX OVER ACTIVE MO-S

             1           2           3           4           5

    1    1.9706631
    2   -0.0175676   1.6275059
    3    0.0356802   0.0111657   1.6105549
    4   -0.0070340  -0.0087082   0.0176042   1.6418579
    5    0.1180208   0.0489214  -0.0994008   0.0554721   0.0449796
    6   -0.0095112  -0.1474705   0.0283067  -0.0530754  -0.0118504
    7    0.0195104   0.0324534  -0.1951163   0.1109757   0.0246624

             6           7

    6    0.0400039
    7   -0.0152306   0.0644347

 FORMING THE "STANDARD FOCK OPERATOR" IN DIRECT AO INTEGRAL MODE...
 ONLY THE    1 CORE AND   21 VIRTUAL ORBITALS WILL BE CANONICALIZED

          ----------------------
          MCSCF NATURAL ORBITALS
          ----------------------

                      1          2          3          4          5
                  -15.9732     1.9808     1.6535     1.6440     1.6389
                     A          A          A          A          A   
    1  N  1  S    1.001022   0.009885  -0.007735  -0.000062  -0.004398
    2  N  1  S   -0.002064   0.433400  -0.161106  -0.002145  -0.118355
    3  N  1  S   -0.006463   0.336365  -0.259426  -0.003020  -0.179315
    4  N  1  X   -0.000076  -0.034133   0.058459   0.401238  -0.269175
    5  N  1  Y    0.000128   0.059261  -0.104189   0.238529   0.454080
    6  N  1  Z    0.001011   0.084380   0.585306   0.001593   0.021703
    7  N  1  X    0.000029  -0.004386   0.056312   0.173254  -0.149614
    8  N  1  Y   -0.000050   0.007756  -0.099132   0.103402   0.252987
    9  N  1  Z   -0.000529   0.014292   0.392800   0.000383  -0.035153
   10  N  1 XX    0.000076   0.001487  -0.010755  -0.002292  -0.009769
   11  N  1 YY   -0.000014  -0.000991  -0.011998   0.002212   0.008255
   12  N  1 ZZ   -0.000062  -0.000496   0.022753   0.000080   0.001514
   13  N  1 XY    0.000093   0.002544   0.001237   0.001204  -0.018083
   14  N  1 XZ   -0.000094  -0.001777  -0.002062   0.015405  -0.011794
   15  N  1 YZ    0.000163   0.003143   0.003475   0.009236   0.019963
   16  H  2  S   -0.001809   0.222998   0.136806   0.005464   0.363310
   17  H  2  S    0.000295   0.009742   0.032379   0.001176   0.109964
   18  H  2  X   -0.000424   0.016024   0.012112   0.022745   0.008983
   19  H  2  Y    0.000739  -0.027940  -0.021072   0.012703  -0.016340
   20  H  2  Z    0.000598  -0.020417   0.016558  -0.000312  -0.025487
   21  H  3  S   -0.001329   0.152737   0.090353  -0.327251  -0.106534
   22  H  3  S    0.000463   0.000245   0.031855  -0.057197  -0.050636
   23  H  3  X   -0.000592   0.023132   0.010715  -0.031949  -0.016879
   24  H  3  Y   -0.000385   0.017414   0.004035  -0.023680   0.015018
   25  H  3  Z    0.000250  -0.003540   0.021252   0.008223   0.003913
   26  H  4  S   -0.001325   0.152664   0.088829   0.324777  -0.114466
   27  H  4  S    0.000460   0.000218   0.031621   0.056449  -0.052559
   28  H  4  X    0.000626  -0.026550  -0.008694  -0.036544  -0.003725
   29  H  4  Y    0.000321  -0.011385  -0.007192  -0.015389   0.022497
   30  H  4  Z    0.000251  -0.003577   0.021303  -0.008047   0.004094

                      6          7          8
                    0.0375     0.0235     0.0218
                     A          A          A   
    1  N  1  S   -0.135450  -0.143219  -0.002485
    2  N  1  S   -0.459755  -0.516601  -0.008247
    3  N  1  S    0.031992  -0.210048  -0.001704
    4  N  1  X   -0.286694   0.232934   0.794534
    5  N  1  Y    0.491235  -0.423403   0.455103
    6  N  1  Z   -0.161669  -0.638898  -0.007521
    7  N  1  X    0.037413   0.046014   0.066368
    8  N  1  Y   -0.064037  -0.082824   0.037382
    9  N  1  Z    0.083349   0.070217   0.001690
   10  N  1 XX    0.040153   0.004169   0.045483
   11  N  1 YY   -0.033216  -0.001578  -0.045310
   12  N  1 ZZ   -0.006937  -0.002591  -0.000173
   13  N  1 XY    0.073832   0.007458  -0.029880
   14  N  1 XZ   -0.003484  -0.027801  -0.047360
   15  N  1 YZ    0.006391   0.049643  -0.026505
   16  H  2  S   -0.373694   0.741505   0.006681
   17  H  2  S   -0.158562   0.158415   0.001714
   18  H  2  X   -0.000027   0.029240  -0.048738
   19  H  2  Y    0.000561  -0.049094  -0.028835
   20  H  2  Z    0.024643  -0.001887  -0.000027
   21  H  3  S    0.509353   0.216921   0.540807
   22  H  3  S    0.131334   0.014540   0.145080
   23  H  3  X    0.054918   0.019466   0.038150
   24  H  3  Y    0.007490   0.026294   0.039118
   25  H  3  Z    0.000366   0.023500   0.024579
   26  H  4  S    0.512580   0.227097  -0.532395
   27  H  4  S    0.132918   0.017152  -0.144254
   28  H  4  X   -0.034127  -0.033582   0.051929
   29  H  4  Y   -0.044113  -0.003745   0.013157
   30  H  4  Z    0.000461   0.024215  -0.023922

          ------------------------
          MCSCF OPTIMIZED ORBITALS
          ------------------------

                      1          2          3          4          5
                  -15.9732     0.0000     0.0000     0.0000     0.0000
                     A          A          A          A          A   
    1  N  1  S    1.001022  -0.002382  -0.006864   0.014077  -0.017666
    2  N  1  S   -0.002064   0.395696   0.003356  -0.007087  -0.202174
    3  N  1  S   -0.006463   0.339332   0.062790  -0.127802  -0.265438
    4  N  1  X   -0.000076  -0.014071   0.400313  -0.048062   0.016859
    5  N  1  Y    0.000128   0.024276   0.006762   0.427336  -0.029798
    6  N  1  Z    0.001011   0.050570  -0.008468   0.017143   0.577036
    7  N  1  X    0.000029   0.011862   0.219240  -0.062729   0.050273
    8  N  1  Y   -0.000050  -0.020356  -0.029590   0.279652  -0.087623
    9  N  1  Z   -0.000529   0.026872   0.027641  -0.056587   0.394659
   10  N  1 XX    0.000076   0.004220   0.001393  -0.016074  -0.007967
   11  N  1 YY   -0.000014  -0.003341  -0.000777   0.014788  -0.014205
   12  N  1 ZZ   -0.000062  -0.000879  -0.000617   0.001285   0.022172
   13  N  1 XY    0.000093   0.007662   0.016154  -0.023960   0.006245
   14  N  1 XZ   -0.000094  -0.002261   0.022345  -0.001534  -0.002662
   15  N  1 YZ    0.000163   0.004008   0.001409   0.022406   0.004594
   16  H  2  S   -0.001809   0.209464  -0.191940   0.390837   0.116208
   17  H  2  S    0.000295   0.000888  -0.059182   0.119378   0.023497
   18  H  2  X   -0.000424   0.016552   0.019259   0.020984   0.012202
   19  H  2  Y    0.000739  -0.028809   0.021641  -0.009443  -0.021101
   20  H  2  Z    0.000598  -0.017077   0.013823  -0.028132   0.017157
   21  H  3  S   -0.001329   0.194570  -0.254217  -0.319130   0.121842
   22  H  3  S    0.000463   0.011318  -0.029638  -0.094411   0.039355
   23  H  3  X   -0.000592   0.027865  -0.020784  -0.036454   0.013800
   24  H  3  Y   -0.000385   0.017683  -0.030823   0.001517   0.005053
   25  H  3  Z    0.000250  -0.002612   0.004197   0.005271   0.021170
   26  H  4  S   -0.001325   0.194497   0.407732   0.007094   0.121910
   27  H  4  S    0.000460   0.011368   0.093557  -0.034411   0.039426
   28  H  4  X    0.000626  -0.029142  -0.035898  -0.019120  -0.011287
   29  H  4  Y    0.000321  -0.015347  -0.027292   0.017627  -0.009452
   30  H  4  Z    0.000251  -0.002635  -0.006774  -0.000145   0.021172

                      6          7          8          9         10
                    0.0000     0.0000     0.0000     0.1652     0.2134
                     A          A          A          A          A   
    1  N  1  S    0.192977   0.014615  -0.032011  -0.137943   0.000366
    2  N  1  S    0.705258   0.044231  -0.096263  -0.213939   0.000327
    3  N  1  S    0.181664  -0.059027   0.124045   1.310272  -0.004838
    4  N  1  X   -0.031846   0.917401  -0.009163   0.027513  -0.167846
    5  N  1  Y    0.056425   0.126066   0.837817  -0.048204  -0.096898
    6  N  1  Z    0.649703  -0.070943   0.146698  -0.221317   0.000682
    7  N  1  X   -0.046253   0.079779   0.018439  -0.113954   0.765470
    8  N  1  Y    0.080874   0.027910   0.049472   0.200536   0.444642
    9  N  1  Z   -0.084427   0.003374  -0.005401   0.463582  -0.000499
   10  N  1 XX   -0.024870   0.027392   0.046973   0.043599  -0.012496
   11  N  1 YY    0.018252  -0.029901  -0.041440  -0.004014   0.012073
   12  N  1 ZZ    0.006618   0.002509  -0.005533  -0.039584   0.000423
   13  N  1 XY   -0.043596  -0.050690   0.036513   0.048808   0.007051
   14  N  1 XZ    0.026409  -0.045853  -0.009901  -0.038761   0.075694
   15  N  1 YZ   -0.046092  -0.015409  -0.028468   0.067967   0.044136
   16  H  2  S   -0.435334   0.291182  -0.607218   0.231560   0.003607
   17  H  2  S   -0.055648   0.089093  -0.184760  -0.781257  -0.011016
   18  H  2  X   -0.023430  -0.035721  -0.034247  -0.039968   0.017840
   19  H  2  Y    0.040141  -0.036043   0.012327   0.072307   0.010525
   20  H  2  Z   -0.010060  -0.007329   0.015105   0.081385   0.000465
   21  H  3  S   -0.437873   0.336970   0.473758   0.380560  -0.455855
   22  H  3  S   -0.078251   0.086305   0.142542  -0.828774   1.508635
   23  H  3  X   -0.042900   0.017903   0.043786  -0.059242   0.079861
   24  H  3  Y   -0.026470   0.035949   0.009996  -0.030881   0.029074
   25  H  3  Z   -0.019878   0.028384  -0.001567   0.016256  -0.063807
   26  H  4  S   -0.437412  -0.579637   0.035222   0.383233   0.450281
   27  H  4  S   -0.078351  -0.165671   0.022650  -0.834787  -1.489129
   28  H  4  X    0.044336   0.048739   0.012115   0.055309   0.063971
   29  H  4  Y    0.023835   0.024233  -0.022838   0.036816   0.054310
   30  H  4  Z   -0.020044  -0.016353  -0.023168   0.017275   0.063724

                     11         12         13         14         15
                    0.2421     0.5343     0.6436     0.6957     0.7902
                     A          A          A          A          A   
    1  N  1  S    0.031504   0.086825   0.106519  -0.005189   0.003669
    2  N  1  S    0.074128   0.149737   0.375787  -0.013873   0.008693
    3  N  1  S   -0.154564  -0.311814   0.145911   0.010246  -0.012446
    4  N  1  X   -0.001859   0.342064   0.087963  -0.306796  -0.314612
    5  N  1  Y    0.000788  -0.591295  -0.160357  -0.174526  -0.180790
    6  N  1  Z    0.038836   0.399099  -0.609056   0.010708  -0.003939
    7  N  1  X    0.189704  -0.569996  -0.433253   1.215445   1.120372
    8  N  1  Y   -0.316153   0.988567   0.788057   0.688276   0.649525
    9  N  1  Z   -0.189300  -0.356587   1.157753  -0.017417   0.006490
   10  N  1 XX    0.050665   0.006587  -0.031537   0.074768  -0.145225
   11  N  1 YY   -0.029410   0.013607  -0.008092  -0.073731   0.145396
   12  N  1 ZZ   -0.021255  -0.020195   0.039629  -0.001038  -0.000171
   13  N  1 XY    0.079690  -0.006552  -0.028793  -0.049048   0.096118
   14  N  1 XZ    0.040035  -0.008384   0.026079  -0.097840  -0.070162
   15  N  1 YZ   -0.068628   0.014529  -0.047938  -0.054420  -0.041601
   16  H  2  S   -0.655999  -0.156386  -0.806484   0.013230  -0.003915
   17  H  2  S    2.233843  -0.625057  -0.512664   0.004641   0.000852
   18  H  2  X    0.043738  -0.041637  -0.043546  -0.369657   0.262483
   19  H  2  Y   -0.075823   0.074161   0.058492  -0.211519   0.152749
   20  H  2  Z   -0.067525   0.043609   0.056611   0.000027  -0.002226
   21  H  3  S    0.365517   0.249989  -0.330902   0.375015   0.585901
   22  H  3  S   -1.127729   0.346075   0.418323   0.404665   0.324532
   23  H  3  X   -0.009932  -0.008630   0.001802   0.092689   0.237773
   24  H  3  Y   -0.008050   0.024959  -0.003621   0.304189  -0.254937
   25  H  3  Z   -0.004773  -0.052490   0.047470   0.205936   0.066200
   26  H  4  S    0.372412   0.248633  -0.336693  -0.363410  -0.587999
   27  H  4  S   -1.152809   0.347225   0.406717  -0.422481  -0.316194
   28  H  4  X    0.013526  -0.017616   0.014864   0.311767  -0.104015
   29  H  4  Y    0.004527   0.020827  -0.008865  -0.071037   0.333098
   30  H  4  Z   -0.004683  -0.052853   0.041169  -0.207373  -0.066908

                     16         17         18         19         20
                    1.0096     1.0477     1.1161     1.3148     1.3519
                     A          A          A          A          A   
    1  N  1  S   -0.652376  -0.272695  -0.001887  -0.070329  -0.319674
    2  N  1  S   -1.387120  -0.576959  -0.004039  -0.155241  -0.686545
    3  N  1  S    2.641740   1.223565   0.008662   0.142693   1.151768
    4  N  1  X    0.049717   0.004075  -0.311802   0.032495  -0.017291
    5  N  1  Y   -0.088603   0.002045  -0.179733  -0.058167   0.030373
    6  N  1  Z    0.147187   0.035726   0.000668  -0.038886  -0.069833
    7  N  1  X   -0.319960  -0.128488   1.046550   0.249182  -0.058302
    8  N  1  Y    0.559881   0.188073   0.609578  -0.432558   0.095397
    9  N  1  Z    0.182962   0.544680   0.006174  -0.010506   0.651981
   10  N  1 XX   -0.098667   0.043045   0.120974   0.024443   0.062784
   11  N  1 YY   -0.086315   0.167751  -0.118739   0.112213   0.021209
   12  N  1 ZZ    0.184982  -0.210796  -0.002234  -0.136656  -0.083994
   13  N  1 XY   -0.009752  -0.120763  -0.081284  -0.092022   0.042222
   14  N  1 XZ    0.051233   0.078162   0.118404  -0.031536   0.017570
   15  N  1 YZ   -0.088678  -0.135368   0.065976   0.053653  -0.029719
   16  H  2  S   -0.588087  -0.262056  -0.003262  -0.022808  -0.345315
   17  H  2  S   -0.433905  -0.200720  -0.002130   0.156216  -0.254444
   18  H  2  X    0.022699  -0.279900   0.157674   0.019136  -0.011290
   19  H  2  Y   -0.031861   0.484106   0.098329  -0.028214   0.023079
   20  H  2  Z    0.266435  -0.469386  -0.003117  -0.497284   0.231867
   21  H  3  S   -0.336459  -0.165820   0.587639   0.037406  -0.333152
   22  H  3  S   -0.286882  -0.152534   0.226500  -0.117864   0.009662
   23  H  3  X   -0.046210   0.008490  -0.310672  -0.371912  -0.140374
   24  H  3  Y   -0.058127  -0.268165   0.160888   0.487674   0.271026
   25  H  3  Z    0.271317  -0.101620  -0.407063   0.222922  -0.595166
   26  H  4  S   -0.339776  -0.149683  -0.591398   0.038189  -0.331290
   27  H  4  S   -0.285485  -0.144699  -0.226458  -0.118088   0.012651
   28  H  4  X    0.070113   0.226285  -0.011985  -0.235209  -0.166304
   29  H  4  Y    0.014525  -0.133973  -0.355120   0.560923   0.257835
   30  H  4  Z    0.272946  -0.106874   0.403119   0.222321  -0.597299

                     21         22         23         24         25
                    1.6328     1.7051     1.8949     1.9031     2.1321
                     A          A          A          A          A   
    1  N  1  S    0.044235  -0.003157   0.231925  -0.047058  -0.050465
    2  N  1  S    0.203158  -0.008797   0.531330  -0.107341  -0.096553
    3  N  1  S    0.746723  -0.010495  -0.116595   0.025544   0.177532
    4  N  1  X   -0.041655   0.170322  -0.114794   0.419670   0.024481
    5  N  1  Y    0.074730   0.093911   0.381289   0.154040  -0.042873
    6  N  1  Z    0.100661  -0.003348   0.260038  -0.051556  -0.030706
    7  N  1  X    0.048225   0.873106   0.145164   0.062077   0.065609
    8  N  1  Y   -0.042086   0.508048  -0.206009   0.095342  -0.108472
    9  N  1  Z    0.253862  -0.002256  -0.121962   0.025559   0.354955
   10  N  1 XX   -0.112941  -0.034779  -0.026054  -0.030057  -0.258114
   11  N  1 YY    0.006094   0.038663  -0.096559   0.054508  -0.619161
   12  N  1 ZZ    0.106847  -0.003883   0.122613  -0.024451   0.877275
   13  N  1 XY   -0.117176   0.026802   0.081039   0.005989   0.403498
   14  N  1 XZ    0.042774  -0.132294   0.099591  -0.215108  -0.143160
   15  N  1 YZ   -0.077415  -0.072254  -0.261215  -0.060303   0.248774
   16  H  2  S   -0.134656  -0.001879   0.192655  -0.037108  -0.063190
   17  H  2  S    0.249491  -0.002627  -0.478484   0.096338   0.056616
   18  H  2  X    0.033300  -0.574831  -0.334392   0.673334  -0.180136
   19  H  2  Y   -0.079524  -0.334846   0.843570   0.179282   0.299115
   20  H  2  Z    0.188736  -0.005801   0.490526  -0.097152  -0.640132
   21  H  3  S    0.027401   0.299237   0.068679   0.016369  -0.081972
   22  H  3  S   -0.434474   0.334122   0.213551   0.298248  -0.040791
   23  H  3  X   -0.694762   0.409556  -0.037651   0.439153  -0.087551
   24  H  3  Y   -0.393742  -0.116261   0.399213   0.526406  -0.017562
   25  H  3  Z   -0.128578  -0.614961   0.126049  -0.225006  -0.187238
   26  H  4  S    0.014691  -0.298679   0.058693  -0.043405  -0.084123
   27  H  4  S   -0.447267  -0.319716   0.078920  -0.358889  -0.039705
   28  H  4  X    0.688299   0.077069  -0.042503   0.754053   0.063741
   29  H  4  Y    0.420256   0.400510   0.266874   0.015778   0.051312
   30  H  4  Z   -0.105958   0.617845   0.208520   0.155235  -0.183246

                     26         27         28         29
                    2.1730     2.4737     2.6283     3.1059
                     A          A          A          A   
    1  N  1  S    0.002373   0.000576  -0.227974  -0.144552
    2  N  1  S    0.004779   0.000515  -0.285671  -0.200699
    3  N  1  S   -0.006637  -0.011175   2.480364   0.943692
    4  N  1  X   -0.036145   0.257441  -0.154908   0.128545
    5  N  1  Y   -0.018405   0.147957   0.270440  -0.228045
    6  N  1  Z    0.001563  -0.001141   0.311367  -0.032880
    7  N  1  X    0.044560   1.128936  -0.456270   0.167898
    8  N  1  Y    0.024432   0.648446   0.802541  -0.300722
    9  N  1  Z   -0.008840  -0.004185   0.829113  -0.005433
   10  N  1 XX   -0.805740  -0.092951   0.251859   0.915837
   11  N  1 YY    0.822109   0.092328   0.140472  -0.321036
   12  N  1 ZZ   -0.016369   0.000622  -0.392331  -0.594801
   13  N  1 XY    0.531634   0.061380   0.121340   1.238091
   14  N  1 XZ   -0.025558   1.032999  -0.566858   0.223579
   15  N  1 YZ   -0.025299   0.590713   0.994482  -0.390279
   16  H  2  S    0.002720   0.004983  -1.464979   0.701277
   17  H  2  S   -0.001762   0.002664  -0.580931   0.176136
   18  H  2  X   -0.287218  -0.244543  -0.431488   0.292437
   19  H  2  Y   -0.169745  -0.144917   0.754319  -0.507968
   20  H  2  Z    0.014641  -0.001299   0.637288  -0.450099
   21  H  3  S    0.012680   0.745758  -0.581246  -0.769806
   22  H  3  S   -0.056128   0.370948  -0.069016  -0.234866
   23  H  3  X   -0.333681   0.602254  -0.256727  -0.686104
   24  H  3  Y    0.286329   0.315951  -0.277067  -0.389470
   25  H  3  Z   -0.039872   0.044713   0.154477   0.347233
   26  H  4  S   -0.007635  -0.739246  -0.585649  -0.763954
   27  H  4  S    0.058779  -0.369892  -0.070475  -0.232931
   28  H  4  X    0.075333   0.568941   0.369698   0.677908
   29  H  4  Y   -0.428433   0.366288   0.087779   0.399189
   30  H  4  Z    0.049160  -0.041829   0.155390   0.346486
 .....DONE WITH MCSCF ITERATIONS.....
 CPU     0: STEP CPU TIME=    10.64 TOTAL CPU TIME=         11.9 (      0.2 MIN)
 TOTAL WALL CLOCK TIME=         11.9 SECONDS, CPU UTILIZATION IS    99.92%

     ----------------------------------------------------------------
     PROPERTY VALUES FOR THE MCSCF SELF-CONSISTENT FIELD WAVEFUNCTION
     ----------------------------------------------------------------

          -----------------
          ENERGY COMPONENTS
          -----------------

         WAVEFUNCTION NORMALIZATION =       1.0000000000

                ONE ELECTRON ENERGY =     -93.3478907275
                TWO ELECTRON ENERGY =      26.8141205550
           NUCLEAR REPULSION ENERGY =      10.8264354415
                                      ------------------
                       TOTAL ENERGY =     -55.7073347310

 ELECTRON-ELECTRON POTENTIAL ENERGY =      26.8141205550
  NUCLEUS-ELECTRON POTENTIAL ENERGY =    -148.9465088778
   NUCLEUS-NUCLEUS POTENTIAL ENERGY =      10.8264354415
                                      ------------------
             TOTAL POTENTIAL ENERGY =    -111.3059528813
               TOTAL KINETIC ENERGY =      55.5986181503
                 VIRIAL RATIO (V/T) =       2.0019553828

          ---------------------------------------
          MULLIKEN AND LOWDIN POPULATION ANALYSES
          ---------------------------------------

     ATOMIC MULLIKEN POPULATION IN EACH MOLECULAR ORBITAL

                      1          2          3          4          5

                  2.000000   1.980831   1.653516   1.643978   1.638935

    1             2.000508   1.375702   1.532604   0.898307   1.173205
    2            -0.000289   0.304410   0.066190   0.013038   0.364615
    3            -0.000110   0.150408   0.027740   0.369082   0.047600
    4            -0.000109   0.150311   0.026982   0.363551   0.053515

                      6          7          8

                  0.037456   0.023519   0.021766

    1             0.014821   0.012633   0.012215
    2             0.003644   0.008997   0.000147
    3             0.009432   0.000898   0.004779
    4             0.009559   0.000992   0.004625
 WARNING! MCSCF POPULATIONS SHOWN ABOVE ARE FOR THE NATURAL ORBITALS.
 IGNORE THE ABOVE DATA FOR MCSCF FUNCTIONS WHICH ARE NOT OF -FORS- TYPE.
 THE FOLLOWING POPULATIONS ARE CORRECT FOR ANY MCSCF WAVEFUNCTION.

               ----- POPULATIONS IN EACH AO -----
                             MULLIKEN      LOWDIN
              1  N  1  S      2.00216     1.90615
              2  N  1  S      0.81793     0.58008
              3  N  1  S      0.72862     0.42788
              4  N  1  X      0.64764     0.57488
              5  N  1  Y      0.71577     0.65617
              6  N  1  Z      0.85652     0.80747
              7  N  1  X      0.32319     0.42395
              8  N  1  Y      0.38016     0.46040
              9  N  1  Z      0.53063     0.57258
             10  N  1 XX      0.00081     0.18041
             11  N  1 YY      0.00178     0.15960
             12  N  1 ZZ      0.00501     0.14653
             13  N  1 XY      0.00435     0.01061
             14  N  1 XZ      0.00542     0.00808
             15  N  1 YZ      0.00000     0.01110
             16  H  2  S      0.63872     0.49511
             17  H  2  S      0.06009     0.15282
             18  H  2  X      0.01666     0.03213
             19  H  2  Y      0.02385     0.04495
             20  H  2  Z      0.02144     0.04557
             21  H  3  S      0.50827     0.40037
             22  H  3  S      0.05019     0.15551
             23  H  3  X      0.02573     0.04354
             24  H  3  Y      0.01575     0.02872
             25  H  3  Z      0.00988     0.02377
             26  H  4  S      0.50766     0.39980
             27  H  4  S      0.05047     0.15556
             28  H  4  X      0.02765     0.04509
             29  H  4  Y      0.01376     0.02742
             30  H  4  Z      0.00988     0.02375

          ----- MULLIKEN ATOMIC OVERLAP POPULATIONS -----
          (OFF-DIAGONAL ELEMENTS NEED TO BE MULTIPLIED BY 2)

             1           2           3           4

    1    6.2208386
    2    0.2687733   0.5069552
    3    0.2655102  -0.0074450   0.3571345
    4    0.2648722  -0.0075314  -0.0053711   0.3574553

          TOTAL MULLIKEN AND LOWDIN ATOMIC POPULATIONS
       ATOM         MULL.POP.    CHARGE          LOW.POP.     CHARGE
    1 N             7.019994   -0.019994         6.925890    0.074110
    2 H             0.760752    0.239248         0.770575    0.229425
    3 H             0.609829    0.390171         0.651920    0.348080
    4 H             0.609425    0.390575         0.651616    0.348384

          MULLIKEN SPHERICAL HARMONIC POPULATIONS
       ATOM           S       P       D      F      G      H      I    TOTAL
    1 N             3.55    3.45    0.02   0.00   0.00   0.00   0.00    7.02
    2 H             0.70    0.06    0.00   0.00   0.00   0.00   0.00    0.76
    3 H             0.56    0.05    0.00   0.00   0.00   0.00   0.00    0.61
    4 H             0.56    0.05    0.00   0.00   0.00   0.00   0.00    0.61

          ---------------------
          ELECTROSTATIC MOMENTS
          ---------------------

 POINT   1           X           Y           Z (BOHR)    CHARGE
                -0.000003    0.000005   -0.177185        1.00 (A.U.)
         DX          DY          DZ         /D/  (DEBYE)
    -0.514560    0.901132    2.095717    2.338555
 ...... END OF PROPERTY EVALUATION ......
 CPU     0: STEP CPU TIME=     0.00 TOTAL CPU TIME=         11.9 (      0.2 MIN)
 TOTAL WALL CLOCK TIME=         11.9 SECONDS, CPU UTILIZATION IS    99.92%

     -------------------------------------------------
     GMC-PT/GMC-QDPT or general MCSCF input parameters
     -------------------------------------------------
 # of frozen core orbs. =         0 ->         0
 # of doubly occ. orbs. =         1
 # of active      orbs. =         7
 # of virtual     orbs. =        21
 # of active electrons  =         7
 # of states in CI      =         3
 Highest state in CI    =         3
 kstate =  1 1 1
 avecoe =  0.333 0.333 0.333
 State symmetry           = A           
 Assigned symmetry number = 1

 <<<Act. MO sym.: 1111111

 <<<Division of 1-ext.:  0
 <<<Division of 2-ext.:  0

     ------------------------
     Orbital canonicalization
     ------------------------

 MOs are canonicalized for core, virtual, and invariant-active orbital spaces.
 This is a part of the GMC-QDPT calculation.
 SCHWARZ INEQUALITY OVERHEAD:       465 INTEGRALS, T=        0.00
 DIRECT TRANSFORMATION SKIPS AO INTEGRAL STORAGE ON DISK.

 Averaged energy =     -55.707334731

 State #    1  Energy =     -55.846651321  S =  0.500
 State #    2  Energy =     -55.699156136  S =  0.500
 State #    3  Energy =     -55.576196736  S =  0.500

 Orbital energies for filled orbital space
  -15.973161
 Orbital energies for active orbital space
   -1.478494  -0.934621  -0.825225  -0.706004   0.326033
    0.335436   0.091039
 Orbital energies for external orbital space
    0.165199   0.213377   0.242132   0.534260   0.643618
    0.695738   0.790242   1.009597   1.047705   1.116136
    1.314849   1.351908   1.632838   1.705061   1.894858
    1.903112   2.132126   2.172992   2.473735   2.628305
    3.105879

 Zero values mean non-canonical orbitals.
 ... done with orbital canonicalization ...
 CPU     0: STEP CPU TIME=     0.64 TOTAL CPU TIME=         12.6 (      0.2 MIN)
 TOTAL WALL CLOCK TIME=         12.6 SECONDS, CPU UTILIZATION IS    99.84%

     --------------------------------------------
     PARTIAL TWO ELECTRON INTEGRAL TRANSFORMATION
     --------------------------------------------

 NUMBER OF CORE MOLECULAR ORBITALS     =    0
 NUMBER OF OCCUPIED MOLECULAR ORBITALS =    8
 TOTAL NUMBER OF MOLECULAR ORBITALS    =   29
 TOTAL NUMBER OF ATOMIC ORBITALS       =   30
 THRESHOLD FOR KEEPING TRANSFORMED 2E- INTEGRALS = 1.000E-09
 AO INTEGRALS WILL BE CALCULATED IN DIRECT MODE...
 DIRECT TRANSFORMATION SKIPS AO INTEGRAL STORAGE ON DISK.
 SCHWARZ INEQUALITY OVERHEAD:       465 INTEGRALS, T=        0.00

 PLAN A: REQUIREMENTS FOR FULLY IN-MEMORY TRANSFORMATION:
 # OF WORDS AVAILABLE =            100000000
 # OF WORDS NEEDED    =               221798

 PARALLEL ONLY WORKS WITH THE SEGMENTED ALGORITHM.
 ADJUSTING MEMORY TO USE SEGMENTED ALGORITHM.


 PLAN B: REQUIREMENTS FOR THE SEGMENTED TRANSFORMATION:
       MINIMUM=         124148 WORDS FOR 1 MOLECULAR ORBITAL PER PASS
       MAXIMUM=         221798 WORDS FOR ALL MOLECULAR ORBITALS IN 1 PASS
              (          13950 EXTRA WORDS INCLUDES 1 EXTRA ORBITAL/PASS)
 THIS RUN USES=         221798 WORDS,
 DISTRIBUTING   1 PASSES EACH CONTAINING     8 ORBITALS OVER   1 PROCESSORS.

 CHOOSING SEGMENTED PARTIAL TRANSFORMATION...
 DIRECT TRANSFORMATION SKIPS AO INTEGRAL STORAGE ON DISK.
 PASS #   1 TOOK        0.04 SECONDS.
 TOTAL NUMBER OF TRANSFORMED 2E- INTEGRALS KEPT =        29226
 ... END OF INTEGRAL TRANSFORMATION ...
 CPU     0: STEP CPU TIME=     0.04 TOTAL CPU TIME=         12.6 (      0.2 MIN)
 TOTAL WALL CLOCK TIME=         12.6 SECONDS, CPU UTILIZATION IS    99.84%

     --------     ------------------------------------------
     GMC-QDPT     Program written by H.Nakano (Kyushu Univ.)
     --------     ------------------------------------------

 *** Reference space

 Reference type: ORMAS (= Occupation restricted multiple active space)
 # of orbitals          =  7
 # of minimum electrons =  7
 # of maximum electrons =  7
 State symmetry    =    1 (input)
 2*Sz              =    1 (input)
 Spin multiplicity =    2 (input)
 Dimension of reference space =      1225  (from      3432 walks)

 Dimension of reference space =      1225  (from      1225 walks)

 <<<Ionized spaces for Ref-CI:
      0:         1225 /   -1-0:         1960 /  0-1-0:         2891

 ***                    ***
 *** Reference space CI ***
 ***                    ***

 Converged after   30 iterations

 Reference wavefunctions:

 State #    1  Energy =     -55.846651321  S =  0.500

      Det      Coef    Occupancy (Ignoring core)
      ---      ----    --------- --------- -----
        1   -0.971407  11110001110000
       36    0.078188  11110001101000
      143   -0.064750  11011001100100
      393   -0.065212  10110101010010
      753   -0.056369  10110011010001

 State #    2  Energy =     -55.699156136  S =  0.500

      Det      Coef    Occupancy (Ignoring core)
      ---      ----    --------- --------- -----
        1    0.082624  11110001110000
       36    0.974156  11110001101000
      122   -0.052751  11010010111000
      463    0.068043  10110101001010
      823    0.059872  10110011001001

 State #    3  Energy =     -55.576196736  S =  0.500

      Det      Coef    Occupancy (Ignoring core)
      ---      ----    --------- --------- -----
       71   -0.975424  11110001011000
      123   -0.053057  10110010111000
      248    0.066390  11011001001100
      822    0.052369  11010011001001

 Davidson method: CPU/Wall time =           0.43 /           0.42 sec.

 Oscillator strength (invalid if E(1)/=E(GS)):
 -----------------------------------------
   State                        f
 -----------------------------------------
     2     F(REF-CI)=        0.0041570748
     3     F(REF-CI)=        0.0041656163
 -----------------------------------------

 Dipole moment matrix elements, x, y, z, in A.U.

 Dimension of ionized spaces for PT:
 (N-2) space:         1715 /  (N-1) space:         2842 /  N space:         2891
 (N+1) space:         2842 /  (N+2) space:         1715

 <<<Ionized spaces for internal:
         0:         1225 /      -1-0:         1960 /     0-1-0:         2891
  -1-0-1-0:         2842 / 0-1-0-1-0:         3381

 Diagonal elements of averaged one-particle density matrix:
       2       3       4       5       6       7       8
  0.9928  0.9847  0.9842  0.9900  0.0133  0.0130  0.0221
  0.9878  0.6591  0.6574  0.6609  0.0106  0.0089  0.0153

 Orbital energies:
 -------- Doubly-occupied orbitals (highest several orbs.) -------
             1
 -1.597316D+01
 -------- Active orbitals ----------------------------------------
             2            3            4            5            6
 -1.478494D+00-9.346206D-01-8.252250D-01-7.060044D-01 3.260331D-01
             7            8
  3.354363D-01 9.103875D-02
 -------- External orbitals (lowest several orbs.) ---------------
             9           10           11           12           13
  1.651991D-01 2.133769D-01 2.421323D-01 5.342597D-01 6.436185D-01
            14           15           16           17           18
  6.957381D-01 7.902423D-01 1.009597D+00 1.047705D+00 1.116136D+00

 *** Quasi-degeneracy checking

 === Det (|Ci| > 1.0D-01 and dE < 5.0D-03)

 # of small denominators (single excitations)
 State       dEmin  dE < 5.0D-03  dE < 5.0D-04  dE < 5.0D-05  dE < 5.0D-06
 ----- ----------- ------------- ------------- ------------- -------------
     1    5.00D-03             0             0             0             0
     2    5.00D-03             0             0             0             0
     3    5.00D-03             0             0             0             0

 # of small denominators (double excitations)
 State       dEmin  dE < 5.0D-03  dE < 5.0D-04  dE < 5.0D-05  dE < 5.0D-06
 ----- ----------- ------------- ------------- ------------- -------------
     1    5.00D-03             0             0             0             0
     2    5.00D-03             0             0             0             0
     3    5.00D-03             0             0             0             0

 *** Zeroth-Order Setup (Granovsky's zeroth-order vectors)
 Zeroth-order effective Hamiltonian
  (= Sum_i e(i)*<I|a+(i)a(i)|J> ):
                   1            2            3
     1 -7.072287D+00
     2  1.737071D-02-6.969322D+00
     3  1.784042D-05 1.651493D-04-6.857253D+00

 Zeroth-order vectors:
 State #    1
       MC st            1           2           3
       Coeff    9.868D-01  -1.620D-01   4.198D-05
 State #    2
       MC st            2           1           3
       Coeff   -9.868D-01  -1.620D-01   1.519D-03
 State #    3
       MC st            3           2           1
       Coeff    1.000D+00   1.505D-03   2.046D-04

 *** GMC-QDPT computation

 (Integral reading:  CPU/Wall time =           0.00 /           0.00 sec.)

 One-external:
   0 -ionized terms: CPU/Wall time =           0.03 /           0.03 sec.
 (-1)-ionized terms: CPU/Wall time =           0.09 /           0.09 sec.
 (+1)-ionized terms: CPU/Wall time =           0.02 /           0.02 sec.
 (+1)-ionized terms: CPU/Wall time =           0.01 /           0.01 sec.
 (+2)-ionized terms: CPU/Wall time =           0.00 /           0.00 sec.

 Internal:
 # of macro loops for internal contribution =         1 (input)
 Loop:    1
 Dimension of internal CISD space     =         0  (after screening)
 Space construction: CPU/Wall time =           0.02 /           0.02 sec.
 Internal terms:     CPU/Wall time =           0.00 /           0.00 sec.

 Two-external:
   0 -ionized terms: CPU/Wall time =           0.05 /           0.06 sec.
 (-1)-ionized terms: CPU/Wall time =           0.96 /           0.96 sec.
 (-2)-ionized terms: CPU/Wall time =           0.17 /           0.16 sec.

 Total time:         CPU/Wall time =           1.35 /           1.35 sec.

 ***                  ***
 *** GMC-QDPT Results ***
 ***                  ***

 Diagonal elements of effective Hamiltonian:
 Heff(  1) =   -55.94232281
 Heff(  2) =   -55.81051528
 Heff(  3) =   -55.68689747

 Off-diagonal elements of effective Hamiltonian:
                   1            2
     2  2.087325D-02
     3 -1.137050D-05 1.830571D-04

 ******** GMC-QDPT energies ********
 ----------------------------------------------------------------------------
   State                        1st order                           2nd order
 ----------------------------------------------------------------------------
     1     E(REF-CI)=      -55.8466513207   E(GMC-QDPT2)=      -55.9455493561
     2     E(REF-CI)=      -55.6991561358   E(GMC-QDPT2)=      -55.8072890091
     3     E(REF-CI)=      -55.5761967365   E(GMC-QDPT2)=      -55.6868972004
 ----------------------------------------------------------------------------

 Excitation energies (invalid if E(1)/=E(GS)):
 ----------------------------------------------------------------------------
   State                        1st order                           2nd order
 ----------------------------------------------------------------------------

     TZ Sorted GMC-PT ENERGIES:
         1      -55.9455493561
         2      -55.8072890091
         3      -55.6868972004
     2     E(REF-CI)=        4.0135505 eV   E(GMC-QDPT2)=        3.7622576 eV
     3     E(REF-CI)=        7.3594479 eV   E(GMC-QDPT2)=        7.0382873 eV
 ----------------------------------------------------------------------------

 Main characters of perturbed GMC-QDPT states:

 State #    1  Energy =     -55.945549356  S =  0.500

      Det      Coef    Occupancy (Ignoring core)
      ---      ----    --------- --------- -----
        1   -0.972137  11110001110000
       36    0.069084  11110001101000
      143   -0.064870  11011001100100
      393   -0.065238  10110101010010
      753   -0.056441  10110011010001

 State #    2  Energy =     -55.807289009  S =  0.500

      Det      Coef    Occupancy (Ignoring core)
      ---      ----    --------- --------- -----
        1    0.073545  11110001110000
       36    0.974844  11110001101000
      122   -0.052742  11010010111000
      463    0.068091  10110101001010
      823    0.059896  10110011001001

 State #    3  Energy =     -55.686897200  S =  0.500

      Det      Coef    Occupancy (Ignoring core)
      ---      ----    --------- --------- -----
       71   -0.975424  11110001011000
      123   -0.053057  10110010111000
      248    0.066390  11011001001100
      822    0.052369  11010011001001

 <<<Max |V/de| = 2.526D-02  Thresh = 1.000D+00

 Oscillator strength (invalid if E(1)/=E(GS)):
 ----------------------------------------------------------------------------
   State                        1st order                           2nd order
 ----------------------------------------------------------------------------
     2     F(REF-CI)=        0.0041570748     F(GMC-PT2)=        0.0039936861
     3     F(REF-CI)=        0.0041656163     F(GMC-PT2)=        0.0041080412
 ----------------------------------------------------------------------------

 Dipole moment matrix elements, x, y, z, in A.U.
States    1    1       -0.1826442552        0.3198728058        0.6384515903
States    1    2        0.0186121283       -0.0308015686        0.2050188831
States    1    3       -0.1333584378       -0.0777038187        0.0011764499
States    2    1        0.0186121283       -0.0308015686        0.2050188831
States    2    2       -0.2036929069        0.3493112577        0.3726240751
States    2    3        0.2177773610        0.1246896587       -0.0000648767
States    3    1       -0.1333584378       -0.0777038187        0.0011764499
States    3    2        0.2177773610        0.1246896587       -0.0000648767
States    3    3       -0.2627805014        0.4660073919        0.3275801605

 Oscillator strength (valid only when positive): 
 ----------------------------------------------------------------------------
  States                        1st order                           2nd order
 ----------------------------------------------------------------------------
  1  1     F(REF-CI)=        0.0000000000     F(GMC-PT2)=        0.0000000000
  1  2     F(REF-CI)=       -0.0041570748     F(GMC-PT2)=       -0.0039936861
  1  3     F(REF-CI)=       -0.0041656163     F(GMC-PT2)=       -0.0041080412
  2  1     F(REF-CI)=        0.0041570748     F(GMC-PT2)=        0.0039936861
  2  2     F(REF-CI)=        0.0000000000     F(GMC-PT2)=        0.0000000000
  2  3     F(REF-CI)=       -0.0052212481     F(GMC-PT2)=       -0.0050544088
  3  1     F(REF-CI)=        0.0041656163     F(GMC-PT2)=        0.0041080412
  3  2     F(REF-CI)=        0.0052212481     F(GMC-PT2)=        0.0050544088
  3  3     F(REF-CI)=        0.0000000000     F(GMC-PT2)=        0.0000000000
 CPU     0: STEP CPU TIME=     1.85 TOTAL CPU TIME=         14.4 (      0.2 MIN)
 TOTAL WALL CLOCK TIME=         14.5 SECONDS, CPU UTILIZATION IS    99.93%

     !!! DIABATIZATION FOR REF CI STATES !!!

 *******************************************************
          $DMO GROUP FOUND IN THE INPUT.
        DIABATIZATION OF ADIABATIC STATES BEGINS.
     PROGRAMMED BY TAO ZENG (CARLETON UNIVERSITY).
               Email: toby.zeng@carleton.ca
     See T. Zeng, J. Chem. Phys. 2017, 146, 144103
 *******************************************************

 *************************************************************************
     STEP 1: TRANSFORMATION OF ADIABATIC STATES TO THE DMO REPRESENTATION
         See Atchity and Ruedenberg, J. Chem. Phys. 1999, 111, 2910
 *************************************************************************

Read in Diabatic Molecualr Orbitals:

                      1          2          3          4          5

    1  N  1  S    0.008609   0.000000   0.000000  -0.013219   0.279491
    2  N  1  S    0.442914  -0.000000   0.000000  -0.184329   0.867803
    3  N  1  S    0.276913   0.000000  -0.000000  -0.288315   0.144236
    4  N  1  X   -0.000000   0.493155  -0.024636  -0.000000  -0.000000
    5  N  1  Y    0.000000   0.024636   0.493155  -0.000000   0.000000
    6  N  1  Z    0.090197   0.000000   0.000000   0.593421   0.705309
    7  N  1  X   -0.000000   0.210628  -0.010522   0.000000   0.000000
    8  N  1  Y    0.000000   0.010522   0.210628  -0.000000  -0.000000
    9  N  1  Z   -0.004381   0.000000   0.000000   0.381592  -0.106092
   10  N  1 XX   -0.000457   0.010719  -0.000535  -0.012387   0.006153
   11  N  1 YY   -0.000457  -0.010719   0.000535  -0.012387   0.006153
   12  N  1 ZZ    0.000914  -0.000000   0.000000   0.024773  -0.012306
   13  N  1 XY    0.000000  -0.000618  -0.012377  -0.000000   0.000000
   14  N  1 XZ   -0.000000   0.026529  -0.001325  -0.000000   0.000000
   15  N  1 YZ    0.000000   0.001325   0.026529  -0.000000   0.000000
   16  H  2  S    0.194462  -0.176074   0.343485   0.112865  -0.523343
   17  H  2  S    0.003574  -0.023812   0.046452   0.024014  -0.054445
   18  H  2  X    0.018760   0.009101   0.022834   0.009336  -0.039151
   19  H  2  Y   -0.032493   0.022287  -0.020044  -0.016171   0.067811
   20  H  2  Z   -0.009251   0.008464  -0.016511   0.018769  -0.010566
   21  H  3  S    0.194462  -0.209430  -0.324227   0.112865  -0.523343
   22  H  3  S    0.003574  -0.028322  -0.043847   0.024014  -0.054445
   23  H  3  X    0.018760   0.006781  -0.023627   0.009336  -0.039151
   24  H  3  Y    0.032493  -0.024174  -0.017723   0.016171  -0.067811
   25  H  3  Z   -0.009251   0.010067   0.015585   0.018769  -0.010566
   26  H  4  S    0.194462   0.385503  -0.019258   0.112865  -0.523343
   27  H  4  S    0.003574   0.052134  -0.002604   0.024014  -0.054445
   28  H  4  X   -0.037519  -0.032295   0.001613  -0.018672   0.078302
   29  H  4  Y    0.000000   0.001067   0.021353  -0.000000   0.000000
   30  H  4  Z   -0.009251  -0.018530   0.000926   0.018769  -0.010566

                      6          7

    1  N  1  S    0.000000  -0.000000
    2  N  1  S    0.000000  -0.000000
    3  N  1  S   -0.000000   0.000000
    4  N  1  X   -0.930415  -0.002083
    5  N  1  Y   -0.002083   0.930415
    6  N  1  Z   -0.000000   0.000000
    7  N  1  X   -0.046866  -0.000105
    8  N  1  Y   -0.000105   0.046866
    9  N  1  Z   -0.000000   0.000000
   10  N  1 XX    0.001538   0.000003
   11  N  1 YY   -0.001538  -0.000003
   12  N  1 ZZ   -0.000000   0.000000
   13  N  1 XY   -0.000004   0.001776
   14  N  1 XZ    0.039985   0.000090
   15  N  1 YZ    0.000090  -0.039985
   16  H  2  S   -0.362630  -0.631354
   17  H  2  S   -0.065964  -0.114846
   18  H  2  X    0.002763  -0.037520
   19  H  2  Y    0.037435   0.040736
   20  H  2  Z    0.001882   0.003276
   21  H  3  S   -0.365454   0.629724
   22  H  3  S   -0.066477   0.114549
   23  H  3  X    0.002595   0.037532
   24  H  3  Y   -0.037617   0.040567
   25  H  3  Z    0.001896  -0.003268
   26  H  4  S    0.728084   0.001630
   27  H  4  S    0.132441   0.000297
   28  H  4  X   -0.062317  -0.000140
   29  H  4  Y    0.000055  -0.024345
   30  H  4  Z   -0.003778  -0.000008

NUMBER OF SUB ACTIVE SPACES:   1
ROTATE ACTIVE MOS TO DMOS IN EACH SUB-SPACE

SPACE  1:

OVERLAP BETWEEN ORTHONORMAL AND PRE-ORTHONORMAL REF. DMOS

             1           2           3           4           5

    1    0.9660211  -0.0217504   0.0424740  -0.0107537   0.0120173
    2   -0.0217504   0.9941220   0.0539905  -0.0240895   0.0306781
    3    0.0424740   0.0539905   0.9177727   0.0473383  -0.0608734
    4   -0.0107537  -0.0240895   0.0473383   0.9941642  -0.0156681
    5    0.0120173   0.0306781  -0.0608734  -0.0156681   1.1476362
    6   -0.0017183   0.0190002   0.0448953  -0.0245822  -0.0312654
    7   -0.0029367  -0.0443611   0.0378097  -0.0434534  -0.0530308

             6           7

    1   -0.0017183  -0.0029367
    2    0.0190002  -0.0443611
    3    0.0448953   0.0378097
    4   -0.0245822  -0.0434534
    5   -0.0312654  -0.0530308
    6    1.0716868   0.0169340
    7    0.0169340   1.0914881
REFERENCE DMOS AFTER ORTHONORMALIZATION:

                      1          2          3          4          5

    1  N  1  S    0.004897  -0.008225   0.016277  -0.009740   0.245092
    2  N  1  S    0.445299  -0.018673   0.037173  -0.169262   0.753459
    3  N  1  S    0.281395  -0.005196   0.010303  -0.286008   0.119189
    4  N  1  X    0.011344   0.516463  -0.018175  -0.007440  -0.037474
    5  N  1  Y   -0.019698   0.033325   0.506951   0.013336   0.064269
    6  N  1  Z    0.092507  -0.000758   0.001963   0.610805   0.625439
    7  N  1  X    0.005971   0.214987  -0.023314   0.005542  -0.007782
    8  N  1  Y   -0.010344  -0.001041   0.230476  -0.009604   0.013586
    9  N  1  Z    0.002422   0.014018  -0.027495   0.384832  -0.088283
   10  N  1 XX   -0.000421   0.010329  -0.000282  -0.012087   0.004949
   11  N  1 YY   -0.001054  -0.011427   0.002439  -0.012846   0.005557
   12  N  1 ZZ    0.001476   0.001098  -0.002157   0.024933  -0.010505
   13  N  1 XY    0.000633   0.000259  -0.013724   0.000762  -0.000619
   14  N  1 XZ    0.000900   0.026346  -0.004972   0.001840   0.000096
   15  N  1 YZ   -0.001556  -0.002131   0.030856  -0.003213  -0.000104
   16  H  2  S    0.183721  -0.199074   0.386410   0.049279  -0.469492
   17  H  2  S    0.000934  -0.028753   0.055792   0.013691  -0.050294
   18  H  2  X    0.019018   0.007957   0.022307   0.006625  -0.034893
   19  H  2  Y   -0.032938   0.021790  -0.020443  -0.011491   0.060478
   20  H  2  Z   -0.008088   0.010376  -0.020225   0.020103  -0.009927
   21  H  3  S    0.224276  -0.134344  -0.400347   0.141256  -0.456808
   22  H  3  S    0.006742  -0.017434  -0.052949   0.028699  -0.046251
   23  H  3  X    0.021770   0.011908  -0.031932   0.012470  -0.034512
   24  H  3  Y    0.035287  -0.017694  -0.024454   0.017129  -0.059366
   25  H  3  Z   -0.009740   0.009621   0.015440   0.018043  -0.008398
   26  H  4  S    0.224315   0.404024  -0.125136   0.140853  -0.455875
   27  H  4  S    0.006750   0.053277  -0.016820   0.028628  -0.046093
   28  H  4  X   -0.041448  -0.035650   0.014131  -0.021035   0.068590
   29  H  4  Y   -0.001209  -0.001374   0.024524  -0.002244   0.000227
   30  H  4  Z   -0.009740  -0.018183   0.001210   0.018047  -0.008414

                      6          7

    1  N  1  S    0.006232   0.010539
    2  N  1  S    0.017132   0.028754
    3  N  1  S   -0.002887  -0.005362
    4  N  1  X   -0.878313   0.031252
    5  N  1  Y   -0.034902   0.840363
    6  N  1  Z    0.031478   0.054366
    7  N  1  X   -0.046815   0.010034
    8  N  1  Y   -0.010133   0.035319
    9  N  1  Z    0.006962   0.012452
   10  N  1 XX    0.001127   0.000173
   11  N  1 YY   -0.001457  -0.000774
   12  N  1 ZZ    0.000329   0.000600
   13  N  1 XY    0.000534   0.002107
   14  N  1 XZ    0.037085   0.000830
   15  N  1 YZ   -0.000651  -0.037916
   16  H  2  S   -0.353589  -0.614780
   17  H  2  S   -0.062804  -0.109242
   18  H  2  X    0.001240  -0.036224
   19  H  2  Y    0.036205   0.040745
   20  H  2  Z    0.002508   0.004381
   21  H  3  S   -0.340663   0.574667
   22  H  3  S   -0.061858   0.105946
   23  H  3  X    0.002312   0.034818
   24  H  3  Y   -0.035609   0.035740
   25  H  3  Z    0.001151  -0.002871
   26  H  4  S    0.667815  -0.004050
   27  H  4  S    0.122664   0.000035
   28  H  4  X   -0.056675   0.001197
   29  H  4  Y   -0.000631  -0.023281
   30  H  4  Z   -0.003094  -0.000457

 -------------------------------------------
       MAXIMIZING MORMO OVERLAP TERM        
 -------------------------------------------
   SWEEP    VALUE       PROGRESS
     0     4.76820
     1     6.86184     2.09363779
     2     6.93776     0.07592739
     3     6.93779     0.00002750
     4     6.93779     0.00000000
     5     6.93779    -0.00000000
     6     6.93779     0.00000000
 THE ROTATION IS DONE
FLIPPING SIGN FOR ORBITAL   7
ACTIVE ORBITALS AFTER MORMO:

                      1          2          3          4          5

    1  N  1  S    0.002304  -0.015560   0.030514  -0.013221   0.190871
    2  N  1  S    0.412759  -0.039955   0.078138  -0.193757   0.693849
    3  N  1  S    0.345713   0.043326  -0.083958  -0.262740   0.190365
    4  N  1  X   -0.002598   0.490273   0.007504  -0.026362  -0.016279
    5  N  1  Y    0.004287   0.054757   0.450775   0.045993   0.027480
    6  N  1  Z    0.077932  -0.018126   0.036030   0.605925   0.629595
    7  N  1  X    0.018813   0.230487  -0.059951   0.037620  -0.034344
    8  N  1  Y   -0.032359  -0.033834   0.289960  -0.065517   0.060002
    9  N  1  Z    0.034339   0.042563  -0.083568   0.385275  -0.089519
   10  N  1 XX    0.003955   0.007636  -0.015022  -0.007480  -0.023117
   11  N  1 YY   -0.003612  -0.007336   0.014456  -0.014446   0.017254
   12  N  1 ZZ   -0.000342  -0.000300   0.000566   0.021927   0.005863
   13  N  1 XY    0.007662   0.015187  -0.029439   0.006898  -0.040755
   14  N  1 XZ   -0.001033   0.016016  -0.001806  -0.001754   0.027546
   15  N  1 YZ    0.001877  -0.000177   0.017192   0.002958  -0.048000
   16  H  2  S    0.180064  -0.185249   0.360357   0.078260  -0.487607
   17  H  2  S   -0.005957  -0.059191   0.114308   0.015321  -0.069631
   18  H  2  X    0.015619   0.014267   0.016696   0.010701  -0.025200
   19  H  2  Y   -0.027193   0.017129  -0.007737  -0.018568   0.043283
   20  H  2  Z   -0.015593   0.015547  -0.030385   0.016261  -0.006953
   21  H  3  S    0.190916  -0.170378  -0.328124   0.114456  -0.427578
   22  H  3  S    0.012806  -0.007379  -0.095106   0.038714  -0.072174
   23  H  3  X    0.027821  -0.014291  -0.037885   0.012821  -0.041604
   24  H  3  Y    0.016272  -0.025656   0.001581   0.004441  -0.028460
   25  H  3  Z   -0.002903   0.008260   0.004028   0.019709  -0.020638
   26  H  4  S    0.190886   0.365830  -0.053255   0.114250  -0.426692
   27  H  4  S    0.012895   0.082262  -0.049937   0.038694  -0.072059
   28  H  4  X   -0.027900  -0.031283  -0.013582  -0.010236   0.045379
   29  H  4  Y   -0.016017  -0.027131   0.019935  -0.008927   0.021716
   30  H  4  Z   -0.002926  -0.008148  -0.004435   0.019672  -0.020753

                      6          7

    1  N  1  S   -0.017216  -0.030984
    2  N  1  S   -0.046562  -0.083153
    3  N  1  S    0.076661   0.134764
    4  N  1  X   -0.873678   0.032587
    5  N  1  Y   -0.036380   0.833513
    6  N  1  Z    0.057835   0.099909
    7  N  1  X   -0.061331   0.009200
    8  N  1  Y   -0.009139   0.051912
    9  N  1  Z   -0.017634  -0.029604
   10  N  1 XX   -0.023828   0.049590
   11  N  1 YY    0.027552  -0.042841
   12  N  1 ZZ   -0.003725  -0.006749
   13  N  1 XY    0.053300   0.032103
   14  N  1 XZ    0.046672  -0.014520
   15  N  1 YZ    0.014498  -0.029858
   16  H  2  S   -0.333772  -0.581467
   17  H  2  S   -0.102256  -0.177009
   18  H  2  X    0.035462  -0.038711
   19  H  2  Y    0.038678   0.009391
   20  H  2  Z    0.007638   0.013129
   21  H  3  S   -0.340439   0.513747
   22  H  3  S   -0.083405   0.149769
   23  H  3  X   -0.018512   0.046416
   24  H  3  Y   -0.037715   0.014349
   25  H  3  Z   -0.028200  -0.001068
   26  H  4  S    0.614874  -0.035238
   27  H  4  S    0.172015   0.003728
   28  H  4  X   -0.051731   0.018366
   29  H  4  Y   -0.027268  -0.019301
   30  H  4  Z    0.013103  -0.024961

Actually Used Diabatic Molecualr Orbitals:

                      1          2          3          4          5

    1  N  1  S    0.002304  -0.015560   0.030514  -0.013221   0.190871
    2  N  1  S    0.412759  -0.039955   0.078138  -0.193757   0.693849
[...]
 --------------------------------------------------

 -------------------------------------------
 - DM DIABT PT HAMILTONIAN MATRIX ELEMENTS -
 -------------------------------------------
                                            
 --- DIABATIC ENERGIES (DIAGONAL ELEMENT) ---       HARTREE            EV
 STATE #  1'S GMC-PT-LEVEL DIABATIC ENERGY=     -55.915314296       0.000000000
 STATE #  2'S GMC-PT-LEVEL DIABATIC ENERGY=     -55.724857421       5.182595534
 STATE #  3'S GMC-PT-LEVEL DIABATIC ENERGY=     -55.799563848       3.149730112

 --- DIABATIC COUPLINGS (OFF DIAGONAL ELEMENTS)---  HATREE            EV
 STATE #  1 &  2'S GMC-PT-LEVEL COUPLING  =       0.028225805       0.768063271
 STATE #  1 &  3'S GMC-PT-LEVEL COUPLING  =      -0.049695718      -1.352289360
 STATE #  2 &  3'S GMC-PT-LEVEL COUPLING  =       0.065396035       1.779516763

 ---------------------------------------
     - ROTATION TO DIABATIC STATES -    
 ---------------------------------------
 ROWS=ADIABATIC, COLUMNS=DIABATIC STATES

             1           2           3

    1    0.8839252  -0.2331661   0.4053514
    2    0.4676211   0.4455376  -0.7634309
    3    0.0025931  -0.8643667  -0.5028553

 ---------------------------------------
          - DIABATIC STATES -           
 ---------------------------------------

 State #    1  Energy =     -55.915314296

      Det      Coef        Coefp    Occupancy (Ignoring core)
      ---      ----        ----    --------- --------- -----
        1    0.918497   -0.918497  222+000
       17    0.137907    0.137907  22-+00+
        3   -0.129400   -0.129400  22-++00
      141    0.123986    0.123986  22++-00
      701   -0.106043   -0.106043  22++00-
       16   -0.100670    0.100670  222000+
        7    0.077980    0.077980  22-+0+0
      351   -0.075165   -0.075165  22++0-0
      393   -0.071808   -0.071808  202+020
      717   -0.071166   -0.071166  220+002
      736    0.069993   -0.069993  2+2+00-
       18   -0.069860    0.069860  2-2+00+
        4    0.065723   -0.065723  2-2++00
      176   -0.062953    0.062953  2+2+-00
        6   -0.057448    0.057448  22200+0
        5    0.047585    0.047585  -22++00
        8   -0.043501    0.043501  2-2+0+0
      402    0.040402   -0.040402  2+-+0-+
      708    0.037413   -0.037413  2-++0+-
      215   -0.036935   -0.036935  022+200
      390    0.035474   -0.035474  -+2++-0
      218    0.034464   -0.034464  +-2+-+0
       51   -0.031864    0.031864  22+-00+
      211   -0.030774   -0.030774  +22+-00
      705   -0.030619   -0.030619  -2+++0-
       76    0.030261    0.030261  2+2-0+0
      212    0.030178    0.030178  +220200
      227   -0.029978   -0.029978  +2-+-0+
        2    0.029595   -0.029595  2220+00
      179   -0.028609   -0.028609  202+200
      122    0.027740    0.027740  +2-200+
     1051   -0.027542   -0.027542  2+++0--
       20   -0.026292   -0.026292  22-0+0+
      773    0.024875   -0.024875  +2-++0-
      702    0.024615    0.024615  22+0+0-
      387   -0.024184    0.024184  2+20+-0
       19   -0.024065   -0.024065  -22+00+
      424   -0.023265   -0.023265  +-2++-0
       29   -0.023260   -0.023260  2--+0++
      113   -0.023241    0.023241  +-220+0
      184   -0.022184   -0.022184  -+2+-+0
      716    0.021997    0.021997  22+0002
      159    0.021410   -0.021410  -2++-0+
      738   -0.021398   -0.021398  2+-++0-
      192    0.021365   -0.021365  2+-+-0+
      158   -0.020779   -0.020779  2-++-0+
      704    0.020400   -0.020400  2-+++0-

 State #    2  Energy =     -55.724857421

      Det      Coef        Coefp    Occupancy (Ignoring core)
      ---      ----        ----    --------- --------- -----
       71   -0.914266    0.914266  2+22000
      246    0.135744    0.135744  2++2-00
       73   -0.134674    0.134674  2+-2+00
      736    0.117035   -0.117035  2+2+00-
       86   -0.111750   -0.111750  2+2-00+
      806   -0.099562   -0.099562  2++200-
       77    0.093007   -0.093007  2+-20+0
       87    0.091182   -0.091182  2+-200+
      456   -0.083808   -0.083808  2++20-0
      822    0.077159   -0.077159  2+02002
       88    0.058423   -0.058423  202200+
      386    0.057356   -0.057356  2+2+0-0
      106   -0.052878   -0.052878  +222000
       76   -0.049540   -0.049540  2+2-0+0
      316    0.046753    0.046753  ++22-00
      813    0.045967   -0.045967  20+20+-
       36    0.043619    0.043619  22+2000
      320    0.037892    0.037892  0+22200
       38   -0.037238    0.037238  2202+00
       74   -0.037012    0.037012  2022+00
       99   -0.036332    0.036332  20-20++
      122    0.036329    0.036329  +2-200+
       90    0.035292    0.035292  2+--+0+
      810   -0.034234   -0.034234  -++2+0-
      323   -0.033669    0.033669  +022-+0
      332   -0.033497    0.033497  ++-2-0+
      317    0.033018   -0.033018  ++2-200
      177    0.032887   -0.032887  2+20200
      180   -0.032477    0.032477  -+2+200
      111    0.031572   -0.031572  +22-0+0
      911    0.031071    0.031071  2+++-0-
        6    0.030390   -0.030390  22200+0
      807   -0.030071    0.030071  2++-+0-
       75   -0.029553   -0.029553  -+22+00
      108   -0.029294   -0.029294  +2-2+00
      192   -0.028878    0.028878  2+-+-0+
      752    0.027184    0.027184  2+-+002
      821   -0.026110    0.026110  2++-002
      183   -0.026007    0.026007  202+-+0
       51    0.025749   -0.025749  22+-00+
      264    0.025190   -0.025190  -++2-0+
      878    0.024837    0.024837  ++-2+0-
      263   -0.022485   -0.022485  20+2-0+
       78   -0.021802    0.021802  20220+0
      112    0.021729    0.021729  +2-20+0
      876   -0.021200   -0.021200  ++2200-
      391    0.020805   -0.020805  2+20020
      526   -0.020748   -0.020748  ++220-0
      742    0.020060    0.020060  2+-+0+-

 State #    3  Energy =     -55.799563848

      Det      Coef        Coefp    Occupancy (Ignoring core)
      ---      ----        ----    --------- --------- -----
       36   -0.913425   -0.913425  22+2000
       38    0.138396   -0.138396  2202+00
       51   -0.122231    0.122231  22+-00+
      701    0.115234    0.115234  22++00-
       39   -0.101783   -0.101783  2-+2+00
       52   -0.094419    0.094419  220200+
       53    0.094141    0.094141  2-+200+
      106    0.092277    0.092277  +222000
      806   -0.084446   -0.084446  2++200-
       41   -0.083643    0.083643  22+-0+0
      246    0.077349    0.077349  2++2-00
      351    0.075222    0.075222  22++0-0
      463    0.071070   -0.071070  20+2020
       42   -0.066997    0.066997  22020+0
      472   -0.046205   -0.046205  2+020-+
       71   -0.044737    0.044737  2+22000
       40   -0.044141    0.044141  -2+2+00
      123    0.040832   -0.040832  +-2200+
       55   -0.038059   -0.038059  220-+0+
      288   -0.037037   -0.037037  +-+2-+0
      460   -0.036978   -0.036978  -++2+-0
      285    0.036471   -0.036471  02+2200
       64    0.036264   -0.036264  2-020++
      297    0.033927   -0.033927  +202-0+
      145   -0.033176   -0.033176  -2++200
      142    0.032608    0.032608  22+0200
      282    0.032446    0.032446  +2+-200
      157    0.030477   -0.030477  220+-0+
      109   -0.029174    0.029174  +-22+00
      249    0.028249   -0.028249  20+2200
       54    0.027501   -0.027501  -2+200+
      717   -0.027259   -0.027259  220+002
      457   -0.026135    0.026135  2++-+-0
      876   -0.024963   -0.024963  ++2200-
      122   -0.024824   -0.024824  +2-200+
      148   -0.024801   -0.024801  2-++-+0
       16   -0.024701    0.024701  222000+
       73    0.024434   -0.024434  2+-2+00
      494    0.024434   -0.024434  +-+2+-0
      367    0.023811   -0.023811  220+0-+
      281    0.023605   -0.023605  +2+2-00
      718    0.022702   -0.022702  2-++002
      254    0.022370   -0.022370  -++2-+0
       88    0.021742   -0.021742  202200+
      112   -0.021132   -0.021132  +2-20+0
      843   -0.021116   -0.021116  +202+0-
      859    0.020838   -0.020838  02+2002
      821   -0.020736    0.020736  2++-002
      108    0.020536    0.020536  +2-2+00

 ---------------------------------------
      - DIABATIC STATES IN CMO -        
 ---------------------------------------

 State #    1  Energy =     -55.915314296

      Det      Coef        Coefp    Occupancy (Ignoring core)
      ---      ----        ----    --------- --------- -----
        1    0.824905   -0.824905  222+000
       36    0.516920    0.516920  22+2000
      393   -0.056510   -0.056510  202+020
      717   -0.054704   -0.054704  220+002
      143   -0.051465   -0.051465  220+200
      753   -0.046419   -0.046419  202+002
      716   -0.045872   -0.045872  22+0002
      708   -0.045044    0.045044  2-++0+-
      703    0.042929    0.042929  220++0-
        8   -0.041925    0.041925  2-2+0+0
        3    0.038840    0.038840  22-++00
      463   -0.036142    0.036142  20+2020
      106   -0.033272   -0.033272  +222000
      157   -0.030998    0.030998  220+-0+
      823   -0.030058    0.030058  20+2002
      719    0.029688    0.029688  -2++002
       16    0.029314   -0.029314  222000+
      108    0.027785    0.027785  +2-2+00
      401    0.027382    0.027382  2+200-+
      213    0.027115   -0.027115  +2-+200
      215   -0.027104   -0.027104  022+200
      778   -0.026983   -0.026983  +-2+0+-
       43   -0.026184   -0.026184  2-+20+0
       76    0.025541    0.025541  2+2-0+0
      368    0.025411    0.025411  2-++0-+
      145   -0.025258   -0.025258  -2++200
      402   -0.024497    0.024497  2+-+0-+
      404   -0.024250   -0.024250  -+2+0-+
      786    0.024229    0.024229  +220002
      122   -0.023645   -0.023645  +2-200+
      113   -0.023189    0.023189  +-220+0
       37   -0.023011    0.023011  22+-+00
      741   -0.023008    0.023008  2+200+-
      388   -0.021509   -0.021509  2+-++-0

 State #    2  Energy =     -55.724857421

      Det      Coef        Coefp    Occupancy (Ignoring core)
      ---      ----        ----    --------- --------- -----
       71   -0.842700    0.842700  2+22000
       36    0.419063    0.419063  22+2000
        1   -0.259523    0.259523  222+000
      248    0.058282   -0.058282  2+02200
      123   -0.046103    0.046103  +-2200+
      822    0.045145   -0.045145  2+02002
       18    0.042420   -0.042420  2-2+00+
      751    0.041823   -0.041823  2+20002
       86   -0.040364   -0.040364  2+2-00+
      262    0.039141    0.039141  2+02-0+
      808   -0.034552    0.034552  2+02+0-
      111    0.030078   -0.030078  +22-0+0
      743    0.028137    0.028137  202+0+-
      250   -0.027740   -0.027740  -++2200
      318    0.027668    0.027668  ++-2200
      463   -0.027599    0.027599  20+2020
       89    0.026889    0.026889  -+2200+
      320    0.026724    0.026724  0+22200
      823   -0.026000    0.026000  20+2002
      253   -0.025977   -0.025977  20+2-+0
      754   -0.025625    0.025625  -+2+002
      891    0.025249   -0.025249  ++2-002
      752   -0.024974   -0.024974  2+-+002
      821    0.024494   -0.024494  2++-002
      813   -0.023799    0.023799  20+20+-
      122   -0.023253   -0.023253  +2-200+
       16   -0.022756    0.022756  222000+
       42    0.022738   -0.022738  22020+0
       78   -0.022597    0.022597  20220+0
      894    0.022121    0.022121  0+22002
       83    0.021530   -0.021530  20-2++0
      883    0.021329    0.021329  +0220+-
       53   -0.020875   -0.020875  2-+200+
      143    0.020775    0.020775  220+200
      403   -0.020724    0.020724  202+0-+

 State #    3  Energy =     -55.799563848

      Det      Coef        Coefp    Occupancy (Ignoring core)
      ---      ----        ----    --------- --------- -----
       36   -0.715733   -0.715733  22+2000
       71   -0.491224    0.491224  2+22000
        1    0.450153   -0.450153  222+000
      463    0.050946   -0.050946  20+2020
      823    0.044871   -0.044871  20+2002
      122    0.041032    0.041032  +2-200+
       16    0.039925   -0.039925  222000+
      143   -0.035856   -0.035856  220+200
      248    0.031849   -0.031849  2+02200
      753   -0.028583   -0.028583  202+002
      393   -0.027923   -0.027923  202+020
       88   -0.027806    0.027806  202200+
      471    0.026838    0.026838  2++-0-+
      822    0.026542   -0.026542  2+02002
      123   -0.026266    0.026266  +-2200+
      108   -0.026087   -0.026087  +2-2+00
      285    0.025308   -0.025308  02+2200
      157   -0.025224    0.025224  220+-0+
       18    0.024387   -0.024387  2-2+00+
      751    0.024364   -0.024364  2+20002
      458    0.023932   -0.023932  2+02+-0
       86   -0.023125   -0.023125  2+2-00+
      472    0.022695    0.022695  2+020-+
      848    0.022329   -0.022329  +-+20+-
       54   -0.021319    0.021319  -2+200+
      262    0.020931    0.020931  2+02-0+
       48   -0.020733    0.020733  2-02++0
      107   -0.020321    0.020321  +22-+00
      474    0.020061   -0.020061  -++20-+

 ---------------------------------------
    -DIABATIC STATES IN PROTOTYPES-     
 ---------------------------------------

     STATE:    1
 Group Ref#    Coefficients
     1    1    0.939807
     2    2   -0.004776
     3    3    0.008180

WEIGHT OF LISTED PROTOTYPES:   88.33%

     STATE:    2
 Group Ref#    Coefficients
     1    1   -0.004842
     2    2    0.926854
     3    3   -0.005122

WEIGHT OF LISTED PROTOTYPES:   85.91%

     STATE:    3
 Group Ref#    Coefficients
     1    1    0.008255
     2    2   -0.005098
     3    3    0.931167

WEIGHT OF LISTED PROTOTYPES:   86.72%

     DIRECT MAX. DIABATIZATION FINISHED    
 CPU     0: STEP CPU TIME=     0.25 TOTAL CPU TIME=         14.7 (      0.2 MIN)
 TOTAL WALL CLOCK TIME=         14.7 SECONDS, CPU UTILIZATION IS    99.93%

DIABATS FOR SPIN-ORBIT CALCULATION ARE READY

TRANSITION DIPOLES BETWEEN ADIABATS (in A.U.):

STATE PAIR      X         Y         Z
    1    1 -0.182644  0.319873  0.638452
    2    1  0.018612 -0.030802  0.205019
    2    2 -0.203693  0.349311  0.372624
    3    1 -0.133358 -0.077704  0.001176
    3    2  0.217777  0.124690 -0.000065
    3    3 -0.262781  0.466007  0.327580


TRANSITION DIPOLES BETWEEN DIABATS (in A.U.):

STATE PAIR      X         Y         Z
    1    1 -0.171945  0.300794  0.749812
    2    1  0.015308  0.006199  0.002844
    2    2 -0.472048  0.313942  0.311351
    3    1  0.006085  0.009141 -0.004710
    3    2  0.105014  0.114921  0.028515
    3    3 -0.005125  0.520455  0.277493

TRANSITION DIPOLES BETWEEN DIRECT MAX. DIABATS (in A.U.):

STATE PAIR      X         Y         Z
    1    1 -0.171944  0.300794  0.749812
    2    1  0.015293  0.006194  0.002827
    2    2 -0.472052  0.313939  0.311350
    3    1  0.006082  0.009136 -0.004690
    3    2  0.105008  0.114919  0.028515
    3    3 -0.005122  0.520459  0.277493
 No $TRANST Group Found.
 Quit without doing spin-orbit coupling
 ..... DONE WITH MP2 ENERGY .....
 CPU     0: STEP CPU TIME=     0.00 TOTAL CPU TIME=         14.7 (      0.2 MIN)
 TOTAL WALL CLOCK TIME=         14.7 SECONDS, CPU UTILIZATION IS    99.93%
            100000000  WORDS OF DYNAMIC MEMORY USED
 EXECUTION OF GAMESS TERMINATED NORMALLY Wed Nov 16 20:15:35 2022
 DDI: 715512 bytes (0.7 MB / 0 MWords) used by master data server.

 ----------------------------------------
 CPU timing information for all processes
 ========================================
 0: 14.374 + 0.332 = 14.706
 ----------------------------------------
Note: The following floating-point exceptions are signalling: IEEE_DENORMAL
 ddikick.x: exited gracefully.
unset echo
----- accounting info -----
Files used on the master node io002 were:
-rw-r--r-- 1 bsonghao nooijen   20697 Nov 16 20:15 /scratch/bsonghao/nh3_diabatization_2d_at_mode_7_8_dist0.7_-0.4.F05
-rw-r--r-- 1 bsonghao nooijen  363520 Nov 16 20:15 /scratch/bsonghao/nh3_diabatization_2d_at_mode_7_8_dist0.7_-0.4.F09
-rw-r--r-- 1 bsonghao nooijen 1995920 Nov 16 20:15 /scratch/bsonghao/nh3_diabatization_2d_at_mode_7_8_dist0.7_-0.4.F10
-rw-r--r-- 1 bsonghao nooijen  131264 Nov 16 20:15 /scratch/bsonghao/nh3_diabatization_2d_at_mode_7_8_dist0.7_-0.4.F13
-rw-r--r-- 1 bsonghao nooijen  180312 Nov 16 20:15 /scratch/bsonghao/nh3_diabatization_2d_at_mode_7_8_dist0.7_-0.4.F15
-rw-r--r-- 1 bsonghao nooijen       0 Nov 16 20:15 /scratch/bsonghao/nh3_diabatization_2d_at_mode_7_8_dist0.7_-0.4.F16
-rw-r--r-- 1 bsonghao nooijen    9808 Nov 16 20:15 /scratch/bsonghao/nh3_diabatization_2d_at_mode_7_8_dist0.7_-0.4.F70
-rw-r--r-- 1 bsonghao nooijen    9808 Nov 16 20:15 /scratch/bsonghao/nh3_diabatization_2d_at_mode_7_8_dist0.7_-0.4.F71
-rw-r--r-- 1 bsonghao nooijen   19608 Nov 16 20:15 /scratch/bsonghao/nh3_diabatization_2d_at_mode_7_8_dist0.7_-0.4.F72
-rw-r--r-- 1 bsonghao nooijen   19608 Nov 16 20:15 /scratch/bsonghao/nh3_diabatization_2d_at_mode_7_8_dist0.7_-0.4.F73
-rw-r--r-- 1 bsonghao nooijen 1920824 Nov 16 20:15 /scratch/bsonghao/nh3_diabatization_2d_at_mode_7_8_dist0.7_-0.4.F74
-rw-r--r-- 1 bsonghao nooijen       0 Nov 16 20:15 /scratch/bsonghao/nh3_diabatization_2d_at_mode_7_8_dist0.7_-0.4.F75
-rw-r--r-- 1 bsonghao nooijen   58848 Nov 16 20:15 /scratch/bsonghao/nh3_diabatization_2d_at_mode_7_8_dist0.7_-0.4.F76
-rw-r--r-- 1 bsonghao nooijen       0 Nov 16 20:15 /scratch/bsonghao/nh3_diabatization_2d_at_mode_7_8_dist0.7_-0.4.F77
-rw-r--r-- 1 bsonghao nooijen    1864 Nov 16 20:15 /scratch/bsonghao/nh3_diabatization_2d_at_mode_7_8_dist0.7_-0.4.F78
-rw-r--r-- 1 bsonghao nooijen   39208 Nov 16 20:15 /scratch/bsonghao/nh3_diabatization_2d_at_mode_7_8_dist0.7_-0.4.F79
-rw-r--r-- 1 bsonghao nooijen     104 Nov 16 20:15 /scratch/bsonghao/nh3_diabatization_2d_at_mode_7_8_dist0.7_-0.4.F80
-rw-r--r-- 1 bsonghao nooijen   13472 Nov 16 20:15 /scratch/bsonghao/nh3_diabatization_2d_at_mode_7_8_dist0.7_-0.4.F81
-rw-r--r-- 1 bsonghao nooijen      16 Nov 16 20:15 /scratch/bsonghao/nh3_diabatization_2d_at_mode_7_8_dist0.7_-0.4.F82
-rw-r--r-- 1 bsonghao nooijen   19216 Nov 16 20:15 /scratch/bsonghao/nh3_diabatization_2d_at_mode_7_8_dist0.7_-0.4.F83
-rw-r--r-- 1 bsonghao nooijen   29712 Nov 16 20:15 /scratch/bsonghao/nh3_diabatization_2d_at_mode_7_8_dist0.7_-0.4.F84
-rw-r--r-- 1 bsonghao nooijen  401576 Nov 16 20:15 /scratch/bsonghao/nh3_diabatization_2d_at_mode_7_8_dist0.7_-0.4.F85
-rw-r--r-- 1 bsonghao nooijen  903672 Nov 16 20:15 /scratch/bsonghao/nh3_diabatization_2d_at_mode_7_8_dist0.7_-0.4.F86
-rw-r--r-- 1 bsonghao nooijen     656 Nov 16 20:15 /scratch/bsonghao/nh3_diabatization_2d_at_mode_7_8_dist0.7_-0.4.F87
-rw-r--r-- 1 bsonghao nooijen   30256 Nov 16 20:15 /scratch/bsonghao/nh3_diabatization_2d_at_mode_7_8_dist0.7_-0.4.F88
-rw-r--r-- 1 bsonghao nooijen     240 Nov 16 20:15 /scratch/bsonghao/nh3_diabatization_2d_at_mode_7_8_dist0.7_-0.4.F89
-rw-r--r-- 1 bsonghao nooijen       0 Nov 16 20:15 /scratch/bsonghao/nh3_diabatization_2d_at_mode_7_8_dist0.7_-0.4.F90
-rw-r--r-- 1 bsonghao nooijen   13760 Nov 16 20:15 /scratch/bsonghao/nh3_diabatization_2d_at_mode_7_8_dist0.7_-0.4.F91
-rw-r--r-- 1 bsonghao nooijen   22776 Nov 16 20:15 /scratch/bsonghao/nh3_diabatization_2d_at_mode_7_8_dist0.7_-0.4.F92
-rw-r--r-- 1 bsonghao nooijen   23168 Nov 16 20:15 /scratch/bsonghao/nh3_diabatization_2d_at_mode_7_8_dist0.7_-0.4.F93
-rw-r--r-- 1 bsonghao nooijen   22776 Nov 16 20:15 /scratch/bsonghao/nh3_diabatization_2d_at_mode_7_8_dist0.7_-0.4.F94
-rw-r--r-- 1 bsonghao nooijen   13760 Nov 16 20:15 /scratch/bsonghao/nh3_diabatization_2d_at_mode_7_8_dist0.7_-0.4.F95
-rw-r--r-- 1 bsonghao nooijen   29440 Nov 16 20:15 /scratch/bsonghao/nh3_diabatization_2d_at_mode_7_8_dist0.7_-0.4.F96
-rw-r--r-- 1 bsonghao nooijen    1184 Nov 16 20:15 /scratch/bsonghao/nh3_diabatization_2d_at_mode_7_8_dist0.7_-0.4.F97
-rw-r--r-- 1 bsonghao nooijen    9808 Nov 16 20:15 /scratch/bsonghao/nh3_diabatization_2d_at_mode_7_8_dist0.7_-0.4.F98
-rw-r--r-- 1 bsonghao nooijen   30264 Nov 16 20:15 /scratch/bsonghao/nh3_diabatization_2d_at_mode_7_8_dist0.7_-0.4.F99
ls: No match.
ls: No match.
ls: No match.
Wed 16 Nov 2022 08:15:38 PM EST
0.298u 0.039s 0:18.08 1.7%	0+0k 48+224io 0pf+0w
