----- GAMESS execution script 'rungms' -----
This job is running on host io002
under operating system Linux at Wed 16 Nov 2022 07:11:45 PM EST
Available scratch disk space (Kbyte units) at beginning of the job is
Filesystem       1K-blocks       Used   Available Use% Mounted on
/dev/sdc1      15378471580 3278917120 11318349060  23% /scratch
GAMESS temporary binary files will be written to /scratch/bsonghao
GAMESS supplementary output files will be written to /home/bsonghao/.gamess_ascii_files/267638
Copying input file nh3_diabatization_2d_at_mode_7_8_dist-0.2_0.8.inp to your run's scratch directory...
cp nh3_diabatization_2d_at_mode_7_8_dist-0.2_0.8.inp /scratch/bsonghao/nh3_diabatization_2d_at_mode_7_8_dist-0.2_0.8.F05
unset echo
/home/bjb2chen/gamess/ddikick.x /home/bjb2chen/gamess/gamess.00.x nh3_diabatization_2d_at_mode_7_8_dist-0.2_0.8 -ddi 1 1 io002 -scr /scratch/bsonghao

 Distributed Data Interface kickoff program.
 Initiating 1 compute processes on 1 nodes to run the following command:
 /home/bjb2chen/gamess/gamess.00.x nh3_diabatization_2d_at_mode_7_8_dist-0.2_0.8 

          ******************************************************
          *         GAMESS VERSION = 02 AUG 2018 (R2)         *
          *             FROM IOWA STATE UNIVERSITY             *
          * M.W.SCHMIDT, K.K.BALDRIDGE, J.A.BOATZ, S.T.ELBERT, *
          *   M.S.GORDON, J.H.JENSEN, S.KOSEKI, N.MATSUNAGA,   *
          *          K.A.NGUYEN, S.J.SU, T.L.WINDUS,           *
          *       TOGETHER WITH M.DUPUIS, J.A.MONTGOMERY       *
          *         J.COMPUT.CHEM.  14, 1347-1363(1993)        *
          **************** 64 BIT LINUX VERSION ****************

  SINCE 1993, STUDENTS AND POSTDOCS WORKING AT IOWA STATE UNIVERSITY
  AND ALSO IN THEIR VARIOUS JOBS AFTER LEAVING ISU HAVE MADE IMPORTANT
  CONTRIBUTIONS TO THE CODE:
     IVANA ADAMOVIC, CHRISTINE AIKENS, YURI ALEXEEV, POOJA ARORA,
     ANDREY ASADCHEV, ROB BELL, PRADIPTA BANDYOPADHYAY, JONATHAN BENTZ,
     BRETT BODE, KURT BRORSEN, CALEB CARLIN, GALINA CHABAN, WEI CHEN,
     CHEOL HO CHOI, PAUL DAY, ALBERT DEFUSCO, NUWAN DESILVA, TIM DUDLEY,
     DMITRI FEDOROV, ALEX FINDLATER, GRAHAM FLETCHER, MARK FREITAG,
     KURT GLAESEMANN, ANASTASIA GUININA,
     DAN KEMP, GRANT MERRILL, NORIYUKI MINEZAWA, JONATHAN MULLIN,
     TAKESHI NAGATA, SEAN NEDD, HEATHER NETZLOFF, BOSILJKA NJEGIC, RYAN OLSON,
     MIKE PAK, BUU PHAM,
     SPENCER PRUITT, LUKE ROSKOP, JIM SHOEMAKER, LYUDMILA SLIPCHENKO,
     TONY SMITH, SAROM SOK LEANG, JIE SONG, TETSUYA TAKETSUGU, SIMON WEBB,
     PENG XU, SOOHAENG YOO, FEDERICO ZAHARIEV

  ADDITIONAL CODE HAS BEEN PROVIDED BY COLLABORATORS IN OTHER GROUPS:
     IOWA STATE UNIVERSITY:
          JOE IVANIC, AARON WEST, LAIMUTIS BYTAUTAS, KLAUS RUEDENBERG
     UNIVERSITY OF TOKYO: KIMIHIKO HIRAO, TAKAHITO NAKAJIMA,
          TAKAO TSUNEDA, MUNEAKI KAMIYA, SUSUMU YANAGISAWA,
          KIYOSHI YAGI, MAHITO CHIBA, SEIKEN TOKURA, NAOAKI KAWAKAMI
     UNIVERSITY OF AARHUS: FRANK JENSEN
     UNIVERSITY OF IOWA: VISVALDAS KAIRYS, HUI LI
     NATIONAL INST. OF STANDARDS AND TECHNOLOGY: WALT STEVENS, DAVID GARMER
     UNIVERSITY OF PISA: BENEDETTA MENNUCCI, JACOPO TOMASI
     UNIVERSITY OF MEMPHIS: HENRY KURTZ, PRAKASHAN KORAMBATH
     UNIVERSITY OF ALBERTA: TOBY ZENG, MARIUSZ KLOBUKOWSKI
     UNIVERSITY OF NEW ENGLAND: MARK SPACKMAN
     MIE UNIVERSITY: HIROAKI UMEDA
     NAT. INST. OF ADVANCED INDUSTRIAL SCIENCE AND TECHNOLOGY: KAZUO KITAURA
     MICHIGAN STATE UNIVERSITY:
          KAROL KOWALSKI, MARTA WLOCH, JEFFREY GOUR, JESSE LUTZ,
          WEI LI, JUN SHEN, J. EMILIANO DEUSTUA, PIOTR PIECUCH
     UNIVERSITY OF MINNESOTA:
          YINAN SHU
     UNIVERSITY OF SILESIA: MONIKA MUSIAL, STANISLAW KUCHARSKI
     FACULTES UNIVERSITAIRES NOTRE-DAME DE LA PAIX:
          OLIVIER QUINET, BENOIT CHAMPAGNE
     UNIVERSITY OF CALIFORNIA - SANTA BARBARA: BERNARD KIRTMAN
     INSTITUTE FOR MOLECULAR SCIENCE:
          KAZUYA ISHIMURA, MICHIO KATOUDA, AND SHIGERU NAGASE
     UNIVERSITY OF NOTRE DAME: ANNA POMOGAEVA, DAN CHIPMAN
     KYUSHU UNIVERSITY:
          HARUYUKI NAKANO,
          FENG LONG GU, JACEK KORCHOWIEC, MARCIN MAKOWSKI, AND YURIKO AOKI,
          HIROTOSHI MORI AND EISAKU MIYOSHI
     PENNSYLVANIA STATE UNIVERSITY:
          TZVETELIN IORDANOV, CHET SWALINA, JONATHAN SKONE,
          SHARON HAMMES-SCHIFFER
     WASEDA UNIVERSITY:
          MASATO KOBAYASHI, TOMOKO AKAMA, TSUGUKI TOUMA,
          TAKESHI YOSHIKAWA, YASUHIRO IKABATA, JUNJI SEINO,
          YUYA NAKAJIMA, HIROMI NAKAI
     NANJING UNIVERSITY: SHUHUA LI
     UNIVERSITY OF NEBRASKA:
          PEIFENG SU, DEJUN SI, NANDUN THELLAMUREGE, YALI WANG, HUI LI
     UNIVERSITY OF ZURICH: ROBERTO PEVERATI, KIM BALDRIDGE
     N. COPERNICUS UNIVERSITY AND JACKSON STATE UNIVERSITY:
          MARIA BARYSZ
     UNIVERSITY OF COPENHAGEN: Jimmy Kromann, CASPER STEINMANN
     TOKYO INSTITUTE OF TECHNOLOGY: HIROYA NAKATA
     NAGOYA UNIVERSITY: YOSHIO NISHIMOTO, STEPHAN IRLE
     MOSCOW STATE UNIVERSITY: VLADIMIR MIRONOV

 EXECUTION OF GAMESS BEGUN Wed Nov 16 19:11:45 2022

            ECHO OF THE FIRST FEW INPUT CARDS -
 INPUT CARD> $system kdiag=3 mwords=100 memddi=1000 parall=.t. $end                         
 INPUT CARD> $contrl runtyp=energy ispher=1 $end                                            
 INPUT CARD> $contrl icut=9 itol=20 inttyp=rysquad qmttol=1.0d-05 nosym=1 $end              
 INPUT CARD> $scf    npunch=2 conv=1.0d-06 dirscf=.t.      $end                             
 INPUT CARD> $contrl scftyp=mcscf  mult=2 maxit=200 icharg=1 mplevl=2 $end                  
 INPUT CARD> $guess  guess=moread norb=29 purify=.t. $end                                   
 INPUT CARD> $basis  gbasis=ccd $end                                                        
 INPUT CARD> $mcscf  cistep=gmcci fullnr=.t. finci=mos                                      
 INPUT CARD>         acurcy=1.d-6 maxit=100 $end                                            
 INPUT CARD> $trans  dirtrf=.t. $end                                                        
 INPUT CARD> $mrmp   mrpt=gmcpt rdvecs=.f. $end                                             
 INPUT CARD> $gmcpt  nmofzc=0 nmodoc=1 nmoact=7 nelact=7 stsym(1)=A                         
 INPUT CARD>         reftyp=ormas nspace=1 mstart(1)=2 mine(1)=7 maxe(1)=7                  
 INPUT CARD>         kstate(1)=1,1,1                                                        
 INPUT CARD>         wstate(1)=1,1,1                                                        
 INPUT CARD>         iwgt=0 thrwgt=-1.0 krot=.f. kszdoe=.f. knospn=.f.                      
 INPUT CARD>         thrde=-1.0 edshft=0.02 $end                                            
 INPUT CARD> $data                                                                          
 INPUT CARD> NH3+ 3 states calculation at NH3 structure.                                    
 INPUT CARD> c1                                                                             
 INPUT CARD>N 7.0 -0.049831344 0.012457805999999998 -0.1693811162                           
 INPUT CARD>H 1.0 -0.13444596399999997 1.0980937518 0.10515125610000003                     
 INPUT CARD>H 1.0 0.018404653999999965 -1.1252476838 0.1965941901                           
 INPUT CARD>H 1.0 0.808461204 -0.14595147199999997 0.46764185410000003                      
 INPUT CARD>$end                                                                            
 INPUT CARD>--- OPTIMIZED RHF      MO-S --- GENERATED AT Mon Nov 14 16:47:08 2022           
 INPUT CARD>E=      -56.3825050291, E(NUC)=   11.8429239490                                 
 INPUT CARD> $VEC                                                                           
 INPUT CARD> 1  1-1.00134066E+00-2.25158504E-03 3.44925845E-03 0.00000000E+00 0.00000000E+00
 INPUT CARD> 1  2-2.13170927E-03 0.00000000E+00 0.00000000E+00 6.57129898E-04-6.87950443E-05
 INPUT CARD> 1  3-6.87950443E-05 1.37590089E-04 0.00000000E+00 0.00000000E+00 0.00000000E+00
 INPUT CARD> 1  4 3.25502815E-04-4.84772356E-04 3.62525460E-04-6.27912517E-04-3.45956485E-04
 INPUT CARD> 1  5 3.25502815E-04-4.84772356E-04 3.62525460E-04 6.27912517E-04-3.45956485E-04
 INPUT CARD> 1  6 3.25502815E-04-4.84772356E-04-7.25050921E-04 0.00000000E+00-3.45956485E-04
 INPUT CARD> 2  1 1.31286642E-02-4.05911371E-01-2.82090992E-01 0.00000000E+00 0.00000000E+00
 INPUT CARD> 2  2-7.71489043E-02 0.00000000E+00 0.00000000E+00 9.73717494E-03 6.62450916E-04
 INPUT CARD> 2  3 6.62450916E-04-1.32490183E-03 0.00000000E+00 0.00000000E+00 0.00000000E+00
 INPUT CARD> 2  4-1.96090317E-01-1.96656153E-02-1.74855877E-02 3.02859263E-02 8.68214399E-03
 INPUT CARD> 2  5-1.96090317E-01-1.96656153E-02-1.74855877E-02-3.02859263E-02 8.68214399E-03
 INPUT CARD> 2  6-1.96090317E-01-1.96656153E-02 3.49711754E-02 0.00000000E+00 8.68214399E-03
 INPUT CARD> 3  1 0.00000000E+00 0.00000000E+00 0.00000000E+00 4.48608762E-01 0.00000000E+00
 INPUT CARD> 3  2 0.00000000E+00 2.18692520E-01 0.00000000E+00 0.00000000E+00 1.30198027E-02
 INPUT CARD> 3  3-1.30198027E-02 0.00000000E+00 0.00000000E+00 2.71832968E-02 0.00000000E+00
 INPUT CARD> 3  4-1.85332726E-01-7.03958951E-02 8.47929477E-03 1.95242443E-02 8.32835058E-03
 INPUT CARD> 3  5-1.85332726E-01-7.03958951E-02 8.47929477E-03-1.95242443E-02 8.32835058E-03
 INPUT CARD> 3  6 3.70665453E-01 1.40791790E-01-2.53376884E-02 0.00000000E+00-1.66567012E-02
 INPUT CARD> 4  1 0.00000000E+00 0.00000000E+00 0.00000000E+00 0.00000000E+00 4.48608762E-01
 INPUT CARD> 4  2 0.00000000E+00 0.00000000E+00 2.18692520E-01 0.00000000E+00 0.00000000E+00
 INPUT CARD> 4  3 0.00000000E+00 0.00000000E+00-1.50339731E-02 0.00000000E+00 2.71832968E-02
 INPUT CARD> 4  4 3.21005698E-01 1.21929267E-01 1.95242443E-02-1.40653607E-02-1.44251263E-02
  100000000 WORDS OF MEMORY AVAILABLE

     BASIS OPTIONS
     -------------
     GBASIS=CCD          IGAUSS=       0      POLAR=NONE    
     NDFUNC=       0     NFFUNC=       0     DIFFSP=       F
     NPFUNC=       0      DIFFS=       F     BASNAM=        


     RUN TITLE
     ---------
  NH3+ 3 states calculation at NH3 structure.                                    

 THE POINT GROUP OF THE MOLECULE IS C1      
 THE ORDER OF THE PRINCIPAL AXIS IS     0

 ATOM      ATOMIC                      COORDINATES (BOHR)
           CHARGE         X                   Y                   Z
 N           7.0    -0.0941675858        0.0235418397       -0.3200838971
 H           1.0    -0.2540660321        2.0750962997        0.1987070613
 H           1.0     0.0347797530       -2.1264097907        0.3715091501
 H           1.0     1.5277701473       -0.2758082896        0.8837149646

          INTERNUCLEAR DISTANCES (ANGS.)
          ------------------------------

                1 N          2 H          3 H          4 H     

   1 N       0.0000000    1.1230018 *  1.1970664 *  1.0805359 *
   2 H       1.1230018 *  0.0000000    2.2304646 *  1.6025361 *
   3 H       1.1970664 *  2.2304646 *  0.0000000    1.2871198 *
   4 H       1.0805359 *  1.6025361 *  1.2871198 *  0.0000000  

  * ... LESS THAN  3.000


     ATOMIC BASIS SET
     ----------------
 THE CONTRACTED PRIMITIVE FUNCTIONS HAVE BEEN UNNORMALIZED
 THE CONTRACTED BASIS FUNCTIONS ARE NOW NORMALIZED TO UNITY

  SHELL TYPE  PRIMITIVE        EXPONENT          CONTRACTION COEFFICIENT(S)

 N         

      1   S       1          9046.0000000    0.000699617413
      1   S       2          1357.0000000    0.005386054630
      1   S       3           309.3000000    0.027391021189
      1   S       4            87.7300000    0.103150591982
      1   S       5            28.5600000    0.278570663317
      1   S       6            10.2100000    0.448294849454
      1   S       7             3.8380000    0.278085928395
      1   S       8             0.7466000    0.015431561233

      2   S       9          9046.0000000   -0.000304990096
      2   S      10          1357.0000000   -0.002408026379
      2   S      11           309.3000000   -0.011944448725
      2   S      12            87.7300000   -0.048925992909
      2   S      13            28.5600000   -0.134472724725
      2   S      14            10.2100000   -0.315112577700
      2   S      15             3.8380000   -0.242857832550
      2   S      16             0.7466000    1.094382206854

      3   S      17             0.2248000    1.000000000000

      4   P      18            13.5500000    0.058905676772
      4   P      19             2.9170000    0.320461106714
      4   P      20             0.7973000    0.753042061792

      5   P      21             0.2185000    1.000000000000

      6   D      22             0.8170000    1.000000000000

 H         

      7   S      23            13.0100000    0.033498726390
      7   S      24             1.9620000    0.234800801174
      7   S      25             0.4446000    0.813682957883

      8   S      26             0.1220000    1.000000000000

      9   P      27             0.7270000    1.000000000000

 H         

     10   S      28            13.0100000    0.033498726390
     10   S      29             1.9620000    0.234800801174
     10   S      30             0.4446000    0.813682957883

     11   S      31             0.1220000    1.000000000000

     12   P      32             0.7270000    1.000000000000

 H         

     13   S      33            13.0100000    0.033498726390
     13   S      34             1.9620000    0.234800801174
     13   S      35             0.4446000    0.813682957883

     14   S      36             0.1220000    1.000000000000

     15   P      37             0.7270000    1.000000000000

 TOTAL NUMBER OF BASIS SET SHELLS             =   15
 NUMBER OF CARTESIAN GAUSSIAN BASIS FUNCTIONS =   30
 NOTE: THIS RUN WILL RESTRICT THE MO VARIATION SPACE TO SPHERICAL HARMONICS.
 THE NUMBER OF ORBITALS KEPT IN THE VARIATIONAL SPACE WILL BE PRINTED LATER.
 NUMBER OF ELECTRONS                          =    9
 CHARGE OF MOLECULE                           =    1
 SPIN MULTIPLICITY                            =    2
 NUMBER OF OCCUPIED ORBITALS (ALPHA)          =    5
 NUMBER OF OCCUPIED ORBITALS (BETA )          =    4
 TOTAL NUMBER OF ATOMS                        =    4
 THE NUCLEAR REPULSION ENERGY IS       10.7996959032

     $CONTRL OPTIONS
     ---------------
 SCFTYP=MCSCF        RUNTYP=ENERGY       EXETYP=RUN     
 MPLEVL=       2     CITYP =NONE         CCTYP =NONE         VBTYP =NONE    
 DFTTYP=NONE         TDDFT =NONE    
 MULT  =       2     ICHARG=       1     NZVAR =       0     COORD =UNIQUE  
 PP    =NONE         RELWFN=NONE         LOCAL =NONE         NUMGRD=       F
 ISPHER=       1     NOSYM =       1     MAXIT =     200     UNITS =ANGS    
 PLTORB=       F     MOLPLT=       F     AIMPAC=       F     FRIEND=        
 NPRINT=       7     IREST =       0     GEOM  =INPUT   
 NORMF =       0     NORMP =       0     ITOL  =      20     ICUT  =       9
 INTTYP=RYSQUAD      GRDTYP=BEST         QMTTOL= 1.0E-05

     $SYSTEM OPTIONS
     ---------------
  REPLICATED MEMORY=   100000000 WORDS (ON EVERY NODE).
 DISTRIBUTED MEMDDI=        1000 MILLION WORDS IN AGGREGATE,
 MEMDDI DISTRIBUTED OVER   1 PROCESSORS IS  1000000000 WORDS/PROCESSOR.
 TOTAL MEMORY REQUESTED ON EACH PROCESSOR=  1100000000 WORDS.
 TIMLIM=      525600.00 MINUTES, OR     365.0 DAYS.
 PARALL= T  BALTYP=  DLB     KDIAG=    3  COREFL= F
 MXSEQ2=     300 MXSEQ3=     150  mem10=         0

          ----------------
          PROPERTIES INPUT
          ----------------

     MOMENTS            FIELD           POTENTIAL          DENSITY
 IEMOM =       1   IEFLD =       0   IEPOT =       0   IEDEN =       0
 WHERE =COMASS     WHERE =NUCLEI     WHERE =NUCLEI     WHERE =NUCLEI  
 OUTPUT=BOTH       OUTPUT=BOTH       OUTPUT=BOTH       OUTPUT=BOTH    
 IEMINT=       0   IEFINT=       0                     IEDINT=       0
                                                       MORB  =       0

     -------------------------------
     INTEGRAL TRANSFORMATION OPTIONS
     -------------------------------
     NWORD  =            0
     CUTOFF = 1.0E-09     MPTRAN =       0
     DIRTRF =       T     AOINTS =DUP     

          ----------------------
          MCSCF INPUT PARAMETERS
          ----------------------
 CONVERGER SELECTION: FOCAS = F  SOSCF = F  FULLNR = T  QUD = F  JACOBI = F
 SECULAR EQUATION METHOD CISTEP = GMCCI   
 --- GENERAL INPUT OPTIONS:
 MAXIT =     100  MICIT =       1  ACURCY= 1.000E-06
 DAMP  =   0.000  CANONC=       T  ENGTOL= 1.000E-10
 EKT   =       F  NPUNCH=       2  NWORD =         0
 REGENERATE CI AFTER CONVERGENCE = NONE    
 DIABATIZATION AFTER CONVERGENCE =        F
 --- INPUT FOR FULLNR CONVERGER:
 METHOD=DM2       FORS  =       F  DROPC =       T
 LINSER=       F  FCORE =       F  NORB  =      30

          ----------------------
          INTEGRAL INPUT OPTIONS
          ----------------------
 NOPK  =       1 NORDER=       0 SCHWRZ=       T

 ------------------------------------------
 MULTIREFERENCE PERTURBATION THEORY CONTROL
 ------------------------------------------
 MRPT=GMCPT    READ CONVERGED MCSCF VECTORS= F


     ------------------------------------------
     THE POINT GROUP IS C1 , NAXIS= 1, ORDER= 1
     ------------------------------------------

 -- VARIATIONAL SPACE WILL BE RESTRICTED TO PURE SPHERICAL HARMONICS ONLY --
 AFTER EXCLUDING CONTAMINANT COMBINATIONS FROM THE CARTESIAN GAUSSIAN BASIS
 SET, THE NUMBER OF SPHERICAL HARMONICS KEPT IN THE VARIATION SPACE IS   29

     DIMENSIONS OF THE SYMMETRY SUBSPACES ARE
 A   =   29

 ..... DONE SETTING UP THE RUN .....
 CPU     0: STEP CPU TIME=     0.03 TOTAL CPU TIME=          0.0 (      0.0 MIN)
 TOTAL WALL CLOCK TIME=          0.0 SECONDS, CPU UTILIZATION IS    75.00%

          ********************
          1 ELECTRON INTEGRALS
          ********************
 TIME TO DO   DIPOLE INTEGRALS=      0.00
 ...... END OF ONE-ELECTRON INTEGRALS ......
 CPU     0: STEP CPU TIME=     0.00 TOTAL CPU TIME=          0.0 (      0.0 MIN)
 TOTAL WALL CLOCK TIME=          0.0 SECONDS, CPU UTILIZATION IS    75.00%

          -------------
          GUESS OPTIONS
          -------------
          GUESS =MOREAD            NORB  =      29          NORDER=       0
          MIX   =       F          PRTMO =       F          PUNMO =       F
          TOLZ  = 1.0E-08          TOLE  = 1.0E-05
          SYMDEN=       F          PURIFY=       T

 INITIAL GUESS ORBITALS GENERATED BY MOREAD   ROUTINE.

 STATISTICS FOR GENERATION OF SYMMETRY ORBITAL -Q- MATRIX
 NUMBER OF CARTESIAN ATOMIC ORBITALS=         30
 NUMBER OF SPHERICAL CONTAMINANTS DROPPED=     1
 NUMBER OF LINEARLY DEPENDENT MOS DROPPED=     0
 TOTAL NUMBER OF MOS IN VARIATION SPACE=      29
 ORBITAL PURIFICATION WILL OCCUR

 SYMMETRIES FOR INITIAL GUESS ORBITALS FOLLOW.   BOTH SET(S).
     5 ORBITALS ARE OCCUPIED (    1 CORE ORBITALS).
     1=A        2=A        3=A        4=A        5=A        6=A        7=A   
     8=A        9=A       10=A       11=A       12=A       13=A       14=A   
    15=A       16=A       17=A       18=A       19=A       20=A       21=A   
    22=A       23=A       24=A       25=A       26=A       27=A       28=A   
    29=A   
 ...... END OF INITIAL ORBITAL SELECTION ......
 CPU     0: STEP CPU TIME=     0.02 TOTAL CPU TIME=          0.0 (      0.0 MIN)
 TOTAL WALL CLOCK TIME=          0.0 SECONDS, CPU UTILIZATION IS   100.00%

                    ----------------------
                    AO INTEGRAL TECHNOLOGY
                    ----------------------
     S,P,L SHELL ROTATED AXIS INTEGRALS, REPROGRAMMED BY
        KAZUYA ISHIMURA (IMS) AND JOSE SIERRA (SYNSTAR).
     S,P,D,L SHELL ROTATED AXIS INTEGRALS PROGRAMMED BY
        KAZUYA ISHIMURA (INSTITUTE FOR MOLECULAR SCIENCE).
     S,P,D,F,G SHELL TO TOTAL QUARTET ANGULAR MOMENTUM SUM 5,
        ERIC PROGRAM BY GRAHAM FLETCHER (ELORET AND NASA ADVANCED
        SUPERCOMPUTING DIVISION, AMES RESEARCH CENTER).
     S,P,D,F,G,L SHELL GENERAL RYS QUADRATURE PROGRAMMED BY
        MICHEL DUPUIS (PACIFIC NORTHWEST NATIONAL LABORATORY).

          --------------------
          2 ELECTRON INTEGRALS
          --------------------

 DIRECT SCF METHOD SKIPS INTEGRAL STORAGE ON DISK.
 DIRECT TRANSFORMATION SKIPS AO INTEGRAL STORAGE ON DISK.
  ...... END OF TWO-ELECTRON INTEGRALS .....
 STEP CPU TIME =     0.02 TOTAL CPU TIME =          0.1 (      0.0 MIN)
 TOTAL WALL CLOCK TIME=          0.1 SECONDS, CPU UTILIZATION IS   100.00%
 DDI: Creating Array [0] - 900 x 36 = 32400 words.
 DDI: Creating Array [1] - 21 x 288 = 6048 words.
 DDI: Creating Array [2] - 36 x 36 = 1296 words.
 DDI: Creating Array [3] - 465 x 36 = 16740 words.

          -----------------
          MCSCF CALCULATION
          -----------------

 ----- NUCLEAR ENERGY ----- =        10.7996959032

     -------------------------------------------------
     GMC-PT/GMC-QDPT or general MCSCF input parameters
     -------------------------------------------------
 # of frozen core orbs. =         0 ->         0
 # of doubly occ. orbs. =         1
 # of active      orbs. =         7
 # of virtual     orbs. =        21
 # of active electrons  =         7
 # of states in CI      =         3
 Highest state in CI    =         3
 kstate =  1 1 1
 avecoe =  0.333 0.333 0.333
 State symmetry           = A           
 Assigned symmetry number = 1

 <<<Act. MO sym.: 1111111

 <<<Division of 1-ext.:  0
 <<<Division of 2-ext.:  0

 *** Reference space

 Reference type: ORMAS (= Occupation restricted multiple active space)
 # of orbitals          =  7
 # of minimum electrons =  7
 # of maximum electrons =  7
 State symmetry    =    1 (input)
 2*Sz              =    1 (input)
 Spin multiplicity =    2 (input)
 Dimension of reference space =      1225  (from      3432 walks)

 Dimension of reference space =      1225  (from      1225 walks)

 <<<Ionized spaces for Ref-CI:
      0:         1225 /   -1-0:         1960 /  0-1-0:         2891

 EVALUATING EXCHANGE INTEGRALS FOR DIRECT INTEGRAL TRANSFORMATION
 SCHWARZ INEQUALITY OVERHEAD:       465 INTEGRALS, T=        0.00

     --------------------------------------------
     PARTIAL TWO ELECTRON INTEGRAL TRANSFORMATION
     --------------------------------------------

 NUMBER OF CORE MOLECULAR ORBITALS     =    1
 NUMBER OF OCCUPIED MOLECULAR ORBITALS =    8
 TOTAL NUMBER OF MOLECULAR ORBITALS    =   29
 TOTAL NUMBER OF ATOMIC ORBITALS       =   30
 THRESHOLD FOR KEEPING TRANSFORMED 2E- INTEGRALS = 1.000E-09

 -------------------------------     ------------------------------
 DISTRIBUTED DATA TRANSFORMATION     PROGRAM WRITTEN BY G. FLETCHER
 -------------------------------     ------------------------------

 THE DISTRIBUTED MEMORY REQUIRED FOR THIS STEP IS MEMDDI=         1 MWORDS
 CREATING DISTRIBUTED STORAGE FOR [VIR OCC|VIR OCC] INTEGRALS
 CREATING DISTRIBUTED STORAGE FOR [VIR OCC|OCC OCC] INTEGRALS
 CREATING DISTRIBUTED STORAGE FOR [OCC OCC|OCC OCC] INTEGRALS
 CREATING DISTRIBUTED STORAGE FOR [VIR VIR|OCC OCC] INTEGRALS
 FOR    1 PROCESSORS, THE REPLICATED MEMORY NEEDED IS       73700 WORDS.
 SCHWARZ INEQUALITY OVERHEAD:       465 INTEGRALS, T=        0.00

      DIRECT 4-INDEX TRANSFORMATION 
      SCHWARZ INEQUALITY TEST SKIPPED          0 INTEGRAL BLOCKS
 ----- FROZEN CORE ENERGY =       -47.5379423592
 ... END OF INTEGRAL TRANSFORMATION ...
 CPU     0: STEP CPU TIME=     0.21 TOTAL CPU TIME=          0.3 (      0.0 MIN)
 TOTAL WALL CLOCK TIME=          0.3 SECONDS, CPU UTILIZATION IS    96.55%

     --------------------------------     -----------------------------
     MCHF NEWTON-RAPHSON OPTIMIZATION     CODE WRITTEN BY MICHEL DUPUIS
     --------------------------------     -----------------------------
     PARALLEL VERSION WRITTEN BY G. FLETCHER (ELORET)
     NASA ADVANCED SUPERCOMPUTING DIVISION, AMES RESEARCH CENTER

 NUMBER OF INDEPENDENT ORBITAL ROTATION PARAMETERS =   175
 ..... DONE SOLVING NEWTON-RAPHSON EQUATIONS .....
 CPU     0: STEP CPU TIME=     0.86 TOTAL CPU TIME=          1.1 (      0.0 MIN)
 TOTAL WALL CLOCK TIME=          1.1 SECONDS, CPU UTILIZATION IS    99.13%
 ..... DONE WITH NTN-RPH ORBITAL ROTATIONS ..... 
 CPU     0: STEP CPU TIME=     0.00 TOTAL CPU TIME=          1.1 (      0.0 MIN)
 TOTAL WALL CLOCK TIME=          1.1 SECONDS, CPU UTILIZATION IS    99.13%
 MAXIMUM MEMORY USED BY NTN-RPH CODE WAS     57645 WORDS.

 ITER     TOTAL ENERGY      DEL(E)  LAGRANGIAN ASYMMETRY   SQCDF  MICIT   DAMP
   1      -55.574847745 -0.574847745  0.124893    9    3 9.223E-02  1   0.0000
   2      -55.643629551 -0.068781806  0.019887   12    5 4.606E-01  1   0.0000
   3      -55.680962418 -0.037332867  0.014649   11    6 2.254E-01  1   0.0161
   4      -55.698205133 -0.017242715  0.005098   11    6 4.307E-02  1   0.0063
   5      -55.700543528 -0.002338395  0.001592   13    5 1.230E-03  1   0.0000
   6      -55.700633198 -0.000089670  0.000692   13    5 1.236E-04  1   0.0000
   7      -55.700645115 -0.000011917  0.000309   13    5 2.783E-05  1   0.0000
   8      -55.700647722 -0.000002608  0.000144   13    5 7.133E-06  1   0.0000
   9      -55.700648359 -0.000000637  0.000068   13    5 1.942E-06  1   0.0000
  10      -55.700648525 -0.000000165  0.000033   13    5 5.520E-07  1   0.0000
  11      -55.700648570 -0.000000045  0.000016   13    5 1.625E-07  1   0.0000
  12      -55.700648583 -0.000000013  0.000008   22    5 4.924E-08  1   0.0000
  13      -55.700648587 -0.000000004  0.000004   22    5 1.531E-08  1   0.0000
  14      -55.700648588 -0.000000001  0.000002   22    5 4.879E-09  1   0.0000
  15      -55.700648588 -0.000000000  0.000001   22    5 1.595E-09  1   0.0000
  16      -55.700648588 -0.000000000  0.000001   22    5 5.237E-10  1   0.0000

          --------------------
          LAGRANGIAN CONVERGED
          --------------------

 FINAL MCSCF ENERGY IS      -55.7006485881 AFTER  16 ITERATIONS

 -MCCI- BASED ON OPTIMIZED ORBITALS
 ----------------------------------

 PLEASE NOTE: IF THE ACTIVE ORBITALS ARE CANONICALIZED BELOW,
 THE FOLLOWING CI EXPANSION COEFFICIENTS AND THE DENSITY DO NOT
 CORRESPOND TO THE PRINTED ORBITALS.  THE PRINTED EXPANSIONS MATCH
 THE ORBITALS USED DURING THE LAST ITERATION.  IF YOU WISH TO SEE
 CI EXPANSIONS BASED ON THE CANONICAL (OR NATURAL) ORBITALS, YOU
 MUST RUN A CI CALCULATION WITH THAT ORBITAL CHOICE READ IN $VEC.

 Averaged energy =     -55.700648588

 State #    1  Energy =     -55.839222659  S =  0.500

      Det      Coef    Occupancy (Ignoring core)
      ---      ----    --------- --------- -----
        1    0.852113  11110001110000
        2    0.059527  11101001110000
        4   -0.060066  10111001110000
        5   -0.076846  01111001110000
        6    0.064347  11100101110000
        8   -0.162291  10110101110000
       17   -0.117608  11010011110000
       71   -0.379181  11110001011000
       76   -0.066851  11100101011000
       78    0.066146  10110101011000
      211    0.054285  11110000110100
      386    0.095440  11110001010010
      393    0.074487  10110101010010
      701    0.097584  11110001100001

 State #    2  Energy =     -55.704977786  S =  0.500

      Det      Coef    Occupancy (Ignoring core)
      ---      ----    --------- --------- -----
        1    0.360801  11110001110000
        8   -0.054482  10110101110000
       17   -0.058941  11010011110000
       36   -0.278127  11110001101000
       71    0.817673  11110001011000
       74   -0.101572  10111001011000
       75   -0.068618  01111001011000
       76    0.067248  11100101011000
       78   -0.124193  10110101011000
       87   -0.089685  11010011011000
      106    0.055442  11110000111000
      113   -0.056811  10110100111000
      176    0.051829  11110001010100
      316    0.052485  11110000011100
      386    0.121730  11110001010010
      806   -0.072417  11110001001001

 State #    3  Energy =     -55.557745319  S =  0.500

      Det      Coef    Occupancy (Ignoring core)
      ---      ----    --------- --------- -----
        1   -0.085365  11110001110000
       36   -0.904177  11110001101000
       43    0.109444  10110101101000
       52    0.051706  11010011101000
       71   -0.261307  11110001011000
      246   -0.075237  11110001001100
      281   -0.084309  11110000101100
      351   -0.064243  11110001100010
      456   -0.137135  11110001001010
      463   -0.075547  10110101001010

 DENSITY MATRIX OVER ACTIVE MO-S

             1           2           3           4           5

    1    1.9702340
    2    0.0387925   1.6043637
    3    0.0017231  -0.0062979   1.6321039
    4   -0.0064427   0.0181668   0.0027824   1.6429132
    5    0.1181670  -0.1143532  -0.0029609   0.0421207   0.0460249
    6    0.0203618  -0.2100573  -0.0147436   0.1185177   0.0260418
    7   -0.0094862   0.0027015   0.1349990  -0.0042847  -0.0038552

             6           7

    6    0.0708435
    7   -0.0045797   0.0335168

 FORMING THE "STANDARD FOCK OPERATOR" IN DIRECT AO INTEGRAL MODE...
 ONLY THE    1 CORE AND   21 VIRTUAL ORBITALS WILL BE CANONICALIZED

          ----------------------
          MCSCF NATURAL ORBITALS
          ----------------------

                      1          2          3          4          5
                  -15.9740     1.9803     1.6533     1.6454     1.6369
                     A          A          A          A          A   
    1  N  1  S    1.001015   0.009679  -0.007692   0.002595  -0.003856
    2  N  1  S   -0.002046   0.432825  -0.154269   0.091386  -0.091069
    3  N  1  S   -0.006441   0.338944  -0.250938   0.126282  -0.140729
    4  N  1  X    0.000148   0.066075  -0.131159  -0.202643   0.486911
    5  N  1  Y    0.000092  -0.003548   0.091538   0.400751   0.220790
    6  N  1  Z    0.001032   0.082801   0.576426  -0.094523  -0.003339
    7  N  1  X   -0.000072   0.009938  -0.116006  -0.093304   0.282213
    8  N  1  Y    0.000018  -0.004029   0.047570   0.160617   0.116867
    9  N  1  Z   -0.000548   0.015206   0.389494  -0.039267  -0.042495
   10  N  1 XX   -0.000066  -0.002517  -0.013056  -0.005347   0.015521
   11  N  1 YY    0.000142   0.003179  -0.009194   0.009712  -0.015679
   12  N  1 ZZ   -0.000076  -0.000663   0.022250  -0.004365   0.000157
   13  N  1 XY   -0.000093  -0.001693   0.000253   0.002868   0.001081
   14  N  1 XZ    0.000170   0.003483   0.003115  -0.010772   0.020678
   15  N  1 YZ    0.000004  -0.001641   0.003165   0.015924   0.008641
   16  H  2  S   -0.001437   0.155121   0.145398   0.327542   0.041389
   17  H  2  S    0.000552   0.000686   0.039225   0.054217  -0.015225
   18  H  2  X   -0.000094   0.006188  -0.001386  -0.001930   0.021844
   19  H  2  Y    0.000777  -0.029798  -0.017100  -0.037789  -0.008369
   20  H  2  Z    0.000236  -0.002520   0.019292  -0.011727  -0.000420
   21  H  3  S   -0.001211   0.151620   0.046629  -0.251812  -0.239451
   22  H  3  S    0.000362  -0.000438   0.024545  -0.035134  -0.091956
   23  H  3  X    0.000012   0.000939  -0.002636  -0.010808   0.018607
   24  H  3  Y   -0.000626   0.027128   0.005760  -0.032686  -0.022887
   25  H  3  Z    0.000266  -0.004533   0.022527   0.003188   0.005975
   26  H  4  S   -0.001755   0.220822   0.119293  -0.212513   0.301056
   27  H  4  S    0.000295   0.010044   0.031774  -0.043040   0.106951
   28  H  4  X    0.000831  -0.032076  -0.022641   0.016012  -0.013275
   29  H  4  Y   -0.000136   0.004842   0.002942   0.020141   0.014387
   30  H  4  Z    0.000583  -0.020085   0.017674   0.010482  -0.022441

                      6          7          8
                    0.0379     0.0250     0.0212
                     A          A          A   
    1  N  1  S   -0.133995  -0.111593   0.086338
    2  N  1  S   -0.460748  -0.422838   0.276864
    3  N  1  S    0.013293  -0.217396   0.033109
    4  N  1  X    0.536142  -0.516968   0.035775
    5  N  1  Y    0.144389   0.254761   0.865529
    6  N  1  Z   -0.192792  -0.582134   0.207689
    7  N  1  X   -0.085144  -0.083199   0.011628
    8  N  1  Y   -0.018648   0.063219   0.066422
    9  N  1  Z    0.077572   0.036752  -0.063427
   10  N  1 XX   -0.070117   0.001168   0.007522
   11  N  1 YY    0.077131  -0.000171  -0.016841
   12  N  1 ZZ   -0.007014  -0.000997   0.009319
   13  N  1 XY   -0.012362  -0.025679  -0.049529
   14  N  1 XZ    0.008361   0.048595  -0.020279
   15  N  1 YZ   -0.009589  -0.022230  -0.047594
   16  H  2  S    0.426752   0.053138  -0.672496
   17  H  2  S    0.094345  -0.023741  -0.154261
   18  H  2  X   -0.015627   0.005979  -0.016135
   19  H  2  Y   -0.043180  -0.014154   0.067654
   20  H  2  Z   -0.001179   0.009218  -0.031684
   21  H  3  S    0.598938   0.273722   0.369946
   22  H  3  S    0.181153   0.024063   0.125612
   23  H  3  X   -0.024390   0.024842   0.009977
   24  H  3  Y    0.058973   0.032715   0.032055
   25  H  3  Z    0.004180   0.032451   0.011366
   26  H  4  S   -0.338003   0.740185  -0.145020
   27  H  4  S   -0.162491   0.165781  -0.048420
   28  H  4  X   -0.002754  -0.052435   0.014706
   29  H  4  Y   -0.014541  -0.022403  -0.049132
   30  H  4  Z    0.025344  -0.003075   0.001411

          ------------------------
          MCSCF OPTIMIZED ORBITALS
          ------------------------

                      1          2          3          4          5
                  -15.9740     0.0000     0.0000     0.0000     0.0000
                     A          A          A          A          A   
    1  N  1  S    1.001015  -0.002112   0.016388  -0.002688  -0.016255
    2  N  1  S   -0.002046   0.395770  -0.006440   0.006106  -0.198652
    3  N  1  S   -0.006441   0.339853  -0.137024   0.000723  -0.266908
    4  N  1  X    0.000148   0.026688   0.440292   0.032619  -0.034630
    5  N  1  Y    0.000092   0.002644  -0.002178   0.389311   0.016411
    6  N  1  Z    0.001032   0.050312   0.020168   0.002232   0.579108
    7  N  1  X   -0.000072  -0.021926   0.308219   0.042204  -0.098145
    8  N  1  Y    0.000018  -0.004766   0.025486   0.196178   0.015273
    9  N  1  Z   -0.000548   0.027225  -0.061984   0.008219   0.393784
   10  N  1 XX   -0.000066  -0.007268   0.027370   0.002262  -0.016974
   11  N  1 YY    0.000142   0.008330  -0.028884  -0.001500  -0.005049
   12  N  1 ZZ   -0.000076  -0.001062   0.001514  -0.000762   0.022023
   13  N  1 XY   -0.000093  -0.002614  -0.000656   0.007563  -0.000123
   14  N  1 XZ    0.000170   0.004333   0.022274   0.002137   0.004866
   15  N  1 YZ    0.000004  -0.002322  -0.000900   0.022596   0.000551
   16  H  2  S   -0.001437   0.196493  -0.198899   0.363762   0.119013
   17  H  2  S    0.000552   0.009724  -0.060657   0.054902   0.037410
   18  H  2  X   -0.000094   0.004292   0.022340   0.010408  -0.001973
   19  H  2  Y    0.000777  -0.034176   0.017544  -0.043065  -0.013275
   20  H  2  Z    0.000236  -0.001933   0.002929  -0.004845   0.021026
   21  H  3  S   -0.001211   0.192930  -0.149611  -0.373369   0.122752
   22  H  3  S    0.000362   0.012690  -0.087345  -0.086164   0.041280
   23  H  3  X    0.000012  -0.001040   0.025865  -0.001009  -0.002922
   24  H  3  Y   -0.000626   0.031103  -0.009434  -0.042710   0.014492
   25  H  3  Z    0.000266  -0.003166   0.001746   0.007710   0.021036
   26  H  4  S   -0.001755   0.208894   0.431578  -0.004768   0.115770
   27  H  4  S    0.000295   0.001223   0.137093   0.026432   0.024417
   28  H  4  X    0.000831  -0.033146  -0.020227   0.003250  -0.024117
   29  H  4  Y   -0.000136   0.003665   0.003282   0.029232  -0.000767
   30  H  4  Z    0.000583  -0.016795  -0.031233  -0.000022   0.017261

                      6          7          8          9         10
                    0.0000     0.0000     0.0000     0.1543     0.2104
                     A          A          A          A          A   
    1  N  1  S    0.186341  -0.041519   0.032332  -0.124256   0.021812
    2  N  1  S    0.691151  -0.120894   0.083876  -0.190722   0.023098
    3  N  1  S    0.193523   0.138194  -0.008602   1.222751  -0.270637
    4  N  1  X    0.066137   0.807213   0.053831  -0.053244  -0.000123
    5  N  1  Y   -0.034023  -0.085618   0.944617   0.013713   0.184518
    6  N  1  Z    0.637015   0.145798   0.043579  -0.192476   0.038558
    7  N  1  X    0.089462   0.031164  -0.018569   0.225194   0.100009
    8  N  1  Y   -0.021328  -0.052988   0.088526  -0.085689  -0.834409
    9  N  1  Z   -0.074124   0.005426  -0.037878   0.416660  -0.038774
   10  N  1 XX    0.038840  -0.052567  -0.007327  -0.024617   0.028627
   11  N  1 YY   -0.046744   0.059591   0.000200   0.061703  -0.049926
   12  N  1 ZZ    0.007904  -0.007024   0.007127  -0.037086   0.021299
   13  N  1 XY    0.012733   0.008522  -0.054576  -0.031536  -0.010609
   14  N  1 XZ   -0.049344  -0.019100  -0.008080   0.074062   0.013944
   15  N  1 YZ    0.009038   0.008610  -0.050194  -0.022065  -0.082886
   16  H  2  S   -0.449609   0.315009  -0.515127   0.308565  -0.548462
   17  H  2  S   -0.074114   0.088688  -0.128161  -0.611288   1.838430
   18  H  2  X   -0.001641  -0.012109  -0.016803  -0.026940  -0.005391
   19  H  2  Y    0.051430  -0.026629   0.049593   0.066863  -0.109780
   20  H  2  Z   -0.015186  -0.005975  -0.029364  -0.010919  -0.064040
   21  H  3  S   -0.424913   0.259262   0.504551   0.439496   0.295680
   22  H  3  S   -0.078987   0.108296   0.156784  -0.909773  -0.950794
   23  H  3  X   -0.004283  -0.031641   0.009126   0.038923   0.021786
   24  H  3  Y   -0.047085   0.022575   0.046041  -0.047388  -0.050926
   25  H  3  Z   -0.023978  -0.018270   0.018705   0.038820   0.059460
   26  H  4  S   -0.432436  -0.668393  -0.069770   0.287308   0.142226
   27  H  4  S   -0.057148  -0.212286  -0.047017  -0.859590  -0.427333
   28  H  4  X    0.044978   0.028450   0.003853   0.072526   0.004652
   29  H  4  Y    0.011608   0.005460  -0.052233  -0.074035  -0.015694
   30  H  4  Z   -0.010130   0.016932   0.006182   0.075224   0.019087

                     11         12         13         14         15
                    0.2491     0.5325     0.6125     0.7236     0.8112
                     A          A          A          A          A   
    1  N  1  S    0.026249   0.091708   0.021193   0.128882  -0.254971
    2  N  1  S    0.062158   0.153705   0.173164   0.320028  -0.592646
    3  N  1  S   -0.138899  -0.378533   0.424571  -0.324069   0.887357
    4  N  1  X    0.005607  -0.661949  -0.242501  -0.053294  -0.036548
    5  N  1  Y    0.050809  -0.029475   0.054636  -0.464122  -0.176895
    6  N  1  Z    0.029217   0.435213  -0.552806  -0.143500   0.213788
    7  N  1  X   -0.344577   1.078379   0.959276   0.101011  -0.061649
    8  N  1  Y   -0.265469  -0.041433  -0.333641   1.701499   0.672574
    9  N  1  Z   -0.162038  -0.427569   1.091223   0.149293  -0.285746
   10  N  1 XX   -0.064589   0.014412   0.008172  -0.023891  -0.027267
   11  N  1 YY    0.082538   0.007152  -0.036561  -0.005529   0.020360
   12  N  1 ZZ   -0.017949  -0.021564   0.028389   0.029420   0.006907
   13  N  1 XY    0.011275  -0.011400   0.060140  -0.007968   0.197884
   14  N  1 XZ   -0.071169   0.010648  -0.022319  -0.032463   0.052473
   15  N  1 YZ   -0.013188   0.000866   0.019180  -0.127529  -0.032393
   16  H  2  S    0.209383   0.306127  -0.262399  -0.631164  -0.336076
   17  H  2  S   -0.551508   0.308492   0.437635  -0.327860  -0.416930
   18  H  2  X    0.017862   0.008551   0.110067  -0.040745   0.324352
   19  H  2  Y   -0.014967  -0.016463  -0.050274   0.187733   0.084385
   20  H  2  Z   -0.003680  -0.042171   0.094521  -0.183288   0.013031
   21  H  3  S    0.517053   0.229986  -0.285598   0.470441   0.408312
   22  H  3  S   -1.686286   0.359509   0.254124   0.625919  -0.076198
   23  H  3  X   -0.027044   0.052585  -0.128497   0.046774  -0.381545
   24  H  3  Y   -0.044098   0.003182  -0.111335   0.246571  -0.047866
   25  H  3  Z   -0.005315  -0.069183  -0.004585   0.214839   0.032864
   26  H  4  S   -0.643038  -0.137082  -0.719694  -0.152887   0.163367
   27  H  4  S    2.182073  -0.558579  -0.638415  -0.026044  -0.088520
   28  H  4  X   -0.084361   0.074400   0.115578  -0.125252  -0.002555
   29  H  4  Y   -0.004270  -0.048973   0.139933  -0.218290   0.369453
   30  H  4  Z   -0.057087   0.021721   0.094348   0.019193   0.126102

                     16         17         18         19         20
                    1.0250     1.0466     1.1369     1.3101     1.3571
                     A          A          A          A          A   
    1  N  1  S   -0.532517  -0.362959   0.116097  -0.134476  -0.297496
    2  N  1  S   -1.128472  -0.768127   0.248149  -0.293100  -0.640184
    3  N  1  S    2.139470   1.563173  -0.502244   0.412248   1.067011
    4  N  1  X   -0.089260  -0.028150   0.001834  -0.021321   0.035617
    5  N  1  Y    0.081041  -0.197247  -0.282470   0.033326  -0.017325
    6  N  1  Z    0.118724   0.034273  -0.028172  -0.039543  -0.066192
    7  N  1  X    0.575014   0.230471  -0.248559  -0.467194   0.236415
    8  N  1  Y   -0.241977   0.792033   0.949722   0.073290   0.124048
    9  N  1  Z    0.079803   0.472292  -0.297871   0.152545   0.614693
   10  N  1 XX   -0.116973   0.184704  -0.099557   0.141978  -0.061477
   11  N  1 YY   -0.104437  -0.040734   0.001727   0.004819   0.090412
   12  N  1 ZZ    0.221410  -0.143971   0.097830  -0.146797  -0.028935
   13  N  1 XY   -0.063539  -0.095806  -0.104190   0.100367  -0.046355
   14  N  1 XZ   -0.090377  -0.155067   0.117882   0.056183  -0.053648
   15  N  1 YZ    0.003056   0.007981   0.163151   0.014968  -0.025939
   16  H  2  S   -0.156436  -0.561384  -0.376672  -0.101685  -0.367126
   17  H  2  S   -0.217843  -0.396513  -0.149093  -0.113645  -0.034082
   18  H  2  X   -0.084281  -0.362044  -0.052217   0.759798   0.057216
   19  H  2  Y    0.047448   0.072632  -0.190859   0.107393  -0.029036
   20  H  2  Z    0.250466   0.107866   0.470413   0.081095  -0.577431
   21  H  3  S   -0.427199   0.183985   0.579947  -0.036378  -0.297811
   22  H  3  S   -0.193197  -0.012964   0.160401  -0.076864   0.124565
   23  H  3  X    0.139534   0.015351   0.382833   0.524066   0.205811
   24  H  3  Y    0.011201  -0.180571  -0.177322  -0.012829   0.071942
   25  H  3  Z    0.346805  -0.142518  -0.319416   0.024544  -0.676938
   26  H  4  S   -0.529560  -0.302168   0.180179  -0.086745  -0.323121
   27  H  4  S   -0.356100  -0.245180   0.118681   0.071949  -0.281659
   28  H  4  X   -0.147075   0.423576  -0.279996   0.019259   0.000940
   29  H  4  Y   -0.198890  -0.011562   0.207907  -0.158806  -0.054317
   30  H  4  Z    0.318612  -0.408432   0.155193  -0.394428   0.340489

                     21         22         23         24         25
                    1.5993     1.7391     1.8160     1.9850     2.0918
                     A          A          A          A          A   
    1  N  1  S    0.019711   0.149996  -0.102841   0.139009  -0.000982
    2  N  1  S   -0.045020   0.389348  -0.246913   0.303135   0.006874
    3  N  1  S   -0.715908   0.275143   0.047454  -0.130828   0.069200
    4  N  1  X   -0.019602   0.202938  -0.290763   0.171805   0.003523
    5  N  1  Y   -0.008533   0.108341   0.428120   0.250279   0.010146
    6  N  1  Z   -0.053740   0.158371  -0.177136   0.122191   0.004592
    7  N  1  X    0.000310  -0.147572   0.066529  -0.127128  -0.198967
    8  N  1  Y    0.651588   0.701615   0.305642   0.048104  -0.075299
    9  N  1  Z   -0.285741   0.031861   0.047455  -0.121121   0.259852
   10  N  1 XX   -0.091265  -0.039225   0.058860  -0.051620  -0.771127
   11  N  1 YY    0.134750  -0.112183  -0.037598   0.089679  -0.050865
   12  N  1 ZZ   -0.043485   0.151408  -0.021262  -0.038058   0.821992
   13  N  1 XY    0.020481   0.063072  -0.050884   0.266074  -0.375092
   14  N  1 XZ    0.043008  -0.189775   0.165493  -0.152327   0.163660
   15  N  1 YZ   -0.045076  -0.135087  -0.196000  -0.113334  -0.041162
   16  H  2  S   -0.231034  -0.223767  -0.073582  -0.012914  -0.023637
   17  H  2  S    0.178659  -0.370517  -0.440072  -0.069843  -0.024743
   18  H  2  X    0.115172   0.172685  -0.203306  -0.175344   0.211366
   19  H  2  Y   -0.564098   0.595218   0.614775   0.333993   0.124107
   20  H  2  Z    0.451375   0.406985   0.248456   0.218654  -0.186069
   21  H  3  S    0.163166   0.199104   0.004433   0.177296  -0.047780
   22  H  3  S    0.573786   0.022227   0.167197   0.362967   0.007372
   23  H  3  X   -0.306149  -0.220807  -0.157131   0.636097   0.018096
   24  H  3  Y    0.750639  -0.254203   0.390600   0.616746   0.016122
   25  H  3  Z   -0.223309  -0.451986  -0.408475   0.100909  -0.044184
   26  H  4  S    0.223760   0.153492  -0.128255  -0.001692  -0.020084
   27  H  4  S   -0.220437  -0.048488   0.385314  -0.336436  -0.005373
   28  H  4  X    0.133891   0.272912  -0.596237   0.570782   0.456432
   29  H  4  Y   -0.293211  -0.600358   0.220249   0.599691   0.211440
   30  H  4  Z   -0.107242   0.293549  -0.377373   0.294436  -0.502677

                     26         27         28         29
                    2.2077     2.4585     2.6313     3.0876
                     A          A          A          A   
    1  N  1  S   -0.083639  -0.026235  -0.216405  -0.139276
    2  N  1  S   -0.167389  -0.018034  -0.268440  -0.185828
    3  N  1  S    0.244419   0.577745   2.325381   1.038815
    4  N  1  X   -0.057282   0.032384   0.301259  -0.245712
    5  N  1  Y   -0.059600   0.284546  -0.056442   0.145033
    6  N  1  Z   -0.046806   0.063002   0.297910  -0.013906
    7  N  1  X    0.140079   0.149141   0.884526  -0.323897
    8  N  1  Y   -0.005454   1.221169  -0.334890   0.261828
    9  N  1  Z    0.230973   0.210412   0.770686   0.022390
   10  N  1 XX   -0.320224   0.016239   0.098587  -0.919164
   11  N  1 YY    0.025136   0.026096   0.276427   1.522044
   12  N  1 ZZ    0.295087  -0.042336  -0.375014  -0.602880
   13  N  1 XY    0.952109   0.031766  -0.280121  -0.043609
   14  N  1 XZ    0.295102   0.254002   1.089642  -0.407028
   15  N  1 YZ   -0.035818   1.128347  -0.347264   0.075441
   16  H  2  S   -0.032608  -0.866631  -0.399001  -0.957461
   17  H  2  S    0.030572  -0.394238  -0.020514  -0.290912
   18  H  2  X   -0.498759  -0.109701  -0.142350  -0.055843
   19  H  2  Y   -0.163484   0.754719   0.247927   0.861957
   20  H  2  Z   -0.103121  -0.129846   0.146949   0.357498
   21  H  3  S   -0.132355   0.535564  -0.633843  -0.645855
   22  H  3  S   -0.119536   0.342151  -0.101376  -0.186285
   23  H  3  X    0.162164  -0.162091  -0.010386   0.008486
   24  H  3  Y   -0.247768   0.565905  -0.409457  -0.744683
   25  H  3  Z   -0.120754  -0.015759   0.185466   0.323974
   26  H  4  S   -0.090995  -0.257138  -1.400916   0.650205
   27  H  4  S    0.042701  -0.145296  -0.567768   0.157835
   28  H  4  X   -0.024360   0.175063   0.860552  -0.553542
   29  H  4  Y   -0.401102  -0.326265  -0.173871   0.030167
   30  H  4  Z   -0.325632   0.083007   0.638549  -0.415199
 .....DONE WITH MCSCF ITERATIONS.....
 CPU     0: STEP CPU TIME=    11.71 TOTAL CPU TIME=         12.9 (      0.2 MIN)
 TOTAL WALL CLOCK TIME=         12.9 SECONDS, CPU UTILIZATION IS    99.92%

     ----------------------------------------------------------------
     PROPERTY VALUES FOR THE MCSCF SELF-CONSISTENT FIELD WAVEFUNCTION
     ----------------------------------------------------------------

          -----------------
          ENERGY COMPONENTS
          -----------------

         WAVEFUNCTION NORMALIZATION =       1.0000000000

                ONE ELECTRON ENERGY =     -93.2832079040
                TWO ELECTRON ENERGY =      26.7828634127
           NUCLEAR REPULSION ENERGY =      10.7996959032
                                      ------------------
                       TOTAL ENERGY =     -55.7006485881

 ELECTRON-ELECTRON POTENTIAL ENERGY =      26.7828634127
  NUCLEUS-ELECTRON POTENTIAL ENERGY =    -148.8743061390
   NUCLEUS-NUCLEUS POTENTIAL ENERGY =      10.7996959032
                                      ------------------
             TOTAL POTENTIAL ENERGY =    -111.2917468232
               TOTAL KINETIC ENERGY =      55.5910982351
                 VIRIAL RATIO (V/T) =       2.0019706456

          ---------------------------------------
          MULLIKEN AND LOWDIN POPULATION ANALYSES
          ---------------------------------------

     ATOMIC MULLIKEN POPULATION IN EACH MOLECULAR ORBITAL

                      1          2          3          4          5

                  2.000000   1.980264   1.653251   1.645440   1.636930

    1             2.000494   1.377253   1.524371   0.904642   1.175428
    2            -0.000140   0.153604   0.065044   0.375106   0.013403
    3            -0.000086   0.149337   0.011437   0.222001   0.200172
    4            -0.000269   0.300069   0.052399   0.143690   0.247927

                      6          7          8

                  0.037868   0.025029   0.021218

    1             0.014961   0.013483   0.011724
    2             0.006546  -0.000031   0.007044
    3             0.013441   0.001721   0.002044
    4             0.002920   0.009857   0.000406
 WARNING! MCSCF POPULATIONS SHOWN ABOVE ARE FOR THE NATURAL ORBITALS.
 IGNORE THE ABOVE DATA FOR MCSCF FUNCTIONS WHICH ARE NOT OF -FORS- TYPE.
 THE FOLLOWING POPULATIONS ARE CORRECT FOR ANY MCSCF WAVEFUNCTION.

               ----- POPULATIONS IN EACH AO -----
                             MULLIKEN      LOWDIN
              1  N  1  S      2.00214     1.90641
              2  N  1  S      0.81733     0.58062
              3  N  1  S      0.73121     0.42811
              4  N  1  X      0.75323     0.70011
              5  N  1  Y      0.61210     0.53291
              6  N  1  Z      0.85107     0.80291
              7  N  1  X      0.41542     0.48315
              8  N  1  Y      0.29293     0.40493
              9  N  1  Z      0.52998     0.57145
             10  N  1 XX      0.00075     0.15367
             11  N  1 YY      0.00627     0.19489
             12  N  1 ZZ      0.00027     0.14651
             13  N  1 XY      0.00571     0.00070
             14  N  1 XZ      0.00395     0.01175
             15  N  1 YZ      0.00000     0.00686
             16  H  2  S      0.52507     0.41504
             17  H  2  S      0.04257     0.15429
             18  H  2  X      0.00889     0.01963
             19  H  2  Y      0.03433     0.05672
             20  H  2  Z      0.00972     0.02451
             21  H  3  S      0.49257     0.38522
             22  H  3  S      0.05822     0.15649
             23  H  3  X      0.00897     0.02309
             24  H  3  Y      0.03037     0.04896
             25  H  3  Z      0.00994     0.02309
             26  H  4  S      0.63444     0.49090
             27  H  4  S      0.06144     0.15403
             28  H  4  X      0.02727     0.05085
             29  H  4  Y      0.01288     0.02812
             30  H  4  Z      0.02098     0.04408

          ----- MULLIKEN ATOMIC OVERLAP POPULATIONS -----
          (OFF-DIAGONAL ELEMENTS NEED TO BE MULTIPLIED BY 2)

             1           2           3           4

    1    6.2340062
    2    0.2803880   0.3506302
    3    0.2452183  -0.0052796   0.3691670
    4    0.2627449  -0.0051615  -0.0090383   0.5084532

          TOTAL MULLIKEN AND LOWDIN ATOMIC POPULATIONS
       ATOM         MULL.POP.    CHARGE          LOW.POP.     CHARGE
    1 N             7.022357   -0.022357         6.924972    0.075028
    2 H             0.620577    0.379423         0.670195    0.329805
    3 H             0.600067    0.399933         0.636848    0.363152
    4 H             0.756998    0.243002         0.767985    0.232015

          MULLIKEN SPHERICAL HARMONIC POPULATIONS
       ATOM           S       P       D      F      G      H      I    TOTAL
    1 N             3.55    3.45    0.02   0.00   0.00   0.00   0.00    7.02
    2 H             0.57    0.05    0.00   0.00   0.00   0.00   0.00    0.62
    3 H             0.55    0.05    0.00   0.00   0.00   0.00   0.00    0.60
    4 H             0.70    0.06    0.00   0.00   0.00   0.00   0.00    0.76

          ---------------------
          ELECTROSTATIC MOMENTS
          ---------------------

 POINT   1           X           Y           Z (BOHR)    CHARGE
                 0.000005   -0.000001   -0.177185        1.00 (A.U.)
         DX          DY          DZ         /D/  (DEBYE)
     1.038741   -0.273516    2.109408    2.367150
 ...... END OF PROPERTY EVALUATION ......
 CPU     0: STEP CPU TIME=     0.01 TOTAL CPU TIME=         12.9 (      0.2 MIN)
 TOTAL WALL CLOCK TIME=         12.9 SECONDS, CPU UTILIZATION IS   100.00%

     -------------------------------------------------
     GMC-PT/GMC-QDPT or general MCSCF input parameters
     -------------------------------------------------
 # of frozen core orbs. =         0 ->         0
 # of doubly occ. orbs. =         1
 # of active      orbs. =         7
 # of virtual     orbs. =        21
 # of active electrons  =         7
 # of states in CI      =         3
 Highest state in CI    =         3
 kstate =  1 1 1
 avecoe =  0.333 0.333 0.333
 State symmetry           = A           
 Assigned symmetry number = 1

 <<<Act. MO sym.: 1111111

 <<<Division of 1-ext.:  0
 <<<Division of 2-ext.:  0

     ------------------------
     Orbital canonicalization
     ------------------------

 MOs are canonicalized for core, virtual, and invariant-active orbital spaces.
 This is a part of the GMC-QDPT calculation.
 SCHWARZ INEQUALITY OVERHEAD:       465 INTEGRALS, T=        0.00
 DIRECT TRANSFORMATION SKIPS AO INTEGRAL STORAGE ON DISK.

 Averaged energy =     -55.700648588

 State #    1  Energy =     -55.839222659  S =  0.500
 State #    2  Energy =     -55.704977786  S =  0.500
 State #    3  Energy =     -55.557745319  S =  0.500

 Orbital energies for filled orbital space
  -15.973973
 Orbital energies for active orbital space
   -1.476875  -0.810467  -0.948411  -0.705627   0.086458
    0.288197   0.352769
 Orbital energies for external orbital space
    0.154305   0.210395   0.249111   0.532545   0.612502
    0.723564   0.811160   1.025011   1.046578   1.136941
    1.310115   1.357075   1.599339   1.739147   1.816017
    1.984978   2.091764   2.207746   2.458457   2.631260
    3.087633

 Zero values mean non-canonical orbitals.
 ... done with orbital canonicalization ...
 CPU     0: STEP CPU TIME=     0.67 TOTAL CPU TIME=         13.5 (      0.2 MIN)
 TOTAL WALL CLOCK TIME=         13.5 SECONDS, CPU UTILIZATION IS    99.93%

     --------------------------------------------
     PARTIAL TWO ELECTRON INTEGRAL TRANSFORMATION
     --------------------------------------------

 NUMBER OF CORE MOLECULAR ORBITALS     =    0
 NUMBER OF OCCUPIED MOLECULAR ORBITALS =    8
 TOTAL NUMBER OF MOLECULAR ORBITALS    =   29
 TOTAL NUMBER OF ATOMIC ORBITALS       =   30
 THRESHOLD FOR KEEPING TRANSFORMED 2E- INTEGRALS = 1.000E-09
 AO INTEGRALS WILL BE CALCULATED IN DIRECT MODE...
 DIRECT TRANSFORMATION SKIPS AO INTEGRAL STORAGE ON DISK.
 SCHWARZ INEQUALITY OVERHEAD:       465 INTEGRALS, T=        0.00

 PLAN A: REQUIREMENTS FOR FULLY IN-MEMORY TRANSFORMATION:
 # OF WORDS AVAILABLE =            100000000
 # OF WORDS NEEDED    =               221798

 PARALLEL ONLY WORKS WITH THE SEGMENTED ALGORITHM.
 ADJUSTING MEMORY TO USE SEGMENTED ALGORITHM.


 PLAN B: REQUIREMENTS FOR THE SEGMENTED TRANSFORMATION:
       MINIMUM=         124148 WORDS FOR 1 MOLECULAR ORBITAL PER PASS
       MAXIMUM=         221798 WORDS FOR ALL MOLECULAR ORBITALS IN 1 PASS
              (          13950 EXTRA WORDS INCLUDES 1 EXTRA ORBITAL/PASS)
 THIS RUN USES=         221798 WORDS,
 DISTRIBUTING   1 PASSES EACH CONTAINING     8 ORBITALS OVER   1 PROCESSORS.

 CHOOSING SEGMENTED PARTIAL TRANSFORMATION...
 DIRECT TRANSFORMATION SKIPS AO INTEGRAL STORAGE ON DISK.
 PASS #   1 TOOK        0.05 SECONDS.
 TOTAL NUMBER OF TRANSFORMED 2E- INTEGRALS KEPT =        29226
 ... END OF INTEGRAL TRANSFORMATION ...
 CPU     0: STEP CPU TIME=     0.05 TOTAL CPU TIME=         13.6 (      0.2 MIN)
 TOTAL WALL CLOCK TIME=         13.6 SECONDS, CPU UTILIZATION IS   100.00%

     --------     ------------------------------------------
     GMC-QDPT     Program written by H.Nakano (Kyushu Univ.)
     --------     ------------------------------------------

 *** Reference space

 Reference type: ORMAS (= Occupation restricted multiple active space)
 # of orbitals          =  7
 # of minimum electrons =  7
 # of maximum electrons =  7
 State symmetry    =    1 (input)
 2*Sz              =    1 (input)
 Spin multiplicity =    2 (input)
 Dimension of reference space =      1225  (from      3432 walks)

 Dimension of reference space =      1225  (from      1225 walks)

 <<<Ionized spaces for Ref-CI:
      0:         1225 /   -1-0:         1960 /  0-1-0:         2891

 ***                    ***
 *** Reference space CI ***
 ***                    ***

 Converged after   40 iterations

 Reference wavefunctions:

 State #    1  Energy =     -55.839222659  S =  0.500

      Det      Coef    Occupancy (Ignoring core)
      ---      ----    --------- --------- -----
        1    0.970109  11110001110000
       71    0.091038  11110001011000
      143    0.051107  11011001100100
      393    0.054544  10110101010010

 State #    2  Energy =     -55.704977786  S =  0.500

      Det      Coef    Occupancy (Ignoring core)
      ---      ----    --------- --------- -----
        1    0.095688  11110001110000
       71   -0.972658  11110001011000
      248    0.055196  11011001001100
      822    0.050334  11010011001001

 State #    3  Energy =     -55.557745319  S =  0.500

      Det      Coef    Occupancy (Ignoring core)
      ---      ----    --------- --------- -----
       36   -0.973356  11110001101000
      142    0.050375  11101001100100
      249   -0.050456  10111001001100
      463   -0.056528  10110101001010

 Davidson method: CPU/Wall time =           0.50 /           0.50 sec.

 Oscillator strength (invalid if E(1)/=E(GS)):
 -----------------------------------------
   State                        f
 -----------------------------------------
     2     F(REF-CI)=        0.0034924141
     3     F(REF-CI)=        0.0049609840
 -----------------------------------------

 Dipole moment matrix elements, x, y, z, in A.U.

 Dimension of ionized spaces for PT:
 (N-2) space:         1715 /  (N-1) space:         2842 /  N space:         2891
 (N+1) space:         2842 /  (N+2) space:         1715

 <<<Ionized spaces for internal:
         0:         1225 /      -1-0:         1960 /     0-1-0:         2891
  -1-0-1-0:         2842 / 0-1-0-1-0:         3381

 Diagonal elements of averaged one-particle density matrix:
       2       3       4       5       6       7       8
  0.9926  0.9837  0.9849  0.9895  0.0223  0.0144  0.0126
  0.9874  0.6567  0.6601  0.6605  0.0154  0.0109  0.0090

 Orbital energies:
 -------- Doubly-occupied orbitals (highest several orbs.) -------
             1
 -1.597397D+01
 -------- Active orbitals ----------------------------------------
             2            3            4            5            6
 -1.476875D+00-8.104672D-01-9.484112D-01-7.056273D-01 8.645823D-02
             7            8
  2.881968D-01 3.527693D-01
 -------- External orbitals (lowest several orbs.) ---------------
             9           10           11           12           13
  1.543049D-01 2.103948D-01 2.491105D-01 5.325447D-01 6.125021D-01
            14           15           16           17           18
  7.235642D-01 8.111597D-01 1.025011D+00 1.046578D+00 1.136941D+00

 *** Quasi-degeneracy checking

 === Det (|Ci| > 1.0D-01 and dE < 5.0D-03)

 # of small denominators (single excitations)
 State       dEmin  dE < 5.0D-03  dE < 5.0D-04  dE < 5.0D-05  dE < 5.0D-06
 ----- ----------- ------------- ------------- ------------- -------------
     1    5.00D-03             0             0             0             0
     2    5.00D-03             0             0             0             0
     3    5.00D-03             0             0             0             0

 # of small denominators (double excitations)
 State       dEmin  dE < 5.0D-03  dE < 5.0D-04  dE < 5.0D-05  dE < 5.0D-06
 ----- ----------- ------------- ------------- ------------- -------------
     1    5.00D-03             0             0             0             0
     2    5.00D-03             0             0             0             0
     3    5.00D-03             0             0             0             0

 *** Zeroth-Order Setup (Granovsky's zeroth-order vectors)
 Zeroth-order effective Hamiltonian
  (= Sum_i e(i)*<I|a+(i)a(i)|J> ):
                   1            2            3
     1 -7.066505D+00
     2 -1.750050D-02-6.978860D+00
     3 -3.188322D-04 7.354894D-03-6.834846D+00

 Zeroth-order vectors:
 State #    1
       MC st            1           2           3
       Coeff    9.819D-01   1.892D-01  -4.588D-03
 State #    2
       MC st            2           1           3
       Coeff   -9.806D-01   1.892D-01   5.157D-02
 State #    3
       MC st            3           2           1
       Coeff    9.987D-01   5.150D-02  -5.257D-03

 *** GMC-QDPT computation

 (Integral reading:  CPU/Wall time =           0.00 /           0.00 sec.)

 One-external:
   0 -ionized terms: CPU/Wall time =           0.03 /           0.04 sec.
 (-1)-ionized terms: CPU/Wall time =           0.09 /           0.08 sec.
 (+1)-ionized terms: CPU/Wall time =           0.02 /           0.03 sec.
 (+1)-ionized terms: CPU/Wall time =           0.01 /           0.00 sec.
 (+2)-ionized terms: CPU/Wall time =           0.00 /           0.01 sec.

 Internal:
 # of macro loops for internal contribution =         1 (input)
 Loop:    1
 Dimension of internal CISD space     =         0  (after screening)
 Space construction: CPU/Wall time =           0.02 /           0.01 sec.
 Internal terms:     CPU/Wall time =           0.00 /           0.00 sec.

 Two-external:
   0 -ionized terms: CPU/Wall time =           0.06 /           0.06 sec.
 (-1)-ionized terms: CPU/Wall time =           1.00 /           1.00 sec.
 (-2)-ionized terms: CPU/Wall time =           0.17 /           0.17 sec.

 Total time:         CPU/Wall time =           1.40 /           1.40 sec.

 ***                  ***
 *** GMC-QDPT Results ***
 ***                  ***

 Diagonal elements of effective Hamiltonian:
 Heff(  1) =   -55.93422699
 Heff(  2) =   -55.81655134
 Heff(  3) =   -55.66899654

 Off-diagonal elements of effective Hamiltonian:
                   1            2
     2 -2.218439D-02
     3 -5.506022D-04 7.344403D-03

 ******** GMC-QDPT energies ********
 ----------------------------------------------------------------------------
   State                        1st order                           2nd order
 ----------------------------------------------------------------------------
     1     E(REF-CI)=      -55.8392226589   E(GMC-QDPT2)=      -55.9382725313
     2     E(REF-CI)=      -55.7049777859   E(GMC-QDPT2)=      -55.8128808399
     3     E(REF-CI)=      -55.5577453194   E(GMC-QDPT2)=      -55.6686215016
 ----------------------------------------------------------------------------

 Excitation energies (invalid if E(1)/=E(GS)):
 ----------------------------------------------------------------------------
   State                        1st order                           2nd order
 ----------------------------------------------------------------------------

     TZ Sorted GMC-PT ENERGIES:
         1      -55.9382725313
         2      -55.8128808399
         3      -55.6686215016
     2     E(REF-CI)=        3.6529909 eV   E(GMC-QDPT2)=        3.4120835 eV
     3     E(REF-CI)=        7.6593925 eV   E(GMC-QDPT2)=        7.3375820 eV
 ----------------------------------------------------------------------------

 Main characters of perturbed GMC-QDPT states:

 State #    1  Energy =     -55.938272531  S =  0.500

      Det      Coef    Occupancy (Ignoring core)
      ---      ----    --------- --------- -----
        1    0.971004  11110001110000
       71    0.081400  11110001011000
      143    0.051199  11011001100100
      393    0.054659  10110101010010

 State #    2  Energy =     -55.812880840  S =  0.500

      Det      Coef    Occupancy (Ignoring core)
      ---      ----    --------- --------- -----
        1    0.086016  11110001110000
       71   -0.973541  11110001011000
      248    0.055216  11011001001100
      822    0.050366  11010011001001

 State #    3  Energy =     -55.668621502  S =  0.500

      Det      Coef    Occupancy (Ignoring core)
      ---      ----    --------- --------- -----
       36   -0.973375  11110001101000
      142    0.050366  11101001100100
      249   -0.050466  10111001001100
      463   -0.056505  10110101001010

 <<<Max |V/de| = 2.688D-02  Thresh = 1.000D+00

 Oscillator strength (invalid if E(1)/=E(GS)):
 ----------------------------------------------------------------------------
   State                        1st order                           2nd order
 ----------------------------------------------------------------------------
     2     F(REF-CI)=        0.0034924141     F(GMC-PT2)=        0.0033548688
     3     F(REF-CI)=        0.0049609840     F(GMC-PT2)=        0.0048817588
 ----------------------------------------------------------------------------

 Dipole moment matrix elements, x, y, z, in A.U.
States    1    1        0.3590670949       -0.0986803494        0.6328088763
States    1    2        0.0265374609        0.0332211614       -0.1957671748
States    1    3        0.0314195886       -0.1517364742       -0.0560788066
States    2    1        0.0265374609        0.0332211614       -0.1957671748
States    2    2        0.4145902560        0.0579394459        0.3756329538
States    2    3       -0.0410352578       -0.1834895067       -0.0020313394
States    3    1        0.0314195886       -0.1517364742       -0.0560788066
States    3    2       -0.0410352578       -0.1834895067       -0.0020313394
States    3    3        0.5132059483       -0.2647016020        0.3140566406

 Oscillator strength (valid only when positive): 
 ----------------------------------------------------------------------------
  States                        1st order                           2nd order
 ----------------------------------------------------------------------------
  1  1     F(REF-CI)=        0.0000000000     F(GMC-PT2)=        0.0000000000
  1  2     F(REF-CI)=       -0.0034924141     F(GMC-PT2)=       -0.0033548688
  1  3     F(REF-CI)=       -0.0049609840     F(GMC-PT2)=       -0.0048817588
  2  1     F(REF-CI)=        0.0034924141     F(GMC-PT2)=        0.0033548688
  2  2     F(REF-CI)=        0.0000000000     F(GMC-PT2)=        0.0000000000
  2  3     F(REF-CI)=       -0.0035278790     F(GMC-PT2)=       -0.0034003290
  3  1     F(REF-CI)=        0.0049609840     F(GMC-PT2)=        0.0048817588
  3  2     F(REF-CI)=        0.0035278790     F(GMC-PT2)=        0.0034003290
  3  3     F(REF-CI)=        0.0000000000     F(GMC-PT2)=        0.0000000000
 CPU     0: STEP CPU TIME=     1.96 TOTAL CPU TIME=         15.5 (      0.3 MIN)
 TOTAL WALL CLOCK TIME=         15.5 SECONDS, CPU UTILIZATION IS    99.94%

     !!! DIABATIZATION FOR REF CI STATES !!!

 *******************************************************
          $DMO GROUP FOUND IN THE INPUT.
        DIABATIZATION OF ADIABATIC STATES BEGINS.
     PROGRAMMED BY TAO ZENG (CARLETON UNIVERSITY).
               Email: toby.zeng@carleton.ca
     See T. Zeng, J. Chem. Phys. 2017, 146, 144103
 *******************************************************

 *************************************************************************
     STEP 1: TRANSFORMATION OF ADIABATIC STATES TO THE DMO REPRESENTATION
         See Atchity and Ruedenberg, J. Chem. Phys. 1999, 111, 2910
 *************************************************************************

Read in Diabatic Molecualr Orbitals:

                      1          2          3          4          5

    1  N  1  S    0.008609   0.000000   0.000000  -0.013219   0.279491
    2  N  1  S    0.442914  -0.000000   0.000000  -0.184329   0.867803
    3  N  1  S    0.276913   0.000000  -0.000000  -0.288315   0.144236
    4  N  1  X   -0.000000   0.493155  -0.024636  -0.000000  -0.000000
    5  N  1  Y    0.000000   0.024636   0.493155  -0.000000   0.000000
    6  N  1  Z    0.090197   0.000000   0.000000   0.593421   0.705309
    7  N  1  X   -0.000000   0.210628  -0.010522   0.000000   0.000000
    8  N  1  Y    0.000000   0.010522   0.210628  -0.000000  -0.000000
    9  N  1  Z   -0.004381   0.000000   0.000000   0.381592  -0.106092
   10  N  1 XX   -0.000457   0.010719  -0.000535  -0.012387   0.006153
   11  N  1 YY   -0.000457  -0.010719   0.000535  -0.012387   0.006153
   12  N  1 ZZ    0.000914  -0.000000   0.000000   0.024773  -0.012306
   13  N  1 XY    0.000000  -0.000618  -0.012377  -0.000000   0.000000
   14  N  1 XZ   -0.000000   0.026529  -0.001325  -0.000000   0.000000
   15  N  1 YZ    0.000000   0.001325   0.026529  -0.000000   0.000000
   16  H  2  S    0.194462  -0.176074   0.343485   0.112865  -0.523343
   17  H  2  S    0.003574  -0.023812   0.046452   0.024014  -0.054445
   18  H  2  X    0.018760   0.009101   0.022834   0.009336  -0.039151
   19  H  2  Y   -0.032493   0.022287  -0.020044  -0.016171   0.067811
   20  H  2  Z   -0.009251   0.008464  -0.016511   0.018769  -0.010566
   21  H  3  S    0.194462  -0.209430  -0.324227   0.112865  -0.523343
   22  H  3  S    0.003574  -0.028322  -0.043847   0.024014  -0.054445
   23  H  3  X    0.018760   0.006781  -0.023627   0.009336  -0.039151
   24  H  3  Y    0.032493  -0.024174  -0.017723   0.016171  -0.067811
   25  H  3  Z   -0.009251   0.010067   0.015585   0.018769  -0.010566
   26  H  4  S    0.194462   0.385503  -0.019258   0.112865  -0.523343
   27  H  4  S    0.003574   0.052134  -0.002604   0.024014  -0.054445
   28  H  4  X   -0.037519  -0.032295   0.001613  -0.018672   0.078302
   29  H  4  Y    0.000000   0.001067   0.021353  -0.000000   0.000000
   30  H  4  Z   -0.009251  -0.018530   0.000926   0.018769  -0.010566

                      6          7

    1  N  1  S    0.000000  -0.000000
    2  N  1  S    0.000000  -0.000000
    3  N  1  S   -0.000000   0.000000
    4  N  1  X   -0.930415  -0.002083
    5  N  1  Y   -0.002083   0.930415
    6  N  1  Z   -0.000000   0.000000
    7  N  1  X   -0.046866  -0.000105
    8  N  1  Y   -0.000105   0.046866
    9  N  1  Z   -0.000000   0.000000
   10  N  1 XX    0.001538   0.000003
   11  N  1 YY   -0.001538  -0.000003
   12  N  1 ZZ   -0.000000   0.000000
   13  N  1 XY   -0.000004   0.001776
   14  N  1 XZ    0.039985   0.000090
   15  N  1 YZ    0.000090  -0.039985
   16  H  2  S   -0.362630  -0.631354
   17  H  2  S   -0.065964  -0.114846
   18  H  2  X    0.002763  -0.037520
   19  H  2  Y    0.037435   0.040736
   20  H  2  Z    0.001882   0.003276
   21  H  3  S   -0.365454   0.629724
   22  H  3  S   -0.066477   0.114549
   23  H  3  X    0.002595   0.037532
   24  H  3  Y   -0.037617   0.040567
   25  H  3  Z    0.001896  -0.003268
   26  H  4  S    0.728084   0.001630
   27  H  4  S    0.132441   0.000297
   28  H  4  X   -0.062317  -0.000140
   29  H  4  Y    0.000055  -0.024345
   30  H  4  Z   -0.003778  -0.000008

NUMBER OF SUB ACTIVE SPACES:   1
ROTATE ACTIVE MOS TO DMOS IN EACH SUB-SPACE

SPACE  1:

OVERLAP BETWEEN ORTHONORMAL AND PRE-ORTHONORMAL REF. DMOS

             1           2           3           4           5

    1    0.9656353   0.0457902  -0.0034114  -0.0110980   0.0100656
    2    0.0457902   0.8834342  -0.0225498   0.0517451  -0.0664993
    3   -0.0034114  -0.0225498   1.0224699  -0.0113740   0.0290021
    4   -0.0110980   0.0517451  -0.0113740   0.9936526  -0.0156198
    5    0.0100656  -0.0664993   0.0290021  -0.0156198   1.1583430
    6    0.0036902  -0.0681196  -0.0325907   0.0501291   0.0531572
    7   -0.0013193   0.0144871  -0.0434140   0.0182947  -0.0386442

             6           7

    1    0.0036902  -0.0013193
    2   -0.0681196   0.0144871
    3   -0.0325907  -0.0434140
    4    0.0501291   0.0182947
    5    0.0531572  -0.0386442
    6    1.0986253   0.0016818
    7    0.0016818   1.0627438
REFERENCE DMOS AFTER ORTHONORMALIZATION:

                      1          2          3          4          5

    1  N  1  S    0.005466   0.017486  -0.006572  -0.010038   0.243035
    2  N  1  S    0.447104   0.039935  -0.020389  -0.170190   0.748069
    3  N  1  S    0.281666   0.011386  -0.004756  -0.286307   0.118975
    4  N  1  X   -0.021212   0.499224  -0.041362   0.015905   0.067541
    5  N  1  Y    0.001284   0.029530   0.520862  -0.012493   0.017777
    6  N  1  Z    0.094114   0.001008  -0.011816   0.610551   0.619738
    7  N  1  X   -0.011510   0.238483  -0.006639  -0.010910   0.015011
    8  N  1  Y    0.000021   0.016715   0.208899   0.000151  -0.002854
    9  N  1  Z    0.002301  -0.030174   0.005252   0.385233  -0.087894
   10  N  1 XX   -0.001342   0.013599  -0.000449  -0.013236   0.005828
   11  N  1 YY   -0.000115  -0.011240  -0.000021  -0.011729   0.004609
   12  N  1 ZZ    0.001457  -0.002358   0.000470   0.024965  -0.010437
   13  N  1 XY    0.000006  -0.001035  -0.012100  -0.000080   0.000303
   14  N  1 XZ   -0.001771   0.033345   0.000608  -0.003692   0.000079
   15  N  1 YZ   -0.000066   0.002642   0.024536   0.000737  -0.001727
   16  H  2  S    0.222115  -0.262902   0.310611   0.152948  -0.479741
   17  H  2  S    0.006449  -0.034707   0.039959   0.030721  -0.050502
   18  H  2  X    0.019553   0.007617   0.022304   0.009329  -0.035389
   19  H  2  Y   -0.036282   0.034350  -0.018160  -0.020149   0.060786
   20  H  2  Z   -0.009733   0.008116  -0.015460   0.017956  -0.007947
   21  H  3  S    0.224171  -0.332388  -0.297081   0.130405  -0.428678
   22  H  3  S    0.006815  -0.044792  -0.039946   0.026751  -0.041842
   23  H  3  X    0.019677   0.002930  -0.020472   0.007960  -0.032214
   24  H  3  Y    0.036413  -0.038397  -0.015826   0.018718  -0.057600
   25  H  3  Z   -0.009751   0.010823   0.015843   0.018193  -0.008790
   26  H  4  S    0.183010   0.445074   0.026946   0.050068  -0.461183
   27  H  4  S    0.000848   0.064366   0.004339   0.013773  -0.049127
   28  H  4  X   -0.037910  -0.033500  -0.003222  -0.013378   0.068826
   29  H  4  Y   -0.000042   0.002035   0.020052   0.000471  -0.001157
   30  H  4  Z   -0.008140  -0.022856   0.000695   0.020113  -0.009881

                      6          7

    1  N  1  S   -0.010443   0.008527
    2  N  1  S   -0.028105   0.029354
    3  N  1  S    0.006912   0.009244
    4  N  1  X   -0.821075  -0.007000
    5  N  1  Y    0.013718   0.897200
    6  N  1  Z   -0.058467   0.011738
    7  N  1  X   -0.028254  -0.002857
    8  N  1  Y    0.007189   0.052287
    9  N  1  Z   -0.015034  -0.009175
   10  N  1 XX    0.002556   0.000234
   11  N  1 YY   -0.001786   0.000521
   12  N  1 ZZ   -0.000770  -0.000755
   13  N  1 XY   -0.000440   0.001204
   14  N  1 XZ    0.038653  -0.000342
   15  N  1 YZ    0.001080  -0.036736
   16  H  2  S   -0.320761  -0.597101
   17  H  2  S   -0.059823  -0.108222
   18  H  2  X    0.004925  -0.035928
   19  H  2  Y    0.033705   0.039579
   20  H  2  Z    0.001353   0.001728
   21  H  3  S   -0.348900   0.567938
   22  H  3  S   -0.063851   0.104892
   23  H  3  X    0.003015   0.033151
   24  H  3  Y   -0.035334   0.035734
   25  H  3  Z    0.002500  -0.003224
   26  H  4  S    0.710567  -0.021961
   27  H  4  S    0.126421  -0.002644
   28  H  4  X   -0.061492   0.002977
   29  H  4  Y    0.000839  -0.022168
   30  H  4  Z   -0.005247  -0.000375

 -------------------------------------------
       MAXIMIZING MORMO OVERLAP TERM        
 -------------------------------------------
   SWEEP    VALUE       PROGRESS
     0     4.82899
     1     6.92726     2.09827218
     2     6.93578     0.00852108
     3     6.93578     0.00000061
     4     6.93578     0.00000000
     5     6.93578     0.00000000
 THE ROTATION IS DONE
ACTIVE ORBITALS AFTER MORMO:

                      1          2          3          4          5

    1  N  1  S    0.002802   0.033595  -0.005371  -0.013031   0.185595
    2  N  1  S    0.413709   0.085912  -0.008552  -0.193355   0.682710
    3  N  1  S    0.346194  -0.089633  -0.009750  -0.263129   0.199061
    4  N  1  X    0.004507   0.429537  -0.044679   0.051786   0.029288
    5  N  1  Y    0.005892   0.014684   0.506240  -0.009311   0.020358
    6  N  1  Z    0.078571   0.038799  -0.017969   0.605685   0.617343
    7  N  1  X   -0.035410   0.321134   0.007166  -0.073117   0.064580
    8  N  1  Y   -0.005705   0.039199   0.206262   0.010053  -0.014350
    9  N  1  Z    0.034654  -0.089683   0.017427   0.386237  -0.080176
   10  N  1 XX   -0.007458   0.032633   0.000149  -0.017593   0.036524
   11  N  1 YY    0.007902  -0.033382  -0.000574  -0.004031  -0.044055
   12  N  1 ZZ   -0.000444   0.000748   0.000425   0.021623   0.007531
   13  N  1 XY   -0.002420   0.001749  -0.000124   0.001825   0.010452
   14  N  1 XZ    0.001923   0.018308   0.002311   0.003397  -0.051615
   15  N  1 YZ   -0.002196   0.002411   0.015414   0.002237   0.007379
   16  H  2  S    0.190850  -0.200793   0.313945   0.120070  -0.452997
   17  H  2  S    0.010139  -0.063276   0.042149   0.039574  -0.073988
   18  H  2  X    0.003154   0.023713   0.007033  -0.001319  -0.004244
   19  H  2  Y   -0.033335   0.017104  -0.038516  -0.012685   0.052202
   20  H  2  Z   -0.002237   0.000358  -0.007354   0.020769  -0.017298
   21  H  3  S    0.189383  -0.231117  -0.290333   0.108176  -0.404728
   22  H  3  S    0.015140  -0.107791  -0.060729   0.038459  -0.067054
   23  H  3  X   -0.002262   0.025763  -0.000176  -0.003879  -0.006067
   24  H  3  Y    0.030366  -0.017994  -0.034982   0.012896  -0.046340
   25  H  3  Z   -0.003454  -0.001060   0.012037   0.018666  -0.023305
   26  H  4  S    0.179817   0.405728   0.005279   0.078177  -0.481693
   27  H  4  S   -0.005754   0.136684   0.023113   0.016328  -0.071195
   28  H  4  X   -0.031308  -0.016408   0.001789  -0.021374   0.048494
   29  H  4  Y    0.003649   0.007807   0.021390   0.000953   0.009465
   30  H  4  Z   -0.015362  -0.034049   0.003145   0.016312  -0.006820

                      6          7

    1  N  1  S    0.038418   0.027927
    2  N  1  S    0.100338   0.057956
    3  N  1  S   -0.154811  -0.036476
    4  N  1  X   -0.815862   0.003008
    5  N  1  Y   -0.005169   0.891951
    6  N  1  Z   -0.104279   0.020258
    7  N  1  X   -0.042251  -0.021874
    8  N  1  Y    0.037207   0.068457
    9  N  1  Z    0.025635  -0.029376
   10  N  1 XX    0.051309  -0.004901
   11  N  1 YY   -0.059370  -0.002936
   12  N  1 ZZ    0.008061   0.007837
   13  N  1 XY   -0.004532  -0.055997
   14  N  1 XZ    0.019260  -0.004161
   15  N  1 YZ   -0.005634  -0.053412
   16  H  2  S   -0.282382  -0.562785
   17  H  2  S   -0.077693  -0.137882
   18  H  2  X    0.012346  -0.016354
   19  H  2  Y    0.023913   0.054544
   20  H  2  Z    0.009826  -0.026834
   21  H  3  S   -0.271190   0.542027
   22  H  3  S   -0.111889   0.159487
   23  H  3  X    0.030184   0.012269
   24  H  3  Y   -0.023207   0.051137
   25  H  3  Z    0.017718   0.020255
   26  H  4  S    0.668354   0.011198
   27  H  4  S    0.212767  -0.027884
   28  H  4  X   -0.029733  -0.001480
   29  H  4  Y   -0.002836  -0.056052
   30  H  4  Z   -0.015576   0.004755

Actually Used Diabatic Molecualr Orbitals:

                      1          2          3          4          5

    1  N  1  S    0.002802   0.033595  -0.005371  -0.013031   0.185595
    2  N  1  S    0.413709   0.085912  -0.008552  -0.193355   0.682710
    3  N  1  S    0.346194  -0.089633  -0.009750  -0.263129   0.199061
    4  N  1  X    0.004507   0.429537  -0.044679   0.051786   0.029288
    5  N  1  Y    0.005892   0.014684   0.506240  -0.009311   0.020358
    6  N  1  Z    0.078571   0.038799  -0.017969   0.605685   0.617343
    7  N  1  X   -0.035410   0.321134   0.007166  -0.073117   0.064580
[...]

 -------------------------------------------
 - DM DIABT PT HAMILTONIAN MATRIX ELEMENTS -
 -------------------------------------------
                                            
 --- DIABATIC ENERGIES (DIAGONAL ELEMENT) ---       HARTREE            EV
 STATE #  1'S GMC-PT-LEVEL DIABATIC ENERGY=     -55.908503138       0.000000000
 STATE #  2'S GMC-PT-LEVEL DIABATIC ENERGY=     -55.832646827       2.064155349
 STATE #  3'S GMC-PT-LEVEL DIABATIC ENERGY=     -55.678624908       6.255305257

 --- DIABATIC COUPLINGS (OFF DIAGONAL ELEMENTS)---  HATREE            EV
 STATE #  1 &  2'S GMC-PT-LEVEL COUPLING  =      -0.056069360      -1.525725006
 STATE #  1 &  3'S GMC-PT-LEVEL COUPLING  =       0.016220126       0.441372115
 STATE #  2 &  3'S GMC-PT-LEVEL COUPLING  =      -0.032871935      -0.894490899

 ---------------------------------------
     - ROTATION TO DIABATIC STATES -    
 ---------------------------------------
 ROWS=ADIABATIC, COLUMNS=DIABATIC STATES

             1           2           3

    1   -0.8826994  -0.4699179  -0.0043506
    2    0.4543560  -0.8510305  -0.2632638
    3    0.1200099  -0.2343595   0.9647141

 ---------------------------------------
          - DIABATIC STATES -           
 ---------------------------------------

 State #    1  Energy =     -55.908503138

      Det      Coef        Coefp    Occupancy (Ignoring core)
      ---      ----        ----    --------- --------- -----
        1    0.912437   -0.912437  222+000
        8   -0.184066    0.184066  2-2+0+0
      386    0.151806   -0.151806  2+2+0-0
        4   -0.144051    0.144051  2-2++00
      176    0.138140   -0.138140  2+2+-00
        6    0.112855   -0.112855  22200+0
      717   -0.064733   -0.064733  220+002
      393   -0.062672   -0.062672  202+020
      708    0.048242   -0.048242  2-++0+-
        5    0.045829    0.045829  -22++00
      402    0.042668   -0.042668  2+-+0-+
        7   -0.041615   -0.041615  22-+0+0
      351    0.040255    0.040255  22++0-0
      391    0.037943   -0.037943  2+20020
      705   -0.037554   -0.037554  -2+++0-
      215   -0.037445   -0.037445  022+200
        3    0.037310    0.037310  22-++00
      141   -0.036607   -0.036607  22++-00
      227   -0.036455   -0.036455  +2-+-0+
      143   -0.034250   -0.034250  220+200
       76    0.032260    0.032260  2+2-0+0
       11    0.032257   -0.032257  2-20++0
      212    0.030593    0.030593  +220200
      113   -0.029537    0.029537  +-220+0
      211   -0.029316   -0.029316  +22+-00
     1051   -0.028801   -0.028801  2+++0--
       51   -0.028765    0.028765  22+-00+
      390    0.028685   -0.028685  -+2++-0
      218    0.028380   -0.028380  +-2+-+0
      183   -0.027790    0.027790  202+-+0
      389    0.026998    0.026998  202++-0
        9    0.026469    0.026469  -22+0+0
      147    0.025938   -0.025938  220+-+0
      387   -0.025868    0.025868  2+20+-0
      701    0.025823    0.025823  22++00-
      424   -0.025499   -0.025499  +-2++-0
        2    0.024677   -0.024677  2220+00
      353   -0.024569   -0.024569  220++-0
       29   -0.024520   -0.024520  2--+0++
      357   -0.024429   -0.024429  220+020
      702    0.024061    0.024061  22+0+0-
      773    0.023172   -0.023172  +2-++0-
      159    0.023019   -0.023019  -2++-0+
       18    0.022101   -0.022101  2-2+00+
      122    0.021372    0.021372  +2-200+
      184   -0.021283   -0.021283  -+2+-+0

 State #    2  Energy =     -55.832646827

      Det      Coef        Coefp    Occupancy (Ignoring core)
      ---      ----        ----    --------- --------- -----
       71   -0.907530    0.907530  2+22000
       74    0.184002   -0.184002  2022+00
       76    0.154699    0.154699  2+2-0+0
       78    0.154466   -0.154466  20220+0
      386   -0.136512    0.136512  2+2+0-0
      106    0.102223    0.102223  +222000
      822    0.061361   -0.061361  2+02002
      113    0.054758   -0.054758  +-220+0
      813    0.052918   -0.052918  20+20+-
       81    0.052229    0.052229  202-++0
      456    0.050749    0.050749  2++20-0
       75   -0.049151   -0.049151  -+22+00
      393   -0.047467   -0.047467  202+020
       77   -0.046756    0.046756  2+-20+0
      806    0.044709    0.044709  2++200-
       36    0.041343    0.041343  22+2000
       79   -0.040681   -0.040681  -+220+0
       73    0.040262   -0.040262  2+-2+00
      810   -0.038383   -0.038383  -++2+0-
      323   -0.038039    0.038039  +022-+0
       99   -0.037892    0.037892  20-20++
      109    0.036696   -0.036696  +-22+00
      320    0.036516    0.036516  0+22200
      246   -0.035354   -0.035354  2++2-00
      332   -0.034451    0.034451  ++-2-0+
      183   -0.034425    0.034425  202+-+0
      180   -0.034283    0.034283  -+2+200
      248    0.033505   -0.033505  2+02200
      177    0.033366   -0.033366  2+20200
      317    0.032843   -0.032843  ++2-200
       87   -0.032498    0.032498  2+-200+
       38   -0.031051    0.031051  2202+00
       42   -0.030778    0.030778  22020+0
      252   -0.026239   -0.026239  2+02-+0
      529    0.026040    0.026040  +022+-0
      736   -0.024462    0.024462  2+2+00-
      807   -0.024325    0.024325  2++-+0-
       86    0.024033    0.024033  2+2-00+
      458    0.023169   -0.023169  2+02+-0
      192   -0.023051    0.023051  2+-+-0+
       83   -0.022797    0.022797  20-2++0
      462    0.022007   -0.022007  2+02020
      534    0.021977    0.021977  0+22020
      264    0.021533   -0.021533  -++2-0+
      878    0.021482    0.021482  ++-2+0-
       88   -0.021396    0.021396  202200+
        6    0.020888   -0.020888  22200+0

 State #    3  Energy =     -55.678624908

      Det      Coef        Coefp    Occupancy (Ignoring core)
      ---      ----        ----    --------- --------- -----
       36   -0.910012   -0.910012  22+2000
      246   -0.157316   -0.157316  2++2-00
      456   -0.151612   -0.151612  2++20-0
       43    0.131925    0.131925  2-+20+0
      351   -0.123077   -0.123077  22++0-0
       39    0.122495    0.122495  2-+2+00
       41    0.107068   -0.107068  22+-0+0
      463    0.071768   -0.071768  20+2020
       52    0.065148   -0.065148  220200+
      281    0.054911   -0.054911  +2+2-00
      472   -0.053309   -0.053309  2+020-+
       71   -0.046520    0.046520  2+22000
      112   -0.044656   -0.044656  +2-20+0
       42    0.044424   -0.044424  22020+0
      461    0.043684   -0.043684  2++-020
      358   -0.043069    0.043069  2-++020
      491    0.039886   -0.039886  +2+20-0
       46    0.039466   -0.039466  2-+-++0
      285    0.039197   -0.039197  02+2200
      561    0.038943    0.038943  2+++--0
      121   -0.038391    0.038391  +22-00+
       64    0.037902   -0.037902  2-020++
      297    0.037538   -0.037538  +202-0+
       73    0.034821   -0.034821  2+-2+00
      282    0.034392    0.034392  +2+-200
      142    0.033856    0.033856  22+0200
      457   -0.033697    0.033697  2++-+-0
      108   -0.033206   -0.033206  +2-2+00
      460   -0.033206   -0.033206  -++2+-0
      145   -0.032965   -0.032965  -2++200
       16   -0.032356    0.032356  222000+
       38   -0.032042    0.032042  2202+00
      148   -0.031925   -0.031925  2-++-+0
      288   -0.028575   -0.028575  +-+2-+0
      254    0.026667   -0.026667  -++2-+0
       51    0.024687   -0.024687  22+-00+
      157    0.024212   -0.024212  220+-0+
       37   -0.024016    0.024016  22+-+00
        3    0.023665    0.023665  22-++00
      253    0.023336    0.023336  20+2-+0
      701   -0.021857   -0.021857  22++00-
      494    0.021847   -0.021847  +-+2+-0
       40   -0.021706    0.021706  -2+2+00
      771    0.021479    0.021479  +22+00-
      716    0.021237    0.021237  22+0002
      843   -0.020691   -0.020691  +202+0-
      806    0.020213    0.020213  2++200-

 ---------------------------------------
      - DIABATIC STATES IN CMO -        
 ---------------------------------------

 State #    1  Energy =     -55.908503138

      Det      Coef        Coefp    Occupancy (Ignoring core)
      ---      ----        ----    --------- --------- -----
        1    0.818814   -0.818814  222+000
       71    0.510183   -0.510183  2+22000
       36   -0.128321   -0.128321  22+2000
      179   -0.054136   -0.054136  202+200
      177   -0.048699    0.048699  2+20200
      393   -0.043106   -0.043106  202+020
      717   -0.042628   -0.042628  220+002
      143   -0.040943   -0.040943  220+200
      106   -0.034980   -0.034980  +222000
      183    0.032884   -0.032884  202+-+0
      180    0.031619   -0.031619  -+2+200
       17    0.030682    0.030682  22-+00+
      182    0.029961   -0.029961  2+-+-+0
        8   -0.029918    0.029918  2-2+0+0
      192    0.029717   -0.029717  2+-+-0+
        2    0.029440   -0.029440  2220+00
      822   -0.028562    0.028562  2+02002
      248   -0.028443    0.028443  2+02200
        7    0.027831    0.027831  22-+0+0
      212    0.025828    0.025828  +220200
      193   -0.024750    0.024750  202+-0+
      357   -0.024321   -0.024321  220+020
       18    0.023886   -0.023886  2-2+00+
      429   -0.023787   -0.023787  022+020
      702    0.023216    0.023216  22+0+0-
      113   -0.022919    0.022919  +-220+0
      109   -0.022789    0.022789  +-22+00
      389   -0.022624   -0.022624  202++-0
      227   -0.022225   -0.022225  +2-+-0+
      358    0.021693   -0.021693  2-++020
      705   -0.021328   -0.021328  -2+++0-
      112    0.021224    0.021224  +2-20+0
      392   -0.021158   -0.021158  2+-+020
       74   -0.021067    0.021067  2022+00
      707   -0.020556   -0.020556  220+0+-
      156   -0.020312    0.020312  22+0-0+
       87   -0.020169    0.020169  2+-200+
      215   -0.020123   -0.020123  022+200

 State #    2  Energy =     -55.832646827

      Det      Coef        Coefp    Occupancy (Ignoring core)
      ---      ----        ----    --------- --------- -----
       71   -0.782446    0.782446  2+22000
        1    0.527949   -0.527949  222+000
       36    0.256870    0.256870  22+2000
      248    0.048079   -0.048079  2+02200
        2    0.045758   -0.045758  2220+00
      822    0.044834   -0.044834  2+02002
      109    0.043855   -0.043855  +-22+00
      393   -0.035314   -0.035314  202+020
      143   -0.032074   -0.032074  220+200
      113    0.029324   -0.029324  +-220+0
       38   -0.028335    0.028335  2202+00
      807   -0.026510    0.026510  2++-+0-
      534    0.024990    0.024990  0+22020
      812    0.023759   -0.023759  2+020+-
      317    0.023398   -0.023398  ++2-200
       74    0.023319   -0.023319  2022+00
      717   -0.022815   -0.022815  220+002
      249   -0.022623    0.022623  20+2200
       75   -0.022600   -0.022600  -+22+00
       53   -0.022542   -0.022542  2-+200+
       99   -0.022491    0.022491  20-20++
      823   -0.022245    0.022245  20+2002
      389   -0.022076   -0.022076  202++-0
       72    0.021948    0.021948  2+2-+00
      316   -0.021255   -0.021255  ++22-00
      810   -0.020562   -0.020562  -++2+0-
      177    0.020501   -0.020501  2+20200
       87    0.020455   -0.020455  2+-200+
      111    0.020399   -0.020399  +22-0+0
      332   -0.020201    0.020201  ++-2-0+

 State #    3  Energy =     -55.678624908

      Det      Coef        Coefp    Occupancy (Ignoring core)
      ---      ----        ----    --------- --------- -----
       36   -0.930613   -0.930613  22+2000
       71   -0.288118    0.288118  2+22000
      463    0.061405   -0.061405  20+2020
      108   -0.050312   -0.050312  +2-2+00
      142    0.048585    0.048585  22+0200
        3    0.045907    0.045907  22-++00
      249    0.045259   -0.045259  20+2200
       37   -0.042914    0.042914  22+-+00
      459    0.039191   -0.039191  20+2+-0
      462    0.034973   -0.034973  2+02020
        1    0.033229   -0.033229  222+000
      145   -0.030427   -0.030427  -2++200
      253   -0.030425   -0.030425  20+2-+0
      282    0.029873    0.029873  +2+-200
      121   -0.029782    0.029782  +22-00+
       40    0.029546   -0.029546  -2+2+00
      144    0.028618   -0.028618  2-++200
      499    0.027324   -0.027324  02+2020
      247   -0.026414    0.026414  2++-200
       88   -0.026224    0.026224  202200+
      285    0.025863   -0.025863  02+2200
       52    0.025272   -0.025272  220200+
      157    0.025181   -0.025181  220+-0+
       64    0.023820   -0.023820  2-020++
      473    0.023612    0.023612  20+20-+
      464    0.022902    0.022902  -++2020
       72   -0.022836   -0.022836  2+2-+00
      113   -0.022616    0.022616  +-220+0
      284    0.021465   -0.021465  +-+2200
      281    0.020766   -0.020766  +2+2-00
      859    0.020693   -0.020693  02+2002
        4    0.020667   -0.020667  2-2++00
      716    0.020276    0.020276  22+0002
      823    0.020252   -0.020252  20+2002
      703   -0.020086   -0.020086  220++0-
       73    0.020078   -0.020078  2+-2+00

 ---------------------------------------
    -DIABATIC STATES IN PROTOTYPES-     
 ---------------------------------------

     STATE:    1
 Group Ref#    Coefficients
     1    1    0.933614
     2    2    0.009403
     3    3    0.004978

WEIGHT OF LISTED PROTOTYPES:   87.17%

     STATE:    2
 Group Ref#    Coefficients
     1    1    0.009455
     2    2    0.928471
     3    3    0.003504

WEIGHT OF LISTED PROTOTYPES:   86.22%

     STATE:    3
 Group Ref#    Coefficients
     1    1    0.005055
     2    2    0.003538
     3    3    0.919353

WEIGHT OF LISTED PROTOTYPES:   84.52%

     DIRECT MAX. DIABATIZATION FINISHED    
 CPU     0: STEP CPU TIME=     0.25 TOTAL CPU TIME=         15.8 (      0.3 MIN)
 TOTAL WALL CLOCK TIME=         15.8 SECONDS, CPU UTILIZATION IS    99.94%

DIABATS FOR SPIN-ORBIT CALCULATION ARE READY

TRANSITION DIPOLES BETWEEN ADIABATS (in A.U.):

STATE PAIR      X         Y         Z
    1    1  0.359067 -0.098680  0.632809
    2    1  0.026537  0.033221 -0.195767
    2    2  0.414590  0.057939  0.375633
    3    1  0.031420 -0.151736 -0.056079
    3    2 -0.041035 -0.183490 -0.002031
    3    3  0.513206 -0.264702  0.314057


TRANSITION DIPOLES BETWEEN DIABATS (in A.U.):

STATE PAIR      X         Y         Z
    1    1  0.340329 -0.083248  0.743815
    2    1  0.001755 -0.022569 -0.004883
    2    2  0.419523 -0.074398  0.259300
    3    1 -0.026136  0.024365 -0.004307
    3    2 -0.002079  0.284814  0.016413
    3    3  0.527011 -0.147797  0.319384

TRANSITION DIPOLES BETWEEN DIRECT MAX. DIABATS (in A.U.):

STATE PAIR      X         Y         Z
    1    1  0.340331 -0.083249  0.743815
    2    1  0.001753 -0.022582 -0.004870
    2    2  0.419523 -0.074410  0.259299
    3    1 -0.026144  0.024359 -0.004290
    3    2 -0.002082  0.284816  0.016412
    3    3  0.527009 -0.147784  0.319384
 No $TRANST Group Found.
 Quit without doing spin-orbit coupling
 ..... DONE WITH MP2 ENERGY .....
 CPU     0: STEP CPU TIME=     0.01 TOTAL CPU TIME=         15.8 (      0.3 MIN)
 TOTAL WALL CLOCK TIME=         15.8 SECONDS, CPU UTILIZATION IS   100.00%
            100000000  WORDS OF DYNAMIC MEMORY USED
 EXECUTION OF GAMESS TERMINATED NORMALLY Wed Nov 16 19:12:01 2022
 DDI: 715512 bytes (0.7 MB / 0 MWords) used by master data server.

 ----------------------------------------
 CPU timing information for all processes
 ========================================
 0: 15.531 + 0.272 = 15.803
 ----------------------------------------
Note: The following floating-point exceptions are signalling: IEEE_DENORMAL
 ddikick.x: exited gracefully.
unset echo
----- accounting info -----
Files used on the master node io002 were:
-rw-r--r-- 1 bsonghao nooijen   20727 Nov 16 19:11 /scratch/bsonghao/nh3_diabatization_2d_at_mode_7_8_dist-0.2_0.8.F05
-rw-r--r-- 1 bsonghao nooijen  363520 Nov 16 19:11 /scratch/bsonghao/nh3_diabatization_2d_at_mode_7_8_dist-0.2_0.8.F09
-rw-r--r-- 1 bsonghao nooijen 1995920 Nov 16 19:12 /scratch/bsonghao/nh3_diabatization_2d_at_mode_7_8_dist-0.2_0.8.F10
-rw-r--r-- 1 bsonghao nooijen  131264 Nov 16 19:11 /scratch/bsonghao/nh3_diabatization_2d_at_mode_7_8_dist-0.2_0.8.F13
-rw-r--r-- 1 bsonghao nooijen  180312 Nov 16 19:12 /scratch/bsonghao/nh3_diabatization_2d_at_mode_7_8_dist-0.2_0.8.F15
-rw-r--r-- 1 bsonghao nooijen       0 Nov 16 19:11 /scratch/bsonghao/nh3_diabatization_2d_at_mode_7_8_dist-0.2_0.8.F16
-rw-r--r-- 1 bsonghao nooijen    9808 Nov 16 19:11 /scratch/bsonghao/nh3_diabatization_2d_at_mode_7_8_dist-0.2_0.8.F70
-rw-r--r-- 1 bsonghao nooijen    9808 Nov 16 19:11 /scratch/bsonghao/nh3_diabatization_2d_at_mode_7_8_dist-0.2_0.8.F71
-rw-r--r-- 1 bsonghao nooijen   19608 Nov 16 19:11 /scratch/bsonghao/nh3_diabatization_2d_at_mode_7_8_dist-0.2_0.8.F72
-rw-r--r-- 1 bsonghao nooijen   19608 Nov 16 19:11 /scratch/bsonghao/nh3_diabatization_2d_at_mode_7_8_dist-0.2_0.8.F73
-rw-r--r-- 1 bsonghao nooijen 1920824 Nov 16 19:11 /scratch/bsonghao/nh3_diabatization_2d_at_mode_7_8_dist-0.2_0.8.F74
-rw-r--r-- 1 bsonghao nooijen       0 Nov 16 19:11 /scratch/bsonghao/nh3_diabatization_2d_at_mode_7_8_dist-0.2_0.8.F75
-rw-r--r-- 1 bsonghao nooijen   58848 Nov 16 19:11 /scratch/bsonghao/nh3_diabatization_2d_at_mode_7_8_dist-0.2_0.8.F76
-rw-r--r-- 1 bsonghao nooijen       0 Nov 16 19:11 /scratch/bsonghao/nh3_diabatization_2d_at_mode_7_8_dist-0.2_0.8.F77
-rw-r--r-- 1 bsonghao nooijen    1864 Nov 16 19:11 /scratch/bsonghao/nh3_diabatization_2d_at_mode_7_8_dist-0.2_0.8.F78
-rw-r--r-- 1 bsonghao nooijen   39208 Nov 16 19:11 /scratch/bsonghao/nh3_diabatization_2d_at_mode_7_8_dist-0.2_0.8.F79
-rw-r--r-- 1 bsonghao nooijen     104 Nov 16 19:11 /scratch/bsonghao/nh3_diabatization_2d_at_mode_7_8_dist-0.2_0.8.F80
-rw-r--r-- 1 bsonghao nooijen   13472 Nov 16 19:11 /scratch/bsonghao/nh3_diabatization_2d_at_mode_7_8_dist-0.2_0.8.F81
-rw-r--r-- 1 bsonghao nooijen      16 Nov 16 19:11 /scratch/bsonghao/nh3_diabatization_2d_at_mode_7_8_dist-0.2_0.8.F82
-rw-r--r-- 1 bsonghao nooijen   19216 Nov 16 19:11 /scratch/bsonghao/nh3_diabatization_2d_at_mode_7_8_dist-0.2_0.8.F83
-rw-r--r-- 1 bsonghao nooijen   29712 Nov 16 19:11 /scratch/bsonghao/nh3_diabatization_2d_at_mode_7_8_dist-0.2_0.8.F84
-rw-r--r-- 1 bsonghao nooijen  401576 Nov 16 19:11 /scratch/bsonghao/nh3_diabatization_2d_at_mode_7_8_dist-0.2_0.8.F85
-rw-r--r-- 1 bsonghao nooijen  903672 Nov 16 19:11 /scratch/bsonghao/nh3_diabatization_2d_at_mode_7_8_dist-0.2_0.8.F86
-rw-r--r-- 1 bsonghao nooijen     656 Nov 16 19:12 /scratch/bsonghao/nh3_diabatization_2d_at_mode_7_8_dist-0.2_0.8.F87
-rw-r--r-- 1 bsonghao nooijen   43920 Nov 16 19:12 /scratch/bsonghao/nh3_diabatization_2d_at_mode_7_8_dist-0.2_0.8.F88
-rw-r--r-- 1 bsonghao nooijen     240 Nov 16 19:11 /scratch/bsonghao/nh3_diabatization_2d_at_mode_7_8_dist-0.2_0.8.F89
-rw-r--r-- 1 bsonghao nooijen       0 Nov 16 19:11 /scratch/bsonghao/nh3_diabatization_2d_at_mode_7_8_dist-0.2_0.8.F90
-rw-r--r-- 1 bsonghao nooijen   13760 Nov 16 19:12 /scratch/bsonghao/nh3_diabatization_2d_at_mode_7_8_dist-0.2_0.8.F91
-rw-r--r-- 1 bsonghao nooijen   22776 Nov 16 19:11 /scratch/bsonghao/nh3_diabatization_2d_at_mode_7_8_dist-0.2_0.8.F92
-rw-r--r-- 1 bsonghao nooijen   23168 Nov 16 19:11 /scratch/bsonghao/nh3_diabatization_2d_at_mode_7_8_dist-0.2_0.8.F93
-rw-r--r-- 1 bsonghao nooijen   22776 Nov 16 19:11 /scratch/bsonghao/nh3_diabatization_2d_at_mode_7_8_dist-0.2_0.8.F94
-rw-r--r-- 1 bsonghao nooijen   13760 Nov 16 19:11 /scratch/bsonghao/nh3_diabatization_2d_at_mode_7_8_dist-0.2_0.8.F95
-rw-r--r-- 1 bsonghao nooijen   29440 Nov 16 19:12 /scratch/bsonghao/nh3_diabatization_2d_at_mode_7_8_dist-0.2_0.8.F96
-rw-r--r-- 1 bsonghao nooijen    1184 Nov 16 19:11 /scratch/bsonghao/nh3_diabatization_2d_at_mode_7_8_dist-0.2_0.8.F97
-rw-r--r-- 1 bsonghao nooijen    9808 Nov 16 19:11 /scratch/bsonghao/nh3_diabatization_2d_at_mode_7_8_dist-0.2_0.8.F98
-rw-r--r-- 1 bsonghao nooijen   30264 Nov 16 19:11 /scratch/bsonghao/nh3_diabatization_2d_at_mode_7_8_dist-0.2_0.8.F99
ls: No match.
ls: No match.
ls: No match.
Wed 16 Nov 2022 07:12:04 PM EST
0.308u 0.028s 0:19.17 1.6%	0+0k 48+232io 0pf+0w
