----- GAMESS execution script 'rungms' -----
This job is running on host io002
under operating system Linux at Wed 16 Nov 2022 06:19:29 PM EST
Available scratch disk space (Kbyte units) at beginning of the job is
Filesystem       1K-blocks       Used   Available Use% Mounted on
/dev/sdc1      15378471580 3278917120 11318349060  23% /scratch
GAMESS temporary binary files will be written to /scratch/bsonghao
GAMESS supplementary output files will be written to /home/bsonghao/.gamess_ascii_files/267638
Copying input file nh3_diabatization_2d_at_mode_7_8_dist-0.8_-0.2.inp to your run's scratch directory...
cp nh3_diabatization_2d_at_mode_7_8_dist-0.8_-0.2.inp /scratch/bsonghao/nh3_diabatization_2d_at_mode_7_8_dist-0.8_-0.2.F05
unset echo
/home/bjb2chen/gamess/ddikick.x /home/bjb2chen/gamess/gamess.00.x nh3_diabatization_2d_at_mode_7_8_dist-0.8_-0.2 -ddi 1 1 io002 -scr /scratch/bsonghao

 Distributed Data Interface kickoff program.
 Initiating 1 compute processes on 1 nodes to run the following command:
 /home/bjb2chen/gamess/gamess.00.x nh3_diabatization_2d_at_mode_7_8_dist-0.8_-0.2 

          ******************************************************
          *         GAMESS VERSION = 02 AUG 2018 (R2)         *
          *             FROM IOWA STATE UNIVERSITY             *
          * M.W.SCHMIDT, K.K.BALDRIDGE, J.A.BOATZ, S.T.ELBERT, *
          *   M.S.GORDON, J.H.JENSEN, S.KOSEKI, N.MATSUNAGA,   *
          *          K.A.NGUYEN, S.J.SU, T.L.WINDUS,           *
          *       TOGETHER WITH M.DUPUIS, J.A.MONTGOMERY       *
          *         J.COMPUT.CHEM.  14, 1347-1363(1993)        *
          **************** 64 BIT LINUX VERSION ****************

  SINCE 1993, STUDENTS AND POSTDOCS WORKING AT IOWA STATE UNIVERSITY
  AND ALSO IN THEIR VARIOUS JOBS AFTER LEAVING ISU HAVE MADE IMPORTANT
  CONTRIBUTIONS TO THE CODE:
     IVANA ADAMOVIC, CHRISTINE AIKENS, YURI ALEXEEV, POOJA ARORA,
     ANDREY ASADCHEV, ROB BELL, PRADIPTA BANDYOPADHYAY, JONATHAN BENTZ,
     BRETT BODE, KURT BRORSEN, CALEB CARLIN, GALINA CHABAN, WEI CHEN,
     CHEOL HO CHOI, PAUL DAY, ALBERT DEFUSCO, NUWAN DESILVA, TIM DUDLEY,
     DMITRI FEDOROV, ALEX FINDLATER, GRAHAM FLETCHER, MARK FREITAG,
     KURT GLAESEMANN, ANASTASIA GUININA,
     DAN KEMP, GRANT MERRILL, NORIYUKI MINEZAWA, JONATHAN MULLIN,
     TAKESHI NAGATA, SEAN NEDD, HEATHER NETZLOFF, BOSILJKA NJEGIC, RYAN OLSON,
     MIKE PAK, BUU PHAM,
     SPENCER PRUITT, LUKE ROSKOP, JIM SHOEMAKER, LYUDMILA SLIPCHENKO,
     TONY SMITH, SAROM SOK LEANG, JIE SONG, TETSUYA TAKETSUGU, SIMON WEBB,
     PENG XU, SOOHAENG YOO, FEDERICO ZAHARIEV

  ADDITIONAL CODE HAS BEEN PROVIDED BY COLLABORATORS IN OTHER GROUPS:
     IOWA STATE UNIVERSITY:
          JOE IVANIC, AARON WEST, LAIMUTIS BYTAUTAS, KLAUS RUEDENBERG
     UNIVERSITY OF TOKYO: KIMIHIKO HIRAO, TAKAHITO NAKAJIMA,
          TAKAO TSUNEDA, MUNEAKI KAMIYA, SUSUMU YANAGISAWA,
          KIYOSHI YAGI, MAHITO CHIBA, SEIKEN TOKURA, NAOAKI KAWAKAMI
     UNIVERSITY OF AARHUS: FRANK JENSEN
     UNIVERSITY OF IOWA: VISVALDAS KAIRYS, HUI LI
     NATIONAL INST. OF STANDARDS AND TECHNOLOGY: WALT STEVENS, DAVID GARMER
     UNIVERSITY OF PISA: BENEDETTA MENNUCCI, JACOPO TOMASI
     UNIVERSITY OF MEMPHIS: HENRY KURTZ, PRAKASHAN KORAMBATH
     UNIVERSITY OF ALBERTA: TOBY ZENG, MARIUSZ KLOBUKOWSKI
     UNIVERSITY OF NEW ENGLAND: MARK SPACKMAN
     MIE UNIVERSITY: HIROAKI UMEDA
     NAT. INST. OF ADVANCED INDUSTRIAL SCIENCE AND TECHNOLOGY: KAZUO KITAURA
     MICHIGAN STATE UNIVERSITY:
          KAROL KOWALSKI, MARTA WLOCH, JEFFREY GOUR, JESSE LUTZ,
          WEI LI, JUN SHEN, J. EMILIANO DEUSTUA, PIOTR PIECUCH
     UNIVERSITY OF MINNESOTA:
          YINAN SHU
     UNIVERSITY OF SILESIA: MONIKA MUSIAL, STANISLAW KUCHARSKI
     FACULTES UNIVERSITAIRES NOTRE-DAME DE LA PAIX:
          OLIVIER QUINET, BENOIT CHAMPAGNE
     UNIVERSITY OF CALIFORNIA - SANTA BARBARA: BERNARD KIRTMAN
     INSTITUTE FOR MOLECULAR SCIENCE:
          KAZUYA ISHIMURA, MICHIO KATOUDA, AND SHIGERU NAGASE
     UNIVERSITY OF NOTRE DAME: ANNA POMOGAEVA, DAN CHIPMAN
     KYUSHU UNIVERSITY:
          HARUYUKI NAKANO,
          FENG LONG GU, JACEK KORCHOWIEC, MARCIN MAKOWSKI, AND YURIKO AOKI,
          HIROTOSHI MORI AND EISAKU MIYOSHI
     PENNSYLVANIA STATE UNIVERSITY:
          TZVETELIN IORDANOV, CHET SWALINA, JONATHAN SKONE,
          SHARON HAMMES-SCHIFFER
     WASEDA UNIVERSITY:
          MASATO KOBAYASHI, TOMOKO AKAMA, TSUGUKI TOUMA,
          TAKESHI YOSHIKAWA, YASUHIRO IKABATA, JUNJI SEINO,
          YUYA NAKAJIMA, HIROMI NAKAI
     NANJING UNIVERSITY: SHUHUA LI
     UNIVERSITY OF NEBRASKA:
          PEIFENG SU, DEJUN SI, NANDUN THELLAMUREGE, YALI WANG, HUI LI
     UNIVERSITY OF ZURICH: ROBERTO PEVERATI, KIM BALDRIDGE
     N. COPERNICUS UNIVERSITY AND JACKSON STATE UNIVERSITY:
          MARIA BARYSZ
     UNIVERSITY OF COPENHAGEN: Jimmy Kromann, CASPER STEINMANN
     TOKYO INSTITUTE OF TECHNOLOGY: HIROYA NAKATA
     NAGOYA UNIVERSITY: YOSHIO NISHIMOTO, STEPHAN IRLE
     MOSCOW STATE UNIVERSITY: VLADIMIR MIRONOV

 EXECUTION OF GAMESS BEGUN Wed Nov 16 18:19:30 2022

            ECHO OF THE FIRST FEW INPUT CARDS -
 INPUT CARD> $system kdiag=3 mwords=100 memddi=1000 parall=.t. $end                         
 INPUT CARD> $contrl runtyp=energy ispher=1 $end                                            
 INPUT CARD> $contrl icut=9 itol=20 inttyp=rysquad qmttol=1.0d-05 nosym=1 $end              
 INPUT CARD> $scf    npunch=2 conv=1.0d-06 dirscf=.t.      $end                             
 INPUT CARD> $contrl scftyp=mcscf  mult=2 maxit=200 icharg=1 mplevl=2 $end                  
 INPUT CARD> $guess  guess=moread norb=29 purify=.t. $end                                   
 INPUT CARD> $basis  gbasis=ccd $end                                                        
 INPUT CARD> $mcscf  cistep=gmcci fullnr=.t. finci=mos                                      
 INPUT CARD>         acurcy=1.d-6 maxit=100 $end                                            
 INPUT CARD> $trans  dirtrf=.t. $end                                                        
 INPUT CARD> $mrmp   mrpt=gmcpt rdvecs=.f. $end                                             
 INPUT CARD> $gmcpt  nmofzc=0 nmodoc=1 nmoact=7 nelact=7 stsym(1)=A                         
 INPUT CARD>         reftyp=ormas nspace=1 mstart(1)=2 mine(1)=7 maxe(1)=7                  
 INPUT CARD>         kstate(1)=1,1,1                                                        
 INPUT CARD>         wstate(1)=1,1,1                                                        
 INPUT CARD>         iwgt=0 thrwgt=-1.0 krot=.f. kszdoe=.f. knospn=.f.                      
 INPUT CARD>         thrde=-1.0 edshft=0.02 $end                                            
 INPUT CARD> $data                                                                          
 INPUT CARD> NH3+ 3 states calculation at NH3 structure.                                    
 INPUT CARD> c1                                                                             
 INPUT CARD>N 7.0 0.012457835999999996 0.04983122400000001 -0.1693805762                    
 INPUT CARD>H 1.0 -0.8728545560000001 0.6752364578000001 0.09997119809999999                
 INPUT CARD>H 1.0 -0.26145201599999995 -0.7838522198000001 0.4657430021                     
 INPUT CARD>H 1.0 0.961201624 -0.583805956 0.20366483010000003                              
 INPUT CARD>$end                                                                            
 INPUT CARD>--- OPTIMIZED RHF      MO-S --- GENERATED AT Mon Nov 14 16:47:08 2022           
 INPUT CARD>E=      -56.3825050291, E(NUC)=   11.8429239490                                 
 INPUT CARD> $VEC                                                                           
 INPUT CARD> 1  1-1.00134066E+00-2.25158504E-03 3.44925845E-03 0.00000000E+00 0.00000000E+00
 INPUT CARD> 1  2-2.13170927E-03 0.00000000E+00 0.00000000E+00 6.57129898E-04-6.87950443E-05
 INPUT CARD> 1  3-6.87950443E-05 1.37590089E-04 0.00000000E+00 0.00000000E+00 0.00000000E+00
 INPUT CARD> 1  4 3.25502815E-04-4.84772356E-04 3.62525460E-04-6.27912517E-04-3.45956485E-04
 INPUT CARD> 1  5 3.25502815E-04-4.84772356E-04 3.62525460E-04 6.27912517E-04-3.45956485E-04
 INPUT CARD> 1  6 3.25502815E-04-4.84772356E-04-7.25050921E-04 0.00000000E+00-3.45956485E-04
 INPUT CARD> 2  1 1.31286642E-02-4.05911371E-01-2.82090992E-01 0.00000000E+00 0.00000000E+00
 INPUT CARD> 2  2-7.71489043E-02 0.00000000E+00 0.00000000E+00 9.73717494E-03 6.62450916E-04
 INPUT CARD> 2  3 6.62450916E-04-1.32490183E-03 0.00000000E+00 0.00000000E+00 0.00000000E+00
 INPUT CARD> 2  4-1.96090317E-01-1.96656153E-02-1.74855877E-02 3.02859263E-02 8.68214399E-03
 INPUT CARD> 2  5-1.96090317E-01-1.96656153E-02-1.74855877E-02-3.02859263E-02 8.68214399E-03
 INPUT CARD> 2  6-1.96090317E-01-1.96656153E-02 3.49711754E-02 0.00000000E+00 8.68214399E-03
 INPUT CARD> 3  1 0.00000000E+00 0.00000000E+00 0.00000000E+00 4.48608762E-01 0.00000000E+00
 INPUT CARD> 3  2 0.00000000E+00 2.18692520E-01 0.00000000E+00 0.00000000E+00 1.30198027E-02
 INPUT CARD> 3  3-1.30198027E-02 0.00000000E+00 0.00000000E+00 2.71832968E-02 0.00000000E+00
 INPUT CARD> 3  4-1.85332726E-01-7.03958951E-02 8.47929477E-03 1.95242443E-02 8.32835058E-03
 INPUT CARD> 3  5-1.85332726E-01-7.03958951E-02 8.47929477E-03-1.95242443E-02 8.32835058E-03
 INPUT CARD> 3  6 3.70665453E-01 1.40791790E-01-2.53376884E-02 0.00000000E+00-1.66567012E-02
 INPUT CARD> 4  1 0.00000000E+00 0.00000000E+00 0.00000000E+00 0.00000000E+00 4.48608762E-01
 INPUT CARD> 4  2 0.00000000E+00 0.00000000E+00 2.18692520E-01 0.00000000E+00 0.00000000E+00
 INPUT CARD> 4  3 0.00000000E+00 0.00000000E+00-1.50339731E-02 0.00000000E+00 2.71832968E-02
 INPUT CARD> 4  4 3.21005698E-01 1.21929267E-01 1.95242443E-02-1.40653607E-02-1.44251263E-02
  100000000 WORDS OF MEMORY AVAILABLE

     BASIS OPTIONS
     -------------
     GBASIS=CCD          IGAUSS=       0      POLAR=NONE    
     NDFUNC=       0     NFFUNC=       0     DIFFSP=       F
     NPFUNC=       0      DIFFS=       F     BASNAM=        


     RUN TITLE
     ---------
  NH3+ 3 states calculation at NH3 structure.                                    

 THE POINT GROUP OF THE MOLECULE IS C1      
 THE ORDER OF THE PRINCIPAL AXIS IS     0

 ATOM      ATOMIC                      COORDINATES (BOHR)
           CHARGE         X                   Y                   Z
 N           7.0     0.0235418964        0.0941673590       -0.3200828767
 H           1.0    -1.6494559380        1.2760118822        0.1889181711
 H           1.0    -0.4940726692       -1.4812659103        0.8801266547
 H           1.0     1.8164076883       -1.1032332868        0.3848707222

          INTERNUCLEAR DISTANCES (ANGS.)
          ------------------------------

                1 N          2 H          3 H          4 H     

   1 N       0.0000000    1.1168975 *  1.0832528 *  1.2003223 *
   2 H       1.1168975 *  0.0000000    1.6237432 *  2.2270389 *
   3 H       1.0832528 *  1.6237432 *  0.0000000    1.2663275 *
   4 H       1.2003223 *  2.2270389 *  1.2663275 *  0.0000000  

  * ... LESS THAN  3.000


     ATOMIC BASIS SET
     ----------------
 THE CONTRACTED PRIMITIVE FUNCTIONS HAVE BEEN UNNORMALIZED
 THE CONTRACTED BASIS FUNCTIONS ARE NOW NORMALIZED TO UNITY

  SHELL TYPE  PRIMITIVE        EXPONENT          CONTRACTION COEFFICIENT(S)

 N         

      1   S       1          9046.0000000    0.000699617413
      1   S       2          1357.0000000    0.005386054630
      1   S       3           309.3000000    0.027391021189
      1   S       4            87.7300000    0.103150591982
      1   S       5            28.5600000    0.278570663317
      1   S       6            10.2100000    0.448294849454
      1   S       7             3.8380000    0.278085928395
      1   S       8             0.7466000    0.015431561233

      2   S       9          9046.0000000   -0.000304990096
      2   S      10          1357.0000000   -0.002408026379
      2   S      11           309.3000000   -0.011944448725
      2   S      12            87.7300000   -0.048925992909
      2   S      13            28.5600000   -0.134472724725
      2   S      14            10.2100000   -0.315112577700
      2   S      15             3.8380000   -0.242857832550
      2   S      16             0.7466000    1.094382206854

      3   S      17             0.2248000    1.000000000000

      4   P      18            13.5500000    0.058905676772
      4   P      19             2.9170000    0.320461106714
      4   P      20             0.7973000    0.753042061792

      5   P      21             0.2185000    1.000000000000

      6   D      22             0.8170000    1.000000000000

 H         

      7   S      23            13.0100000    0.033498726390
      7   S      24             1.9620000    0.234800801174
      7   S      25             0.4446000    0.813682957883

      8   S      26             0.1220000    1.000000000000

      9   P      27             0.7270000    1.000000000000

 H         

     10   S      28            13.0100000    0.033498726390
     10   S      29             1.9620000    0.234800801174
     10   S      30             0.4446000    0.813682957883

     11   S      31             0.1220000    1.000000000000

     12   P      32             0.7270000    1.000000000000

 H         

     13   S      33            13.0100000    0.033498726390
     13   S      34             1.9620000    0.234800801174
     13   S      35             0.4446000    0.813682957883

     14   S      36             0.1220000    1.000000000000

     15   P      37             0.7270000    1.000000000000

 TOTAL NUMBER OF BASIS SET SHELLS             =   15
 NUMBER OF CARTESIAN GAUSSIAN BASIS FUNCTIONS =   30
 NOTE: THIS RUN WILL RESTRICT THE MO VARIATION SPACE TO SPHERICAL HARMONICS.
 THE NUMBER OF ORBITALS KEPT IN THE VARIATIONAL SPACE WILL BE PRINTED LATER.
 NUMBER OF ELECTRONS                          =    9
 CHARGE OF MOLECULE                           =    1
 SPIN MULTIPLICITY                            =    2
 NUMBER OF OCCUPIED ORBITALS (ALPHA)          =    5
 NUMBER OF OCCUPIED ORBITALS (BETA )          =    4
 TOTAL NUMBER OF ATOMS                        =    4
 THE NUCLEAR REPULSION ENERGY IS       10.8035341840

     $CONTRL OPTIONS
     ---------------
 SCFTYP=MCSCF        RUNTYP=ENERGY       EXETYP=RUN     
 MPLEVL=       2     CITYP =NONE         CCTYP =NONE         VBTYP =NONE    
 DFTTYP=NONE         TDDFT =NONE    
 MULT  =       2     ICHARG=       1     NZVAR =       0     COORD =UNIQUE  
 PP    =NONE         RELWFN=NONE         LOCAL =NONE         NUMGRD=       F
 ISPHER=       1     NOSYM =       1     MAXIT =     200     UNITS =ANGS    
 PLTORB=       F     MOLPLT=       F     AIMPAC=       F     FRIEND=        
 NPRINT=       7     IREST =       0     GEOM  =INPUT   
 NORMF =       0     NORMP =       0     ITOL  =      20     ICUT  =       9
 INTTYP=RYSQUAD      GRDTYP=BEST         QMTTOL= 1.0E-05

     $SYSTEM OPTIONS
     ---------------
  REPLICATED MEMORY=   100000000 WORDS (ON EVERY NODE).
 DISTRIBUTED MEMDDI=        1000 MILLION WORDS IN AGGREGATE,
 MEMDDI DISTRIBUTED OVER   1 PROCESSORS IS  1000000000 WORDS/PROCESSOR.
 TOTAL MEMORY REQUESTED ON EACH PROCESSOR=  1100000000 WORDS.
 TIMLIM=      525600.00 MINUTES, OR     365.0 DAYS.
 PARALL= T  BALTYP=  DLB     KDIAG=    3  COREFL= F
 MXSEQ2=     300 MXSEQ3=     150  mem10=         0

          ----------------
          PROPERTIES INPUT
          ----------------

     MOMENTS            FIELD           POTENTIAL          DENSITY
 IEMOM =       1   IEFLD =       0   IEPOT =       0   IEDEN =       0
 WHERE =COMASS     WHERE =NUCLEI     WHERE =NUCLEI     WHERE =NUCLEI  
 OUTPUT=BOTH       OUTPUT=BOTH       OUTPUT=BOTH       OUTPUT=BOTH    
 IEMINT=       0   IEFINT=       0                     IEDINT=       0
                                                       MORB  =       0

     -------------------------------
     INTEGRAL TRANSFORMATION OPTIONS
     -------------------------------
     NWORD  =            0
     CUTOFF = 1.0E-09     MPTRAN =       0
     DIRTRF =       T     AOINTS =DUP     

          ----------------------
          MCSCF INPUT PARAMETERS
          ----------------------
 CONVERGER SELECTION: FOCAS = F  SOSCF = F  FULLNR = T  QUD = F  JACOBI = F
 SECULAR EQUATION METHOD CISTEP = GMCCI   
 --- GENERAL INPUT OPTIONS:
 MAXIT =     100  MICIT =       1  ACURCY= 1.000E-06
 DAMP  =   0.000  CANONC=       T  ENGTOL= 1.000E-10
 EKT   =       F  NPUNCH=       2  NWORD =         0
 REGENERATE CI AFTER CONVERGENCE = NONE    
 DIABATIZATION AFTER CONVERGENCE =        F
 --- INPUT FOR FULLNR CONVERGER:
 METHOD=DM2       FORS  =       F  DROPC =       T
 LINSER=       F  FCORE =       F  NORB  =      30

          ----------------------
          INTEGRAL INPUT OPTIONS
          ----------------------
 NOPK  =       1 NORDER=       0 SCHWRZ=       T

 ------------------------------------------
 MULTIREFERENCE PERTURBATION THEORY CONTROL
 ------------------------------------------
 MRPT=GMCPT    READ CONVERGED MCSCF VECTORS= F


     ------------------------------------------
     THE POINT GROUP IS C1 , NAXIS= 1, ORDER= 1
     ------------------------------------------

 -- VARIATIONAL SPACE WILL BE RESTRICTED TO PURE SPHERICAL HARMONICS ONLY --
 AFTER EXCLUDING CONTAMINANT COMBINATIONS FROM THE CARTESIAN GAUSSIAN BASIS
 SET, THE NUMBER OF SPHERICAL HARMONICS KEPT IN THE VARIATION SPACE IS   29

     DIMENSIONS OF THE SYMMETRY SUBSPACES ARE
 A   =   29

 ..... DONE SETTING UP THE RUN .....
 CPU     0: STEP CPU TIME=     0.03 TOTAL CPU TIME=          0.0 (      0.0 MIN)
 TOTAL WALL CLOCK TIME=          0.1 SECONDS, CPU UTILIZATION IS    60.00%

          ********************
          1 ELECTRON INTEGRALS
          ********************
 TIME TO DO   DIPOLE INTEGRALS=      0.00
 ...... END OF ONE-ELECTRON INTEGRALS ......
 CPU     0: STEP CPU TIME=     0.00 TOTAL CPU TIME=          0.0 (      0.0 MIN)
 TOTAL WALL CLOCK TIME=          0.1 SECONDS, CPU UTILIZATION IS    60.00%

          -------------
          GUESS OPTIONS
          -------------
          GUESS =MOREAD            NORB  =      29          NORDER=       0
          MIX   =       F          PRTMO =       F          PUNMO =       F
          TOLZ  = 1.0E-08          TOLE  = 1.0E-05
          SYMDEN=       F          PURIFY=       T

 INITIAL GUESS ORBITALS GENERATED BY MOREAD   ROUTINE.

 STATISTICS FOR GENERATION OF SYMMETRY ORBITAL -Q- MATRIX
 NUMBER OF CARTESIAN ATOMIC ORBITALS=         30
 NUMBER OF SPHERICAL CONTAMINANTS DROPPED=     1
 NUMBER OF LINEARLY DEPENDENT MOS DROPPED=     0
 TOTAL NUMBER OF MOS IN VARIATION SPACE=      29
 ORBITAL PURIFICATION WILL OCCUR

 SYMMETRIES FOR INITIAL GUESS ORBITALS FOLLOW.   BOTH SET(S).
     5 ORBITALS ARE OCCUPIED (    1 CORE ORBITALS).
     1=A        2=A        3=A        4=A        5=A        6=A        7=A   
     8=A        9=A       10=A       11=A       12=A       13=A       14=A   
    15=A       16=A       17=A       18=A       19=A       20=A       21=A   
    22=A       23=A       24=A       25=A       26=A       27=A       28=A   
    29=A   
 ...... END OF INITIAL ORBITAL SELECTION ......
 CPU     0: STEP CPU TIME=     0.02 TOTAL CPU TIME=          0.0 (      0.0 MIN)
 TOTAL WALL CLOCK TIME=          0.1 SECONDS, CPU UTILIZATION IS    83.33%

                    ----------------------
                    AO INTEGRAL TECHNOLOGY
                    ----------------------
     S,P,L SHELL ROTATED AXIS INTEGRALS, REPROGRAMMED BY
        KAZUYA ISHIMURA (IMS) AND JOSE SIERRA (SYNSTAR).
     S,P,D,L SHELL ROTATED AXIS INTEGRALS PROGRAMMED BY
        KAZUYA ISHIMURA (INSTITUTE FOR MOLECULAR SCIENCE).
     S,P,D,F,G SHELL TO TOTAL QUARTET ANGULAR MOMENTUM SUM 5,
        ERIC PROGRAM BY GRAHAM FLETCHER (ELORET AND NASA ADVANCED
        SUPERCOMPUTING DIVISION, AMES RESEARCH CENTER).
     S,P,D,F,G,L SHELL GENERAL RYS QUADRATURE PROGRAMMED BY
        MICHEL DUPUIS (PACIFIC NORTHWEST NATIONAL LABORATORY).

          --------------------
          2 ELECTRON INTEGRALS
          --------------------

 DIRECT SCF METHOD SKIPS INTEGRAL STORAGE ON DISK.
 DIRECT TRANSFORMATION SKIPS AO INTEGRAL STORAGE ON DISK.
  ...... END OF TWO-ELECTRON INTEGRALS .....
 STEP CPU TIME =     0.02 TOTAL CPU TIME =          0.1 (      0.0 MIN)
 TOTAL WALL CLOCK TIME=          0.1 SECONDS, CPU UTILIZATION IS    87.50%
 DDI: Creating Array [0] - 900 x 36 = 32400 words.
 DDI: Creating Array [1] - 21 x 288 = 6048 words.
 DDI: Creating Array [2] - 36 x 36 = 1296 words.
 DDI: Creating Array [3] - 465 x 36 = 16740 words.

          -----------------
          MCSCF CALCULATION
          -----------------

 ----- NUCLEAR ENERGY ----- =        10.8035341840

     -------------------------------------------------
     GMC-PT/GMC-QDPT or general MCSCF input parameters
     -------------------------------------------------
 # of frozen core orbs. =         0 ->         0
 # of doubly occ. orbs. =         1
 # of active      orbs. =         7
 # of virtual     orbs. =        21
 # of active electrons  =         7
 # of states in CI      =         3
 Highest state in CI    =         3
 kstate =  1 1 1
 avecoe =  0.333 0.333 0.333
 State symmetry           = A           
 Assigned symmetry number = 1

 <<<Act. MO sym.: 1111111

 <<<Division of 1-ext.:  0
 <<<Division of 2-ext.:  0

 *** Reference space

 Reference type: ORMAS (= Occupation restricted multiple active space)
 # of orbitals          =  7
 # of minimum electrons =  7
 # of maximum electrons =  7
 State symmetry    =    1 (input)
 2*Sz              =    1 (input)
 Spin multiplicity =    2 (input)
 Dimension of reference space =      1225  (from      3432 walks)

 Dimension of reference space =      1225  (from      1225 walks)

 <<<Ionized spaces for Ref-CI:
      0:         1225 /   -1-0:         1960 /  0-1-0:         2891

 EVALUATING EXCHANGE INTEGRALS FOR DIRECT INTEGRAL TRANSFORMATION
 SCHWARZ INEQUALITY OVERHEAD:       465 INTEGRALS, T=        0.00

     --------------------------------------------
     PARTIAL TWO ELECTRON INTEGRAL TRANSFORMATION
     --------------------------------------------

 NUMBER OF CORE MOLECULAR ORBITALS     =    1
 NUMBER OF OCCUPIED MOLECULAR ORBITALS =    8
 TOTAL NUMBER OF MOLECULAR ORBITALS    =   29
 TOTAL NUMBER OF ATOMIC ORBITALS       =   30
 THRESHOLD FOR KEEPING TRANSFORMED 2E- INTEGRALS = 1.000E-09

 -------------------------------     ------------------------------
 DISTRIBUTED DATA TRANSFORMATION     PROGRAM WRITTEN BY G. FLETCHER
 -------------------------------     ------------------------------

 THE DISTRIBUTED MEMORY REQUIRED FOR THIS STEP IS MEMDDI=         1 MWORDS
 CREATING DISTRIBUTED STORAGE FOR [VIR OCC|VIR OCC] INTEGRALS
 CREATING DISTRIBUTED STORAGE FOR [VIR OCC|OCC OCC] INTEGRALS
 CREATING DISTRIBUTED STORAGE FOR [OCC OCC|OCC OCC] INTEGRALS
 CREATING DISTRIBUTED STORAGE FOR [VIR VIR|OCC OCC] INTEGRALS
 FOR    1 PROCESSORS, THE REPLICATED MEMORY NEEDED IS       73700 WORDS.
 SCHWARZ INEQUALITY OVERHEAD:       465 INTEGRALS, T=        0.00

      DIRECT 4-INDEX TRANSFORMATION 
      SCHWARZ INEQUALITY TEST SKIPPED          0 INTEGRAL BLOCKS
 ----- FROZEN CORE ENERGY =       -47.5382374168
 ... END OF INTEGRAL TRANSFORMATION ...
 CPU     0: STEP CPU TIME=     0.21 TOTAL CPU TIME=          0.3 (      0.0 MIN)
 TOTAL WALL CLOCK TIME=          0.3 SECONDS, CPU UTILIZATION IS    93.33%

     --------------------------------     -----------------------------
     MCHF NEWTON-RAPHSON OPTIMIZATION     CODE WRITTEN BY MICHEL DUPUIS
     --------------------------------     -----------------------------
     PARALLEL VERSION WRITTEN BY G. FLETCHER (ELORET)
     NASA ADVANCED SUPERCOMPUTING DIVISION, AMES RESEARCH CENTER

 NUMBER OF INDEPENDENT ORBITAL ROTATION PARAMETERS =   175
 ..... DONE SOLVING NEWTON-RAPHSON EQUATIONS .....
 CPU     0: STEP CPU TIME=     0.83 TOTAL CPU TIME=          1.1 (      0.0 MIN)
 TOTAL WALL CLOCK TIME=          1.1 SECONDS, CPU UTILIZATION IS    98.23%
 ..... DONE WITH NTN-RPH ORBITAL ROTATIONS ..... 
 CPU     0: STEP CPU TIME=     0.00 TOTAL CPU TIME=          1.1 (      0.0 MIN)
 TOTAL WALL CLOCK TIME=          1.1 SECONDS, CPU UTILIZATION IS    98.23%
 MAXIMUM MEMORY USED BY NTN-RPH CODE WAS     57645 WORDS.

 ITER     TOTAL ENERGY      DEL(E)  LAGRANGIAN ASYMMETRY   SQCDF  MICIT   DAMP
   1      -55.573480098 -0.573480098  0.102618   12    5 9.212E-02  1   0.0000
   2      -55.642344218 -0.068864121  0.019862   12    5 4.605E-01  1   0.0000
   3      -55.679692944 -0.037348726  0.014655   11    6 2.264E-01  1   0.0160
   4      -55.696980688 -0.017287743  0.005101   11    6 4.370E-02  1   0.0064
   5      -55.699344059 -0.002363372  0.001226   23    5 1.264E-03  1   0.0000
   6      -55.699434651 -0.000090592  0.000546   23    5 1.284E-04  1   0.0000
   7      -55.699446736 -0.000012085  0.000252   23    5 2.925E-05  1   0.0000
   8      -55.699449412 -0.000002676  0.000124   23    5 7.601E-06  1   0.0000
   9      -55.699450075 -0.000000663  0.000063   23    5 2.099E-06  1   0.0000
  10      -55.699450250 -0.000000175  0.000032   23    5 6.047E-07  1   0.0000
  11      -55.699450298 -0.000000048  0.000017   23    5 1.804E-07  1   0.0000
  12      -55.699450312 -0.000000014  0.000009   23    5 5.537E-08  1   0.0000
  13      -55.699450317 -0.000000004  0.000005   23    5 1.746E-08  1   0.0000
  14      -55.699450318 -0.000000001  0.000003   23    5 5.651E-09  1   0.0000
  15      -55.699450318 -0.000000000  0.000001   23    5 1.859E-09  1   0.0000
  16      -55.699450318 -0.000000000  0.000001   23    5 6.204E-10  1   0.0000

          --------------------
          LAGRANGIAN CONVERGED
          --------------------

 FINAL MCSCF ENERGY IS      -55.6994503183 AFTER  16 ITERATIONS

 -MCCI- BASED ON OPTIMIZED ORBITALS
 ----------------------------------

 PLEASE NOTE: IF THE ACTIVE ORBITALS ARE CANONICALIZED BELOW,
 THE FOLLOWING CI EXPANSION COEFFICIENTS AND THE DENSITY DO NOT
 CORRESPOND TO THE PRINTED ORBITALS.  THE PRINTED EXPANSIONS MATCH
 THE ORBITALS USED DURING THE LAST ITERATION.  IF YOU WISH TO SEE
 CI EXPANSIONS BASED ON THE CANONICAL (OR NATURAL) ORBITALS, YOU
 MUST RUN A CI CALCULATION WITH THAT ORBITAL CHOICE READ IN $VEC.

 Averaged energy =     -55.699450318

 State #    1  Energy =     -55.837805350  S =  0.500

      Det      Coef    Occupancy (Ignoring core)
      ---      ----    --------- --------- -----
        1   -0.853402  11110001110000
        2   -0.057420  11101001110000
        3    0.051909  11011001110000
        5    0.076618  01111001110000
        8    0.128290  10110101110000
       16   -0.057837  11100011110000
       17    0.150765  11010011110000
       36    0.335044  11110001101000
       51    0.055976  11100011101000
       52   -0.050604  11010011101000
       71   -0.176565  11110001011000
      211   -0.054247  11110000110100
      386   -0.098537  11110001010010
      393   -0.052199  10110101010010
      701   -0.094790  11110001100001
      717   -0.064944  11010011100001

 State #    2  Energy =     -55.707001356  S =  0.500

      Det      Coef    Occupancy (Ignoring core)
      ---      ----    --------- --------- -----
        1   -0.357282  11110001110000
        8    0.060168  10110101110000
       17    0.052089  11010011110000
       36   -0.631317  11110001101000
       38    0.074688  11011001101000
       40    0.053499  01111001101000
       43    0.079099  10110101101000
       52    0.087545  11010011101000
       71    0.593007  11110001011000
       73   -0.062788  11011001011000
       78   -0.067092  10110101011000
       87   -0.083645  11010011011000
      106   -0.053938  11110000111000
      122    0.051101  11010010111000
      386   -0.051885  11110001010010
      456   -0.054685  11110001001010
      701   -0.099009  11110001100001
      736    0.053109  11110001010001
      806   -0.060008  11110001001001

 State #    3  Energy =     -55.553544250  S =  0.500

      Det      Coef    Occupancy (Ignoring core)
      ---      ----    --------- --------- -----
        1    0.093066  11110001110000
       36    0.609021  11110001101000
       39    0.052422  10111001101000
       43   -0.056619  10110101101000
       52   -0.063731  11010011101000
       71    0.716985  11110001011000
       87   -0.075925  11010011011000
      246   -0.073636  11110001001100
      281    0.053424  11110000101100
      316    0.068344  11110000011100
      456    0.071884  11110001001010
      806   -0.117498  11110001001001
      822   -0.055202  11010011001001

 DENSITY MATRIX OVER ACTIVE MO-S

             1           2           3           4           5

    1    1.9702500
    2   -0.0163308   1.6229761
    3   -0.0344451  -0.0144892   1.6138157
    4   -0.0060765  -0.0094494  -0.0148450   1.6434749
    5    0.1178567   0.0461931   0.1037848   0.0378645   0.0458888
    6   -0.0166498  -0.1519188  -0.0183382  -0.0440139  -0.0126960
    7    0.0147464   0.0452295   0.1920525   0.1070421   0.0221259

             6           7

    6    0.0413740
    7   -0.0155837   0.0622206

 FORMING THE "STANDARD FOCK OPERATOR" IN DIRECT AO INTEGRAL MODE...
 ONLY THE    1 CORE AND   21 VIRTUAL ORBITALS WILL BE CANONICALIZED

          ----------------------
          MCSCF NATURAL ORBITALS
          ----------------------

                      1          2          3          4          5
                  -15.9744     1.9801     1.6532     1.6458     1.6366
                     A          A          A          A          A   
    1  N  1  S    1.001015   0.009628  -0.007702   0.002849   0.003760
    2  N  1  S   -0.002041   0.432766  -0.151973   0.099950   0.086115
    3  N  1  S   -0.006433   0.339164  -0.248092   0.137782   0.133525
    4  N  1  X   -0.000164  -0.029078  -0.025584  -0.233310   0.443196
    5  N  1  Y   -0.000073  -0.058240   0.170254   0.376512   0.302427
    6  N  1  Z    0.001040   0.082545   0.572989  -0.111534   0.007809
    7  N  1  X    0.000019  -0.001126   0.010552  -0.085256   0.248453
    8  N  1  Y    0.000074  -0.010835   0.128034   0.158290   0.182373
    9  N  1  Z   -0.000553   0.015417   0.387856  -0.049755   0.043741
   10  N  1 XX    0.000017   0.000384  -0.009751   0.008520   0.006748
   11  N  1 YY    0.000066   0.000297  -0.012334  -0.003443  -0.006832
   12  N  1 ZZ   -0.000083  -0.000681   0.022085  -0.005076   0.000084
   13  N  1 XY   -0.000165  -0.003855  -0.001996  -0.006334  -0.015760
   14  N  1 XZ   -0.000087  -0.000147  -0.004620  -0.007883   0.018160
   15  N  1 YZ   -0.000140  -0.003868  -0.000505   0.017643   0.013123
   16  H  2  S   -0.001461   0.155806   0.156850   0.322428  -0.048574
   17  H  2  S    0.000565   0.000632   0.040471   0.051480   0.013208
   18  H  2  X   -0.000633   0.022593   0.016450   0.033112   0.003329
   19  H  2  Y    0.000487  -0.020679  -0.008111  -0.016972   0.023286
   20  H  2  Z    0.000237  -0.002421   0.018838  -0.012312   0.000787
   21  H  3  S   -0.001742   0.220055   0.112484  -0.227454  -0.292475
   22  H  3  S    0.000294   0.010084   0.031128  -0.045471  -0.107141
   23  H  3  X   -0.000282   0.011334   0.008013  -0.025314   0.006881
   24  H  3  Y   -0.000791   0.030491   0.020750  -0.005737  -0.018431
   25  H  3  Z    0.000578  -0.019912   0.018080   0.010665   0.022021
   26  H  4  S   -0.001204   0.151998   0.039698  -0.247260   0.245272
   27  H  4  S    0.000350  -0.000543   0.023392  -0.033765   0.095411
   28  H  4  X    0.000530  -0.023750  -0.002814   0.033266  -0.011229
   29  H  4  Y   -0.000324   0.012885   0.004810  -0.006554   0.027750
   30  H  4  Z    0.000270  -0.004686   0.022681   0.002570  -0.006006

                      6          7          8
                    0.0378     0.0253     0.0211
                     A          A          A   
    1  N  1  S   -0.133477  -0.107345  -0.092105
    2  N  1  S   -0.460467  -0.410661  -0.293170
    3  N  1  S    0.007234  -0.219824  -0.029859
    4  N  1  X   -0.405860   0.045567   0.758900
    5  N  1  Y   -0.376082   0.582064  -0.411837
    6  N  1  Z   -0.202220  -0.574969  -0.210043
    7  N  1  X    0.060935  -0.019646   0.061917
    8  N  1  Y    0.065531   0.103970  -0.025771
    9  N  1  Z    0.075289   0.031107   0.068063
   10  N  1 XX    0.029731  -0.020548   0.047539
   11  N  1 YY   -0.022788   0.021278  -0.036954
   12  N  1 ZZ   -0.006943  -0.000730  -0.010585
   13  N  1 XY   -0.080170  -0.011082   0.010374
   14  N  1 XZ    0.005112  -0.003846  -0.050708
   15  N  1 YZ   -0.012761  -0.052310   0.005824
   16  H  2  S    0.416347   0.050628   0.685109
   17  H  2  S    0.089626  -0.024165   0.154774
   18  H  2  X    0.043774   0.009120   0.051354
   19  H  2  Y   -0.008475  -0.012226  -0.048481
   20  H  2  Z   -0.001279   0.008269   0.031703
   21  H  3  S   -0.328464   0.745401   0.136950
   22  H  3  S   -0.162856   0.169243   0.048847
   23  H  3  X    0.016033   0.045579  -0.034401
   24  H  3  Y   -0.005277   0.033932   0.036543
   25  H  3  Z    0.025482  -0.003359  -0.001645
   26  H  4  S    0.610692   0.258117  -0.360509
   27  H  4  S    0.187527   0.017241  -0.124288
   28  H  4  X   -0.039709  -0.039812   0.031735
   29  H  4  Y    0.050950  -0.007431  -0.006838
   30  H  4  Z    0.004786   0.032519  -0.010694

          ------------------------
          MCSCF OPTIMIZED ORBITALS
          ------------------------

                      1          2          3          4          5
                  -15.9744     0.0000     0.0000     0.0000     0.0000
                     A          A          A          A          A   
    1  N  1  S    1.001015  -0.002016  -0.003394  -0.016324  -0.015814
    2  N  1  S   -0.002041   0.395938  -0.003792   0.008524  -0.197497
    3  N  1  S   -0.006433   0.339397   0.050508   0.124757  -0.267694
    4  N  1  X   -0.000164  -0.015579   0.412019   0.065585   0.001357
    5  N  1  Y   -0.000073  -0.021092  -0.003362   0.416009   0.039412
    6  N  1  Z    0.001040   0.050263  -0.010033  -0.017606   0.579736
    7  N  1  X    0.000019   0.015231   0.247490   0.091248   0.033262
    8  N  1  Y    0.000074   0.015931   0.044592   0.254969   0.092381
    9  N  1  Z   -0.000553   0.027097   0.014846   0.060222   0.393412
   10  N  1 XX    0.000017   0.002236   0.001280   0.015933  -0.008202
   11  N  1 YY    0.000066  -0.001159  -0.001508  -0.014186  -0.013813
   12  N  1 ZZ   -0.000083  -0.001077   0.000228  -0.001747   0.022016
   13  N  1 XY   -0.000165  -0.009225  -0.015867  -0.023131  -0.005842
   14  N  1 XZ   -0.000087   0.000104   0.023211   0.001505  -0.002915
   15  N  1 YZ   -0.000140  -0.004950  -0.000944   0.021837  -0.003739
   16  H  2  S   -0.001461   0.196873  -0.258237   0.326262   0.118475
   17  H  2  S    0.000565   0.009303  -0.026558   0.074958   0.036999
   18  H  2  X   -0.000633   0.027284  -0.018891   0.036826   0.012214
   19  H  2  Y    0.000487  -0.021319   0.032416  -0.002933  -0.004981
   20  H  2  Z    0.000237  -0.001876   0.003316  -0.004516   0.020995
   21  H  3  S   -0.001742   0.208873  -0.159942  -0.399744   0.115796
   22  H  3  S    0.000294   0.001432  -0.080288  -0.115561   0.024696
   23  H  3  X   -0.000282   0.013012   0.022160  -0.016601   0.012703
   24  H  3  Y   -0.000791   0.030778  -0.017796  -0.013679   0.020380
   25  H  3  Z    0.000578  -0.016670   0.011934   0.028714   0.017309
   26  H  4  S   -0.001204   0.192980   0.401808  -0.008202   0.122698
   27  H  4  S    0.000350   0.012666   0.115982   0.048457   0.041373
   28  H  4  X    0.000530  -0.026202  -0.032321   0.018839  -0.011094
   29  H  4  Y   -0.000324   0.016483   0.029575   0.016908   0.009670
   30  H  4  Z    0.000270  -0.003277  -0.008034   0.001610   0.020982

                      6          7          8          9         10
                    0.0000     0.0000     0.0000     0.1512     0.2096
                     A          A          A          A          A   
    1  N  1  S    0.185098  -0.019362   0.053181  -0.120936   0.024369
    2  N  1  S    0.688438  -0.045822   0.150009  -0.184860   0.026152
    3  N  1  S    0.196752  -0.038010  -0.132435   1.202961  -0.302359
    4  N  1  X   -0.000381   0.905941   0.007003   0.013299  -0.157807
    5  N  1  Y   -0.077099  -0.134770   0.846326   0.052941   0.091629
    6  N  1  Z    0.634233  -0.093575  -0.114862  -0.185408   0.042479
    7  N  1  X   -0.023066   0.048301  -0.057114  -0.028329   0.660125
    8  N  1  Y   -0.088406  -0.039739   0.073579  -0.240594  -0.507879
    9  N  1  Z   -0.071605   0.036525  -0.022620   0.405282  -0.043681
   10  N  1 XX   -0.014437   0.025543  -0.050900   0.013035  -0.039449
   11  N  1 YY    0.006381  -0.020396   0.041183   0.023643   0.015840
   12  N  1 ZZ    0.008055  -0.005147   0.009717  -0.036677   0.023609
   13  N  1 XY    0.049665   0.046621   0.037667  -0.059846   0.038545
   14  N  1 XZ    0.015363  -0.044685   0.015597  -0.014990   0.063771
   15  N  1 YZ    0.046779   0.008964  -0.025435  -0.075104  -0.054052
   16  H  2  S   -0.451529   0.374262  -0.480208   0.301172  -0.552488
   17  H  2  S   -0.073103   0.088034  -0.127126  -0.584038   1.859224
   18  H  2  X   -0.043560   0.022438  -0.038956  -0.042114   0.099346
   19  H  2  Y    0.027676  -0.035788   0.017604   0.058357  -0.053735
   20  H  2  Z   -0.014539   0.029442  -0.005839  -0.013863  -0.064027
   21  H  3  S   -0.432348   0.304910   0.598592   0.298507   0.150210
   22  H  3  S   -0.057505   0.123922   0.181914  -0.872588  -0.452158
   23  H  3  X   -0.033557  -0.033350   0.032605   0.034762   0.009935
   24  H  3  Y   -0.032440   0.035070   0.009937  -0.100731  -0.010922
   25  H  3  Z   -0.010190  -0.012527  -0.013424   0.073315   0.020869
   26  H  4  S   -0.423759  -0.563608  -0.066882   0.442861   0.278491
   27  H  4  S   -0.078430  -0.188283  -0.049274  -0.909223  -0.895073
   28  H  4  X    0.042857   0.042167  -0.012230   0.017813   0.030206
   29  H  4  Y   -0.018885  -0.028381  -0.031815  -0.059334  -0.042712
   30  H  4  Z   -0.024360  -0.010300   0.023584   0.040286   0.059047

                     11         12         13         14         15
                    0.2505     0.5321     0.6082     0.7241     0.8167
                     A          A          A          A          A   
    1  N  1  S    0.025104  -0.092740   0.012099  -0.120497  -0.296295
    2  N  1  S    0.059517  -0.153696   0.152000  -0.296764  -0.685807
    3  N  1  S   -0.135206   0.398509   0.456904   0.302386   1.038729
    4  N  1  X   -0.050101  -0.355179   0.089976  -0.442794   0.133525
    5  N  1  Y    0.021465  -0.550817   0.247512   0.189761  -0.030976
    6  N  1  Z    0.027314  -0.444961  -0.549656   0.115946   0.234199
    7  N  1  X    0.417689   0.489019  -0.218611   1.548133  -0.431571
    8  N  1  Y    0.152999   0.945692  -1.008573  -0.813446   0.306530
    9  N  1  Z   -0.155594   0.448200   1.087586  -0.091561  -0.294331
   10  N  1 XX    0.054588   0.000063   0.020918   0.003118   0.153895
   11  N  1 YY   -0.037464  -0.021876  -0.048260   0.027705  -0.160971
   12  N  1 ZZ   -0.017123   0.021813   0.027342  -0.030823   0.007076
   13  N  1 XY   -0.065984   0.003169   0.051518   0.009682   0.072320
   14  N  1 XZ    0.046784   0.005722  -0.005380  -0.124764  -0.010499
   15  N  1 YZ    0.053186   0.007466   0.024632   0.039579  -0.059896
   16  H  2  S    0.194838  -0.317787  -0.264271   0.645988  -0.286674
   17  H  2  S   -0.496985  -0.306475   0.425240   0.359740  -0.414938
   18  H  2  X    0.004138  -0.013621  -0.016018   0.155607  -0.229146
   19  H  2  Y   -0.025743   0.016236  -0.118023  -0.106313  -0.228318
   20  H  2  Z   -0.003033   0.040576   0.091090   0.180633   0.029206
   21  H  3  S   -0.641289   0.131245  -0.713413   0.119221   0.164349
   22  H  3  S    2.176505   0.544627  -0.665426   0.017486  -0.110513
   23  H  3  X    0.047565  -0.010725  -0.171103  -0.226755  -0.326367
   24  H  3  Y    0.069759   0.089114  -0.039710  -0.032576   0.175531
   25  H  3  Z   -0.054897  -0.016124   0.100100  -0.029375   0.140185
   26  H  4  S    0.529264  -0.229993  -0.266674  -0.506597   0.351114
   27  H  4  S   -1.735624  -0.360333   0.261521  -0.618819  -0.137777
   28  H  4  X    0.056229   0.030776   0.159777   0.218547   0.248043
   29  H  4  Y    0.002770   0.046220   0.054538  -0.107549   0.294533
   30  H  4  Z   -0.005674   0.072910  -0.000010  -0.212492   0.025316

                     16         17         18         19         20
                    1.0286     1.0467     1.1442     1.3094     1.3607
                     A          A          A          A          A   
    1  N  1  S   -0.483737  -0.394780   0.127662   0.148861  -0.294616
    2  N  1  S   -1.023661  -0.835238   0.272886   0.323855  -0.634025
    3  N  1  S    1.938534   1.689570  -0.546733  -0.473701   1.052418
    4  N  1  X   -0.043177   0.192743   0.230658   0.022474  -0.000416
    5  N  1  Y    0.120904  -0.069897  -0.139132  -0.026717  -0.037362
    6  N  1  Z    0.110992   0.037865  -0.029685   0.038642  -0.065802
    7  N  1  X    0.000228  -0.843784  -0.648538  -0.146589  -0.243065
    8  N  1  Y   -0.628659   0.199452   0.694977  -0.442447  -0.165152
    9  N  1  Z    0.036764   0.457045  -0.316018  -0.187212   0.604218
   10  N  1 XX   -0.159127  -0.074543  -0.091733  -0.123907   0.005972
   11  N  1 YY   -0.073919   0.196025  -0.008725  -0.023420   0.011156
   12  N  1 ZZ    0.233047  -0.121483   0.100458   0.147326  -0.017128
   13  N  1 XY   -0.047502   0.057747  -0.099668  -0.115031  -0.111026
   14  N  1 XZ    0.036674   0.072464  -0.212396   0.038084   0.055425
   15  N  1 YZ    0.072691   0.142086  -0.030536   0.039324   0.035369
   16  H  2  S   -0.097850  -0.594096  -0.351452   0.134775  -0.363937
   17  H  2  S   -0.177563  -0.428332  -0.137423   0.116935  -0.037710
   18  H  2  X    0.004446   0.129013   0.172703   0.480413   0.030120
   19  H  2  Y    0.076845   0.357778  -0.075444   0.609915  -0.019149
   20  H  2  Z    0.246054   0.142038   0.469862  -0.050509  -0.574803
   21  H  3  S   -0.500830  -0.327491   0.198861   0.098534  -0.321576
   22  H  3  S   -0.323461  -0.264038   0.130636  -0.052695  -0.284577
   23  H  3  X    0.281303  -0.166220  -0.040007  -0.144610   0.048145
   24  H  3  Y    0.049647  -0.351877   0.359750   0.121317  -0.018525
   25  H  3  Z    0.342134  -0.385816   0.164344   0.371407   0.357058
   26  H  4  S   -0.444112   0.185068   0.572215   0.056758  -0.297239
   27  H  4  S   -0.175911  -0.012093   0.146715   0.062593   0.137758
   28  H  4  X   -0.107848   0.131481  -0.031429   0.255841  -0.160156
   29  H  4  Y   -0.121890  -0.134123  -0.422224   0.443183  -0.120200
   30  H  4  Z    0.361952  -0.115598  -0.321690   0.018305  -0.679978

                     21         22         23         24         25
                    1.5962     1.7420     1.8110     1.9949     2.0846
                     A          A          A          A          A   
    1  N  1  S   -0.031180  -0.167395  -0.071840  -0.131789   0.008581
    2  N  1  S    0.017081  -0.432979  -0.173571  -0.285134   0.027117
    3  N  1  S    0.721904  -0.289403   0.064000   0.131384   0.054504
    4  N  1  X   -0.017367   0.168731  -0.258945   0.286523  -0.023312
    5  N  1  Y    0.003474   0.183012   0.454325   0.015629  -0.002983
    6  N  1  Z    0.047138  -0.185207  -0.153443  -0.111976   0.011967
    7  N  1  X    0.592706   0.457308  -0.344686  -0.008466   0.169963
    8  N  1  Y   -0.353257  -0.443832   0.166235  -0.114526   0.143775
    9  N  1  Z    0.296751  -0.031952   0.040473   0.130905   0.246566
   10  N  1 XX   -0.087771   0.041479  -0.062745  -0.312342  -0.488323
   11  N  1 YY    0.055924   0.118466   0.053903   0.220269  -0.330081
   12  N  1 ZZ    0.031847  -0.159945   0.008842   0.092073   0.818404
   13  N  1 XY    0.104092  -0.069044   0.029896  -0.097685  -0.537710
   14  N  1 XZ   -0.024652  -0.212062   0.117677  -0.158491  -0.029966
   15  N  1 YZ    0.053640  -0.134184  -0.223027  -0.076458  -0.152941
   16  H  2  S    0.240984   0.205843  -0.093937   0.018162  -0.023320
   17  H  2  S   -0.159567   0.314033  -0.479747   0.058874  -0.023341
   18  H  2  X   -0.417714   0.547476  -0.511469   0.158269  -0.216927
   19  H  2  Y    0.366785  -0.132627   0.494449  -0.333044  -0.103224
   20  H  2  Z   -0.469310  -0.346073   0.309633  -0.219220  -0.175473
   21  H  3  S   -0.244867  -0.178098  -0.099265   0.029284  -0.021296
   22  H  3  S    0.217076   0.101624   0.377963   0.336934  -0.027549
   23  H  3  X   -0.191509  -0.341377   0.151114   0.787635  -0.465466
   24  H  3  Y    0.276951   0.605634   0.545345   0.173491  -0.302595
   25  H  3  Z    0.091087  -0.353537  -0.341385  -0.304695  -0.480843
   26  H  4  S   -0.174894  -0.181577   0.023358  -0.196095  -0.027338
   27  H  4  S   -0.575635   0.016563   0.167644  -0.364215   0.026178
   28  H  4  X    0.467104  -0.367801  -0.215541   0.871911  -0.080215
   29  H  4  Y   -0.655124   0.003435   0.331060   0.254222  -0.034742
   30  H  4  Z    0.241681   0.384042  -0.456068  -0.113964  -0.024535

                     26         27         28         29
                    2.2160     2.4565     2.6318     3.0835
                     A          A          A          A   
    1  N  1  S    0.091289   0.027001  -0.211676   0.136052
    2  N  1  S    0.181319   0.015096  -0.260855   0.177924
    3  N  1  S   -0.280622  -0.643480   2.280467  -1.066335
    4  N  1  X   -0.082473   0.265478  -0.093671   0.019109
    5  N  1  Y   -0.017724  -0.110336  -0.290307  -0.292445
    6  N  1  Z    0.046588  -0.072455   0.294267   0.007134
    7  N  1  X    0.077983   1.122611  -0.106812   0.091209
    8  N  1  Y    0.151396  -0.458557  -0.945831  -0.424732
    9  N  1  Z   -0.246647  -0.230664   0.752410  -0.030746
   10  N  1 XX   -0.648838  -0.020178  -0.011985  -0.870588
   11  N  1 YY    0.934672  -0.032810   0.384730   0.266039
   12  N  1 ZZ   -0.285835   0.052987  -0.372745   0.604549
   13  N  1 XY   -0.296481   0.005987  -0.239345   1.244640
   14  N  1 XZ    0.144203   1.103831  -0.193779  -0.127610
   15  N  1 YZ    0.292890  -0.313822  -1.125796  -0.384669
   16  H  2  S    0.032305   0.878038  -0.364632   0.989012
   17  H  2  S   -0.027474   0.397489  -0.011825   0.298927
   18  H  2  X   -0.402293   0.600433  -0.127663   0.718942
   19  H  2  Y   -0.358487  -0.488974   0.234418  -0.500205
   20  H  2  Z    0.116175   0.137573   0.151812  -0.358756
   21  H  3  S    0.101237   0.286952  -1.383413  -0.638706
   22  H  3  S   -0.039378   0.165127  -0.563285  -0.153444
   23  H  3  X   -0.392659  -0.187881  -0.264954  -0.245029
   24  H  3  Y    0.180290   0.339629  -0.838515  -0.488768
   25  H  3  Z    0.326718  -0.100240   0.637486   0.405084
   26  H  4  S    0.153726  -0.511454  -0.631755   0.640596
   27  H  4  S    0.124940  -0.340835  -0.104769   0.181757
   28  H  4  X   -0.166547   0.392633   0.352051  -0.642037
   29  H  4  Y    0.238884  -0.430570  -0.206973   0.374586
   30  H  4  Z    0.114984   0.019470   0.190249  -0.323642
 .....DONE WITH MCSCF ITERATIONS.....
 CPU     0: STEP CPU TIME=    11.93 TOTAL CPU TIME=         13.0 (      0.2 MIN)
 TOTAL WALL CLOCK TIME=         13.1 SECONDS, CPU UTILIZATION IS    99.85%

     ----------------------------------------------------------------
     PROPERTY VALUES FOR THE MCSCF SELF-CONSISTENT FIELD WAVEFUNCTION
     ----------------------------------------------------------------

          -----------------
          ENERGY COMPONENTS
          -----------------

         WAVEFUNCTION NORMALIZATION =       1.0000000000

                ONE ELECTRON ENERGY =     -93.2837313868
                TWO ELECTRON ENERGY =      26.7807468845
           NUCLEAR REPULSION ENERGY =      10.8035341840
                                      ------------------
                       TOTAL ENERGY =     -55.6994503183

 ELECTRON-ELECTRON POTENTIAL ENERGY =      26.7807468845
  NUCLEUS-ELECTRON POTENTIAL ENERGY =    -148.8764156638
   NUCLEUS-NUCLEUS POTENTIAL ENERGY =      10.8035341840
                                      ------------------
             TOTAL POTENTIAL ENERGY =    -111.2921345953
               TOTAL KINETIC ENERGY =      55.5926842770
                 VIRIAL RATIO (V/T) =       2.0019205052

          ---------------------------------------
          MULLIKEN AND LOWDIN POPULATION ANALYSES
          ---------------------------------------

     ATOMIC MULLIKEN POPULATION IN EACH MOLECULAR ORBITAL

                      1          2          3          4          5

                  2.000000   1.980143   1.653235   1.645787   1.636608

    1             2.000496   1.376981   1.520560   0.903644   1.178846
    2            -0.000147   0.154595   0.075222   0.364541   0.015422
    3            -0.000264   0.298460   0.047552   0.163330   0.233492
    4            -0.000085   0.150107   0.009902   0.214273   0.208848

                      6          7          8

                  0.037833   0.025340   0.021054

    1             0.014990   0.013629   0.011603
    2             0.006182  -0.000037   0.007180
    3             0.002725   0.010171   0.000366
    4             0.013936   0.001577   0.001905
 WARNING! MCSCF POPULATIONS SHOWN ABOVE ARE FOR THE NATURAL ORBITALS.
 IGNORE THE ABOVE DATA FOR MCSCF FUNCTIONS WHICH ARE NOT OF -FORS- TYPE.
 THE FOLLOWING POPULATIONS ARE CORRECT FOR ANY MCSCF WAVEFUNCTION.

               ----- POPULATIONS IN EACH AO -----
                             MULLIKEN      LOWDIN
              1  N  1  S      2.00214     1.90638
              2  N  1  S      0.81729     0.58072
              3  N  1  S      0.73082     0.42789
              4  N  1  X      0.67038     0.60151
              5  N  1  Y      0.69575     0.63238
              6  N  1  Z      0.84991     0.80190
              7  N  1  X      0.35760     0.44584
              8  N  1  Y      0.35037     0.44249
              9  N  1  Z      0.52965     0.57093
             10  N  1 XX      0.00073     0.17696
             11  N  1 YY      0.00182     0.16429
             12  N  1 ZZ      0.00464     0.14642
             13  N  1 XY      0.00379     0.00958
             14  N  1 XZ      0.00586     0.00595
             15  N  1 YZ      0.00000     0.01258
             16  H  2  S      0.52848     0.41657
             17  H  2  S      0.04130     0.15386
             18  H  2  X      0.02528     0.04484
             19  H  2  Y      0.01818     0.03202
             20  H  2  Z      0.00973     0.02476
             21  H  3  S      0.63330     0.48920
             22  H  3  S      0.06164     0.15412
             23  H  3  X      0.01545     0.03613
             24  H  3  Y      0.02463     0.04336
             25  H  3  Z      0.02082     0.04349
             26  H  4  S      0.49233     0.38368
             27  H  4  S      0.05898     0.15640
             28  H  4  X      0.02471     0.04429
             29  H  4  Y      0.01446     0.02833
             30  H  4  Z      0.00999     0.02316

          ----- MULLIKEN ATOMIC OVERLAP POPULATIONS -----
          (OFF-DIAGONAL ELEMENTS NEED TO BE MULTIPLIED BY 2)

             1           2           3           4

    1    6.2338758
    2    0.2825189   0.3506133
    3    0.2615139  -0.0049123   0.5082670
    4    0.2428393  -0.0052612  -0.0090369   0.3719203

          TOTAL MULLIKEN AND LOWDIN ATOMIC POPULATIONS
       ATOM         MULL.POP.    CHARGE          LOW.POP.     CHARGE
    1 N             7.020748   -0.020748         6.925804    0.074196
    2 H             0.622959    0.377041         0.672053    0.327947
    3 H             0.755832    0.244168         0.766291    0.233709
    4 H             0.600462    0.399538         0.635852    0.364148

          MULLIKEN SPHERICAL HARMONIC POPULATIONS
       ATOM           S       P       D      F      G      H      I    TOTAL
    1 N             3.55    3.45    0.02   0.00   0.00   0.00   0.00    7.02
    2 H             0.57    0.05    0.00   0.00   0.00   0.00   0.00    0.62
    3 H             0.69    0.06    0.00   0.00   0.00   0.00   0.00    0.76
    4 H             0.55    0.05    0.00   0.00   0.00   0.00   0.00    0.60

          ---------------------
          ELECTROSTATIC MOMENTS
          ---------------------

 POINT   1           X           Y           Z (BOHR)    CHARGE
                -0.000001   -0.000006   -0.177185        1.00 (A.U.)
         DX          DY          DZ         /D/  (DEBYE)
    -0.247224   -1.045519    2.113862    2.371211
 ...... END OF PROPERTY EVALUATION ......
 CPU     0: STEP CPU TIME=     0.00 TOTAL CPU TIME=         13.0 (      0.2 MIN)
 TOTAL WALL CLOCK TIME=         13.1 SECONDS, CPU UTILIZATION IS    99.85%

     -------------------------------------------------
     GMC-PT/GMC-QDPT or general MCSCF input parameters
     -------------------------------------------------
 # of frozen core orbs. =         0 ->         0
 # of doubly occ. orbs. =         1
 # of active      orbs. =         7
 # of virtual     orbs. =        21
 # of active electrons  =         7
 # of states in CI      =         3
 Highest state in CI    =         3
 kstate =  1 1 1
 avecoe =  0.333 0.333 0.333
 State symmetry           = A           
 Assigned symmetry number = 1

 <<<Act. MO sym.: 1111111

 <<<Division of 1-ext.:  0
 <<<Division of 2-ext.:  0

     ------------------------
     Orbital canonicalization
     ------------------------

 MOs are canonicalized for core, virtual, and invariant-active orbital spaces.
 This is a part of the GMC-QDPT calculation.
 SCHWARZ INEQUALITY OVERHEAD:       465 INTEGRALS, T=        0.00
 DIRECT TRANSFORMATION SKIPS AO INTEGRAL STORAGE ON DISK.

 Averaged energy =     -55.699450318

 State #    1  Energy =     -55.837805350  S =  0.500
 State #    2  Energy =     -55.707001356  S =  0.500
 State #    3  Energy =     -55.553544250  S =  0.500

 Orbital energies for filled orbital space
  -15.974442
 Orbital energies for active orbital space
   -1.477189  -0.952630  -0.807426  -0.706186   0.086853
    0.356186   0.281831
 Orbital energies for external orbital space
    0.151231   0.209552   0.250495   0.532093   0.608169
    0.724061   0.816688   1.028622   1.046705   1.144210
    1.309406   1.360682   1.596212   1.741950   1.810964
    1.994904   2.084645   2.215986   2.456548   2.631801
    3.083462

 Zero values mean non-canonical orbitals.
 ... done with orbital canonicalization ...
 CPU     0: STEP CPU TIME=     0.71 TOTAL CPU TIME=         13.8 (      0.2 MIN)
 TOTAL WALL CLOCK TIME=         13.8 SECONDS, CPU UTILIZATION IS    99.93%

     --------------------------------------------
     PARTIAL TWO ELECTRON INTEGRAL TRANSFORMATION
     --------------------------------------------

 NUMBER OF CORE MOLECULAR ORBITALS     =    0
 NUMBER OF OCCUPIED MOLECULAR ORBITALS =    8
 TOTAL NUMBER OF MOLECULAR ORBITALS    =   29
 TOTAL NUMBER OF ATOMIC ORBITALS       =   30
 THRESHOLD FOR KEEPING TRANSFORMED 2E- INTEGRALS = 1.000E-09
 AO INTEGRALS WILL BE CALCULATED IN DIRECT MODE...
 DIRECT TRANSFORMATION SKIPS AO INTEGRAL STORAGE ON DISK.
 SCHWARZ INEQUALITY OVERHEAD:       465 INTEGRALS, T=        0.00

 PLAN A: REQUIREMENTS FOR FULLY IN-MEMORY TRANSFORMATION:
 # OF WORDS AVAILABLE =            100000000
 # OF WORDS NEEDED    =               221798

 PARALLEL ONLY WORKS WITH THE SEGMENTED ALGORITHM.
 ADJUSTING MEMORY TO USE SEGMENTED ALGORITHM.


 PLAN B: REQUIREMENTS FOR THE SEGMENTED TRANSFORMATION:
       MINIMUM=         124148 WORDS FOR 1 MOLECULAR ORBITAL PER PASS
       MAXIMUM=         221798 WORDS FOR ALL MOLECULAR ORBITALS IN 1 PASS
              (          13950 EXTRA WORDS INCLUDES 1 EXTRA ORBITAL/PASS)
 THIS RUN USES=         221798 WORDS,
 DISTRIBUTING   1 PASSES EACH CONTAINING     8 ORBITALS OVER   1 PROCESSORS.

 CHOOSING SEGMENTED PARTIAL TRANSFORMATION...
 DIRECT TRANSFORMATION SKIPS AO INTEGRAL STORAGE ON DISK.
 PASS #   1 TOOK        0.04 SECONDS.
 TOTAL NUMBER OF TRANSFORMED 2E- INTEGRALS KEPT =        29226
 ... END OF INTEGRAL TRANSFORMATION ...
 CPU     0: STEP CPU TIME=     0.04 TOTAL CPU TIME=         13.8 (      0.2 MIN)
 TOTAL WALL CLOCK TIME=         13.8 SECONDS, CPU UTILIZATION IS    99.86%

     --------     ------------------------------------------
     GMC-QDPT     Program written by H.Nakano (Kyushu Univ.)
     --------     ------------------------------------------

 *** Reference space

 Reference type: ORMAS (= Occupation restricted multiple active space)
 # of orbitals          =  7
 # of minimum electrons =  7
 # of maximum electrons =  7
 State symmetry    =    1 (input)
 2*Sz              =    1 (input)
 Spin multiplicity =    2 (input)
 Dimension of reference space =      1225  (from      3432 walks)

 Dimension of reference space =      1225  (from      1225 walks)

 <<<Ionized spaces for Ref-CI:
      0:         1225 /   -1-0:         1960 /  0-1-0:         2891

 ***                    ***
 *** Reference space CI ***
 ***                    ***

 Converged after   40 iterations

 Reference wavefunctions:

 State #    1  Energy =     -55.837805350  S =  0.500

      Det      Coef    Occupancy (Ignoring core)
      ---      ----    --------- --------- -----
        1   -0.969766  11110001110000
       36   -0.094820  11110001101000
      717   -0.055930  11010011100001

 State #    2  Energy =     -55.707001356  S =  0.500

      Det      Coef    Occupancy (Ignoring core)
      ---      ----    --------- --------- -----
        1   -0.099522  11110001110000
       36    0.972403  11110001101000
      249    0.054001  10111001001100
      463    0.050731  10110101001010

 State #    3  Energy =     -55.553544250  S =  0.500

      Det      Coef    Occupancy (Ignoring core)
      ---      ----    --------- --------- -----
       71   -0.973058  11110001011000
      177    0.050710  11101001010100
      822    0.057961  11010011001001

 Davidson method: CPU/Wall time =           0.50 /           0.51 sec.

 Oscillator strength (invalid if E(1)/=E(GS)):
 -----------------------------------------
   State                        f
 -----------------------------------------
     2     F(REF-CI)=        0.0033112550
     3     F(REF-CI)=        0.0051192835
 -----------------------------------------

 Dipole moment matrix elements, x, y, z, in A.U.

 Dimension of ionized spaces for PT:
 (N-2) space:         1715 /  (N-1) space:         2842 /  N space:         2891
 (N+1) space:         2842 /  (N+2) space:         1715

 <<<Ionized spaces for internal:
         0:         1225 /      -1-0:         1960 /     0-1-0:         2891
  -1-0-1-0:         2842 / 0-1-0-1-0:         3381

 Diagonal elements of averaged one-particle density matrix:
       2       3       4       5       6       7       8
  0.9926  0.9850  0.9836  0.9895  0.0223  0.0125  0.0146
  0.9873  0.6604  0.6566  0.6604  0.0154  0.0089  0.0111

 Orbital energies:
 -------- Doubly-occupied orbitals (highest several orbs.) -------
             1
 -1.597444D+01
 -------- Active orbitals ----------------------------------------
             2            3            4            5            6
 -1.477189D+00-9.526296D-01-8.074263D-01-7.061858D-01 8.685310D-02
             7            8
  3.561863D-01 2.818313D-01
 -------- External orbitals (lowest several orbs.) ---------------
             9           10           11           12           13
  1.512315D-01 2.095517D-01 2.504953D-01 5.320929D-01 6.081688D-01
            14           15           16           17           18
  7.240611D-01 8.166884D-01 1.028622D+00 1.046705D+00 1.144210D+00

 *** Quasi-degeneracy checking

 === Det (|Ci| > 1.0D-01 and dE < 5.0D-03)

 # of small denominators (single excitations)
 State       dEmin  dE < 5.0D-03  dE < 5.0D-04  dE < 5.0D-05  dE < 5.0D-06
 ----- ----------- ------------- ------------- ------------- -------------
     1    5.00D-03             0             0             0             0
     2    5.00D-03             0             0             0             0
     3    5.00D-03             0             0             0             0

 # of small denominators (double excitations)
 State       dEmin  dE < 5.0D-03  dE < 5.0D-04  dE < 5.0D-05  dE < 5.0D-06
 ----- ----------- ------------- ------------- ------------- -------------
     1    5.00D-03             0             0             0             0
     2    5.00D-03             0             0             0             0
     3    5.00D-03             0             0             0             0

 *** Zeroth-Order Setup (Granovsky's zeroth-order vectors)
 Zeroth-order effective Hamiltonian
  (= Sum_i e(i)*<I|a+(i)a(i)|J> ):
                   1            2            3
     1 -7.070087D+00
     2 -1.752066D-02-6.986323D+00
     3  2.222579D-04-7.811226D-03-6.834129D+00

 Zeroth-order vectors:
 State #    1
       MC st            1           2           3
       Coeff    9.803D-01   1.973D-01   5.524D-03
 State #    2
       MC st            2           1           3
       Coeff   -9.790D-01   1.973D-01  -5.159D-02
 State #    3
       MC st            3           2           1
       Coeff    9.987D-01  -5.167D-02   4.769D-03

 *** GMC-QDPT computation

 (Integral reading:  CPU/Wall time =           0.00 /           0.00 sec.)

 One-external:
   0 -ionized terms: CPU/Wall time =           0.03 /           0.03 sec.
 (-1)-ionized terms: CPU/Wall time =           0.08 /           0.09 sec.
 (+1)-ionized terms: CPU/Wall time =           0.03 /           0.02 sec.
 (+1)-ionized terms: CPU/Wall time =           0.00 /           0.01 sec.
 (+2)-ionized terms: CPU/Wall time =           0.01 /           0.00 sec.

 Internal:
 # of macro loops for internal contribution =         1 (input)
 Loop:    1
 Dimension of internal CISD space     =         0  (after screening)
 Space construction: CPU/Wall time =           0.01 /           0.02 sec.
 Internal terms:     CPU/Wall time =           0.00 /           0.00 sec.

 Two-external:
   0 -ionized terms: CPU/Wall time =           0.06 /           0.06 sec.
 (-1)-ionized terms: CPU/Wall time =           1.00 /           1.00 sec.
 (-2)-ionized terms: CPU/Wall time =           0.17 /           0.16 sec.

 Total time:         CPU/Wall time =           1.39 /           1.39 sec.

 ***                  ***
 *** GMC-QDPT Results ***
 ***                  ***

 Diagonal elements of effective Hamiltonian:
 Heff(  1) =   -55.93258640
 Heff(  2) =   -55.81873978
 Heff(  3) =   -55.66486075

 Off-diagonal elements of effective Hamiltonian:
                   1            2
     2 -2.252746D-02
     3  8.405646D-04-7.630591D-03

 ******** GMC-QDPT energies ********
 ----------------------------------------------------------------------------
   State                        1st order                           2nd order
 ----------------------------------------------------------------------------
     1     E(REF-CI)=      -55.8378053497   E(GMC-QDPT2)=      -55.9368833010
     2     E(REF-CI)=      -55.7070013558   E(GMC-QDPT2)=      -55.8148347373
     3     E(REF-CI)=      -55.5535442495   E(GMC-QDPT2)=      -55.6644688925
 ----------------------------------------------------------------------------

 Excitation energies (invalid if E(1)/=E(GS)):
 ----------------------------------------------------------------------------
   State                        1st order                           2nd order
 ----------------------------------------------------------------------------

     TZ Sorted GMC-PT ENERGIES:
         1      -55.9368833010
         2      -55.8148347373
         3      -55.6644688925
     2     E(REF-CI)=        3.5593598 eV   E(GMC-QDPT2)=        3.3211123 eV
     3     E(REF-CI)=        7.7351425 eV   E(GMC-QDPT2)=        7.4127774 eV
 ----------------------------------------------------------------------------

 Main characters of perturbed GMC-QDPT states:

 State #    1  Energy =     -55.936883301  S =  0.500

      Det      Coef    Occupancy (Ignoring core)
      ---      ----    --------- --------- -----
        1   -0.970713  11110001110000
       36   -0.085011  11110001101000
      717   -0.056050  11010011100001

 State #    2  Energy =     -55.814834737  S =  0.500

      Det      Coef    Occupancy (Ignoring core)
      ---      ----    --------- --------- -----
        1   -0.089677  11110001110000
       36    0.973340  11110001101000
      249    0.054022  10111001001100
      463    0.050765  10110101001010

 State #    3  Energy =     -55.664468893  S =  0.500

      Det      Coef    Occupancy (Ignoring core)
      ---      ----    --------- --------- -----
       71   -0.973076  11110001011000
      177    0.050697  11101001010100
      822    0.057936  11010011001001

 <<<Max |V/de| = 2.719D-02  Thresh = 1.000D+00

 Oscillator strength (invalid if E(1)/=E(GS)):
 ----------------------------------------------------------------------------
   State                        1st order                           2nd order
 ----------------------------------------------------------------------------
     2     F(REF-CI)=        0.0033112550     F(GMC-PT2)=        0.0031816739
     3     F(REF-CI)=        0.0051192835     F(GMC-PT2)=        0.0050352176
 ----------------------------------------------------------------------------

 Dipole moment matrix elements, x, y, z, in A.U.
States    1    1       -0.0798363885       -0.3632037784        0.6328524231
States    1    2       -0.0423135981       -0.0021029964       -0.1931541170
States    1    3       -0.1133812997        0.1054920050        0.0611687874
States    2    1       -0.0423135981       -0.0021029964       -0.1931541170
States    2    2       -0.2555571737       -0.3302023869        0.3747034472
States    2    3       -0.1692022320        0.0459867902        0.0019088180
States    3    1       -0.1133812997        0.1054920050        0.0611687874
States    3    2       -0.1692022320        0.0459867902        0.0019088180
States    3    3       -0.0009800949       -0.5854877251        0.3096471362

 Oscillator strength (valid only when positive): 
 ----------------------------------------------------------------------------
  States                        1st order                           2nd order
 ----------------------------------------------------------------------------
  1  1     F(REF-CI)=        0.0000000000     F(GMC-PT2)=        0.0000000000
  1  2     F(REF-CI)=       -0.0033112550     F(GMC-PT2)=       -0.0031816739
  1  3     F(REF-CI)=       -0.0051192835     F(GMC-PT2)=       -0.0050352176
  2  1     F(REF-CI)=        0.0033112550     F(GMC-PT2)=        0.0031816739
  2  2     F(REF-CI)=        0.0000000000     F(GMC-PT2)=        0.0000000000
  2  3     F(REF-CI)=       -0.0032015054     F(GMC-PT2)=       -0.0030822817
  3  1     F(REF-CI)=        0.0051192835     F(GMC-PT2)=        0.0050352176
  3  2     F(REF-CI)=        0.0032015054     F(GMC-PT2)=        0.0030822817
  3  3     F(REF-CI)=        0.0000000000     F(GMC-PT2)=        0.0000000000
 CPU     0: STEP CPU TIME=     1.96 TOTAL CPU TIME=         15.8 (      0.3 MIN)
 TOTAL WALL CLOCK TIME=         15.8 SECONDS, CPU UTILIZATION IS    99.87%

     !!! DIABATIZATION FOR REF CI STATES !!!

 *******************************************************
          $DMO GROUP FOUND IN THE INPUT.
        DIABATIZATION OF ADIABATIC STATES BEGINS.
     PROGRAMMED BY TAO ZENG (CARLETON UNIVERSITY).
               Email: toby.zeng@carleton.ca
     See T. Zeng, J. Chem. Phys. 2017, 146, 144103
 *******************************************************

 *************************************************************************
     STEP 1: TRANSFORMATION OF ADIABATIC STATES TO THE DMO REPRESENTATION
         See Atchity and Ruedenberg, J. Chem. Phys. 1999, 111, 2910
 *************************************************************************

Read in Diabatic Molecualr Orbitals:

                      1          2          3          4          5

    1  N  1  S    0.008609   0.000000   0.000000  -0.013219   0.279491
    2  N  1  S    0.442914  -0.000000   0.000000  -0.184329   0.867803
    3  N  1  S    0.276913   0.000000  -0.000000  -0.288315   0.144236
    4  N  1  X   -0.000000   0.493155  -0.024636  -0.000000  -0.000000
    5  N  1  Y    0.000000   0.024636   0.493155  -0.000000   0.000000
    6  N  1  Z    0.090197   0.000000   0.000000   0.593421   0.705309
    7  N  1  X   -0.000000   0.210628  -0.010522   0.000000   0.000000
    8  N  1  Y    0.000000   0.010522   0.210628  -0.000000  -0.000000
    9  N  1  Z   -0.004381   0.000000   0.000000   0.381592  -0.106092
   10  N  1 XX   -0.000457   0.010719  -0.000535  -0.012387   0.006153
   11  N  1 YY   -0.000457  -0.010719   0.000535  -0.012387   0.006153
   12  N  1 ZZ    0.000914  -0.000000   0.000000   0.024773  -0.012306
   13  N  1 XY    0.000000  -0.000618  -0.012377  -0.000000   0.000000
   14  N  1 XZ   -0.000000   0.026529  -0.001325  -0.000000   0.000000
   15  N  1 YZ    0.000000   0.001325   0.026529  -0.000000   0.000000
   16  H  2  S    0.194462  -0.176074   0.343485   0.112865  -0.523343
   17  H  2  S    0.003574  -0.023812   0.046452   0.024014  -0.054445
   18  H  2  X    0.018760   0.009101   0.022834   0.009336  -0.039151
   19  H  2  Y   -0.032493   0.022287  -0.020044  -0.016171   0.067811
   20  H  2  Z   -0.009251   0.008464  -0.016511   0.018769  -0.010566
   21  H  3  S    0.194462  -0.209430  -0.324227   0.112865  -0.523343
   22  H  3  S    0.003574  -0.028322  -0.043847   0.024014  -0.054445
   23  H  3  X    0.018760   0.006781  -0.023627   0.009336  -0.039151
   24  H  3  Y    0.032493  -0.024174  -0.017723   0.016171  -0.067811
   25  H  3  Z   -0.009251   0.010067   0.015585   0.018769  -0.010566
   26  H  4  S    0.194462   0.385503  -0.019258   0.112865  -0.523343
   27  H  4  S    0.003574   0.052134  -0.002604   0.024014  -0.054445
   28  H  4  X   -0.037519  -0.032295   0.001613  -0.018672   0.078302
   29  H  4  Y    0.000000   0.001067   0.021353  -0.000000   0.000000
   30  H  4  Z   -0.009251  -0.018530   0.000926   0.018769  -0.010566

                      6          7

    1  N  1  S    0.000000  -0.000000
    2  N  1  S    0.000000  -0.000000
    3  N  1  S   -0.000000   0.000000
    4  N  1  X   -0.930415  -0.002083
    5  N  1  Y   -0.002083   0.930415
    6  N  1  Z   -0.000000   0.000000
    7  N  1  X   -0.046866  -0.000105
    8  N  1  Y   -0.000105   0.046866
    9  N  1  Z   -0.000000   0.000000
   10  N  1 XX    0.001538   0.000003
   11  N  1 YY   -0.001538  -0.000003
   12  N  1 ZZ   -0.000000   0.000000
   13  N  1 XY   -0.000004   0.001776
   14  N  1 XZ    0.039985   0.000090
   15  N  1 YZ    0.000090  -0.039985
   16  H  2  S   -0.362630  -0.631354
   17  H  2  S   -0.065964  -0.114846
   18  H  2  X    0.002763  -0.037520
   19  H  2  Y    0.037435   0.040736
   20  H  2  Z    0.001882   0.003276
   21  H  3  S   -0.365454   0.629724
   22  H  3  S   -0.066477   0.114549
   23  H  3  X    0.002595   0.037532
   24  H  3  Y   -0.037617   0.040567
   25  H  3  Z    0.001896  -0.003268
   26  H  4  S    0.728084   0.001630
   27  H  4  S    0.132441   0.000297
   28  H  4  X   -0.062317  -0.000140
   29  H  4  Y    0.000055  -0.024345
   30  H  4  Z   -0.003778  -0.000008

NUMBER OF SUB ACTIVE SPACES:   1
ROTATE ACTIVE MOS TO DMOS IN EACH SUB-SPACE

SPACE  1:

OVERLAP BETWEEN ORTHONORMAL AND PRE-ORTHONORMAL REF. DMOS

             1           2           3           4           5

    1    0.9659424  -0.0233462  -0.0385788  -0.0110714   0.0093303
    2   -0.0233462   0.9497439  -0.0747389  -0.0196645   0.0123716
    3   -0.0385788  -0.0747389   0.9553667  -0.0488691   0.0725816
    4   -0.0110714  -0.0196645  -0.0488691   0.9935606  -0.0154280
    5    0.0093303   0.0123716   0.0725816  -0.0154280   1.1599604
    6   -0.0030812  -0.0138562  -0.0511507  -0.0072494  -0.0630891
    7    0.0024025   0.0736456   0.0101720   0.0536048   0.0214042

             6           7

    1   -0.0030812   0.0024025
    2   -0.0138562   0.0736456
    3   -0.0511507   0.0101720
    4   -0.0072494   0.0536048
    5   -0.0630891   0.0214042
    6    1.0691471  -0.0143641
    7   -0.0143641   1.0898558
REFERENCE DMOS AFTER ORTHONORMALIZATION:

                      1          2          3          4          5

    1  N  1  S    0.005670  -0.004197  -0.018311  -0.010162   0.242749
    2  N  1  S    0.447569  -0.004775  -0.045514  -0.170634   0.747552
    3  N  1  S    0.281682  -0.002340  -0.012343  -0.286428   0.119152
    4  N  1  X    0.009079   0.508997  -0.027581   0.004226  -0.050094
    5  N  1  Y    0.018677   0.001324   0.512117  -0.020993  -0.046499
    6  N  1  Z    0.094530   0.010100  -0.008589   0.610290   0.618795
    7  N  1  X    0.005616   0.223129   0.005255   0.005225  -0.004627
    8  N  1  Y    0.009799   0.026512   0.224677   0.009432  -0.014430
    9  N  1  Z    0.002183   0.012754   0.027602   0.385315  -0.087951
   10  N  1 XX   -0.000417   0.010948  -0.000640  -0.012182   0.005169
   11  N  1 YY   -0.001028  -0.011891  -0.001556  -0.012790   0.005265
   12  N  1 ZZ    0.001445   0.000943   0.002196   0.024972  -0.010434
   13  N  1 XY   -0.000599  -0.001893  -0.013280  -0.000792   0.000778
   14  N  1 XZ    0.000935   0.028855   0.002892   0.001106   0.001612
   15  N  1 YZ    0.001473   0.006736   0.029078   0.003597  -0.001107
   16  H  2  S    0.221318  -0.099843   0.392357   0.154550  -0.483069
   17  H  2  S    0.006356  -0.012263   0.051116   0.030994  -0.051141
   18  H  2  X    0.021578   0.015980   0.029817   0.012818  -0.035033
   19  H  2  Y   -0.034994   0.017167  -0.025002  -0.018309   0.061264
   20  H  2  Z   -0.009729   0.007787  -0.015527   0.017952  -0.007897
   21  H  3  S    0.182927  -0.288238  -0.343820   0.050658  -0.459159
   22  H  3  S    0.000859  -0.042097  -0.049441   0.013855  -0.048819
   23  H  3  X    0.018973   0.003811  -0.021192   0.006255  -0.033172
   24  H  3  Y    0.032771  -0.028561  -0.016806   0.011909  -0.060067
   25  H  3  Z   -0.008165   0.012840   0.018942   0.020107  -0.009884
   26  H  4  S    0.223594   0.438514   0.098027   0.128864  -0.425416
   27  H  4  S    0.006764   0.059198   0.013289   0.026473  -0.041361
   28  H  4  X   -0.041289  -0.038171  -0.011980  -0.020072   0.065666
   29  H  4  Y    0.001145   0.004842   0.023271   0.002483  -0.001012
   30  H  4  Z   -0.009747  -0.019326   0.000438   0.018224  -0.008847

                      6          7

    1  N  1  S    0.013292  -0.003650
    2  N  1  S    0.041925  -0.005975
    3  N  1  S    0.005434   0.011472
    4  N  1  X   -0.868493  -0.046740
    5  N  1  Y    0.031172   0.851151
    6  N  1  Z    0.040074  -0.042453
    7  N  1  X   -0.041127  -0.015944
    8  N  1  Y    0.010760   0.039053
    9  N  1  Z   -0.001332  -0.018366
   10  N  1 XX    0.001768  -0.000209
   11  N  1 YY   -0.001428   0.001324
   12  N  1 ZZ   -0.000340  -0.001115
   13  N  1 XY   -0.000599   0.001898
   14  N  1 XZ    0.037997  -0.001482
   15  N  1 YZ    0.001021  -0.037560
   16  H  2  S   -0.356305  -0.579514
   17  H  2  S   -0.063630  -0.106398
   18  H  2  X    0.001820  -0.035750
   19  H  2  Y    0.037923   0.036725
   20  H  2  Z    0.000772   0.001929
   21  H  3  S   -0.380144   0.601604
   22  H  3  S   -0.066425   0.107811
   23  H  3  X    0.000069   0.034680
   24  H  3  Y   -0.039199   0.039315
   25  H  3  Z    0.002312  -0.004789
   26  H  4  S    0.667531  -0.018729
   27  H  4  S    0.123000  -0.002736
   28  H  4  X   -0.055713   0.001617
   29  H  4  Y    0.000879  -0.022975
   30  H  4  Z   -0.004183   0.000538

 -------------------------------------------
       MAXIMIZING MORMO OVERLAP TERM        
 -------------------------------------------
   SWEEP    VALUE       PROGRESS
     0     4.01500
     1     6.91502     2.90001926
     2     6.93589     0.02087549
     3     6.93590     0.00000195
     4     6.93590     0.00000000
     5     6.93590     0.00000000
     6     6.93590     0.00000000
 THE ROTATION IS DONE
ACTIVE ORBITALS AFTER MORMO:

                      1          2          3          4          5

    1  N  1  S    0.003045  -0.014667  -0.030392  -0.012941   0.184788
    2  N  1  S    0.414389  -0.042163  -0.074165  -0.193066   0.680842
    3  N  1  S    0.345730   0.060475   0.064241  -0.263596   0.201112
    4  N  1  X   -0.007849   0.468184  -0.058487  -0.016318  -0.034341
    5  N  1  Y   -0.000318  -0.025752   0.468028  -0.049536  -0.013048
    6  N  1  Z    0.078886  -0.006357  -0.042717   0.605540   0.614658
    7  N  1  X    0.022735   0.264926   0.053489   0.026031  -0.017474
    8  N  1  Y    0.026859   0.073655   0.263685   0.068031  -0.062709
    9  N  1  Z    0.034403   0.036082   0.082662   0.386428  -0.077915
   10  N  1 XX    0.002004   0.009533   0.011969  -0.005919  -0.015018
   11  N  1 YY   -0.001564  -0.008709  -0.011646  -0.015641   0.007215
   12  N  1 ZZ   -0.000440  -0.000825  -0.000323   0.021559   0.007803
   13  N  1 XY   -0.008927  -0.020113  -0.027109  -0.005622   0.046053
   14  N  1 XZ    0.001176   0.018697   0.000787  -0.003870   0.018107
   15  N  1 YZ   -0.002797   0.004226   0.015100  -0.001618   0.047808
   16  H  2  S    0.190615  -0.138221   0.347137   0.120938  -0.457329
   17  H  2  S    0.009515   0.002618   0.073398   0.039608  -0.073856
   18  H  2  X    0.027081  -0.008295   0.039029   0.011422  -0.043066
   19  H  2  Y   -0.019906   0.027717  -0.005880  -0.005348   0.030392
   20  H  2  Z   -0.002189   0.005613  -0.004628   0.020927  -0.016822
   21  H  3  S    0.179907  -0.243772  -0.324519   0.078367  -0.480275
   22  H  3  S   -0.005511  -0.102567  -0.096354   0.016658  -0.071317
   23  H  3  X    0.012094   0.015099  -0.011695   0.009707  -0.033206
   24  H  3  Y    0.029166  -0.017958  -0.010001   0.018992  -0.036671
   25  H  3  Z   -0.015272   0.017099   0.029503   0.016352  -0.006842
   26  H  4  S    0.189078   0.371475   0.018485   0.107339  -0.402879
   27  H  4  S    0.015143   0.115873   0.053408   0.038361  -0.065945
   28  H  4  X   -0.024933  -0.025887   0.015228  -0.009135   0.043015
   29  H  4  Y    0.017156   0.032736   0.015040   0.009796  -0.017075
   30  H  4  Z   -0.003575  -0.009491   0.008266   0.018539  -0.023488

                      6          7

    1  N  1  S    0.007751   0.049744
    2  N  1  S    0.006013   0.120649
    3  N  1  S    0.041530  -0.153929
    4  N  1  X   -0.877417  -0.033169
    5  N  1  Y    0.027449   0.832080
    6  N  1  Z    0.070129  -0.075779
    7  N  1  X   -0.033033  -0.037481
    8  N  1  Y    0.020307   0.077102
    9  N  1  Z   -0.039995   0.003446
   10  N  1 XX   -0.020725  -0.053396
   11  N  1 YY    0.017074   0.041788
   12  N  1 ZZ    0.003651   0.011608
   13  N  1 XY   -0.051117   0.031312
   14  N  1 XZ    0.043499   0.020950
   15  N  1 YZ   -0.009806  -0.028174
   16  H  2  S   -0.345498  -0.530463
   17  H  2  S   -0.079257  -0.135073
   18  H  2  X   -0.020487  -0.042365
   19  H  2  Y    0.034850   0.023011
   20  H  2  Z   -0.027829  -0.005914
   21  H  3  S   -0.326041   0.583444
   22  H  3  S   -0.135277   0.169324
   23  H  3  X    0.033557   0.039557
   24  H  3  Y   -0.034793   0.007635
   25  H  3  Z    0.012628  -0.010752
   26  H  4  S    0.605038   0.039005
   27  H  4  S    0.197546  -0.018673
   28  H  4  X   -0.045414  -0.021299
   29  H  4  Y    0.032450  -0.025834
   30  H  4  Z    0.008030   0.025353

Actually Used Diabatic Molecualr Orbitals:

                      1          2          3          4          5

    1  N  1  S    0.003045  -0.014667  -0.030392  -0.012941   0.184788
    2  N  1  S    0.414389  -0.042163  -0.074165  -0.193066   0.680842
    3  N  1  S    0.345730   0.060475   0.064241  -0.263596   0.201112
    4  N  1  X   -0.007849   0.468184  -0.058487  -0.016318  -0.034341
[...]
 STATE #  3'S GMC-PT-LEVEL DIABATIC ENERGY=     -55.759981144       4.017104893

 --- DIABATIC COUPLINGS (OFF DIAGONAL ELEMENTS)---  HATREE            EV
 STATE #  1 &  2'S GMC-PT-LEVEL COUPLING  =       0.012137522       0.330278783
 STATE #  1 &  3'S GMC-PT-LEVEL COUPLING  =       0.057172775       1.555750442
 STATE #  2 &  3'S GMC-PT-LEVEL COUPLING  =      -0.085647034      -2.330574495

 ---------------------------------------
     - ROTATION TO DIABATIC STATES -    
 ---------------------------------------
 ROWS=ADIABATIC, COLUMNS=DIABATIC STATES

             1           2           3

    1    0.8838442  -0.2397014  -0.4016997
    2   -0.4491435  -0.6748393  -0.5855443
    3    0.1307270  -0.6979507   0.7041131

 ---------------------------------------
          - DIABATIC STATES -           
 ---------------------------------------

 State #    1  Energy =     -55.907607027

      Det      Coef        Coefp    Occupancy (Ignoring core)
      ---      ----        ----    --------- --------- -----
        1    0.911669   -0.911669  222+000
        3    0.140296    0.140296  22-++00
      141   -0.135081   -0.135081  22++-00
       18    0.117723   -0.117723  2-2+00+
      736   -0.113367    0.113367  2+2+00-
       16    0.107012   -0.107012  222000+
       17    0.095588    0.095588  22-+00+
        8   -0.088860    0.088860  2-2+0+0
        7   -0.077488   -0.077488  22-+0+0
      351    0.076135    0.076135  22++0-0
      717   -0.073545   -0.073545  220+002
      393   -0.072396   -0.072396  202+020
      701   -0.067328   -0.067328  22++00-
      386    0.056515   -0.056515  2+2+0-0
        4    0.049857   -0.049857  2-2++00
      176   -0.047121    0.047121  2+2+-00
        5    0.044763    0.044763  -22++00
      215   -0.037595   -0.037595  022+200
        6   -0.037062    0.037062  22200+0
      402    0.036469   -0.036469  2+-+0-+
      708    0.036012   -0.036012  2-++0+-
      390    0.034462   -0.034462  -+2++-0
      218    0.034030   -0.034030  +-2+-+0
       76    0.032345    0.032345  2+2-0+0
      705   -0.032037   -0.032037  -2+++0-
      227   -0.031092   -0.031092  +2-+-0+
      738   -0.030703   -0.030703  2+-++0-
      212    0.030700    0.030700  +220200
      179   -0.030482   -0.030482  202+200
      158   -0.029996   -0.029996  2-++-0+
     1051   -0.029044   -0.029044  2+++0--
      211   -0.028391   -0.028391  +22+-00
       51   -0.028260    0.028260  22+-00+
       20   -0.027359   -0.027359  22-0+0+
      122    0.026271    0.026271  +2-200+
      751   -0.025424    0.025424  2+20002
      387   -0.025177    0.025177  2+20+-0
      702    0.025023    0.025023  22+0+0-
      773    0.024949   -0.024949  +2-++0-
       29   -0.024798   -0.024798  2--+0++
      113   -0.024608    0.024608  +-220+0
      424   -0.023725   -0.023725  +-2++-0
        2    0.023221   -0.023221  2220+00
      184   -0.023005   -0.023005  -+2+-+0
        9   -0.021441   -0.021441  -22+0+0
      159    0.021337   -0.021337  -2++-0+

 State #    2  Energy =     -55.748598760

      Det      Coef        Coefp    Occupancy (Ignoring core)
      ---      ----        ----    --------- --------- -----
       71   -0.911538    0.911538  2+22000
      246   -0.155492   -0.155492  2++2-00
       73    0.150236   -0.150236  2+-2+00
      736   -0.125181    0.125181  2+2+00-
       86    0.120451    0.120451  2+2-00+
       88   -0.103942    0.103942  202200+
       77   -0.097190    0.097190  2+-20+0
      456    0.088089    0.088089  2++20-0
      822    0.077143   -0.077143  2+02002
      806   -0.066892   -0.066892  2++200-
       87    0.053947   -0.053947  2+-200+
      813    0.044510   -0.044510  20+20+-
       36    0.043697    0.043697  22+2000
      316    0.040733    0.040733  ++22-00
      106   -0.040723   -0.040723  +222000
       99   -0.038761    0.038761  20-20++
      320    0.038632    0.038632  0+22200
       90    0.035802    0.035802  2+--+0+
      810   -0.034740   -0.034740  -++2+0-
      177    0.033969   -0.033969  2+20200
      332   -0.033562    0.033562  ++-2-0+
      317    0.033462   -0.033462  ++2-200
      911    0.033241    0.033241  2+++-0-
      180   -0.033206    0.033206  -+2+200
      323   -0.033199    0.033199  +022-+0
      386    0.032333   -0.032333  2+2+0-0
      111    0.032120   -0.032120  +22-0+0
      108    0.031400    0.031400  +2-2+00
      263   -0.030919   -0.030919  20+2-0+
       75   -0.030568   -0.030568  -+22+00
      807   -0.030027    0.030027  2++-+0-
       78    0.029755   -0.029755  20220+0
      183   -0.028981    0.028981  202+-+0
      192   -0.028575    0.028575  2+-+-0+
        6    0.027951   -0.027951  22200+0
      753    0.027535    0.027535  202+002
      122    0.027479    0.027479  +2-200+
      526   -0.026182   -0.026182  ++220-0
      878    0.025761    0.025761  ++-2+0-
      264    0.024441   -0.024441  -++2-0+
       74   -0.023842    0.023842  2022+00
      391    0.023677   -0.023677  2+20020
       72   -0.023387   -0.023387  2+2-+00
      821    0.022724   -0.022724  2++-002
      752   -0.022152   -0.022152  2+-+002
       76   -0.022134   -0.022134  2+2-0+0
       93    0.021773   -0.021773  20-2+0+
      281   -0.021426    0.021426  +2+2-00
      742    0.021027    0.021027  2+-+0+-
      112   -0.020489   -0.020489  +2-20+0

 State #    3  Energy =     -55.759981144

      Det      Coef        Coefp    Occupancy (Ignoring core)
      ---      ----        ----    --------- --------- -----
       36   -0.905317   -0.905317  22+2000
       38   -0.142838    0.142838  2202+00
       53   -0.141012   -0.141012  2-+200+
       51    0.129285   -0.129285  22+-00+
      701   -0.122159   -0.122159  22++00-
      806    0.121792    0.121792  2++200-
      106   -0.092574   -0.092574  +222000
       39   -0.088206   -0.088206  2-+2+00
      463    0.074492   -0.074492  20+2020
       42    0.068614   -0.068614  22020+0
       41   -0.059268    0.059268  22+-0+0
       43    0.051642    0.051642  2-+20+0
      351    0.050330    0.050330  22++0-0
       52   -0.047793    0.047793  220200+
      123    0.046814   -0.046814  +-2200+
       73    0.044109   -0.044109  2+-2+00
      246    0.044097    0.044097  2++2-00
       71   -0.043474    0.043474  2+22000
      472   -0.043127   -0.043127  2+020-+
      456   -0.040539   -0.040539  2++20-0
       40   -0.038041    0.038041  -2+2+00
      288   -0.038021   -0.038021  +-+2-+0
       64    0.037606   -0.037606  2-020++
      285    0.037487   -0.037487  02+2200
      460   -0.036956   -0.036956  -++2+-0
       55   -0.036467   -0.036467  220-+0+
      145   -0.034346   -0.034346  -2++200
      109    0.034200   -0.034200  +-22+00
      282    0.034171    0.034171  +2+-200
      297    0.034145   -0.034145  +202-0+
      142    0.033582    0.033582  22+0200
      249    0.033574   -0.033574  20+2200
      718    0.031727   -0.031727  2-++002
       86    0.030671    0.030671  2+2-00+
      157    0.029239   -0.029239  220+-0+
      876   -0.029068   -0.029068  ++2200-
      808    0.028999   -0.028999  2+02+0-
      457   -0.028456    0.028456  2++-+-0
      821   -0.027426    0.027426  2++-002
      148   -0.027223   -0.027223  2-++-+0
      494    0.025578   -0.025578  +-+2+-0
      281    0.024931   -0.024931  +2+2-00
       16   -0.024718    0.024718  222000+
      254    0.023949   -0.023949  -++2-+0
      112   -0.023860   -0.023860  +2-20+0
       44    0.023787   -0.023787  -2+20+0
      113   -0.023258    0.023258  +-220+0
      859    0.020677   -0.020677  02+2002
      121   -0.020675    0.020675  +22-00+
      253    0.020603    0.020603  20+2-+0
      717    0.020439    0.020439  220+002
       46    0.020313   -0.020313  2-+-++0
       56   -0.020205    0.020205  2-+-+0+
       54   -0.020161    0.020161  -2+200+

 ---------------------------------------
      - DIABATIC STATES IN CMO -        
 ---------------------------------------

 State #    1  Energy =     -55.907607027

      Det      Coef        Coefp    Occupancy (Ignoring core)
      ---      ----        ----    --------- --------- -----
        1    0.818672   -0.818672  222+000
       36   -0.507951   -0.507951  22+2000
       71    0.137792   -0.137792  2+22000
      143   -0.053685   -0.053685  220+200
      142    0.049165    0.049165  22+0200
      717   -0.044384   -0.044384  220+002
      393   -0.043129   -0.043129  202+020
      179   -0.039684   -0.039684  202+200
      106   -0.035380   -0.035380  +222000
      157    0.032984   -0.032984  220+-0+
      145   -0.032053   -0.032053  -2++200
        8   -0.030501    0.030501  2-2+0+0
       17    0.029987    0.029987  22-+00+
        2    0.029579   -0.029579  2220+00
      158   -0.029336   -0.029336  2-++-0+
      148   -0.029051   -0.029051  2-++-+0
      463    0.028915   -0.028915  20+2020
      249    0.027946   -0.027946  20+2200
       18   -0.027719    0.027719  2-2+00+
      212    0.026208    0.026208  +220200
      753   -0.024593   -0.024593  202+002
      147   -0.023795    0.023795  220+-+0
      789   -0.023718   -0.023718  022+002
        7   -0.023509   -0.023509  22-+0+0
      387   -0.023184    0.023184  2+20+-0
      122    0.023051    0.023051  +2-200+
      752   -0.023028   -0.023028  2+-+002
      718    0.022862   -0.022862  2-++002
      703   -0.022650   -0.022650  220++0-
      108    0.022517    0.022517  +2-2+00
      218    0.022120   -0.022120  +-2+-+0
      123   -0.021866    0.021866  +-2200+
       38   -0.021565    0.021565  2202+00
      390    0.021364   -0.021364  -+2++-0
      215   -0.020567   -0.020567  022+200
      181    0.020258    0.020258  2+20-+0

 State #    2  Energy =     -55.748598760

      Det      Coef        Coefp    Occupancy (Ignoring core)
      ---      ----        ----    --------- --------- -----
       36   -0.659725   -0.659725  22+2000
       71   -0.656669    0.656669  2+22000
        1   -0.298490    0.298490  222+000
      822    0.058684   -0.058684  2+02002
      109   -0.047199    0.047199  +-22+00
      823    0.040055   -0.040055  20+2002
        4    0.038924   -0.038924  2-2++00
      808    0.038820   -0.038820  2+02+0-
       72   -0.037795   -0.037795  2+2-+00
      177    0.033902   -0.033902  2+20200
      111    0.030216   -0.030216  +22-0+0
      249    0.028246   -0.028246  20+2200
       75    0.027129    0.027129  -+22+00
      248    0.025338   -0.025338  2+02200
      142    0.025070    0.025070  22+0200
       42    0.024991   -0.024991  22020+0
      824    0.024290    0.024290  -++2002
      807   -0.023955    0.023955  2++-+0-
      813    0.023426   -0.023426  20+20+-
      812   -0.022726    0.022726  2+020+-
       39    0.022639    0.022639  2-+2+00
       78   -0.021952    0.021952  20220+0
      262   -0.021919   -0.021919  2+02-0+
      717    0.021451    0.021451  220+002
      317    0.021434   -0.021434  ++2-200
      463    0.021191   -0.021191  20+2020
      282    0.020713    0.020713  +2+-200
      393    0.020641    0.020641  202+020
      180   -0.020636    0.020636  -+2+200
      183   -0.020507    0.020507  202+-+0
      316    0.020070    0.020070  ++22-00

 State #    3  Energy =     -55.759981144

      Det      Coef        Coefp    Occupancy (Ignoring core)
      ---      ----        ----    --------- --------- -----
       71    0.705483   -0.705483  2+22000
       36   -0.512325   -0.512325  22+2000
        1   -0.437107    0.437107  222+000
        2   -0.045105    0.045105  2220+00
      108    0.043465    0.043465  +2-2+00
      248   -0.043019    0.043019  2+02200
      463    0.040095   -0.040095  20+2020
      249    0.038270   -0.038270  20+2200
      177   -0.038189    0.038189  2+20200
      122    0.037985    0.037985  +2-200+
       37    0.031678   -0.031678  22+-+00
       74    0.029592   -0.029592  2022+00
      179    0.029433    0.029433  202+200
      462   -0.029195    0.029195  2+02020
      717    0.029076    0.029076  220+002
      178   -0.028172   -0.028172  2+-+200
        3   -0.026772   -0.026772  22-++00
      247    0.026018   -0.026018  2++-200
      822   -0.025375    0.025375  2+02002
      180    0.025322   -0.025322  -+2+200
       77   -0.025051    0.025051  2+-20+0
      121   -0.024905    0.024905  +22-00+
      457   -0.023918    0.023918  2++-+-0
        4   -0.023065    0.023065  2-2++00
      317   -0.022796    0.022796  ++2-200
       40   -0.022683    0.022683  -2+2+00
      473   -0.022612   -0.022612  20+20-+
      894   -0.022127   -0.022127  0+22002
      472   -0.021907   -0.021907  2+020-+
      458    0.021876   -0.021876  2+02+-0
       54   -0.021781    0.021781  -2+200+
       43    0.021636    0.021636  2-+20+0
      262    0.021306    0.021306  2+02-0+
      107    0.020927   -0.020927  +22-+00
      281   -0.020782    0.020782  +2+2-00
       38   -0.020420    0.020420  2202+00

 ---------------------------------------
    -DIABATIC STATES IN PROTOTYPES-     
 ---------------------------------------

     STATE:    1
 Group Ref#    Coefficients
     1    1    0.932975
     2    2   -0.009000
     3    3   -0.004978

WEIGHT OF LISTED PROTOTYPES:   87.05%

     STATE:    2
 Group Ref#    Coefficients
     1    1   -0.009087
     2    2    0.924112
     3    3    0.005449

WEIGHT OF LISTED PROTOTYPES:   85.41%

     STATE:    3
 Group Ref#    Coefficients
     1    1   -0.005027
     2    2    0.005451
     3    3    0.923916

WEIGHT OF LISTED PROTOTYPES:   85.37%

     DIRECT MAX. DIABATIZATION FINISHED    
 CPU     0: STEP CPU TIME=     0.25 TOTAL CPU TIME=         16.0 (      0.3 MIN)
 TOTAL WALL CLOCK TIME=         16.0 SECONDS, CPU UTILIZATION IS    99.88%

DIABATS FOR SPIN-ORBIT CALCULATION ARE READY

TRANSITION DIPOLES BETWEEN ADIABATS (in A.U.):

STATE PAIR      X         Y         Z
    1    1 -0.079836 -0.363204  0.632852
    2    1 -0.042314 -0.002103 -0.193154
    2    2 -0.255557 -0.330202  0.374703
    3    1 -0.113381  0.105492  0.061169
    3    2 -0.169202  0.045987  0.001909
    3    3 -0.000980 -0.585488  0.309647


TRANSITION DIPOLES BETWEEN DIABATS (in A.U.):

STATE PAIR      X         Y         Z
    1    1 -0.086672 -0.339697  0.742517
    2    1 -0.004378 -0.026712  0.006457
    2    2 -0.332465 -0.378522  0.317621
    3    1 -0.022834  0.030975  0.001591
    3    2 -0.127002  0.130129 -0.015944
    3    3  0.082763 -0.560674  0.257065

TRANSITION DIPOLES BETWEEN DIRECT MAX. DIABATS (in A.U.):

STATE PAIR      X         Y         Z
    1    1 -0.086673 -0.339698  0.742518
    2    1 -0.004392 -0.026710  0.006436
    2    2 -0.332464 -0.378520  0.317621
    3    1 -0.022835  0.030975  0.001578
    3    2 -0.127001  0.130128 -0.015944
    3    3  0.082764 -0.560676  0.257065
 No $TRANST Group Found.
 Quit without doing spin-orbit coupling
 ..... DONE WITH MP2 ENERGY .....
 CPU     0: STEP CPU TIME=     0.00 TOTAL CPU TIME=         16.0 (      0.3 MIN)
 TOTAL WALL CLOCK TIME=         16.0 SECONDS, CPU UTILIZATION IS    99.88%
            100000000  WORDS OF DYNAMIC MEMORY USED
 EXECUTION OF GAMESS TERMINATED NORMALLY Wed Nov 16 18:19:46 2022
 DDI: 715512 bytes (0.7 MB / 0 MWords) used by master data server.

 ----------------------------------------
 CPU timing information for all processes
 ========================================
 0: 15.657 + 0.359 = 16.17
 ----------------------------------------
Note: The following floating-point exceptions are signalling: IEEE_DENORMAL
 ddikick.x: exited gracefully.
unset echo
----- accounting info -----
Files used on the master node io002 were:
-rw-r--r-- 1 bsonghao nooijen   20737 Nov 16 18:19 /scratch/bsonghao/nh3_diabatization_2d_at_mode_7_8_dist-0.8_-0.2.F05
-rw-r--r-- 1 bsonghao nooijen  363520 Nov 16 18:19 /scratch/bsonghao/nh3_diabatization_2d_at_mode_7_8_dist-0.8_-0.2.F09
-rw-r--r-- 1 bsonghao nooijen 1995920 Nov 16 18:19 /scratch/bsonghao/nh3_diabatization_2d_at_mode_7_8_dist-0.8_-0.2.F10
-rw-r--r-- 1 bsonghao nooijen  131264 Nov 16 18:19 /scratch/bsonghao/nh3_diabatization_2d_at_mode_7_8_dist-0.8_-0.2.F13
-rw-r--r-- 1 bsonghao nooijen  180312 Nov 16 18:19 /scratch/bsonghao/nh3_diabatization_2d_at_mode_7_8_dist-0.8_-0.2.F15
-rw-r--r-- 1 bsonghao nooijen       0 Nov 16 18:19 /scratch/bsonghao/nh3_diabatization_2d_at_mode_7_8_dist-0.8_-0.2.F16
-rw-r--r-- 1 bsonghao nooijen    9808 Nov 16 18:19 /scratch/bsonghao/nh3_diabatization_2d_at_mode_7_8_dist-0.8_-0.2.F70
-rw-r--r-- 1 bsonghao nooijen    9808 Nov 16 18:19 /scratch/bsonghao/nh3_diabatization_2d_at_mode_7_8_dist-0.8_-0.2.F71
-rw-r--r-- 1 bsonghao nooijen   19608 Nov 16 18:19 /scratch/bsonghao/nh3_diabatization_2d_at_mode_7_8_dist-0.8_-0.2.F72
-rw-r--r-- 1 bsonghao nooijen   19608 Nov 16 18:19 /scratch/bsonghao/nh3_diabatization_2d_at_mode_7_8_dist-0.8_-0.2.F73
-rw-r--r-- 1 bsonghao nooijen 1920824 Nov 16 18:19 /scratch/bsonghao/nh3_diabatization_2d_at_mode_7_8_dist-0.8_-0.2.F74
-rw-r--r-- 1 bsonghao nooijen       0 Nov 16 18:19 /scratch/bsonghao/nh3_diabatization_2d_at_mode_7_8_dist-0.8_-0.2.F75
-rw-r--r-- 1 bsonghao nooijen   58848 Nov 16 18:19 /scratch/bsonghao/nh3_diabatization_2d_at_mode_7_8_dist-0.8_-0.2.F76
-rw-r--r-- 1 bsonghao nooijen       0 Nov 16 18:19 /scratch/bsonghao/nh3_diabatization_2d_at_mode_7_8_dist-0.8_-0.2.F77
-rw-r--r-- 1 bsonghao nooijen    1864 Nov 16 18:19 /scratch/bsonghao/nh3_diabatization_2d_at_mode_7_8_dist-0.8_-0.2.F78
-rw-r--r-- 1 bsonghao nooijen   39208 Nov 16 18:19 /scratch/bsonghao/nh3_diabatization_2d_at_mode_7_8_dist-0.8_-0.2.F79
-rw-r--r-- 1 bsonghao nooijen     104 Nov 16 18:19 /scratch/bsonghao/nh3_diabatization_2d_at_mode_7_8_dist-0.8_-0.2.F80
-rw-r--r-- 1 bsonghao nooijen   13472 Nov 16 18:19 /scratch/bsonghao/nh3_diabatization_2d_at_mode_7_8_dist-0.8_-0.2.F81
-rw-r--r-- 1 bsonghao nooijen      16 Nov 16 18:19 /scratch/bsonghao/nh3_diabatization_2d_at_mode_7_8_dist-0.8_-0.2.F82
-rw-r--r-- 1 bsonghao nooijen   19216 Nov 16 18:19 /scratch/bsonghao/nh3_diabatization_2d_at_mode_7_8_dist-0.8_-0.2.F83
-rw-r--r-- 1 bsonghao nooijen   29712 Nov 16 18:19 /scratch/bsonghao/nh3_diabatization_2d_at_mode_7_8_dist-0.8_-0.2.F84
-rw-r--r-- 1 bsonghao nooijen  401576 Nov 16 18:19 /scratch/bsonghao/nh3_diabatization_2d_at_mode_7_8_dist-0.8_-0.2.F85
-rw-r--r-- 1 bsonghao nooijen  903672 Nov 16 18:19 /scratch/bsonghao/nh3_diabatization_2d_at_mode_7_8_dist-0.8_-0.2.F86
-rw-r--r-- 1 bsonghao nooijen     656 Nov 16 18:19 /scratch/bsonghao/nh3_diabatization_2d_at_mode_7_8_dist-0.8_-0.2.F87
-rw-r--r-- 1 bsonghao nooijen   43536 Nov 16 18:19 /scratch/bsonghao/nh3_diabatization_2d_at_mode_7_8_dist-0.8_-0.2.F88
-rw-r--r-- 1 bsonghao nooijen     240 Nov 16 18:19 /scratch/bsonghao/nh3_diabatization_2d_at_mode_7_8_dist-0.8_-0.2.F89
-rw-r--r-- 1 bsonghao nooijen       0 Nov 16 18:19 /scratch/bsonghao/nh3_diabatization_2d_at_mode_7_8_dist-0.8_-0.2.F90
-rw-r--r-- 1 bsonghao nooijen   13760 Nov 16 18:19 /scratch/bsonghao/nh3_diabatization_2d_at_mode_7_8_dist-0.8_-0.2.F91
-rw-r--r-- 1 bsonghao nooijen   22776 Nov 16 18:19 /scratch/bsonghao/nh3_diabatization_2d_at_mode_7_8_dist-0.8_-0.2.F92
-rw-r--r-- 1 bsonghao nooijen   23168 Nov 16 18:19 /scratch/bsonghao/nh3_diabatization_2d_at_mode_7_8_dist-0.8_-0.2.F93
-rw-r--r-- 1 bsonghao nooijen   22776 Nov 16 18:19 /scratch/bsonghao/nh3_diabatization_2d_at_mode_7_8_dist-0.8_-0.2.F94
-rw-r--r-- 1 bsonghao nooijen   13760 Nov 16 18:19 /scratch/bsonghao/nh3_diabatization_2d_at_mode_7_8_dist-0.8_-0.2.F95
-rw-r--r-- 1 bsonghao nooijen   29440 Nov 16 18:19 /scratch/bsonghao/nh3_diabatization_2d_at_mode_7_8_dist-0.8_-0.2.F96
-rw-r--r-- 1 bsonghao nooijen    1184 Nov 16 18:19 /scratch/bsonghao/nh3_diabatization_2d_at_mode_7_8_dist-0.8_-0.2.F97
-rw-r--r-- 1 bsonghao nooijen    9808 Nov 16 18:19 /scratch/bsonghao/nh3_diabatization_2d_at_mode_7_8_dist-0.8_-0.2.F98
-rw-r--r-- 1 bsonghao nooijen   30264 Nov 16 18:19 /scratch/bsonghao/nh3_diabatization_2d_at_mode_7_8_dist-0.8_-0.2.F99
ls: No match.
ls: No match.
ls: No match.
Wed 16 Nov 2022 06:19:49 PM EST
0.304u 0.032s 0:19.40 1.7%	0+0k 48+224io 0pf+0w
