----- GAMESS execution script 'rungms' -----
This job is running on host io002
under operating system Linux at Wed 16 Nov 2022 07:54:39 PM EST
Available scratch disk space (Kbyte units) at beginning of the job is
Filesystem       1K-blocks       Used   Available Use% Mounted on
/dev/sdc1      15378471580 3278917120 11318349060  23% /scratch
GAMESS temporary binary files will be written to /scratch/bsonghao
GAMESS supplementary output files will be written to /home/bsonghao/.gamess_ascii_files/267638
Copying input file nh3_diabatization_2d_at_mode_7_8_dist0.4_0.3.inp to your run's scratch directory...
cp nh3_diabatization_2d_at_mode_7_8_dist0.4_0.3.inp /scratch/bsonghao/nh3_diabatization_2d_at_mode_7_8_dist0.4_0.3.F05
unset echo
/home/bjb2chen/gamess/ddikick.x /home/bjb2chen/gamess/gamess.00.x nh3_diabatization_2d_at_mode_7_8_dist0.4_0.3 -ddi 1 1 io002 -scr /scratch/bsonghao

 Distributed Data Interface kickoff program.
 Initiating 1 compute processes on 1 nodes to run the following command:
 /home/bjb2chen/gamess/gamess.00.x nh3_diabatization_2d_at_mode_7_8_dist0.4_0.3 

          ******************************************************
          *         GAMESS VERSION = 02 AUG 2018 (R2)         *
          *             FROM IOWA STATE UNIVERSITY             *
          * M.W.SCHMIDT, K.K.BALDRIDGE, J.A.BOATZ, S.T.ELBERT, *
          *   M.S.GORDON, J.H.JENSEN, S.KOSEKI, N.MATSUNAGA,   *
          *          K.A.NGUYEN, S.J.SU, T.L.WINDUS,           *
          *       TOGETHER WITH M.DUPUIS, J.A.MONTGOMERY       *
          *         J.COMPUT.CHEM.  14, 1347-1363(1993)        *
          **************** 64 BIT LINUX VERSION ****************

  SINCE 1993, STUDENTS AND POSTDOCS WORKING AT IOWA STATE UNIVERSITY
  AND ALSO IN THEIR VARIOUS JOBS AFTER LEAVING ISU HAVE MADE IMPORTANT
  CONTRIBUTIONS TO THE CODE:
     IVANA ADAMOVIC, CHRISTINE AIKENS, YURI ALEXEEV, POOJA ARORA,
     ANDREY ASADCHEV, ROB BELL, PRADIPTA BANDYOPADHYAY, JONATHAN BENTZ,
     BRETT BODE, KURT BRORSEN, CALEB CARLIN, GALINA CHABAN, WEI CHEN,
     CHEOL HO CHOI, PAUL DAY, ALBERT DEFUSCO, NUWAN DESILVA, TIM DUDLEY,
     DMITRI FEDOROV, ALEX FINDLATER, GRAHAM FLETCHER, MARK FREITAG,
     KURT GLAESEMANN, ANASTASIA GUININA,
     DAN KEMP, GRANT MERRILL, NORIYUKI MINEZAWA, JONATHAN MULLIN,
     TAKESHI NAGATA, SEAN NEDD, HEATHER NETZLOFF, BOSILJKA NJEGIC, RYAN OLSON,
     MIKE PAK, BUU PHAM,
     SPENCER PRUITT, LUKE ROSKOP, JIM SHOEMAKER, LYUDMILA SLIPCHENKO,
     TONY SMITH, SAROM SOK LEANG, JIE SONG, TETSUYA TAKETSUGU, SIMON WEBB,
     PENG XU, SOOHAENG YOO, FEDERICO ZAHARIEV

  ADDITIONAL CODE HAS BEEN PROVIDED BY COLLABORATORS IN OTHER GROUPS:
     IOWA STATE UNIVERSITY:
          JOE IVANIC, AARON WEST, LAIMUTIS BYTAUTAS, KLAUS RUEDENBERG
     UNIVERSITY OF TOKYO: KIMIHIKO HIRAO, TAKAHITO NAKAJIMA,
          TAKAO TSUNEDA, MUNEAKI KAMIYA, SUSUMU YANAGISAWA,
          KIYOSHI YAGI, MAHITO CHIBA, SEIKEN TOKURA, NAOAKI KAWAKAMI
     UNIVERSITY OF AARHUS: FRANK JENSEN
     UNIVERSITY OF IOWA: VISVALDAS KAIRYS, HUI LI
     NATIONAL INST. OF STANDARDS AND TECHNOLOGY: WALT STEVENS, DAVID GARMER
     UNIVERSITY OF PISA: BENEDETTA MENNUCCI, JACOPO TOMASI
     UNIVERSITY OF MEMPHIS: HENRY KURTZ, PRAKASHAN KORAMBATH
     UNIVERSITY OF ALBERTA: TOBY ZENG, MARIUSZ KLOBUKOWSKI
     UNIVERSITY OF NEW ENGLAND: MARK SPACKMAN
     MIE UNIVERSITY: HIROAKI UMEDA
     NAT. INST. OF ADVANCED INDUSTRIAL SCIENCE AND TECHNOLOGY: KAZUO KITAURA
     MICHIGAN STATE UNIVERSITY:
          KAROL KOWALSKI, MARTA WLOCH, JEFFREY GOUR, JESSE LUTZ,
          WEI LI, JUN SHEN, J. EMILIANO DEUSTUA, PIOTR PIECUCH
     UNIVERSITY OF MINNESOTA:
          YINAN SHU
     UNIVERSITY OF SILESIA: MONIKA MUSIAL, STANISLAW KUCHARSKI
     FACULTES UNIVERSITAIRES NOTRE-DAME DE LA PAIX:
          OLIVIER QUINET, BENOIT CHAMPAGNE
     UNIVERSITY OF CALIFORNIA - SANTA BARBARA: BERNARD KIRTMAN
     INSTITUTE FOR MOLECULAR SCIENCE:
          KAZUYA ISHIMURA, MICHIO KATOUDA, AND SHIGERU NAGASE
     UNIVERSITY OF NOTRE DAME: ANNA POMOGAEVA, DAN CHIPMAN
     KYUSHU UNIVERSITY:
          HARUYUKI NAKANO,
          FENG LONG GU, JACEK KORCHOWIEC, MARCIN MAKOWSKI, AND YURIKO AOKI,
          HIROTOSHI MORI AND EISAKU MIYOSHI
     PENNSYLVANIA STATE UNIVERSITY:
          TZVETELIN IORDANOV, CHET SWALINA, JONATHAN SKONE,
          SHARON HAMMES-SCHIFFER
     WASEDA UNIVERSITY:
          MASATO KOBAYASHI, TOMOKO AKAMA, TSUGUKI TOUMA,
          TAKESHI YOSHIKAWA, YASUHIRO IKABATA, JUNJI SEINO,
          YUYA NAKAJIMA, HIROMI NAKAI
     NANJING UNIVERSITY: SHUHUA LI
     UNIVERSITY OF NEBRASKA:
          PEIFENG SU, DEJUN SI, NANDUN THELLAMUREGE, YALI WANG, HUI LI
     UNIVERSITY OF ZURICH: ROBERTO PEVERATI, KIM BALDRIDGE
     N. COPERNICUS UNIVERSITY AND JACKSON STATE UNIVERSITY:
          MARIA BARYSZ
     UNIVERSITY OF COPENHAGEN: Jimmy Kromann, CASPER STEINMANN
     TOKYO INSTITUTE OF TECHNOLOGY: HIROYA NAKATA
     NAGOYA UNIVERSITY: YOSHIO NISHIMOTO, STEPHAN IRLE
     MOSCOW STATE UNIVERSITY: VLADIMIR MIRONOV

 EXECUTION OF GAMESS BEGUN Wed Nov 16 19:54:40 2022

            ECHO OF THE FIRST FEW INPUT CARDS -
 INPUT CARD> $system kdiag=3 mwords=100 memddi=1000 parall=.t. $end                         
 INPUT CARD> $contrl runtyp=energy ispher=1 $end                                            
 INPUT CARD> $contrl icut=9 itol=20 inttyp=rysquad qmttol=1.0d-05 nosym=1 $end              
 INPUT CARD> $scf    npunch=2 conv=1.0d-06 dirscf=.t.      $end                             
 INPUT CARD> $contrl scftyp=mcscf  mult=2 maxit=200 icharg=1 mplevl=2 $end                  
 INPUT CARD> $guess  guess=moread norb=29 purify=.t. $end                                   
 INPUT CARD> $basis  gbasis=ccd $end                                                        
 INPUT CARD> $mcscf  cistep=gmcci fullnr=.t. finci=mos                                      
 INPUT CARD>         acurcy=1.d-6 maxit=100 $end                                            
 INPUT CARD> $trans  dirtrf=.t. $end                                                        
 INPUT CARD> $mrmp   mrpt=gmcpt rdvecs=.f. $end                                             
 INPUT CARD> $gmcpt  nmofzc=0 nmodoc=1 nmoact=7 nelact=7 stsym(1)=A                         
 INPUT CARD>         reftyp=ormas nspace=1 mstart(1)=2 mine(1)=7 maxe(1)=7                  
 INPUT CARD>         kstate(1)=1,1,1                                                        
 INPUT CARD>         wstate(1)=1,1,1                                                        
 INPUT CARD>         iwgt=0 thrwgt=-1.0 krot=.f. kszdoe=.f. knospn=.f.                      
 INPUT CARD>         thrde=-1.0 edshft=0.02 $end                                            
 INPUT CARD> $data                                                                          
 INPUT CARD> NH3+ 3 states calculation at NH3 structure.                                    
 INPUT CARD> c1                                                                             
 INPUT CARD>N 7.0 -0.018686754000000003 -0.02491561200000001 -0.1693808462                  
 INPUT CARD>H 1.0 -0.15973634699999995 0.9477614608 0.3083078691000001                      
 INPUT CARD>H 1.0 -0.465437621 -0.8934535778 0.12542196309999998                            
 INPUT CARD>H 1.0 0.884831414 0.2919029820000001 0.3356533331                               
 INPUT CARD>$end                                                                            
 INPUT CARD>--- OPTIMIZED RHF      MO-S --- GENERATED AT Mon Nov 14 16:47:08 2022           
 INPUT CARD>E=      -56.3825050291, E(NUC)=   11.8429239490                                 
 INPUT CARD> $VEC                                                                           
 INPUT CARD> 1  1-1.00134066E+00-2.25158504E-03 3.44925845E-03 0.00000000E+00 0.00000000E+00
 INPUT CARD> 1  2-2.13170927E-03 0.00000000E+00 0.00000000E+00 6.57129898E-04-6.87950443E-05
 INPUT CARD> 1  3-6.87950443E-05 1.37590089E-04 0.00000000E+00 0.00000000E+00 0.00000000E+00
 INPUT CARD> 1  4 3.25502815E-04-4.84772356E-04 3.62525460E-04-6.27912517E-04-3.45956485E-04
 INPUT CARD> 1  5 3.25502815E-04-4.84772356E-04 3.62525460E-04 6.27912517E-04-3.45956485E-04
 INPUT CARD> 1  6 3.25502815E-04-4.84772356E-04-7.25050921E-04 0.00000000E+00-3.45956485E-04
 INPUT CARD> 2  1 1.31286642E-02-4.05911371E-01-2.82090992E-01 0.00000000E+00 0.00000000E+00
 INPUT CARD> 2  2-7.71489043E-02 0.00000000E+00 0.00000000E+00 9.73717494E-03 6.62450916E-04
 INPUT CARD> 2  3 6.62450916E-04-1.32490183E-03 0.00000000E+00 0.00000000E+00 0.00000000E+00
 INPUT CARD> 2  4-1.96090317E-01-1.96656153E-02-1.74855877E-02 3.02859263E-02 8.68214399E-03
 INPUT CARD> 2  5-1.96090317E-01-1.96656153E-02-1.74855877E-02-3.02859263E-02 8.68214399E-03
 INPUT CARD> 2  6-1.96090317E-01-1.96656153E-02 3.49711754E-02 0.00000000E+00 8.68214399E-03
 INPUT CARD> 3  1 0.00000000E+00 0.00000000E+00 0.00000000E+00 4.48608762E-01 0.00000000E+00
 INPUT CARD> 3  2 0.00000000E+00 2.18692520E-01 0.00000000E+00 0.00000000E+00 1.30198027E-02
 INPUT CARD> 3  3-1.30198027E-02 0.00000000E+00 0.00000000E+00 2.71832968E-02 0.00000000E+00
 INPUT CARD> 3  4-1.85332726E-01-7.03958951E-02 8.47929477E-03 1.95242443E-02 8.32835058E-03
 INPUT CARD> 3  5-1.85332726E-01-7.03958951E-02 8.47929477E-03-1.95242443E-02 8.32835058E-03
 INPUT CARD> 3  6 3.70665453E-01 1.40791790E-01-2.53376884E-02 0.00000000E+00-1.66567012E-02
 INPUT CARD> 4  1 0.00000000E+00 0.00000000E+00 0.00000000E+00 0.00000000E+00 4.48608762E-01
 INPUT CARD> 4  2 0.00000000E+00 0.00000000E+00 2.18692520E-01 0.00000000E+00 0.00000000E+00
 INPUT CARD> 4  3 0.00000000E+00 0.00000000E+00-1.50339731E-02 0.00000000E+00 2.71832968E-02
 INPUT CARD> 4  4 3.21005698E-01 1.21929267E-01 1.95242443E-02-1.40653607E-02-1.44251263E-02
  100000000 WORDS OF MEMORY AVAILABLE

     BASIS OPTIONS
     -------------
     GBASIS=CCD          IGAUSS=       0      POLAR=NONE    
     NDFUNC=       0     NFFUNC=       0     DIFFSP=       F
     NPFUNC=       0      DIFFS=       F     BASNAM=        


     RUN TITLE
     ---------
  NH3+ 3 states calculation at NH3 structure.                                    

 THE POINT GROUP OF THE MOLECULE IS C1      
 THE ORDER OF THE PRINCIPAL AXIS IS     0

 ATOM      ATOMIC                      COORDINATES (BOHR)
           CHARGE         X                   Y                   Z
 N           7.0    -0.0353128447       -0.0470836795       -0.3200833869
 H           1.0    -0.3018579261        1.7910094626        0.5826173925
 H           1.0    -0.8795495681       -1.6883824448        0.2370131431
 H           1.0     1.6720889178        0.5516166510        0.6342928264

          INTERNUCLEAR DISTANCES (ANGS.)
          ------------------------------

                1 N          2 H          3 H          4 H     

   1 N       0.0000000    1.0927864 *  1.0202221 *  1.0824872 *
   2 H       1.0927864 *  0.0000000    1.8753595 *  1.2337017 *
   3 H       1.0202221 *  1.8753595 *  0.0000000    1.8090036 *
   4 H       1.0824872 *  1.2337017 *  1.8090036 *  0.0000000  

  * ... LESS THAN  3.000


     ATOMIC BASIS SET
     ----------------
 THE CONTRACTED PRIMITIVE FUNCTIONS HAVE BEEN UNNORMALIZED
 THE CONTRACTED BASIS FUNCTIONS ARE NOW NORMALIZED TO UNITY

  SHELL TYPE  PRIMITIVE        EXPONENT          CONTRACTION COEFFICIENT(S)

 N         

      1   S       1          9046.0000000    0.000699617413
      1   S       2          1357.0000000    0.005386054630
      1   S       3           309.3000000    0.027391021189
      1   S       4            87.7300000    0.103150591982
      1   S       5            28.5600000    0.278570663317
      1   S       6            10.2100000    0.448294849454
      1   S       7             3.8380000    0.278085928395
      1   S       8             0.7466000    0.015431561233

      2   S       9          9046.0000000   -0.000304990096
      2   S      10          1357.0000000   -0.002408026379
      2   S      11           309.3000000   -0.011944448725
      2   S      12            87.7300000   -0.048925992909
      2   S      13            28.5600000   -0.134472724725
      2   S      14            10.2100000   -0.315112577700
      2   S      15             3.8380000   -0.242857832550
      2   S      16             0.7466000    1.094382206854

      3   S      17             0.2248000    1.000000000000

      4   P      18            13.5500000    0.058905676772
      4   P      19             2.9170000    0.320461106714
      4   P      20             0.7973000    0.753042061792

      5   P      21             0.2185000    1.000000000000

      6   D      22             0.8170000    1.000000000000

 H         

      7   S      23            13.0100000    0.033498726390
      7   S      24             1.9620000    0.234800801174
      7   S      25             0.4446000    0.813682957883

      8   S      26             0.1220000    1.000000000000

      9   P      27             0.7270000    1.000000000000

 H         

     10   S      28            13.0100000    0.033498726390
     10   S      29             1.9620000    0.234800801174
     10   S      30             0.4446000    0.813682957883

     11   S      31             0.1220000    1.000000000000

     12   P      32             0.7270000    1.000000000000

 H         

     13   S      33            13.0100000    0.033498726390
     13   S      34             1.9620000    0.234800801174
     13   S      35             0.4446000    0.813682957883

     14   S      36             0.1220000    1.000000000000

     15   P      37             0.7270000    1.000000000000

 TOTAL NUMBER OF BASIS SET SHELLS             =   15
 NUMBER OF CARTESIAN GAUSSIAN BASIS FUNCTIONS =   30
 NOTE: THIS RUN WILL RESTRICT THE MO VARIATION SPACE TO SPHERICAL HARMONICS.
 THE NUMBER OF ORBITALS KEPT IN THE VARIATIONAL SPACE WILL BE PRINTED LATER.
 NUMBER OF ELECTRONS                          =    9
 CHARGE OF MOLECULE                           =    1
 SPIN MULTIPLICITY                            =    2
 NUMBER OF OCCUPIED ORBITALS (ALPHA)          =    5
 NUMBER OF OCCUPIED ORBITALS (BETA )          =    4
 TOTAL NUMBER OF ATOMS                        =    4
 THE NUCLEAR REPULSION ENERGY IS       11.4461426514

     $CONTRL OPTIONS
     ---------------
 SCFTYP=MCSCF        RUNTYP=ENERGY       EXETYP=RUN     
 MPLEVL=       2     CITYP =NONE         CCTYP =NONE         VBTYP =NONE    
 DFTTYP=NONE         TDDFT =NONE    
 MULT  =       2     ICHARG=       1     NZVAR =       0     COORD =UNIQUE  
 PP    =NONE         RELWFN=NONE         LOCAL =NONE         NUMGRD=       F
 ISPHER=       1     NOSYM =       1     MAXIT =     200     UNITS =ANGS    
 PLTORB=       F     MOLPLT=       F     AIMPAC=       F     FRIEND=        
 NPRINT=       7     IREST =       0     GEOM  =INPUT   
 NORMF =       0     NORMP =       0     ITOL  =      20     ICUT  =       9
 INTTYP=RYSQUAD      GRDTYP=BEST         QMTTOL= 1.0E-05

     $SYSTEM OPTIONS
     ---------------
  REPLICATED MEMORY=   100000000 WORDS (ON EVERY NODE).
 DISTRIBUTED MEMDDI=        1000 MILLION WORDS IN AGGREGATE,
 MEMDDI DISTRIBUTED OVER   1 PROCESSORS IS  1000000000 WORDS/PROCESSOR.
 TOTAL MEMORY REQUESTED ON EACH PROCESSOR=  1100000000 WORDS.
 TIMLIM=      525600.00 MINUTES, OR     365.0 DAYS.
 PARALL= T  BALTYP=  DLB     KDIAG=    3  COREFL= F
 MXSEQ2=     300 MXSEQ3=     150  mem10=         0

          ----------------
          PROPERTIES INPUT
          ----------------

     MOMENTS            FIELD           POTENTIAL          DENSITY
 IEMOM =       1   IEFLD =       0   IEPOT =       0   IEDEN =       0
 WHERE =COMASS     WHERE =NUCLEI     WHERE =NUCLEI     WHERE =NUCLEI  
 OUTPUT=BOTH       OUTPUT=BOTH       OUTPUT=BOTH       OUTPUT=BOTH    
 IEMINT=       0   IEFINT=       0                     IEDINT=       0
                                                       MORB  =       0

     -------------------------------
     INTEGRAL TRANSFORMATION OPTIONS
     -------------------------------
     NWORD  =            0
     CUTOFF = 1.0E-09     MPTRAN =       0
     DIRTRF =       T     AOINTS =DUP     

          ----------------------
          MCSCF INPUT PARAMETERS
          ----------------------
 CONVERGER SELECTION: FOCAS = F  SOSCF = F  FULLNR = T  QUD = F  JACOBI = F
 SECULAR EQUATION METHOD CISTEP = GMCCI   
 --- GENERAL INPUT OPTIONS:
 MAXIT =     100  MICIT =       1  ACURCY= 1.000E-06
 DAMP  =   0.000  CANONC=       T  ENGTOL= 1.000E-10
 EKT   =       F  NPUNCH=       2  NWORD =         0
 REGENERATE CI AFTER CONVERGENCE = NONE    
 DIABATIZATION AFTER CONVERGENCE =        F
 --- INPUT FOR FULLNR CONVERGER:
 METHOD=DM2       FORS  =       F  DROPC =       T
 LINSER=       F  FCORE =       F  NORB  =      30

          ----------------------
          INTEGRAL INPUT OPTIONS
          ----------------------
 NOPK  =       1 NORDER=       0 SCHWRZ=       T

 ------------------------------------------
 MULTIREFERENCE PERTURBATION THEORY CONTROL
 ------------------------------------------
 MRPT=GMCPT    READ CONVERGED MCSCF VECTORS= F


     ------------------------------------------
     THE POINT GROUP IS C1 , NAXIS= 1, ORDER= 1
     ------------------------------------------

 -- VARIATIONAL SPACE WILL BE RESTRICTED TO PURE SPHERICAL HARMONICS ONLY --
 AFTER EXCLUDING CONTAMINANT COMBINATIONS FROM THE CARTESIAN GAUSSIAN BASIS
 SET, THE NUMBER OF SPHERICAL HARMONICS KEPT IN THE VARIATION SPACE IS   29

     DIMENSIONS OF THE SYMMETRY SUBSPACES ARE
 A   =   29

 ..... DONE SETTING UP THE RUN .....
 CPU     0: STEP CPU TIME=     0.04 TOTAL CPU TIME=          0.0 (      0.0 MIN)
 TOTAL WALL CLOCK TIME=          0.0 SECONDS, CPU UTILIZATION IS   100.00%

          ********************
          1 ELECTRON INTEGRALS
          ********************
 TIME TO DO   DIPOLE INTEGRALS=      0.00
 ...... END OF ONE-ELECTRON INTEGRALS ......
 CPU     0: STEP CPU TIME=     0.00 TOTAL CPU TIME=          0.0 (      0.0 MIN)
 TOTAL WALL CLOCK TIME=          0.0 SECONDS, CPU UTILIZATION IS    80.00%

          -------------
          GUESS OPTIONS
          -------------
          GUESS =MOREAD            NORB  =      29          NORDER=       0
          MIX   =       F          PRTMO =       F          PUNMO =       F
          TOLZ  = 1.0E-08          TOLE  = 1.0E-05
          SYMDEN=       F          PURIFY=       T

 INITIAL GUESS ORBITALS GENERATED BY MOREAD   ROUTINE.

 STATISTICS FOR GENERATION OF SYMMETRY ORBITAL -Q- MATRIX
 NUMBER OF CARTESIAN ATOMIC ORBITALS=         30
 NUMBER OF SPHERICAL CONTAMINANTS DROPPED=     1
 NUMBER OF LINEARLY DEPENDENT MOS DROPPED=     0
 TOTAL NUMBER OF MOS IN VARIATION SPACE=      29
 ORBITAL PURIFICATION WILL OCCUR

 SYMMETRIES FOR INITIAL GUESS ORBITALS FOLLOW.   BOTH SET(S).
     5 ORBITALS ARE OCCUPIED (    1 CORE ORBITALS).
     1=A        2=A        3=A        4=A        5=A        6=A        7=A   
     8=A        9=A       10=A       11=A       12=A       13=A       14=A   
    15=A       16=A       17=A       18=A       19=A       20=A       21=A   
    22=A       23=A       24=A       25=A       26=A       27=A       28=A   
    29=A   
 ...... END OF INITIAL ORBITAL SELECTION ......
 CPU     0: STEP CPU TIME=     0.01 TOTAL CPU TIME=          0.0 (      0.0 MIN)
 TOTAL WALL CLOCK TIME=          0.0 SECONDS, CPU UTILIZATION IS   100.00%

                    ----------------------
                    AO INTEGRAL TECHNOLOGY
                    ----------------------
     S,P,L SHELL ROTATED AXIS INTEGRALS, REPROGRAMMED BY
        KAZUYA ISHIMURA (IMS) AND JOSE SIERRA (SYNSTAR).
     S,P,D,L SHELL ROTATED AXIS INTEGRALS PROGRAMMED BY
        KAZUYA ISHIMURA (INSTITUTE FOR MOLECULAR SCIENCE).
     S,P,D,F,G SHELL TO TOTAL QUARTET ANGULAR MOMENTUM SUM 5,
        ERIC PROGRAM BY GRAHAM FLETCHER (ELORET AND NASA ADVANCED
        SUPERCOMPUTING DIVISION, AMES RESEARCH CENTER).
     S,P,D,F,G,L SHELL GENERAL RYS QUADRATURE PROGRAMMED BY
        MICHEL DUPUIS (PACIFIC NORTHWEST NATIONAL LABORATORY).

          --------------------
          2 ELECTRON INTEGRALS
          --------------------

 DIRECT SCF METHOD SKIPS INTEGRAL STORAGE ON DISK.
 DIRECT TRANSFORMATION SKIPS AO INTEGRAL STORAGE ON DISK.
  ...... END OF TWO-ELECTRON INTEGRALS .....
 STEP CPU TIME =     0.02 TOTAL CPU TIME =          0.1 (      0.0 MIN)
 TOTAL WALL CLOCK TIME=          0.1 SECONDS, CPU UTILIZATION IS    87.50%
 DDI: Creating Array [0] - 900 x 36 = 32400 words.
 DDI: Creating Array [1] - 21 x 288 = 6048 words.
 DDI: Creating Array [2] - 36 x 36 = 1296 words.
 DDI: Creating Array [3] - 465 x 36 = 16740 words.

          -----------------
          MCSCF CALCULATION
          -----------------

 ----- NUCLEAR ENERGY ----- =        11.4461426514

     -------------------------------------------------
     GMC-PT/GMC-QDPT or general MCSCF input parameters
     -------------------------------------------------
 # of frozen core orbs. =         0 ->         0
 # of doubly occ. orbs. =         1
 # of active      orbs. =         7
 # of virtual     orbs. =        21
 # of active electrons  =         7
 # of states in CI      =         3
 Highest state in CI    =         3
 kstate =  1 1 1
 avecoe =  0.333 0.333 0.333
 State symmetry           = A           
 Assigned symmetry number = 1

 <<<Act. MO sym.: 1111111

 <<<Division of 1-ext.:  0
 <<<Division of 2-ext.:  0

 *** Reference space

 Reference type: ORMAS (= Occupation restricted multiple active space)
 # of orbitals          =  7
 # of minimum electrons =  7
 # of maximum electrons =  7
 State symmetry    =    1 (input)
 2*Sz              =    1 (input)
 Spin multiplicity =    2 (input)
 Dimension of reference space =      1225  (from      3432 walks)

 Dimension of reference space =      1225  (from      1225 walks)

 <<<Ionized spaces for Ref-CI:
      0:         1225 /   -1-0:         1960 /  0-1-0:         2891

 EVALUATING EXCHANGE INTEGRALS FOR DIRECT INTEGRAL TRANSFORMATION
 SCHWARZ INEQUALITY OVERHEAD:       465 INTEGRALS, T=        0.00

     --------------------------------------------
     PARTIAL TWO ELECTRON INTEGRAL TRANSFORMATION
     --------------------------------------------

 NUMBER OF CORE MOLECULAR ORBITALS     =    1
 NUMBER OF OCCUPIED MOLECULAR ORBITALS =    8
 TOTAL NUMBER OF MOLECULAR ORBITALS    =   29
 TOTAL NUMBER OF ATOMIC ORBITALS       =   30
 THRESHOLD FOR KEEPING TRANSFORMED 2E- INTEGRALS = 1.000E-09

 -------------------------------     ------------------------------
 DISTRIBUTED DATA TRANSFORMATION     PROGRAM WRITTEN BY G. FLETCHER
 -------------------------------     ------------------------------

 THE DISTRIBUTED MEMORY REQUIRED FOR THIS STEP IS MEMDDI=         1 MWORDS
 CREATING DISTRIBUTED STORAGE FOR [VIR OCC|VIR OCC] INTEGRALS
 CREATING DISTRIBUTED STORAGE FOR [VIR OCC|OCC OCC] INTEGRALS
 CREATING DISTRIBUTED STORAGE FOR [OCC OCC|OCC OCC] INTEGRALS
 CREATING DISTRIBUTED STORAGE FOR [VIR VIR|OCC OCC] INTEGRALS
 FOR    1 PROCESSORS, THE REPLICATED MEMORY NEEDED IS       73700 WORDS.
 SCHWARZ INEQUALITY OVERHEAD:       465 INTEGRALS, T=        0.00

      DIRECT 4-INDEX TRANSFORMATION 
      SCHWARZ INEQUALITY TEST SKIPPED          0 INTEGRAL BLOCKS
 ----- FROZEN CORE ENERGY =       -47.7156217920
 ... END OF INTEGRAL TRANSFORMATION ...
 CPU     0: STEP CPU TIME=     0.22 TOTAL CPU TIME=          0.3 (      0.0 MIN)
 TOTAL WALL CLOCK TIME=          0.3 SECONDS, CPU UTILIZATION IS    96.67%

     --------------------------------     -----------------------------
     MCHF NEWTON-RAPHSON OPTIMIZATION     CODE WRITTEN BY MICHEL DUPUIS
     --------------------------------     -----------------------------
     PARALLEL VERSION WRITTEN BY G. FLETCHER (ELORET)
     NASA ADVANCED SUPERCOMPUTING DIVISION, AMES RESEARCH CENTER

 NUMBER OF INDEPENDENT ORBITAL ROTATION PARAMETERS =   175
 ..... DONE SOLVING NEWTON-RAPHSON EQUATIONS .....
 CPU     0: STEP CPU TIME=     0.77 TOTAL CPU TIME=          1.1 (      0.0 MIN)
 TOTAL WALL CLOCK TIME=          1.1 SECONDS, CPU UTILIZATION IS    99.07%
 ..... DONE WITH NTN-RPH ORBITAL ROTATIONS ..... 
 CPU     0: STEP CPU TIME=     0.00 TOTAL CPU TIME=          1.1 (      0.0 MIN)
 TOTAL WALL CLOCK TIME=          1.1 SECONDS, CPU UTILIZATION IS    99.07%
 MAXIMUM MEMORY USED BY NTN-RPH CODE WAS     57645 WORDS.

 ITER     TOTAL ENERGY      DEL(E)  LAGRANGIAN ASYMMETRY   SQCDF  MICIT   DAMP
   1      -55.638375849 -0.638375849  0.122719   14    4 1.401E-01  1   0.0000
   2      -55.682376926 -0.044001077  0.022190   12    5 4.502E-01  1   0.0000
   3      -55.716346639 -0.033969713  0.012690   11    6 2.241E-01  1   0.0235
   4      -55.730934499 -0.014587860  0.004310   11    6 4.290E-02  1   0.0047
   5      -55.732824875 -0.001890376  0.000778   12    5 1.329E-03  1   0.0000
   6      -55.732882945 -0.000058071  0.000256   12    5 1.243E-04  1   0.0000
   7      -55.732889275 -0.000006330  0.000116   12    5 2.042E-05  1   0.0000
   8      -55.732890364 -0.000001089  0.000051   12    5 3.858E-06  1   0.0000
   9      -55.732890574 -0.000000211  0.000021   12    5 8.208E-07  1   0.0000
  10      -55.732890620 -0.000000046  0.000009   23    5 2.005E-07  1   0.0000
  11      -55.732890632 -0.000000012  0.000005   23    5 5.644E-08  1   0.0000
  12      -55.732890635 -0.000000003  0.000003   23    5 1.782E-08  1   0.0000
  13      -55.732890636 -0.000000001  0.000002   23    5 6.223E-09  1   0.0000
  14      -55.732890637 -0.000000000  0.000001   23    5 2.247E-09  1   0.0000
  15      -55.732890637 -0.000000000  0.000001   23    5 8.506E-10  1   0.0000

          --------------------
          LAGRANGIAN CONVERGED
          --------------------

 FINAL MCSCF ENERGY IS      -55.7328906367 AFTER  15 ITERATIONS

 -MCCI- BASED ON OPTIMIZED ORBITALS
 ----------------------------------

 PLEASE NOTE: IF THE ACTIVE ORBITALS ARE CANONICALIZED BELOW,
 THE FOLLOWING CI EXPANSION COEFFICIENTS AND THE DENSITY DO NOT
 CORRESPOND TO THE PRINTED ORBITALS.  THE PRINTED EXPANSIONS MATCH
 THE ORBITALS USED DURING THE LAST ITERATION.  IF YOU WISH TO SEE
 CI EXPANSIONS BASED ON THE CANONICAL (OR NATURAL) ORBITALS, YOU
 MUST RUN A CI CALCULATION WITH THAT ORBITAL CHOICE READ IN $VEC.

 Averaged energy =     -55.732890637

 State #    1  Energy =     -55.870115308  S =  0.500

      Det      Coef    Occupancy (Ignoring core)
      ---      ----    --------- --------- -----
        1    0.945752  11110001110000
        5   -0.065286  01111001110000
        8   -0.127065  10110101110000
       17    0.132060  11010011110000
       36    0.058914  11110001101000
       71   -0.087358  11110001011000
      211    0.050299  11110000110100
      386    0.095071  11110001010010
      393    0.066773  10110101010010
      701   -0.106794  11110001100001
      717    0.053805  11010011100001

 State #    2  Energy =     -55.749018898  S =  0.500

      Det      Coef    Occupancy (Ignoring core)
      ---      ----    --------- --------- -----
       36   -0.513276  11110001101000
       71   -0.818054  11110001011000
       75    0.053955  01111001011000
       78    0.067998  10110101011000
       87   -0.085755  11010011011000
      456   -0.058461  11110001001010
      806   -0.085587  11110001001001

 State #    3  Energy =     -55.579537704  S =  0.500

      Det      Coef    Occupancy (Ignoring core)
      ---      ----    --------- --------- -----
        1   -0.094568  11110001110000
       36    0.818129  11110001101000
       43   -0.065686  10110101101000
       52    0.053358  11010011101000
       71   -0.507600  11110001011000
      281    0.062499  11110000101100
      456    0.074872  11110001001010
      463    0.061683  10110101001010

 DENSITY MATRIX OVER ACTIVE MO-S

             1           2           3           4           5

    1    1.9768517
    2    0.0069073   1.6331452
    3    0.0049948   0.0014447   1.6345773
    4    0.0024923   0.0007232   0.0000064   1.6550892
    5    0.1008793  -0.0147630  -0.0107492   0.0184945   0.0280629
    6   -0.0047270  -0.1382212  -0.0187916   0.0168881   0.0011203
    7   -0.0086725  -0.0107704  -0.1495115   0.0125313  -0.0005981

             6           7

    6    0.0371218
    7   -0.0013260   0.0351520

 FORMING THE "STANDARD FOCK OPERATOR" IN DIRECT AO INTEGRAL MODE...
 ONLY THE    1 CORE AND   21 VIRTUAL ORBITALS WILL BE CANONICALIZED

          ----------------------
          MCSCF NATURAL ORBITALS
          ----------------------

                      1          2          3          4          5
                  -15.9867     1.9823     1.6562     1.6506     1.6425
                     A          A          A          A          A   
    1  N  1  S    1.001224   0.008193  -0.010129  -0.003136  -0.000547
    2  N  1  S   -0.001789   0.436159  -0.154822  -0.110678  -0.010332
    3  N  1  S   -0.006276   0.310177  -0.252491  -0.149664  -0.015657
    4  N  1  X   -0.000064   0.017124  -0.110506   0.208077   0.467996
    5  N  1  Y   -0.000149   0.017608  -0.178693   0.374366  -0.261148
    6  N  1  Z    0.001177   0.091910   0.556570   0.195310   0.001108
    7  N  1  X    0.000000   0.000301  -0.058250   0.065806   0.252896
    8  N  1  Y   -0.000015   0.001579  -0.084158   0.116994  -0.139676
    9  N  1  Z   -0.000515   0.012950   0.368957   0.108906  -0.003895
   10  N  1 XX   -0.000106  -0.001865  -0.012486  -0.001325   0.010145
   11  N  1 YY    0.000332   0.001407  -0.009753  -0.007476  -0.010211
   12  N  1 ZZ   -0.000226   0.000459   0.022239   0.008801   0.000066
   13  N  1 XY    0.000361   0.002885   0.001750  -0.003747   0.005349
   14  N  1 XZ    0.000058   0.001386  -0.003358   0.010889   0.021852
   15  N  1 YZ    0.000053   0.002189  -0.006504   0.018515  -0.011996
   16  H  2  S   -0.001717   0.186832   0.033375   0.249862  -0.291353
   17  H  2  S    0.000348   0.002330   0.019413   0.033073  -0.082341
   18  H  2  X   -0.000182   0.005711   0.000128   0.020122   0.008153
   19  H  2  Y    0.000849  -0.032614  -0.010400  -0.020971   0.027130
   20  H  2  Z    0.000461  -0.010402   0.022641  -0.004673   0.014550
   21  H  3  S   -0.002103   0.176087   0.224949  -0.315358   0.002251
   22  H  3  S    0.000660  -0.001064   0.036719  -0.029942  -0.001611
   23  H  3  X   -0.000521   0.016916   0.011315  -0.013674   0.017632
   24  H  3  Y   -0.000987   0.031368   0.022726  -0.027743  -0.007970
   25  H  3  Z    0.000388  -0.003589   0.013604   0.019995   0.000029
   26  H  4  S   -0.001755   0.194430   0.038862   0.243347   0.300098
   27  H  4  S    0.000324   0.004349   0.019005   0.032048   0.084091
   28  H  4  X    0.000838  -0.032115  -0.011278  -0.026134  -0.019915
   29  H  4  Y    0.000244  -0.010564  -0.005162   0.010173  -0.018601
   30  H  4  Z    0.000478  -0.012114   0.022279  -0.004922  -0.016323

                      6          7          8
                    0.0275     0.0228     0.0181
                     A          A          A   
    1  N  1  S   -0.029184   0.190528  -0.144016
    2  N  1  S   -0.096231   0.652218  -0.422184
    3  N  1  S   -0.006494   0.195884   0.029572
    4  N  1  X    0.715370   0.256396   0.373061
    5  N  1  Y   -0.391216   0.273430   0.789248
    6  N  1  Z   -0.052556   0.621947  -0.170145
    7  N  1  X   -0.021538   0.047989   0.039869
    8  N  1  Y    0.008576   0.072181   0.080670
    9  N  1  Z    0.009364  -0.054790   0.059325
   10  N  1 XX   -0.034623   0.022298   0.003035
   11  N  1 YY    0.035142  -0.018695   0.007756
   12  N  1 ZZ   -0.000519  -0.003603  -0.010792
   13  N  1 XY   -0.011120  -0.044522  -0.006468
   14  N  1 XZ   -0.017897  -0.027596  -0.015794
   15  N  1 YZ    0.013398  -0.037408  -0.039048
   16  H  2  S    0.654682  -0.484356  -0.209252
   17  H  2  S    0.176009  -0.058085  -0.056926
   18  H  2  X   -0.004383  -0.038561  -0.024009
   19  H  2  Y   -0.057883   0.051914   0.000616
   20  H  2  Z   -0.013644  -0.019821  -0.005332
   21  H  3  S    0.080781  -0.266684   0.867618
   22  H  3  S    0.010866  -0.009168   0.145277
   23  H  3  X   -0.005358  -0.020480   0.041311
   24  H  3  Y    0.011964  -0.037060   0.078163
   25  H  3  Z   -0.000836  -0.002970   0.016466
   26  H  4  S   -0.581240  -0.604922  -0.124534
   27  H  4  S   -0.169608  -0.089428  -0.031498
   28  H  4  X    0.035710   0.072097   0.003473
   29  H  4  Y    0.027278  -0.006802  -0.028223
   30  H  4  Z    0.018582  -0.013738  -0.005052

          ------------------------
          MCSCF OPTIMIZED ORBITALS
          ------------------------

                      1          2          3          4          5
                  -15.9867     0.0000     0.0000     0.0000     0.0000
                     A          A          A          A          A   
    1  N  1  S    1.001224  -0.003002   0.006741   0.009028  -0.014049
    2  N  1  S   -0.001789   0.400758  -0.007896  -0.007592  -0.190276
    3  N  1  S   -0.006276   0.304482  -0.038857  -0.036656  -0.286514
    4  N  1  X   -0.000064   0.003917   0.446581  -0.065094  -0.021872
    5  N  1  Y   -0.000149   0.002288  -0.010406   0.401831  -0.030718
    6  N  1  Z    0.001177   0.052301  -0.000222  -0.002563   0.583633
    7  N  1  X    0.000000  -0.005328   0.254527  -0.074265  -0.030778
    8  N  1  Y   -0.000015  -0.002965  -0.046750   0.184480  -0.037988
    9  N  1  Z   -0.000515   0.012932  -0.020772  -0.022155   0.385143
   10  N  1 XX   -0.000106  -0.003190   0.012047  -0.004965  -0.012450
   11  N  1 YY    0.000332   0.002934  -0.012986   0.003571  -0.011325
   12  N  1 ZZ   -0.000226   0.000256   0.000939   0.001394   0.023775
   13  N  1 XY    0.000361   0.005036   0.003983  -0.005621   0.000528
   14  N  1 XZ    0.000058   0.002055   0.026856  -0.001441   0.000572
   15  N  1 YZ    0.000053   0.003368   0.002262   0.027196   0.000066
   16  H  2  S   -0.001717   0.208519  -0.146443   0.397920   0.122807
   17  H  2  S    0.000348   0.005494  -0.063934   0.077824   0.029974
   18  H  2  X   -0.000182   0.006783   0.019177   0.013684   0.007072
   19  H  2  Y    0.000849  -0.035175   0.016553  -0.031806  -0.017935
   20  H  2  Z    0.000461  -0.009558   0.006736  -0.018086   0.019526
   21  H  3  S   -0.002103   0.206516  -0.243909  -0.374681   0.118144
   22  H  3  S    0.000660   0.001709  -0.031589  -0.044552   0.026264
   23  H  3  X   -0.000521   0.018516   0.004489  -0.026642   0.006803
   24  H  3  Y   -0.000987   0.034808  -0.028769  -0.028884   0.013425
   25  H  3  Z    0.000388  -0.003805   0.006795   0.010315   0.019916
   26  H  4  S   -0.001755   0.210989   0.425086   0.013678   0.122856
   27  H  4  S    0.000324   0.005953   0.097409  -0.029188   0.028456
   28  H  4  X    0.000838  -0.034585  -0.032002  -0.006672  -0.020270
   29  H  4  Y    0.000244  -0.010441  -0.009918   0.022940  -0.001692
   30  H  4  Z    0.000478  -0.011128  -0.021435  -0.000190   0.019124

                      6          7          8          9         10
                    0.0000     0.0000     0.0000     0.1321     0.1960
                     A          A          A          A          A   
    1  N  1  S    0.226082  -0.048434  -0.065426  -0.121602   0.012437
    2  N  1  S    0.773076  -0.127709  -0.169001  -0.180849   0.010425
    3  N  1  S    0.191646   0.058549   0.063913   1.289897  -0.235973
    4  N  1  X    0.052009   0.884624  -0.045358  -0.021364  -0.051579
    5  N  1  Y    0.070977   0.146868   0.949833  -0.024282  -0.116160
    6  N  1  Z    0.656590   0.020338   0.000600  -0.170678  -0.001396
    7  N  1  X    0.033946   0.035647   0.048359   0.110779   0.356135
    8  N  1  Y    0.042857   0.064476   0.091705   0.155094   0.678047
    9  N  1  Z   -0.065123   0.018020   0.028138   0.397444   0.030186
   10  N  1 XX    0.023802  -0.020512   0.025435  -0.013878   0.020758
   11  N  1 YY   -0.023837   0.027453  -0.016180   0.057261  -0.045982
   12  N  1 ZZ    0.000035  -0.006940  -0.009256  -0.043383   0.025224
   13  N  1 XY   -0.038984  -0.023384  -0.007879   0.061882  -0.051863
   14  N  1 XZ   -0.019801  -0.027474  -0.008110   0.031528   0.050396
   15  N  1 YZ   -0.025746  -0.017494  -0.043731   0.041411   0.092557
   16  H  2  S   -0.461952   0.307277  -0.586657   0.333586   0.196357
   17  H  2  S   -0.057571   0.097848  -0.147947  -0.883312  -0.733544
   18  H  2  X   -0.029059  -0.023705  -0.023004   0.047978  -0.006301
   19  H  2  Y    0.053703  -0.033544   0.039240   0.084823   0.025409
   20  H  2  Z   -0.016009  -0.018842  -0.002322   0.044441   0.068558
   21  H  3  S   -0.498711   0.412844   0.579513   0.316663  -0.535062
   22  H  3  S   -0.051272   0.076685   0.106636  -0.678009   1.918866
   23  H  3  X   -0.029758   0.011354   0.030549  -0.044826   0.052804
   24  H  3  Y   -0.056955   0.037291   0.047659  -0.078311   0.106408
   25  H  3  Z   -0.007636   0.007372   0.014213  -0.020134  -0.078863
   26  H  4  S   -0.466588  -0.661333   0.110938   0.311898   0.212066
   27  H  4  S   -0.057162  -0.171393   0.049052  -0.857670  -0.774692
   28  H  4  X    0.061962   0.046794  -0.004332   0.054661   0.024231
   29  H  4  Y   -0.001906   0.006072  -0.037385   0.086402   0.001980
   30  H  4  Z   -0.013827   0.007360  -0.017288   0.048665   0.063929

                     11         12         13         14         15
                    0.2272     0.5336     0.5650     0.6346     0.8304
                     A          A          A          A          A   
    1  N  1  S    0.005376  -0.091371  -0.004816   0.016480  -0.462770
    2  N  1  S    0.011063  -0.077927   0.017256   0.108132  -1.044032
    3  N  1  S   -0.035997   0.911048   0.155788   0.170557   1.870936
    4  N  1  X    0.005986   0.239550  -0.568036  -0.155061  -0.034345
    5  N  1  Y   -0.016843   0.158132   0.332075  -0.358819  -0.066686
    6  N  1  Z    0.007374  -0.619425  -0.115741  -0.308940   0.291540
    7  N  1  X   -0.369863  -0.590065   1.365944   0.835295   0.064515
    8  N  1  Y    0.254484  -0.548095  -0.799560   1.689098   0.140176
    9  N  1  Z   -0.023258   0.963741   0.224899   0.702441  -0.087162
   10  N  1 XX   -0.071105  -0.003286  -0.006078   0.008350   0.055164
   11  N  1 YY    0.071942  -0.022730  -0.001235  -0.013581  -0.004200
   12  N  1 ZZ   -0.000836   0.026016   0.007314   0.005231  -0.050964
   13  N  1 XY   -0.046118  -0.031529  -0.020062  -0.007362  -0.089013
   14  N  1 XZ   -0.056799  -0.010510   0.011316  -0.023401  -0.008558
   15  N  1 YZ    0.033540  -0.008116  -0.006951  -0.045260  -0.040344
   16  H  2  S    0.578363  -0.246846   0.308134  -0.641844   0.020648
   17  H  2  S   -1.923957  -0.085851   0.883840  -0.380471  -0.355037
   18  H  2  X   -0.041163  -0.116612  -0.053921  -0.057186  -0.377118
   19  H  2  Y    0.066714  -0.018018  -0.089571   0.187500   0.128637
   20  H  2  Z    0.023914   0.083707  -0.053372  -0.054897  -0.035743
   21  H  3  S    0.009953  -0.695594  -0.124870   0.434774  -0.126743
   22  H  3  S    0.001863  -0.481516   0.002700   0.791135  -0.381590
   23  H  3  X    0.043909  -0.042971   0.075905   0.075364   0.004405
   24  H  3  Y   -0.016130  -0.087384  -0.047376   0.173143  -0.061688
   25  H  3  Z   -0.002471   0.068144   0.011643   0.123524   0.184970
   26  H  4  S   -0.582820  -0.162088  -0.463569  -0.568831   0.030381
   27  H  4  S    1.944578   0.218894  -0.919758  -0.299520  -0.320885
   28  H  4  X   -0.080683   0.008308   0.085962   0.180130   0.274045
   29  H  4  Y    0.001947  -0.125654   0.033727   0.010958  -0.287972
   30  H  4  Z   -0.027573   0.054931   0.088569  -0.046466  -0.005142

                     16         17         18         19         20
                    0.9933     1.0809     1.3055     1.3342     1.4959
                     A          A          A          A          A   
    1  N  1  S   -0.389686   0.056908   0.173608  -0.197293  -0.508726
    2  N  1  S   -0.817914   0.119018   0.363932  -0.415580  -1.058144
    3  N  1  S    1.643491  -0.273243  -0.674981   0.751250   1.858579
    4  N  1  X   -0.039466   0.070928   0.013572   0.117020  -0.052258
    5  N  1  Y   -0.061477  -0.050662  -0.173761   0.014197  -0.115544
    6  N  1  Z    0.110550  -0.010982   0.017118  -0.011911  -0.047939
    7  N  1  X    0.221503  -0.342907   0.294379  -0.563106   0.402776
    8  N  1  Y    0.324036   0.255154   0.974176  -0.474566   0.545536
    9  N  1  Z   -0.104674  -0.072868  -0.179468   0.240974   0.874080
   10  N  1 XX   -0.161541  -0.160437  -0.049644   0.042290   0.061701
   11  N  1 YY   -0.085688   0.143147  -0.028722   0.056972   0.103204
   12  N  1 ZZ    0.247229   0.017289   0.078366  -0.099262  -0.164905
   13  N  1 XY    0.075054  -0.107362  -0.011721  -0.036173   0.039581
   14  N  1 XZ   -0.015889   0.260913  -0.065130  -0.056871  -0.026812
   15  N  1 YZ   -0.017152  -0.141427   0.052936   0.033119   0.013884
   16  H  2  S   -0.399305  -0.106636  -0.250764  -0.153033  -0.704185
   17  H  2  S   -0.193849  -0.082269  -0.056176   0.015644  -0.123740
   18  H  2  X    0.242591   0.065205  -0.491581   0.041860   0.115123
   19  H  2  Y   -0.072366   0.113684  -0.463110  -0.146592  -0.053156
   20  H  2  Z    0.374149  -0.364515   0.489549  -0.099905  -0.220731
   21  H  3  S   -0.091570   0.075932   0.614069  -0.486370  -0.238298
   22  H  3  S   -0.191149   0.061543   0.319043  -0.250032  -0.063178
   23  H  3  X    0.013358   0.509131   0.239338   0.542213  -0.136997
   24  H  3  Y    0.026967  -0.239814  -0.317756  -0.150280  -0.092381
   25  H  3  Z    0.270993  -0.015286  -0.312684   0.173834  -0.831191
   26  H  4  S   -0.406218   0.171972   0.045550   0.125517  -0.724139
   27  H  4  S   -0.203854   0.130452  -0.034302   0.010680  -0.206920
   28  H  4  X   -0.198118  -0.143550   0.092450   0.196878  -0.087955
   29  H  4  Y    0.179245  -0.152574  -0.015830   0.638232   0.020665
   30  H  4  Z    0.372662   0.419447   0.146200  -0.453913  -0.013133

                     21         22         23         24         25
                    1.6165     1.8743     1.9534     1.9936     2.0514
                     A          A          A          A          A   
    1  N  1  S   -0.043645  -0.027803   0.080073   0.022613  -0.004845
    2  N  1  S   -0.089433  -0.016427   0.280527   0.042448   0.031645
    3  N  1  S    0.158709   0.220722   1.369658  -0.106369   0.721325
    4  N  1  X   -0.237042   0.317160   0.054803   0.170988  -0.075483
    5  N  1  Y    0.083355   0.586179   0.052533  -0.104582  -0.166330
    6  N  1  Z   -0.010060   0.108052   0.289634   0.005576   0.090325
    7  N  1  X   -0.356919   0.021170   0.025425  -0.176093  -0.149303
    8  N  1  Y    0.385050   0.126999   0.111657   0.125151  -0.139675
    9  N  1  Z    0.071481   0.143203   0.460277  -0.062615   0.505671
   10  N  1 XX    0.086083  -0.233495   0.273334  -0.149054  -0.583598
   11  N  1 YY   -0.039960   0.040270  -0.143327   0.203757  -0.205466
   12  N  1 ZZ   -0.046123   0.193225  -0.130007  -0.054703   0.789064
   13  N  1 XY    0.019464   0.274835  -0.343832  -0.176858   0.350258
   14  N  1 XZ    0.249574  -0.072613  -0.159357  -0.064695   0.096030
   15  N  1 YZ   -0.145057  -0.152883  -0.087813   0.008077   0.227788
   16  H  2  S   -0.054441  -0.022148  -0.321644   0.123228  -0.145639
   17  H  2  S   -0.394373  -0.241707  -0.302142   0.347183  -0.008210
   18  H  2  X    0.273144  -0.108348   0.244703   0.876656  -0.010928
   19  H  2  Y    0.321291   0.458199   0.687521  -0.521300   0.223087
   20  H  2  Z    0.585472   0.285369   0.218867   0.119964  -0.374521
   21  H  3  S    0.037814  -0.069641  -0.244036   0.033788  -0.305976
   22  H  3  S   -0.003243   0.347549  -0.254790   0.035028  -0.316835
   23  H  3  X    0.346642   0.354484  -0.293156  -0.015112  -0.223944
   24  H  3  Y   -0.249353   0.565244  -0.675137   0.031538  -0.572980
   25  H  3  Z   -0.092863  -0.488428  -0.181083   0.028564  -0.084416
   26  H  4  S   -0.126334  -0.006876  -0.309842  -0.072345  -0.152127
   27  H  4  S    0.361454  -0.232250  -0.238673  -0.344447  -0.006314
   28  H  4  X   -0.208344   0.478115   0.404025   0.815886   0.329746
   29  H  4  Y   -0.396425   0.086996   0.459934  -0.543779  -0.040081
   30  H  4  Z   -0.571841   0.208085   0.342399  -0.012201  -0.399801

                     26         27         28         29
                    2.2410     2.6444     2.7541     2.8662
                     A          A          A          A   
    1  N  1  S   -0.022287  -0.100382  -0.056881   0.019376
    2  N  1  S   -0.027662  -0.069329  -0.196354   0.090525
    3  N  1  S    0.314318   1.731915  -1.151024   0.679299
    4  N  1  X    0.054197   0.189952   0.064006  -0.435482
    5  N  1  Y   -0.024256   0.262447   0.517386  -0.041120
    6  N  1  Z    0.036955   0.245859  -0.178449   0.087737
    7  N  1  X    0.473098   0.604116   0.143516  -0.744740
    8  N  1  Y   -0.264193   0.942075   1.022120  -0.079346
    9  N  1  Z    0.148205   0.452633  -0.118934   0.055073
   10  N  1 XX   -0.368101   0.125748  -0.231088  -0.953590
   11  N  1 YY    0.317188   0.379497  -0.282549   1.277081
   12  N  1 ZZ    0.050913  -0.505245   0.513637  -0.323491
   13  N  1 XY   -0.338627   0.340517  -1.091843  -0.106776
   14  N  1 XZ    0.756996   0.645416  -0.017918  -0.638636
   15  N  1 YZ   -0.446459   0.989202   0.698370   0.080947
   16  H  2  S    0.055054  -0.954891  -0.497790  -0.857435
   17  H  2  S    0.158912  -0.283518  -0.245913  -0.308926
   18  H  2  X   -0.223319  -0.173535   0.040690  -0.176919
   19  H  2  Y   -0.218859   0.552258   0.448979   0.765961
   20  H  2  Z    0.181978   0.353188   0.074985   0.481719
   21  H  3  S   -0.092445   0.092004   1.446197  -0.789967
   22  H  3  S   -0.041517   0.126854   0.488670  -0.244174
   23  H  3  X   -0.637562   0.014537   0.415115  -0.419710
   24  H  3  Y    0.223252   0.054430   1.021254  -0.444416
   25  H  3  Z   -0.070520   0.345429  -0.401001   0.264062
   26  H  4  S   -0.243799  -1.051886   0.362772   0.868068
   27  H  4  S   -0.238596  -0.343805   0.136846   0.340584
   28  H  4  X    0.225424   0.649183  -0.351966  -0.713992
   29  H  4  Y    0.479700   0.112579  -0.050064  -0.265311
   30  H  4  Z   -0.189679   0.422649  -0.323581  -0.371919
 .....DONE WITH MCSCF ITERATIONS.....
 CPU     0: STEP CPU TIME=     9.47 TOTAL CPU TIME=         10.5 (      0.2 MIN)
 TOTAL WALL CLOCK TIME=         10.5 SECONDS, CPU UTILIZATION IS    99.91%

     ----------------------------------------------------------------
     PROPERTY VALUES FOR THE MCSCF SELF-CONSISTENT FIELD WAVEFUNCTION
     ----------------------------------------------------------------

          -----------------
          ENERGY COMPONENTS
          -----------------

         WAVEFUNCTION NORMALIZATION =       1.0000000000

                ONE ELECTRON ENERGY =     -94.3368247431
                TWO ELECTRON ENERGY =      27.1577914550
           NUCLEAR REPULSION ENERGY =      11.4461426514
                                      ------------------
                       TOTAL ENERGY =     -55.7328906367

 ELECTRON-ELECTRON POTENTIAL ENERGY =      27.1577914550
  NUCLEUS-ELECTRON POTENTIAL ENERGY =    -150.1496040206
   NUCLEUS-NUCLEUS POTENTIAL ENERGY =      11.4461426514
                                      ------------------
             TOTAL POTENTIAL ENERGY =    -111.5456699142
               TOTAL KINETIC ENERGY =      55.8127792775
                 VIRIAL RATIO (V/T) =       1.9985686317

          ---------------------------------------
          MULLIKEN AND LOWDIN POPULATION ANALYSES
          ---------------------------------------

     ATOMIC MULLIKEN POPULATION IN EACH MOLECULAR ORBITAL

                      1          2          3          4          5

                  2.000000   1.982350   1.656211   1.650568   1.642484

    1             2.000854   1.334082   1.490045   0.918884   1.123714
    2            -0.000238   0.220187   0.010557   0.203658   0.250808
    3            -0.000358   0.190213   0.143341   0.336244   0.007969
    4            -0.000258   0.237867   0.012269   0.191783   0.259993

                      6          7          8

                  0.027541   0.022771   0.018075

    1             0.012944   0.012006   0.009504
    2             0.008254   0.003905   0.000438
    3             0.000100   0.001015   0.007974
    4             0.006243   0.005845   0.000159
 WARNING! MCSCF POPULATIONS SHOWN ABOVE ARE FOR THE NATURAL ORBITALS.
 IGNORE THE ABOVE DATA FOR MCSCF FUNCTIONS WHICH ARE NOT OF -FORS- TYPE.
 THE FOLLOWING POPULATIONS ARE CORRECT FOR ANY MCSCF WAVEFUNCTION.

               ----- POPULATIONS IN EACH AO -----
                             MULLIKEN      LOWDIN
              1  N  1  S      2.00253     1.89843
              2  N  1  S      0.82135     0.57651
              3  N  1  S      0.66311     0.39907
              4  N  1  X      0.71560     0.65008
              5  N  1  Y      0.66590     0.58621
              6  N  1  Z      0.87109     0.81669
              7  N  1  X      0.35767     0.43248
              8  N  1  Y      0.26672     0.38704
              9  N  1  Z      0.52114     0.55720
             10  N  1 XX      0.00049     0.15892
             11  N  1 YY      0.00325     0.18161
             12  N  1 ZZ      0.00153     0.14202
             13  N  1 XY      0.00548     0.00689
             14  N  1 XZ      0.00617     0.00934
             15  N  1 YZ      0.00000     0.01226
             16  H  2  S      0.59399     0.45706
             17  H  2  S      0.04755     0.14635
             18  H  2  X      0.01026     0.03092
             19  H  2  Y      0.03082     0.05073
             20  H  2  Z      0.01495     0.03508
             21  H  3  S      0.60407     0.46908
             22  H  3  S      0.02527     0.14295
             23  H  3  X      0.01422     0.03077
             24  H  3  Y      0.03102     0.05571
             25  H  3  Z      0.01191     0.03398
             26  H  4  S      0.60805     0.46762
             27  H  4  S      0.04880     0.14576
             28  H  4  X      0.02954     0.05337
             29  H  4  Y      0.01139     0.02846
             30  H  4  Z      0.01613     0.03742

          ----- MULLIKEN ATOMIC OVERLAP POPULATIONS -----
          (OFF-DIAGONAL ELEMENTS NEED TO BE MULTIPLIED BY 2)

             1           2           3           4

    1    6.0198491
    2    0.2801893   0.4335729
    3    0.3188508  -0.0056708   0.3787151
    4    0.2831435  -0.0105229  -0.0053970   0.4466771

          TOTAL MULLIKEN AND LOWDIN ATOMIC POPULATIONS
       ATOM         MULL.POP.    CHARGE          LOW.POP.     CHARGE
    1 N             6.902033    0.097967         6.814756    0.185244
    2 H             0.697569    0.302431         0.720137    0.279863
    3 H             0.686498    0.313502         0.732488    0.267512
    4 H             0.713901    0.286099         0.732619    0.267381

          MULLIKEN SPHERICAL HARMONIC POPULATIONS
       ATOM           S       P       D      F      G      H      I    TOTAL
    1 N             3.49    3.40    0.02   0.00   0.00   0.00   0.00    6.90
    2 H             0.64    0.06    0.00   0.00   0.00   0.00   0.00    0.70
    3 H             0.63    0.06    0.00   0.00   0.00   0.00   0.00    0.69
    4 H             0.66    0.06    0.00   0.00   0.00   0.00   0.00    0.71

          ---------------------
          ELECTROSTATIC MOMENTS
          ---------------------

 POINT   1           X           Y           Z (BOHR)    CHARGE
                 0.000002    0.000003   -0.177185        1.00 (A.U.)
         DX          DY          DZ         /D/  (DEBYE)
     0.339017    0.455903    2.173044    2.246085
 ...... END OF PROPERTY EVALUATION ......
 CPU     0: STEP CPU TIME=     0.01 TOTAL CPU TIME=         10.5 (      0.2 MIN)
 TOTAL WALL CLOCK TIME=         10.5 SECONDS, CPU UTILIZATION IS    99.91%

     -------------------------------------------------
     GMC-PT/GMC-QDPT or general MCSCF input parameters
     -------------------------------------------------
 # of frozen core orbs. =         0 ->         0
 # of doubly occ. orbs. =         1
 # of active      orbs. =         7
 # of virtual     orbs. =        21
 # of active electrons  =         7
 # of states in CI      =         3
 Highest state in CI    =         3
 kstate =  1 1 1
 avecoe =  0.333 0.333 0.333
 State symmetry           = A           
 Assigned symmetry number = 1

 <<<Act. MO sym.: 1111111

 <<<Division of 1-ext.:  0
 <<<Division of 2-ext.:  0

     ------------------------
     Orbital canonicalization
     ------------------------

 MOs are canonicalized for core, virtual, and invariant-active orbital spaces.
 This is a part of the GMC-QDPT calculation.
 SCHWARZ INEQUALITY OVERHEAD:       465 INTEGRALS, T=        0.00
 DIRECT TRANSFORMATION SKIPS AO INTEGRAL STORAGE ON DISK.

 Averaged energy =     -55.732890637

 State #    1  Energy =     -55.870115308  S =  0.500
 State #    2  Energy =     -55.749018898  S =  0.500
 State #    3  Energy =     -55.579537704  S =  0.500

 Orbital energies for filled orbital space
  -15.986747
 Orbital energies for active orbital space
   -1.518550  -0.829837  -1.009403  -0.749525   0.301571
    0.250953   0.421679
 Orbital energies for external orbital space
    0.132146   0.196021   0.227215   0.533593   0.564971
    0.634586   0.830389   0.993295   1.080912   1.305452
    1.334223   1.495864   1.616530   1.874292   1.953377
    1.993606   2.051389   2.241024   2.644441   2.754084
    2.866228

 Zero values mean non-canonical orbitals.
 ... done with orbital canonicalization ...
 CPU     0: STEP CPU TIME=     0.58 TOTAL CPU TIME=         11.1 (      0.2 MIN)
 TOTAL WALL CLOCK TIME=         11.1 SECONDS, CPU UTILIZATION IS    99.91%

     --------------------------------------------
     PARTIAL TWO ELECTRON INTEGRAL TRANSFORMATION
     --------------------------------------------

 NUMBER OF CORE MOLECULAR ORBITALS     =    0
 NUMBER OF OCCUPIED MOLECULAR ORBITALS =    8
 TOTAL NUMBER OF MOLECULAR ORBITALS    =   29
 TOTAL NUMBER OF ATOMIC ORBITALS       =   30
 THRESHOLD FOR KEEPING TRANSFORMED 2E- INTEGRALS = 1.000E-09
 AO INTEGRALS WILL BE CALCULATED IN DIRECT MODE...
 DIRECT TRANSFORMATION SKIPS AO INTEGRAL STORAGE ON DISK.
 SCHWARZ INEQUALITY OVERHEAD:       465 INTEGRALS, T=        0.00

 PLAN A: REQUIREMENTS FOR FULLY IN-MEMORY TRANSFORMATION:
 # OF WORDS AVAILABLE =            100000000
 # OF WORDS NEEDED    =               221798

 PARALLEL ONLY WORKS WITH THE SEGMENTED ALGORITHM.
 ADJUSTING MEMORY TO USE SEGMENTED ALGORITHM.


 PLAN B: REQUIREMENTS FOR THE SEGMENTED TRANSFORMATION:
       MINIMUM=         124148 WORDS FOR 1 MOLECULAR ORBITAL PER PASS
       MAXIMUM=         221798 WORDS FOR ALL MOLECULAR ORBITALS IN 1 PASS
              (          13950 EXTRA WORDS INCLUDES 1 EXTRA ORBITAL/PASS)
 THIS RUN USES=         221798 WORDS,
 DISTRIBUTING   1 PASSES EACH CONTAINING     8 ORBITALS OVER   1 PROCESSORS.

 CHOOSING SEGMENTED PARTIAL TRANSFORMATION...
 DIRECT TRANSFORMATION SKIPS AO INTEGRAL STORAGE ON DISK.
 PASS #   1 TOOK        0.04 SECONDS.
 TOTAL NUMBER OF TRANSFORMED 2E- INTEGRALS KEPT =        29226
 ... END OF INTEGRAL TRANSFORMATION ...
 CPU     0: STEP CPU TIME=     0.04 TOTAL CPU TIME=         11.2 (      0.2 MIN)
 TOTAL WALL CLOCK TIME=         11.2 SECONDS, CPU UTILIZATION IS    99.82%

     --------     ------------------------------------------
     GMC-QDPT     Program written by H.Nakano (Kyushu Univ.)
     --------     ------------------------------------------

 *** Reference space

 Reference type: ORMAS (= Occupation restricted multiple active space)
 # of orbitals          =  7
 # of minimum electrons =  7
 # of maximum electrons =  7
 State symmetry    =    1 (input)
 2*Sz              =    1 (input)
 Spin multiplicity =    2 (input)
 Dimension of reference space =      1225  (from      3432 walks)

 Dimension of reference space =      1225  (from      1225 walks)

 <<<Ionized spaces for Ref-CI:
      0:         1225 /   -1-0:         1960 /  0-1-0:         2891

 ***                    ***
 *** Reference space CI ***
 ***                    ***

 Converged after   27 iterations

 Reference wavefunctions:

 State #    1  Energy =     -55.870115308  S =  0.500

      Det      Coef    Occupancy (Ignoring core)
      ---      ----    --------- --------- -----
        1    0.977580  11110001110000
      393    0.083213  10110101010010
      717    0.061649  11010011100001

 State #    2  Energy =     -55.749018898  S =  0.500

      Det      Coef    Occupancy (Ignoring core)
      ---      ----    --------- --------- -----
       71   -0.983601  11110001011000
      822    0.061184  11010011001001

 State #    3  Energy =     -55.579537704  S =  0.500

      Det      Coef    Occupancy (Ignoring core)
      ---      ----    --------- --------- -----
       36   -0.978508  11110001101000
      463   -0.084078  10110101001010

 Davidson method: CPU/Wall time =           0.40 /           0.41 sec.

 Oscillator strength (invalid if E(1)/=E(GS)):
 -----------------------------------------
   State                        f
 -----------------------------------------
     2     F(REF-CI)=        0.0002500121
     3     F(REF-CI)=        0.0027318585
 -----------------------------------------

 Dipole moment matrix elements, x, y, z, in A.U.

 Dimension of ionized spaces for PT:
 (N-2) space:         1715 /  (N-1) space:         2842 /  N space:         2891
 (N+1) space:         2842 /  (N+2) space:         1715

 <<<Ionized spaces for internal:
         0:         1225 /      -1-0:         1960 /     0-1-0:         2891
  -1-0-1-0:         2842 / 0-1-0-1-0:         3381

 Diagonal elements of averaged one-particle density matrix:
       2       3       4       5       6       7       8
  0.9935  0.9856  0.9886  0.9926  0.0128  0.0163  0.0107
  0.9887  0.6567  0.6622  0.6633  0.0102  0.0114  0.0076

 Orbital energies:
 -------- Doubly-occupied orbitals (highest several orbs.) -------
             1
 -1.598675D+01
 -------- Active orbitals ----------------------------------------
             2            3            4            5            6
 -1.518550D+00-8.298374D-01-1.009403D+00-7.495245D-01 3.015705D-01
             7            8
  2.509529D-01 4.216790D-01
 -------- External orbitals (lowest several orbs.) ---------------
             9           10           11           12           13
  1.321461D-01 1.960213D-01 2.272146D-01 5.335935D-01 5.649714D-01
            14           15           16           17           18
  6.345861D-01 8.303887D-01 9.932951D-01 1.080912D+00 1.305452D+00

 *** Quasi-degeneracy checking

 === Det (|Ci| > 1.0D-01 and dE < 5.0D-03)

 # of small denominators (single excitations)
 State       dEmin  dE < 5.0D-03  dE < 5.0D-04  dE < 5.0D-05  dE < 5.0D-06
 ----- ----------- ------------- ------------- ------------- -------------
     1    5.00D-03             0             0             0             0
     2    5.00D-03             0             0             0             0
     3    5.00D-03             0             0             0             0

 # of small denominators (double excitations)
 State       dEmin  dE < 5.0D-03  dE < 5.0D-04  dE < 5.0D-05  dE < 5.0D-06
 ----- ----------- ------------- ------------- ------------- -------------
     1    5.00D-03             0             0             0             0
     2    5.00D-03             0             0             0             0
     3    5.00D-03             0             0             0             0

 *** Zeroth-Order Setup (Granovsky's zeroth-order vectors)
 Zeroth-order effective Hamiltonian
  (= Sum_i e(i)*<I|a+(i)a(i)|J> ):
                   1            2            3
     1 -7.360804D+00
     2 -2.735150D-03-7.304104D+00
     3  1.867555D-03-8.601871D-04-7.111658D+00

 Zeroth-order vectors:
 State #    1
       MC st            1           2           3
       Coeff    9.988D-01   4.795D-02  -7.317D-03
 State #    2
       MC st            2           1           3
       Coeff    9.988D-01  -4.791D-02   4.933D-03
 State #    3
       MC st            3           1           2
       Coeff    1.000D+00   7.545D-03  -4.576D-03

 *** GMC-QDPT computation

 (Integral reading:  CPU/Wall time =           0.00 /           0.00 sec.)

 One-external:
   0 -ionized terms: CPU/Wall time =           0.03 /           0.03 sec.
 (-1)-ionized terms: CPU/Wall time =           0.09 /           0.09 sec.
 (+1)-ionized terms: CPU/Wall time =           0.02 /           0.02 sec.
 (+1)-ionized terms: CPU/Wall time =           0.01 /           0.00 sec.
 (+2)-ionized terms: CPU/Wall time =           0.00 /           0.01 sec.

 Internal:
 # of macro loops for internal contribution =         1 (input)
 Loop:    1
 Dimension of internal CISD space     =         0  (after screening)
 Space construction: CPU/Wall time =           0.02 /           0.01 sec.
 Internal terms:     CPU/Wall time =           0.00 /           0.00 sec.

 Two-external:
   0 -ionized terms: CPU/Wall time =           0.06 /           0.06 sec.
 (-1)-ionized terms: CPU/Wall time =           0.99 /           1.00 sec.
 (-2)-ionized terms: CPU/Wall time =           0.17 /           0.16 sec.

 Total time:         CPU/Wall time =           1.39 /           1.38 sec.

 ***                  ***
 *** GMC-QDPT Results ***
 ***                  ***

 Diagonal elements of effective Hamiltonian:
 Heff(  1) =   -55.96816860
 Heff(  2) =   -55.85743687
 Heff(  3) =   -55.69097931

 Off-diagonal elements of effective Hamiltonian:
                   1            2
     2  5.143485D-03
     3 -1.714051D-03 8.147514D-04

 ******** GMC-QDPT energies ********
 ----------------------------------------------------------------------------
   State                        1st order                           2nd order
 ----------------------------------------------------------------------------
     1     E(REF-CI)=      -55.8701153082   E(GMC-QDPT2)=      -55.9684180367
     2     E(REF-CI)=      -55.7490188976   E(GMC-QDPT2)=      -55.8572017177
     3     E(REF-CI)=      -55.5795377043   E(GMC-QDPT2)=      -55.6909650307
 ----------------------------------------------------------------------------

 Excitation energies (invalid if E(1)/=E(GS)):
 ----------------------------------------------------------------------------
   State                        1st order                           2nd order
 ----------------------------------------------------------------------------

     TZ Sorted GMC-PT ENERGIES:
         1      -55.9684180367
         2      -55.8572017177
         3      -55.6909650307
     2     E(REF-CI)=        3.2952029 eV   E(GMC-QDPT2)=        3.0263517 eV
     3     E(REF-CI)=        7.9070234 eV   E(GMC-QDPT2)=        7.5498847 eV
 ----------------------------------------------------------------------------

 Main characters of perturbed GMC-QDPT states:

 State #    1  Energy =     -55.968418037  S =  0.500

      Det      Coef    Occupancy (Ignoring core)
      ---      ----    --------- --------- -----
        1    0.977610  11110001110000
      393    0.083197  10110101010010
      717    0.061628  11010011100001

 State #    2  Energy =     -55.857201718  S =  0.500

      Det      Coef    Occupancy (Ignoring core)
      ---      ----    --------- --------- -----
       71   -0.983630  11110001011000
      822    0.061185  11010011001001

 State #    3  Energy =     -55.690965031  S =  0.500

      Det      Coef    Occupancy (Ignoring core)
      ---      ----    --------- --------- -----
       36   -0.978507  11110001101000
      463   -0.084081  10110101001010

 <<<Max |V/de| = 2.780D-02  Thresh = 1.000D+00

 Oscillator strength (invalid if E(1)/=E(GS)):
 ----------------------------------------------------------------------------
   State                        1st order                           2nd order
 ----------------------------------------------------------------------------
     2     F(REF-CI)=        0.0002500121     F(GMC-PT2)=        0.0002340507
     3     F(REF-CI)=        0.0027318585     F(GMC-PT2)=        0.0026389968
 ----------------------------------------------------------------------------

 Dipole moment matrix elements, x, y, z, in A.U.
States    1    1        0.1574296885        0.2215834885        0.7420133186
States    1    2       -0.0457147653        0.0181297520       -0.0271692516
States    1    3       -0.0430441110       -0.0877632646        0.0686445746
States    2    1       -0.0457147653        0.0181297520       -0.0271692516
States    2    2        0.0680057945        0.0234704152        0.2623395035
States    2    3        0.1243125041       -0.0945478442        0.0003976810
States    3    1       -0.0430441110       -0.0877632646        0.0686445746
States    3    2        0.1243125041       -0.0945478442        0.0003976810
States    3    3        0.3168202668        0.4733920419        0.2429640783

 Oscillator strength (valid only when positive): 
 ----------------------------------------------------------------------------
  States                        1st order                           2nd order
 ----------------------------------------------------------------------------
  1  1     F(REF-CI)=        0.0000000000     F(GMC-PT2)=        0.0000000000
  1  2     F(REF-CI)=       -0.0002500121     F(GMC-PT2)=       -0.0002340507
  1  3     F(REF-CI)=       -0.0027318585     F(GMC-PT2)=       -0.0026389968
  2  1     F(REF-CI)=        0.0002500121     F(GMC-PT2)=        0.0002340507
  2  2     F(REF-CI)=        0.0000000000     F(GMC-PT2)=        0.0000000000
  2  3     F(REF-CI)=       -0.0027596733     F(GMC-PT2)=       -0.0027033467
  3  1     F(REF-CI)=        0.0027318585     F(GMC-PT2)=        0.0026389968
  3  2     F(REF-CI)=        0.0027596733     F(GMC-PT2)=        0.0027033467
  3  3     F(REF-CI)=        0.0000000000     F(GMC-PT2)=        0.0000000000
 CPU     0: STEP CPU TIME=     1.87 TOTAL CPU TIME=         13.0 (      0.2 MIN)
 TOTAL WALL CLOCK TIME=         13.0 SECONDS, CPU UTILIZATION IS   100.00%

     !!! DIABATIZATION FOR REF CI STATES !!!

 *******************************************************
          $DMO GROUP FOUND IN THE INPUT.
        DIABATIZATION OF ADIABATIC STATES BEGINS.
     PROGRAMMED BY TAO ZENG (CARLETON UNIVERSITY).
               Email: toby.zeng@carleton.ca
     See T. Zeng, J. Chem. Phys. 2017, 146, 144103
 *******************************************************

 *************************************************************************
     STEP 1: TRANSFORMATION OF ADIABATIC STATES TO THE DMO REPRESENTATION
         See Atchity and Ruedenberg, J. Chem. Phys. 1999, 111, 2910
 *************************************************************************

Read in Diabatic Molecualr Orbitals:

                      1          2          3          4          5

    1  N  1  S    0.008609   0.000000   0.000000  -0.013219   0.279491
    2  N  1  S    0.442914  -0.000000   0.000000  -0.184329   0.867803
    3  N  1  S    0.276913   0.000000  -0.000000  -0.288315   0.144236
    4  N  1  X   -0.000000   0.493155  -0.024636  -0.000000  -0.000000
    5  N  1  Y    0.000000   0.024636   0.493155  -0.000000   0.000000
    6  N  1  Z    0.090197   0.000000   0.000000   0.593421   0.705309
    7  N  1  X   -0.000000   0.210628  -0.010522   0.000000   0.000000
    8  N  1  Y    0.000000   0.010522   0.210628  -0.000000  -0.000000
    9  N  1  Z   -0.004381   0.000000   0.000000   0.381592  -0.106092
   10  N  1 XX   -0.000457   0.010719  -0.000535  -0.012387   0.006153
   11  N  1 YY   -0.000457  -0.010719   0.000535  -0.012387   0.006153
   12  N  1 ZZ    0.000914  -0.000000   0.000000   0.024773  -0.012306
   13  N  1 XY    0.000000  -0.000618  -0.012377  -0.000000   0.000000
   14  N  1 XZ   -0.000000   0.026529  -0.001325  -0.000000   0.000000
   15  N  1 YZ    0.000000   0.001325   0.026529  -0.000000   0.000000
   16  H  2  S    0.194462  -0.176074   0.343485   0.112865  -0.523343
   17  H  2  S    0.003574  -0.023812   0.046452   0.024014  -0.054445
   18  H  2  X    0.018760   0.009101   0.022834   0.009336  -0.039151
   19  H  2  Y   -0.032493   0.022287  -0.020044  -0.016171   0.067811
   20  H  2  Z   -0.009251   0.008464  -0.016511   0.018769  -0.010566
   21  H  3  S    0.194462  -0.209430  -0.324227   0.112865  -0.523343
   22  H  3  S    0.003574  -0.028322  -0.043847   0.024014  -0.054445
   23  H  3  X    0.018760   0.006781  -0.023627   0.009336  -0.039151
   24  H  3  Y    0.032493  -0.024174  -0.017723   0.016171  -0.067811
   25  H  3  Z   -0.009251   0.010067   0.015585   0.018769  -0.010566
   26  H  4  S    0.194462   0.385503  -0.019258   0.112865  -0.523343
   27  H  4  S    0.003574   0.052134  -0.002604   0.024014  -0.054445
   28  H  4  X   -0.037519  -0.032295   0.001613  -0.018672   0.078302
   29  H  4  Y    0.000000   0.001067   0.021353  -0.000000   0.000000
   30  H  4  Z   -0.009251  -0.018530   0.000926   0.018769  -0.010566

                      6          7

    1  N  1  S    0.000000  -0.000000
    2  N  1  S    0.000000  -0.000000
    3  N  1  S   -0.000000   0.000000
    4  N  1  X   -0.930415  -0.002083
    5  N  1  Y   -0.002083   0.930415
    6  N  1  Z   -0.000000   0.000000
    7  N  1  X   -0.046866  -0.000105
    8  N  1  Y   -0.000105   0.046866
    9  N  1  Z   -0.000000   0.000000
   10  N  1 XX    0.001538   0.000003
   11  N  1 YY   -0.001538  -0.000003
   12  N  1 ZZ   -0.000000   0.000000
   13  N  1 XY   -0.000004   0.001776
   14  N  1 XZ    0.039985   0.000090
   15  N  1 YZ    0.000090  -0.039985
   16  H  2  S   -0.362630  -0.631354
   17  H  2  S   -0.065964  -0.114846
   18  H  2  X    0.002763  -0.037520
   19  H  2  Y    0.037435   0.040736
   20  H  2  Z    0.001882   0.003276
   21  H  3  S   -0.365454   0.629724
   22  H  3  S   -0.066477   0.114549
   23  H  3  X    0.002595   0.037532
   24  H  3  Y   -0.037617   0.040567
   25  H  3  Z    0.001896  -0.003268
   26  H  4  S    0.728084   0.001630
   27  H  4  S    0.132441   0.000297
   28  H  4  X   -0.062317  -0.000140
   29  H  4  Y    0.000055  -0.024345
   30  H  4  Z   -0.003778  -0.000008

NUMBER OF SUB ACTIVE SPACES:   1
ROTATE ACTIVE MOS TO DMOS IN EACH SUB-SPACE

SPACE  1:

OVERLAP BETWEEN ORTHONORMAL AND PRE-ORTHONORMAL REF. DMOS

             1           2           3           4           5

    1    0.9888499   0.0120981   0.0110592  -0.0040930  -0.0021545
    2    0.0120981   0.9465058   0.0569024   0.0199474  -0.0400898
    3    0.0110592   0.0569024   1.0092528   0.0224767  -0.0508481
    4   -0.0040930   0.0199474   0.0224767   0.9966784  -0.0050498
    5   -0.0021545  -0.0400898  -0.0508481  -0.0050498   1.0813440
    6   -0.0021024  -0.0391243   0.0515408   0.0242719  -0.0144085
    7    0.0034399  -0.0477772  -0.0205843  -0.0345025   0.0400726

             6           7

    1   -0.0021024   0.0034399
    2   -0.0391243  -0.0477772
    3    0.0515408  -0.0205843
    4    0.0242719  -0.0345025
    5   -0.0144085   0.0400726
    6    1.0350780   0.0119556
    7    0.0119556   1.0140620
REFERENCE DMOS AFTER ORTHONORMALIZATION:

                      1          2          3          4          5

    1  N  1  S    0.009001   0.010070   0.012308  -0.012830   0.259800
    2  N  1  S    0.448316   0.028852   0.036581  -0.182114   0.806967
    3  N  1  S    0.279018   0.007245   0.008922  -0.288563   0.133985
    4  N  1  X   -0.007802   0.486610  -0.006180   0.012930   0.004895
    5  N  1  Y   -0.009410   0.040332   0.506403   0.020826  -0.009618
    6  N  1  Z    0.094773   0.012441   0.018177   0.598411   0.656665
    7  N  1  X   -0.002609   0.223161  -0.020560  -0.002760   0.006438
    8  N  1  Y   -0.002561   0.000959   0.210716  -0.002734   0.007917
    9  N  1  Z   -0.002865  -0.011089  -0.011965   0.383664  -0.098041
   10  N  1 XX   -0.000634   0.011992  -0.000734  -0.012686   0.006077
   11  N  1 YY   -0.000385  -0.011065   0.001759  -0.012219   0.005324
   12  N  1 ZZ    0.001019  -0.000927  -0.001025   0.024905  -0.011401
   13  N  1 XY    0.000132   0.000154  -0.012310   0.000311  -0.000621
   14  N  1 XZ   -0.000234   0.030115  -0.004936  -0.001432   0.001380
   15  N  1 YZ   -0.000132  -0.002009   0.025811  -0.001867   0.002571
   16  H  2  S    0.196982  -0.276391   0.335425   0.098020  -0.460282
   17  H  2  S    0.003799  -0.038793   0.046543   0.021407  -0.046283
   18  H  2  X    0.018775   0.004928   0.019478   0.007488  -0.033720
   19  H  2  Y   -0.033013   0.031600  -0.019024  -0.015887   0.061962
   20  H  2  Z   -0.009228   0.009611  -0.017777   0.019043  -0.010311
   21  H  3  S    0.199234  -0.214009  -0.310166   0.153455  -0.533740
   22  H  3  S    0.003858  -0.027626  -0.039829   0.030857  -0.058236
   23  H  3  X    0.018985   0.008680  -0.025645   0.010924  -0.038396
   24  H  3  Y    0.033099  -0.027609  -0.017333   0.019353  -0.066459
   25  H  3  Z   -0.009561   0.009122   0.014114   0.018173  -0.008635
   26  H  4  S    0.193465   0.420854  -0.106231   0.089311  -0.464192
   27  H  4  S    0.003306   0.059094  -0.015323   0.020001  -0.047189
   28  H  4  X   -0.037682  -0.033649   0.010868  -0.016764   0.070863
   29  H  4  Y   -0.000139  -0.001253   0.020900  -0.001243   0.001801
   30  H  4  Z   -0.009075  -0.020601   0.001488   0.019252  -0.010470

                      6          7

    1  N  1  S    0.003819  -0.010054
    2  N  1  S    0.016119  -0.037694
    3  N  1  S    0.009209  -0.015645
    4  N  1  X   -0.880797   0.031404
    5  N  1  Y   -0.037102   0.931251
    6  N  1  Z   -0.005077  -0.004896
    7  N  1  X   -0.035786   0.010076
    8  N  1  Y   -0.010969   0.050270
    9  N  1  Z   -0.010379   0.016295
   10  N  1 XX    0.002358  -0.000144
   11  N  1 YY   -0.001619  -0.001095
   12  N  1 ZZ   -0.000739   0.001239
   13  N  1 XY    0.000582   0.001536
   14  N  1 XZ    0.040057   0.000832
   15  N  1 YZ   -0.000743  -0.039158
   16  H  2  S   -0.378825  -0.603491
   17  H  2  S   -0.067371  -0.110797
   18  H  2  X    0.001682  -0.034868
   19  H  2  Y    0.039037   0.037936
   20  H  2  Z    0.002407   0.004381
   21  H  3  S   -0.363666   0.634537
   22  H  3  S   -0.066140   0.114968
   23  H  3  X    0.002913   0.038690
   24  H  3  Y   -0.038319   0.041976
   25  H  3  Z    0.000926  -0.001525
   26  H  4  S    0.716079   0.031563
   27  H  4  S    0.129787   0.003770
   28  H  4  X   -0.060668  -0.004030
   29  H  4  Y   -0.000707  -0.023747
   30  H  4  Z   -0.005121   0.000211

 -------------------------------------------
       MAXIMIZING MORMO OVERLAP TERM        
 -------------------------------------------
   SWEEP    VALUE       PROGRESS
     0     5.66770
     1     6.96626     1.29855601
     2     6.97534     0.00908628
     3     6.97534     0.00000024
     4     6.97534     0.00000000
     5     6.97534     0.00000000
 THE ROTATION IS DONE
FLIPPING SIGN FOR ORBITAL   7
ACTIVE ORBITALS AFTER MORMO:

                      1          2          3          4          5

    1  N  1  S    0.007945   0.013372   0.014951  -0.012391   0.230250
    2  N  1  S    0.436448   0.028313   0.028947  -0.185934   0.769158
    3  N  1  S    0.310155  -0.012114  -0.002522  -0.280645   0.178801
    4  N  1  X   -0.004964   0.462406   0.006425   0.017754  -0.001954
    5  N  1  Y   -0.009135   0.052192   0.497402   0.023102  -0.016733
    6  N  1  Z    0.087698   0.020926   0.026713   0.599156   0.637403
    7  N  1  X   -0.007258   0.261213  -0.061556  -0.022907   0.022017
    8  N  1  Y   -0.004298  -0.039759   0.199122  -0.027908   0.026622
    9  N  1  Z    0.013746  -0.030615  -0.033276   0.383440  -0.073019
   10  N  1 XX   -0.002397   0.014915  -0.002275  -0.011364   0.023062
   11  N  1 YY    0.001814  -0.014507   0.002882  -0.011770  -0.023377
   12  N  1 ZZ    0.000583  -0.000408  -0.000607   0.023134   0.000315
   13  N  1 XY    0.003500   0.001139  -0.010538  -0.001722  -0.037315
   14  N  1 XZ    0.001071   0.024704  -0.005309  -0.000781  -0.019269
   15  N  1 YZ    0.002328  -0.002819   0.020154  -0.002449  -0.023915
   16  H  2  S    0.188326  -0.211652   0.333540   0.101316  -0.463953
   17  H  2  S    0.003658  -0.076910   0.066538   0.026246  -0.054539
   18  H  2  X    0.005451   0.015253   0.007860   0.005109  -0.028553
   19  H  2  Y   -0.032779   0.021922  -0.026835  -0.016143   0.055419
   20  H  2  Z   -0.009807   0.005142  -0.021208   0.018151  -0.014138
   21  H  3  S    0.184424  -0.215738  -0.325368   0.129634  -0.528201
   22  H  3  S   -0.000900  -0.025357  -0.033393   0.030520  -0.057408
   23  H  3  X    0.017113   0.005739  -0.024791   0.007074  -0.031644
   24  H  3  Y    0.032343  -0.027101  -0.025625   0.013776  -0.060028
   25  H  3  Z   -0.004362   0.006719   0.010963   0.020907  -0.009908
   26  H  4  S    0.188230   0.393467  -0.055606   0.097798  -0.474718
   27  H  4  S    0.003409   0.094092  -0.041393   0.023957  -0.056103
   28  H  4  X   -0.031666  -0.027854   0.000599  -0.017562   0.063695
   29  H  4  Y   -0.010392  -0.012886   0.019657  -0.002675  -0.000152
   30  H  4  Z   -0.011171  -0.023672  -0.002881   0.017968  -0.011784

                      6          7

    1  N  1  S    0.034116  -0.057229
    2  N  1  S    0.075733  -0.124149
    3  N  1  S   -0.070660   0.099099
    4  N  1  X   -0.881497   0.015715
    5  N  1  Y   -0.020634   0.916439
    6  N  1  Z   -0.023340   0.015373
    7  N  1  X   -0.033591   0.042712
    8  N  1  Y   -0.044611   0.085716
    9  N  1  Z   -0.002662   0.013534
   10  N  1 XX    0.021704   0.024572
   11  N  1 YY   -0.028455  -0.013606
   12  N  1 ZZ    0.006751  -0.010965
   13  N  1 XY    0.023256  -0.011873
   14  N  1 XZ    0.027315  -0.013525
   15  N  1 YZ    0.015459  -0.048999
   16  H  2  S   -0.323019  -0.607422
   17  H  2  S   -0.105352  -0.143984
   18  H  2  X    0.023429  -0.029532
   19  H  2  Y    0.033261   0.040990
   20  H  2  Z    0.018427  -0.004532
   21  H  3  S   -0.358665   0.632938
   22  H  3  S   -0.065834   0.115047
   23  H  3  X   -0.008712   0.031609
   24  H  3  Y   -0.032240   0.051865
   25  H  3  Z   -0.004101   0.011913
   26  H  4  S    0.692364  -0.015457
   27  H  4  S    0.177138   0.023604
   28  H  4  X   -0.050262   0.007259
   29  H  4  Y   -0.008469  -0.037885
   30  H  4  Z   -0.008369  -0.016374

Actually Used Diabatic Molecualr Orbitals:

                      1          2          3          4          5

    1  N  1  S    0.007945   0.013372   0.014951  -0.012391   0.230250
    2  N  1  S    0.436448   0.028313   0.028947  -0.185934   0.769158
    3  N  1  S    0.310155  -0.012114  -0.002522  -0.280645   0.178801
    4  N  1  X   -0.004964   0.462406   0.006425   0.017754  -0.001954
    5  N  1  Y   -0.009135   0.052192   0.497402   0.023102  -0.016733
    6  N  1  Z    0.087698   0.020926   0.026713   0.599156   0.637403
    7  N  1  X   -0.007258   0.261213  -0.061556  -0.022907   0.022017
    8  N  1  Y   -0.004298  -0.039759   0.199122  -0.027908   0.026622
    9  N  1  Z    0.013746  -0.030615  -0.033276   0.383440  -0.073019
   10  N  1 XX   -0.002397   0.014915  -0.002275  -0.011364   0.023062
   11  N  1 YY    0.001814  -0.014507   0.002882  -0.011770  -0.023377
   12  N  1 ZZ    0.000583  -0.000408  -0.000607   0.023134   0.000315
   13  N  1 XY    0.003500   0.001139  -0.010538  -0.001722  -0.037315
   14  N  1 XZ    0.001071   0.024704  -0.005309  -0.000781  -0.019269
   15  N  1 YZ    0.002328  -0.002819   0.020154  -0.002449  -0.023915
   16  H  2  S    0.188326  -0.211652   0.333540   0.101316  -0.463953
   17  H  2  S    0.003658  -0.076910   0.066538   0.026246  -0.054539
   18  H  2  X    0.005451   0.015253   0.007860   0.005109  -0.028553
   19  H  2  Y   -0.032779   0.021922  -0.026835  -0.016143   0.055419
   20  H  2  Z   -0.009807   0.005142  -0.021208   0.018151  -0.014138
   21  H  3  S    0.184424  -0.215738  -0.325368   0.129634  -0.528201
[...]
      253    0.029706    0.029706  20+2-+0
      460   -0.027915   -0.027915  -++2+-0
       74    0.027381   -0.027381  2022+00
      288   -0.027283   -0.027283  +-+2-+0
      822   -0.026614    0.026614  2+02002
      112   -0.025441   -0.025441  +2-20+0
      142    0.025017    0.025017  22+0200
      248   -0.023939    0.023939  2+02200
       51   -0.023823    0.023823  22+-00+
      716    0.023355    0.023355  22+0002
      458    0.023181   -0.023181  2+02+-0
      148   -0.023075   -0.023075  2-++-+0
       76    0.022940    0.022940  2+2-0+0
      771   -0.021990   -0.021990  +22+00-
      457   -0.021518    0.021518  2++-+-0
      145   -0.021200   -0.021200  -2++200
       52   -0.021196    0.021196  220200+
        8   -0.020424    0.020424  2-2+0+0
      250    0.020291    0.020291  -++2200
      297   -0.020146    0.020146  +202-0+

 ---------------------------------------
    -DIABATIC STATES IN PROTOTYPES-     
 ---------------------------------------

     STATE:    1
 Group Ref#    Coefficients
     1    1    0.974420
     2    2    0.000238
     3    3   -0.001223

WEIGHT OF LISTED PROTOTYPES:   94.95%

     STATE:    2
 Group Ref#    Coefficients
     1    1    0.000238
     2    2    0.974977
     3    3   -0.000563

WEIGHT OF LISTED PROTOTYPES:   95.06%

     STATE:    3
 Group Ref#    Coefficients
     1    1   -0.001223
     2    2   -0.000563
     3    3    0.973166

WEIGHT OF LISTED PROTOTYPES:   94.71%

 --------------------------------------------------
 IN DIRECT MAX. DIABATIZATION FOR GMC-QDPT

 DIRECT MAXIMIZATION (DM) WITHOUT TRUNCATING ADIABATS
 EXPANSIONS INTO THE REFERENCE CONFIGURATION SPACE
 --------------------------------------------------

 -------------------------------------------
 - DM DIABT PT HAMILTONIAN MATRIX ELEMENTS -
 -------------------------------------------
                                            
 --- DIABATIC ENERGIES (DIAGONAL ELEMENT) ---       HARTREE            EV
 STATE #  1'S GMC-PT-LEVEL DIABATIC ENERGY=     -55.963035843       0.000000000
 STATE #  2'S GMC-PT-LEVEL DIABATIC ENERGY=     -55.822036314       3.836792598
 STATE #  3'S GMC-PT-LEVEL DIABATIC ENERGY=     -55.731512628       6.300067561

 --- DIABATIC COUPLINGS (OFF DIAGONAL ELEMENTS)---  HATREE            EV
 STATE #  1 &  2'S GMC-PT-LEVEL COUPLING  =      -0.022682515      -0.617222667
 STATE #  1 &  3'S GMC-PT-LEVEL COUPLING  =      -0.029991293      -0.816104648
 STATE #  2 &  3'S GMC-PT-LEVEL COUPLING  =       0.066860087       1.819355648

 ---------------------------------------
     - ROTATION TO DIABATIC STATES -    
 ---------------------------------------
 ROWS=ADIABATIC, COLUMNS=DIABATIC STATES

             1           2           3

    1   -0.9894288  -0.1103265  -0.0941211
    2    0.0521929  -0.8764397   0.4786745
    3   -0.1353020   0.4687019   0.8729329

 ---------------------------------------
          - DIABATIC STATES -           
 ---------------------------------------

 State #    1  Energy =     -55.963035843

      Det      Coef        Coefp    Occupancy (Ignoring core)
      ---      ----        ----    --------- --------- -----
        1    0.955814   -0.955814  222+000
        8   -0.102543    0.102543  2-2+0+0
      393   -0.074233   -0.074233  202+020
      386    0.072555   -0.072555  2+2+0-0
      717   -0.067141   -0.067141  220+002
        3   -0.065626   -0.065626  22-++00
      141    0.064108    0.064108  22++-00
        7    0.063782    0.063782  22-+0+0
      351   -0.058959   -0.058959  22++0-0
        4   -0.056241    0.056241  2-2++00
      176    0.054646   -0.054646  2+2+-00
       18   -0.053120    0.053120  2-2+00+
      736    0.050944   -0.050944  2+2+00-
       16   -0.042683    0.042683  222000+
      708    0.039952   -0.039952  2-++0+-
      402    0.038127   -0.038127  2+-+0-+
      215   -0.036659   -0.036659  022+200
      218    0.034525   -0.034525  +-2+-+0
        6    0.034197   -0.034197  22200+0
      390    0.034031   -0.034031  -+2++-0
      227   -0.033391   -0.033391  +2-+-0+
      705   -0.033330   -0.033330  -2+++0-
       17    0.030836    0.030836  22-+00+
       76    0.029988    0.029988  2+2-0+0
      212    0.029236    0.029236  +220200
      113   -0.027538    0.027538  +-220+0
       51   -0.026195    0.026195  22+-00+
      424   -0.024692   -0.024692  +-2++-0
      122    0.024135    0.024135  +2-200+
      387   -0.024090    0.024090  2+20+-0
      143   -0.023903   -0.023903  220+200
      184   -0.023784   -0.023784  -+2+-+0
      773    0.023049   -0.023049  +2-++0-
     1051   -0.022954   -0.022954  2+++0--
      179   -0.022715   -0.022715  202+200
      702    0.022412    0.022412  22+0+0-
      159    0.022286   -0.022286  -2++-0+
       29   -0.020305   -0.020305  2--+0++

 State #    2  Energy =     -55.822036314

      Det      Coef        Coefp    Occupancy (Ignoring core)
      ---      ----        ----    --------- --------- -----
       71   -0.958942    0.958942  2+22000
       74    0.083870   -0.083870  2022+00
      246    0.077513    0.077513  2++2-00
       77    0.067452   -0.067452  2+-20+0
      822    0.066060   -0.066060  2+02002
       73   -0.065914    0.065914  2+-2+00
       76    0.062512    0.062512  2+2-0+0
      456   -0.061863   -0.061863  2++20-0
      736    0.052283   -0.052283  2+2+00-
       88    0.050277   -0.050277  202200+
      386   -0.049557    0.049557  2+2+0-0
       86   -0.049432   -0.049432  2+2-00+
       78    0.047239   -0.047239  20220+0
       36    0.045287    0.045287  22+2000
      813    0.043403   -0.043403  20+20+-
      320    0.036392    0.036392  0+22200
      323   -0.036280    0.036280  +022-+0
      111    0.034353   -0.034353  +22-0+0
      810   -0.033885   -0.033885  -++2+0-
      332   -0.031926    0.031926  ++-2-0+
      113    0.031584   -0.031584  +-220+0
      180   -0.030567    0.030567  -+2+200
      106    0.030349    0.030349  +222000
      317    0.030329   -0.030329  ++2-200
       99   -0.030255    0.030255  20-20++
       38   -0.029315    0.029315  2202+00
      177    0.029208   -0.029208  2+20200
      183   -0.029093    0.029093  202+-+0
       81    0.025078    0.025078  202-++0
      248    0.024190   -0.024190  2+02200
      526   -0.024023   -0.024023  ++220-0
      807   -0.023592    0.023592  2++-+0-
        6    0.023264   -0.023264  22200+0
      192   -0.023249    0.023249  2+-+-0+
      529    0.022669    0.022669  +022+-0
      878    0.022317    0.022317  ++-2+0-
      391    0.022149   -0.022149  2+20020
       72   -0.022049   -0.022049  2+2-+00
      264    0.021559   -0.021559  -++2-0+
       51    0.021451   -0.021451  22+-00+
      534    0.020532    0.020532  0+22020
      252   -0.020220   -0.020220  2+02-+0

 State #    3  Energy =     -55.731512628

      Det      Coef        Coefp    Occupancy (Ignoring core)
      ---      ----        ----    --------- --------- -----
       36   -0.960005   -0.960005  22+2000
      463    0.077009   -0.077009  20+2020
      456   -0.074008   -0.074008  2++20-0
       38    0.068180   -0.068180  2202+00
       43    0.060296    0.060296  2-+20+0
       53    0.059776    0.059776  2-+200+
      246   -0.059414   -0.059414  2++2-00
      806   -0.057189   -0.057189  2++200-
       42   -0.055999    0.055999  22020+0
       51   -0.054020    0.054020  22+-00+
      701    0.050180    0.050180  22++00-
       71   -0.046945    0.046945  2+22000
      472   -0.044586   -0.044586  2+020-+
      121   -0.040747    0.040747  +22-00+
      285    0.037104   -0.037104  02+2200
      460   -0.036048   -0.036048  -++2+-0
      112   -0.035267   -0.035267  +2-20+0
      288   -0.034650   -0.034650  +-+2-+0
      106    0.033690    0.033690  +222000
      297    0.033379   -0.033379  +202-0+
      351   -0.031841   -0.031841  22++0-0
       39    0.031107    0.031107  2-+2+00
      282    0.030856    0.030856  +2+-200
       64    0.030490   -0.030490  2-020++
      145   -0.030480   -0.030480  -2++200
      142    0.029192    0.029192  22+0200
       52    0.029067   -0.029067  220200+
       73    0.028308   -0.028308  2+-2+00
      457   -0.027886    0.027886  2++-+-0
      148   -0.027002   -0.027002  2-++-+0
       16   -0.026040    0.026040  222000+
      249    0.025741   -0.025741  20+2200
      254    0.025129   -0.025129  -++2-+0
      494    0.024178   -0.024178  +-+2+-0
      157    0.024145   -0.024145  220+-0+
       37   -0.023169    0.023169  22+-+00
      123    0.022395   -0.022395  +-2200+
      716    0.022207    0.022207  22+0002
       44    0.021838   -0.021838  -2+20+0
      771    0.021172    0.021172  +22+00-
      356    0.020326    0.020326  22+0020
      843   -0.020134   -0.020134  +202+0-

 ---------------------------------------
      - DIABATIC STATES IN CMO -        
 ---------------------------------------

 State #    1  Energy =     -55.963035843

      Det      Coef        Coefp    Occupancy (Ignoring core)
      ---      ----        ----    --------- --------- -----
        1    0.966442   -0.966442  222+000
       36    0.131054    0.131054  22+2000
      393   -0.082953   -0.082953  202+020
       71    0.068231   -0.068231  2+22000
      717   -0.063383   -0.063383  220+002
        8   -0.040598    0.040598  2-2+0+0
       17   -0.039786   -0.039786  22-+00+
      215   -0.034960   -0.034960  022+200
      402   -0.032651    0.032651  2+-+0-+
      390    0.032565   -0.032565  -+2++-0
      218    0.030910   -0.030910  +-2+-+0
      179   -0.030822   -0.030822  202+200
      106   -0.030792   -0.030792  +222000
      708   -0.030749    0.030749  2-++0+-
       76    0.030490    0.030490  2+2-0+0
      388   -0.029235   -0.029235  2+-++-0
      113   -0.028108    0.028108  +-220+0
        2    0.027229   -0.027229  2220+00
      143   -0.025659   -0.025659  220+200
      705    0.025030    0.025030  -2+++0-
      387   -0.024367    0.024367  2+20+-0
      148   -0.024195   -0.024195  2-++-+0
      227    0.024032    0.024032  +2-+-0+
       51    0.022978   -0.022978  22+-00+
      212    0.022462    0.022462  +220200
      122   -0.021745   -0.021745  +2-200+
      424   -0.021150   -0.021150  +-2++-0
      184   -0.020807   -0.020807  -+2+-+0
      716   -0.020442   -0.020442  22+0002
      787   -0.020213    0.020213  +2-+002
      357   -0.020178   -0.020178  220+020

 State #    2  Energy =     -55.822036314

      Det      Coef        Coefp    Occupancy (Ignoring core)
      ---      ----        ----    --------- --------- -----
       71   -0.858782    0.858782  2+22000
       36   -0.461254   -0.461254  22+2000
        1    0.123463   -0.123463  222+000
      822    0.054989   -0.054989  2+02002
      463    0.046521   -0.046521  20+2020
      813   -0.032374    0.032374  20+20+-
      320    0.030657    0.030657  0+22200
      177    0.028491   -0.028491  2+20200
      323   -0.027956    0.027956  +022-+0
      113    0.027789   -0.027789  +-220+0
      183   -0.026481    0.026481  202+-+0
      462    0.024306   -0.024306  2+02020
      112    0.024025    0.024025  +2-20+0
        6    0.023439   -0.023439  22200+0
      810    0.022469    0.022469  -++2+0-
      111    0.021771   -0.021771  +22-0+0
       73   -0.021705    0.021705  2+-2+00
      180   -0.021579    0.021579  -+2+200
      253   -0.021497   -0.021497  20+2-+0
      248    0.021207   -0.021207  2+02200
      751    0.020877   -0.020877  2+20002
      332    0.020623   -0.020623  ++-2-0+
       81    0.020354    0.020354  202-++0

 State #    3  Energy =     -55.731512628

      Det      Coef        Coefp    Occupancy (Ignoring core)
      ---      ----        ----    --------- --------- -----
       36   -0.852969   -0.852969  22+2000
       71    0.475059   -0.475059  2+22000
        1    0.082482   -0.082482  222+000
      463    0.069350   -0.069350  20+2020
      121    0.037703   -0.037703  +22-00+
      249    0.033980   -0.033980  20+2200
      113    0.033181   -0.033181  +-220+0
      285    0.030864   -0.030864  02+2200
      472    0.030069    0.030069  2+020-+
      253    0.029706    0.029706  20+2-+0
      460   -0.027915   -0.027915  -++2+-0
       74    0.027381   -0.027381  2022+00
      288   -0.027283   -0.027283  +-+2-+0
      822   -0.026614    0.026614  2+02002
      112   -0.025441   -0.025441  +2-20+0
      142    0.025017    0.025017  22+0200
      248   -0.023939    0.023939  2+02200
       51   -0.023823    0.023823  22+-00+
      716    0.023355    0.023355  22+0002
      458    0.023181   -0.023181  2+02+-0
      148   -0.023075   -0.023075  2-++-+0
       76    0.022940    0.022940  2+2-0+0
      771   -0.021990   -0.021990  +22+00-
      457   -0.021518    0.021518  2++-+-0
      145   -0.021200   -0.021200  -2++200
       52   -0.021196    0.021196  220200+
        8   -0.020424    0.020424  2-2+0+0
      250    0.020291    0.020291  -++2200
      297   -0.020146    0.020146  +202-0+

 ---------------------------------------
    -DIABATIC STATES IN PROTOTYPES-     
 ---------------------------------------

     STATE:    1
 Group Ref#    Coefficients
     1    1    0.974420
     2    2    0.000238
     3    3   -0.001222

WEIGHT OF LISTED PROTOTYPES:   94.95%

     STATE:    2
 Group Ref#    Coefficients
     1    1    0.000238
     2    2    0.974977
     3    3   -0.000563

WEIGHT OF LISTED PROTOTYPES:   95.06%

     STATE:    3
 Group Ref#    Coefficients
     1    1   -0.001223
     2    2   -0.000564
     3    3    0.973166

WEIGHT OF LISTED PROTOTYPES:   94.71%

     DIRECT MAX. DIABATIZATION FINISHED    
 CPU     0: STEP CPU TIME=     0.24 TOTAL CPU TIME=         13.3 (      0.2 MIN)
 TOTAL WALL CLOCK TIME=         13.3 SECONDS, CPU UTILIZATION IS    99.92%

DIABATS FOR SPIN-ORBIT CALCULATION ARE READY

TRANSITION DIPOLES BETWEEN ADIABATS (in A.U.):

STATE PAIR      X         Y         Z
    1    1  0.157430  0.221583  0.742013
    2    1 -0.045715  0.018130 -0.027169
    2    2  0.068006  0.023470  0.262340
    3    1 -0.043044 -0.087763  0.068645
    3    2  0.124313 -0.094548  0.000398
    3    3  0.316820  0.473392  0.242964


TRANSITION DIPOLES BETWEEN DIABATS (in A.U.):

STATE PAIR      X         Y         Z
    1    1  0.151545  0.201618  0.752750
    2    1 -0.008295  0.034576 -0.000566
    2    2  0.017233  0.214982  0.251241
    3    1  0.035058  0.033133  0.001538
    3    2  0.040199  0.250126 -0.013607
    3    3  0.373478  0.301846  0.243325

TRANSITION DIPOLES BETWEEN DIRECT MAX. DIABATS (in A.U.):

STATE PAIR      X         Y         Z
    1    1  0.151545  0.201618  0.752750
    2    1 -0.008295  0.034576 -0.000566
    2    2  0.017233  0.214982  0.251241
    3    1  0.035058  0.033134  0.001538
    3    2  0.040199  0.250126 -0.013607
    3    3  0.373478  0.301845  0.243325
 No $TRANST Group Found.
 Quit without doing spin-orbit coupling
 ..... DONE WITH MP2 ENERGY .....
 CPU     0: STEP CPU TIME=     0.01 TOTAL CPU TIME=         13.3 (      0.2 MIN)
 TOTAL WALL CLOCK TIME=         13.3 SECONDS, CPU UTILIZATION IS   100.00%
            100000000  WORDS OF DYNAMIC MEMORY USED
 EXECUTION OF GAMESS TERMINATED NORMALLY Wed Nov 16 19:54:53 2022
 DDI: 715512 bytes (0.7 MB / 0 MWords) used by master data server.

 ----------------------------------------
 CPU timing information for all processes
 ========================================
 0: 12.942 + 0.340 = 13.282
 ----------------------------------------
Note: The following floating-point exceptions are signalling: IEEE_DENORMAL
 ddikick.x: exited gracefully.
unset echo
----- accounting info -----
Files used on the master node io002 were:
-rw-r--r-- 1 bsonghao nooijen   20725 Nov 16 19:54 /scratch/bsonghao/nh3_diabatization_2d_at_mode_7_8_dist0.4_0.3.F05
-rw-r--r-- 1 bsonghao nooijen  363520 Nov 16 19:54 /scratch/bsonghao/nh3_diabatization_2d_at_mode_7_8_dist0.4_0.3.F09
-rw-r--r-- 1 bsonghao nooijen 1995920 Nov 16 19:54 /scratch/bsonghao/nh3_diabatization_2d_at_mode_7_8_dist0.4_0.3.F10
-rw-r--r-- 1 bsonghao nooijen  131264 Nov 16 19:54 /scratch/bsonghao/nh3_diabatization_2d_at_mode_7_8_dist0.4_0.3.F13
-rw-r--r-- 1 bsonghao nooijen  180312 Nov 16 19:54 /scratch/bsonghao/nh3_diabatization_2d_at_mode_7_8_dist0.4_0.3.F15
-rw-r--r-- 1 bsonghao nooijen       0 Nov 16 19:54 /scratch/bsonghao/nh3_diabatization_2d_at_mode_7_8_dist0.4_0.3.F16
-rw-r--r-- 1 bsonghao nooijen    9808 Nov 16 19:54 /scratch/bsonghao/nh3_diabatization_2d_at_mode_7_8_dist0.4_0.3.F70
-rw-r--r-- 1 bsonghao nooijen    9808 Nov 16 19:54 /scratch/bsonghao/nh3_diabatization_2d_at_mode_7_8_dist0.4_0.3.F71
-rw-r--r-- 1 bsonghao nooijen   19608 Nov 16 19:54 /scratch/bsonghao/nh3_diabatization_2d_at_mode_7_8_dist0.4_0.3.F72
-rw-r--r-- 1 bsonghao nooijen   19608 Nov 16 19:54 /scratch/bsonghao/nh3_diabatization_2d_at_mode_7_8_dist0.4_0.3.F73
-rw-r--r-- 1 bsonghao nooijen 1920824 Nov 16 19:54 /scratch/bsonghao/nh3_diabatization_2d_at_mode_7_8_dist0.4_0.3.F74
-rw-r--r-- 1 bsonghao nooijen       0 Nov 16 19:54 /scratch/bsonghao/nh3_diabatization_2d_at_mode_7_8_dist0.4_0.3.F75
-rw-r--r-- 1 bsonghao nooijen   58848 Nov 16 19:54 /scratch/bsonghao/nh3_diabatization_2d_at_mode_7_8_dist0.4_0.3.F76
-rw-r--r-- 1 bsonghao nooijen       0 Nov 16 19:54 /scratch/bsonghao/nh3_diabatization_2d_at_mode_7_8_dist0.4_0.3.F77
-rw-r--r-- 1 bsonghao nooijen    1864 Nov 16 19:54 /scratch/bsonghao/nh3_diabatization_2d_at_mode_7_8_dist0.4_0.3.F78
-rw-r--r-- 1 bsonghao nooijen   39208 Nov 16 19:54 /scratch/bsonghao/nh3_diabatization_2d_at_mode_7_8_dist0.4_0.3.F79
-rw-r--r-- 1 bsonghao nooijen     104 Nov 16 19:54 /scratch/bsonghao/nh3_diabatization_2d_at_mode_7_8_dist0.4_0.3.F80
-rw-r--r-- 1 bsonghao nooijen   13472 Nov 16 19:54 /scratch/bsonghao/nh3_diabatization_2d_at_mode_7_8_dist0.4_0.3.F81
-rw-r--r-- 1 bsonghao nooijen      16 Nov 16 19:54 /scratch/bsonghao/nh3_diabatization_2d_at_mode_7_8_dist0.4_0.3.F82
-rw-r--r-- 1 bsonghao nooijen   19216 Nov 16 19:54 /scratch/bsonghao/nh3_diabatization_2d_at_mode_7_8_dist0.4_0.3.F83
-rw-r--r-- 1 bsonghao nooijen   29712 Nov 16 19:54 /scratch/bsonghao/nh3_diabatization_2d_at_mode_7_8_dist0.4_0.3.F84
-rw-r--r-- 1 bsonghao nooijen  401576 Nov 16 19:54 /scratch/bsonghao/nh3_diabatization_2d_at_mode_7_8_dist0.4_0.3.F85
-rw-r--r-- 1 bsonghao nooijen  903672 Nov 16 19:54 /scratch/bsonghao/nh3_diabatization_2d_at_mode_7_8_dist0.4_0.3.F86
-rw-r--r-- 1 bsonghao nooijen     656 Nov 16 19:54 /scratch/bsonghao/nh3_diabatization_2d_at_mode_7_8_dist0.4_0.3.F87
-rw-r--r-- 1 bsonghao nooijen   29360 Nov 16 19:54 /scratch/bsonghao/nh3_diabatization_2d_at_mode_7_8_dist0.4_0.3.F88
-rw-r--r-- 1 bsonghao nooijen     240 Nov 16 19:54 /scratch/bsonghao/nh3_diabatization_2d_at_mode_7_8_dist0.4_0.3.F89
-rw-r--r-- 1 bsonghao nooijen       0 Nov 16 19:54 /scratch/bsonghao/nh3_diabatization_2d_at_mode_7_8_dist0.4_0.3.F90
-rw-r--r-- 1 bsonghao nooijen   13760 Nov 16 19:54 /scratch/bsonghao/nh3_diabatization_2d_at_mode_7_8_dist0.4_0.3.F91
-rw-r--r-- 1 bsonghao nooijen   22776 Nov 16 19:54 /scratch/bsonghao/nh3_diabatization_2d_at_mode_7_8_dist0.4_0.3.F92
-rw-r--r-- 1 bsonghao nooijen   23168 Nov 16 19:54 /scratch/bsonghao/nh3_diabatization_2d_at_mode_7_8_dist0.4_0.3.F93
-rw-r--r-- 1 bsonghao nooijen   22776 Nov 16 19:54 /scratch/bsonghao/nh3_diabatization_2d_at_mode_7_8_dist0.4_0.3.F94
-rw-r--r-- 1 bsonghao nooijen   13760 Nov 16 19:54 /scratch/bsonghao/nh3_diabatization_2d_at_mode_7_8_dist0.4_0.3.F95
-rw-r--r-- 1 bsonghao nooijen   29440 Nov 16 19:54 /scratch/bsonghao/nh3_diabatization_2d_at_mode_7_8_dist0.4_0.3.F96
-rw-r--r-- 1 bsonghao nooijen    1184 Nov 16 19:54 /scratch/bsonghao/nh3_diabatization_2d_at_mode_7_8_dist0.4_0.3.F97
-rw-r--r-- 1 bsonghao nooijen    9808 Nov 16 19:54 /scratch/bsonghao/nh3_diabatization_2d_at_mode_7_8_dist0.4_0.3.F98
-rw-r--r-- 1 bsonghao nooijen   30264 Nov 16 19:54 /scratch/bsonghao/nh3_diabatization_2d_at_mode_7_8_dist0.4_0.3.F99
ls: No match.
ls: No match.
ls: No match.
Wed 16 Nov 2022 07:54:56 PM EST
0.304u 0.030s 0:16.66 1.9%	0+0k 48+224io 0pf+0w
