----- GAMESS execution script 'rungms' -----
This job is running on host io001
under operating system Linux at Sat 16 Dec 2023 11:24:10 PM EST
Available scratch disk space (Kbyte units) at beginning of the job is
Filesystem             1K-blocks       Used Available Use% Mounted on
helmholtz.nlogn:/home 6391504896 5238957056 830409728  87% /home
GAMESS temporary binary files will be written to /home/bjb2chen/gmsscr/
GAMESS supplementary output files will be written to /home/bjb2chen/gamess/vibronics/RhF3
Copying input file RhF3_cat24_SPK_rhf_D3h_e_F2sfilled.inp to your run's scratch directory...
cp RhF3_cat24_SPK_rhf_D3h_e_F2sfilled.inp /home/bjb2chen/gmsscr//RhF3_cat24_SPK_rhf_D3h_e_F2sfilled.F05
unset echo
Please save, rename, or erase these files from a previous run:
     /home/bjb2chen/gamess/vibronics/RhF3/RhF3_cat24_SPK_rhf_D3h_e_F2sfilled.casino,
     /home/bjb2chen/gamess/vibronics/RhF3/RhF3_cat24_SPK_rhf_D3h_e_F2sfilled.dmn,
     /home/bjb2chen/gamess/vibronics/RhF3/RhF3_cat24_SPK_rhf_D3h_e_F2sfilled.cim,
     /home/bjb2chen/gamess/vibronics/RhF3/RhF3_cat24_SPK_rhf_D3h_e_F2sfilled.cosmo,
     /home/bjb2chen/gamess/vibronics/RhF3/RhF3_cat24_SPK_rhf_D3h_e_F2sfilled.pot,
     /home/bjb2chen/gamess/vibronics/RhF3/RhF3_cat24_SPK_rhf_D3h_e_F2sfilled.gamma,
     /home/bjb2chen/gamess/vibronics/RhF3/RhF3_cat24_SPK_rhf_D3h_e_F2sfilled.efp,
     /home/bjb2chen/gamess/vibronics/RhF3/RhF3_cat24_SPK_rhf_D3h_e_F2sfilled.dip,
     /home/bjb2chen/gamess/vibronics/RhF3/RhF3_cat24_SPK_rhf_D3h_e_F2sfilled.hs1,
     /home/bjb2chen/gamess/vibronics/RhF3/RhF3_cat24_SPK_rhf_D3h_e_F2sfilled.hs2,
     /home/bjb2chen/gamess/vibronics/RhF3/RhF3_cat24_SPK_rhf_D3h_e_F2sfilled.dat,
     /home/bjb2chen/gamess/vibronics/RhF3/RhF3_cat24_SPK_rhf_D3h_e_F2sfilled.qmw,
     /home/bjb2chen/gamess/vibronics/RhF3/RhF3_cat24_SPK_rhf_D3h_e_F2sfilled.rst, and/or
     /home/bjb2chen/gamess/vibronics/RhF3/RhF3_cat24_SPK_rhf_D3h_e_F2sfilled.trj,
and then resubmit this computation.
Benny is deleting them all
 
Assuming a single but multicore node.
 
/home/bjb2chen/gamess/ddikick.x /home/bjb2chen/gamess/gamess.00.x RhF3_cat24_SPK_rhf_D3h_e_F2sfilled -ddi 1 12 io001:cpus=12 -scr /home/bjb2chen/gmsscr/

 Distributed Data Interface kickoff program.
 Initiating 12 compute processes on 1 nodes to run the following command:
 /home/bjb2chen/gamess/gamess.00.x RhF3_cat24_SPK_rhf_D3h_e_F2sfilled 

          ******************************************************
          *         GAMESS VERSION = 02 AUG 2018 (R2)         *
          *             FROM IOWA STATE UNIVERSITY             *
          * M.W.SCHMIDT, K.K.BALDRIDGE, J.A.BOATZ, S.T.ELBERT, *
          *   M.S.GORDON, J.H.JENSEN, S.KOSEKI, N.MATSUNAGA,   *
          *          K.A.NGUYEN, S.J.SU, T.L.WINDUS,           *
          *       TOGETHER WITH M.DUPUIS, J.A.MONTGOMERY       *
          *         J.COMPUT.CHEM.  14, 1347-1363(1993)        *
          **************** 64 BIT LINUX VERSION ****************

  SINCE 1993, STUDENTS AND POSTDOCS WORKING AT IOWA STATE UNIVERSITY
  AND ALSO IN THEIR VARIOUS JOBS AFTER LEAVING ISU HAVE MADE IMPORTANT
  CONTRIBUTIONS TO THE CODE:
     IVANA ADAMOVIC, CHRISTINE AIKENS, YURI ALEXEEV, POOJA ARORA,
     ANDREY ASADCHEV, ROB BELL, PRADIPTA BANDYOPADHYAY, JONATHAN BENTZ,
     BRETT BODE, KURT BRORSEN, CALEB CARLIN, GALINA CHABAN, WEI CHEN,
     CHEOL HO CHOI, PAUL DAY, ALBERT DEFUSCO, NUWAN DESILVA, TIM DUDLEY,
     DMITRI FEDOROV, ALEX FINDLATER, GRAHAM FLETCHER, MARK FREITAG,
     KURT GLAESEMANN, ANASTASIA GUININA,
     DAN KEMP, GRANT MERRILL, NORIYUKI MINEZAWA, JONATHAN MULLIN,
     TAKESHI NAGATA, SEAN NEDD, HEATHER NETZLOFF, BOSILJKA NJEGIC, RYAN OLSON,
     MIKE PAK, BUU PHAM,
     SPENCER PRUITT, LUKE ROSKOP, JIM SHOEMAKER, LYUDMILA SLIPCHENKO,
     TONY SMITH, SAROM SOK LEANG, JIE SONG, TETSUYA TAKETSUGU, SIMON WEBB,
     PENG XU, SOOHAENG YOO, FEDERICO ZAHARIEV

  ADDITIONAL CODE HAS BEEN PROVIDED BY COLLABORATORS IN OTHER GROUPS:
     IOWA STATE UNIVERSITY:
          JOE IVANIC, AARON WEST, LAIMUTIS BYTAUTAS, KLAUS RUEDENBERG
     UNIVERSITY OF TOKYO: KIMIHIKO HIRAO, TAKAHITO NAKAJIMA,
          TAKAO TSUNEDA, MUNEAKI KAMIYA, SUSUMU YANAGISAWA,
          KIYOSHI YAGI, MAHITO CHIBA, SEIKEN TOKURA, NAOAKI KAWAKAMI
     UNIVERSITY OF AARHUS: FRANK JENSEN
     UNIVERSITY OF IOWA: VISVALDAS KAIRYS, HUI LI
     NATIONAL INST. OF STANDARDS AND TECHNOLOGY: WALT STEVENS, DAVID GARMER
     UNIVERSITY OF PISA: BENEDETTA MENNUCCI, JACOPO TOMASI
     UNIVERSITY OF MEMPHIS: HENRY KURTZ, PRAKASHAN KORAMBATH
     UNIVERSITY OF ALBERTA: TOBY ZENG, MARIUSZ KLOBUKOWSKI
     UNIVERSITY OF NEW ENGLAND: MARK SPACKMAN
     MIE UNIVERSITY: HIROAKI UMEDA
     NAT. INST. OF ADVANCED INDUSTRIAL SCIENCE AND TECHNOLOGY: KAZUO KITAURA
     MICHIGAN STATE UNIVERSITY:
          KAROL KOWALSKI, MARTA WLOCH, JEFFREY GOUR, JESSE LUTZ,
          WEI LI, JUN SHEN, J. EMILIANO DEUSTUA, PIOTR PIECUCH
     UNIVERSITY OF MINNESOTA:
          YINAN SHU
     UNIVERSITY OF SILESIA: MONIKA MUSIAL, STANISLAW KUCHARSKI
     FACULTES UNIVERSITAIRES NOTRE-DAME DE LA PAIX:
          OLIVIER QUINET, BENOIT CHAMPAGNE
     UNIVERSITY OF CALIFORNIA - SANTA BARBARA: BERNARD KIRTMAN
     INSTITUTE FOR MOLECULAR SCIENCE:
          KAZUYA ISHIMURA, MICHIO KATOUDA, AND SHIGERU NAGASE
     UNIVERSITY OF NOTRE DAME: ANNA POMOGAEVA, DAN CHIPMAN
     KYUSHU UNIVERSITY:
          HARUYUKI NAKANO,
          FENG LONG GU, JACEK KORCHOWIEC, MARCIN MAKOWSKI, AND YURIKO AOKI,
          HIROTOSHI MORI AND EISAKU MIYOSHI
     PENNSYLVANIA STATE UNIVERSITY:
          TZVETELIN IORDANOV, CHET SWALINA, JONATHAN SKONE,
          SHARON HAMMES-SCHIFFER
     WASEDA UNIVERSITY:
          MASATO KOBAYASHI, TOMOKO AKAMA, TSUGUKI TOUMA,
          TAKESHI YOSHIKAWA, YASUHIRO IKABATA, JUNJI SEINO,
          YUYA NAKAJIMA, HIROMI NAKAI
     NANJING UNIVERSITY: SHUHUA LI
     UNIVERSITY OF NEBRASKA:
          PEIFENG SU, DEJUN SI, NANDUN THELLAMUREGE, YALI WANG, HUI LI
     UNIVERSITY OF ZURICH: ROBERTO PEVERATI, KIM BALDRIDGE
     N. COPERNICUS UNIVERSITY AND JACKSON STATE UNIVERSITY:
          MARIA BARYSZ
     UNIVERSITY OF COPENHAGEN: Jimmy Kromann, CASPER STEINMANN
     TOKYO INSTITUTE OF TECHNOLOGY: HIROYA NAKATA
     NAGOYA UNIVERSITY: YOSHIO NISHIMOTO, STEPHAN IRLE
     MOSCOW STATE UNIVERSITY: VLADIMIR MIRONOV


 PARALLEL VERSION RUNNING ON       12 PROCESSORS IN        1 NODES.

 EXECUTION OF GAMESS BEGUN Sat Dec 16 23:24:11 2023

            ECHO OF THE FIRST FEW INPUT CARDS -
 INPUT CARD> !Step 1: Energy convergence on D3h RhF3, fluorine 2s orbs filled               
 INPUT CARD> $system kdiag=3 mwords=200 memddi=3000 parall=.t. $end                         
 INPUT CARD> $contrl runtyp=energy ispher=1 relwfn=LUT-IOTC $end                            
 INPUT CARD> $contrl icut=9 itol=20 inttyp=rysquad qmttol=1.0d-05 nosym=0 $end              
 INPUT CARD> $scf    npunch=2 conv=1.0d-06 dirscf=.t. diis=.t. soscf=.f. ethrsh=10.0 $end   
 INPUT CARD> $contrl scftyp=rhf  mult=1 maxit=200 icharg=24 $end                            
 INPUT CARD> $guess  guess=moread norb=168 purify=.t. norder=1                              
 INPUT CARD>         iorder(25)=34,35,36,37,38,25,26,27,28,29,30,31,32,33 $end              
 INPUT CARD> $basis  gbasis=SPKrTZP $end                                                    
 INPUT CARD> -mcscf  cistep=gmcci fullnr=.t. finci=mos                                      
 INPUT CARD>         acurcy=1.d-6 maxit=100 $end                                            
 INPUT CARD> $trans  dirtrf=.t. $end                                                        
 INPUT CARD> -mrmp   mrpt=gmcpt rdvecs=.f. $end                                             
 INPUT CARD> -gmcpt  nmofzc=27 nmodoc=0 nmoact=5 nelact=5 stsym(1)=A nsolut=100             
 INPUT CARD>         reftyp=ormas nspace=1 mstart(1)=28 mine(1)=5 maxe(1)=5                 
 INPUT CARD>         kstate(1)=1                                                            
 INPUT CARD>         wstate(1)=1                                                            
 INPUT CARD>         iwgt=0 thrwgt=-1.0 krot=.f. kszdoe=.f. knospn=.f.                      
 INPUT CARD>         thrde=-1.0 edshft=0.02 $end                                            
 INPUT CARD> $statpt hssend=.t. $end                                                        
 INPUT CARD> $data                                                                          
 INPUT CARD> RhF3 filled 2s of F calculation                                                
 INPUT CARD> DNH 3                                                                          
 INPUT CARD>                                                                                
 INPUT CARD> Rh    45.0    0.0  0.0  0.0                                                    
 INPUT CARD> F      9.0    2.07 0.0  0.0                                                    
 INPUT CARD> $end                                                                           
 INPUT CARD>--- CLOSED SHELL ORBITALS --- GENERATED AT Sat Dec 16 16:28:57 2023             
 INPUT CARD> FeH4- 10 states calculation at opt geometry.                                   
 INPUT CARD>E(RHF)=    -4916.3139639807, E(NUC)=  346.4695025410,    9 ITERS                
 INPUT CARD> $VEC                                                                           
 INPUT CARD> 1  1 9.95680864E-01 1.09964775E-02-1.14545567E-02-1.17728125E-02 1.44248679E-02
 INPUT CARD> 1  2 8.53689339E-03-4.91426251E-03 1.28368047E-03-3.03167644E-04 0.00000000E+00
 INPUT CARD> 1  3 0.00000000E+00 0.00000000E+00 0.00000000E+00 0.00000000E+00 0.00000000E+00
 INPUT CARD> 1  4 0.00000000E+00 0.00000000E+00 0.00000000E+00 0.00000000E+00 0.00000000E+00
 INPUT CARD> 1  5 0.00000000E+00 0.00000000E+00 0.00000000E+00 0.00000000E+00 0.00000000E+00
 INPUT CARD> 1  6 0.00000000E+00 0.00000000E+00 0.00000000E+00 0.00000000E+00 0.00000000E+00
 INPUT CARD> 1  7 2.22606151E-06 2.22606151E-06-4.45212302E-06 0.00000000E+00 0.00000000E+00
 INPUT CARD> 1  8 0.00000000E+00-9.32781405E-06-9.32781405E-06 1.86556281E-05 0.00000000E+00
 INPUT CARD> 1  9 0.00000000E+00 0.00000000E+00 3.56681860E-05 3.56681860E-05-7.13363719E-05
 INPUT CARD> 1 10 0.00000000E+00 0.00000000E+00 0.00000000E+00-9.51191167E-05-9.51191167E-05
 INPUT CARD> 1 11 1.90238233E-04 0.00000000E+00 0.00000000E+00 0.00000000E+00 2.20186825E-05
 INPUT CARD> 1 12 2.20186825E-05-4.40373650E-05 0.00000000E+00 0.00000000E+00 0.00000000E+00
 INPUT CARD> 1 13 3.41666857E-05 0.00000000E+00 0.00000000E+00 0.00000000E+00 0.00000000E+00
 INPUT CARD> 1 14-4.58394191E-05 0.00000000E+00 0.00000000E+00 0.00000000E+00 0.00000000E+00
 INPUT CARD> 1 15-1.11625194E-04 0.00000000E+00 0.00000000E+00 0.00000000E+00 0.00000000E+00
 INPUT CARD> 1 16 1.49760913E-04 0.00000000E+00 0.00000000E+00 0.00000000E+00 0.00000000E+00
 INPUT CARD> 1 17-8.62244355E-06-8.62244355E-06-2.29931828E-05 0.00000000E+00 0.00000000E+00
 INPUT CARD> 1 18 0.00000000E+00 0.00000000E+00 0.00000000E+00 0.00000000E+00-5.04878597E-06
 INPUT CARD> 1 19 2.01951439E-05 2.01951439E-05 0.00000000E+00 0.00000000E+00 0.00000000E+00
  200000000 WORDS OF MEMORY AVAILABLE

     $BASIS REQUESTS READING THE "SPKRTZP " BASIS SET FROM AN EXTERNAL FILE


     RUN TITLE
     ---------
  RhF3 filled 2s of F calculation                                                

 THE POINT GROUP OF THE MOLECULE IS DNH     
 THE ORDER OF THE PRINCIPAL AXIS IS     3

 THE EXTERNAL BASIS SET FILE BEING READ IS
     "/home/bjb2chen/gamess/auxdata/BASES/SPKRTZP"

 ATOM      ATOMIC                      COORDINATES (BOHR)
           CHARGE         X                   Y                   Z
 RH         45.0     0.0000000000        0.0000000000        0.0000000000
 F           9.0    -1.9558663973        3.3876599729        0.0000000000
 F           9.0    -1.9558663973       -3.3876599729        0.0000000000
 F           9.0     3.9117327946        0.0000000000        0.0000000000

          INTERNUCLEAR DISTANCES (ANGS.)
          ------------------------------

                1 RH         2 F          3 F          4 F     

   1 RH      0.0000000    2.0700000 *  2.0700000 *  2.0700000 *
   2 F       2.0700000 *  0.0000000    3.5853452    3.5853452  
   3 F       2.0700000 *  3.5853452    0.0000000    3.5853452  
   4 F       2.0700000 *  3.5853452    3.5853452    0.0000000  

  * ... LESS THAN  3.000


     ATOMIC BASIS SET
     ----------------
 THE CONTRACTED PRIMITIVE FUNCTIONS HAVE BEEN UNNORMALIZED
 THE CONTRACTED BASIS FUNCTIONS ARE NOW NORMALIZED TO UNITY

  SHELL TYPE  PRIMITIVE        EXPONENT          CONTRACTION COEFFICIENT(S)

 RH        

      1   S       1       4981840.2616780    0.000742999995
      1   S       2        520379.7064620    0.003072999979
      1   S       3         86738.1197330    0.010526999927
      1   S       4         18959.9081360    0.033803999767
      1   S       5          5030.6871440    0.103203099288
      1   S       6          1554.5820500    0.263863298180
      1   S       7           536.6954510    0.453843396870
      1   S       8           193.8624980    0.300117297930

      2   S       9          1279.4864640   -0.021905999191
      2   S      10           368.5510010   -0.106539996063
      2   S      11            58.3228370    0.553557979546
      2   S      12            24.4669560    0.530241980407

      3   S      13            41.0590640   -0.255339091073
      3   S      14             7.1910630    0.807464171769
      3   S      15             3.3015650    0.334625088301

      4   S      16             5.8230430   -0.475691887853
      4   S      17             1.2471570    1.251469668042

      5   S      18             1.9988130    1.000000000000

      6   S      19             0.5272260    1.000000000000

      7   S      20             0.2651820    1.000000000000

      8   S      21             0.1024030    1.000000000000

      9   S      22             0.0376110    1.000000000000

     10   P      23         21947.9193230    0.000931999954
     10   P      24          3903.7784940    0.006070999700
     10   P      25          1070.2796570    0.031375998450
     10   P      26           366.3245680    0.121940093975
     10   P      27           142.9628960    0.314135284479
     10   P      28            59.6041980    0.466165376968
     10   P      29            24.8787960    0.243103187989

     11   P      30           110.1155040   -0.023536699266
     11   P      31            17.0736360    0.370253588458
     11   P      32             7.7842240    0.677441478882

     12   P      33             3.5017710    1.000000000000

     13   P      34             1.8624910    1.000000000000

     14   P      35             0.7727730    1.000000000000

     15   P      36             0.3424830    1.000000000000

     16   P      37             0.1292650    1.000000000000

     17   D      38           716.6639860    0.002168000003
     17   D      39           207.3201940    0.018016000021
     17   D      40            77.8716320    0.082389900097
     17   D      41            32.9016230    0.234260900276
     17   D      42            14.6473910    0.400793700473
     17   D      43             6.5717460    0.383069800452
     17   D      44             2.8041760    0.125353900148

     18   D      45             4.2297090    0.244982998474
     18   D      46             1.6954050    0.812651094937

     19   D      47             0.6747390    1.000000000000

     20   D      48             0.2535060    1.000000000000

     21   D      49             0.0865070    1.000000000000

     22   F      50             3.8485730    0.219012800502
     22   F      51             1.2490710    0.870819401996

     23   F      52             0.4092580    1.000000000000

     24   G      53             1.6912560    0.498061294272
     24   G      54             0.5817460    0.662951492375

 F         

     45   S      55          6459.8229236    0.002000399924
     45   S      56           970.1622171    0.015278599421
     45   S      57           220.6970473    0.074740297166
     45   S      58            62.1148486    0.250354290507
     45   S      59            19.9014506    0.483513481666
     45   S      60             6.7129306    0.322970387754

     46   S      61            12.8223124   -0.213371504655
     46   S      62             1.3940732    1.079740223558

     47   S      63             0.5383377    1.000000000000

     48   S      64             0.2164944    1.000000000000

     49   P      65            43.8426815    0.041945299568
     49   P      66             9.9159508    0.262843097295
     49   P      67             2.9279721    0.797596691791

     50   P      68             0.9124430    1.000000000000

     51   P      69             0.2668952    1.000000000000

     52   D      70             7.7201640    0.148082898287
     52   D      71             2.3088990    0.911197589462

     53   D      72             0.7618760    1.000000000000

     54   F      73             3.1505920    0.425350218794
     54   F      74             1.0122970    0.716358431653

 TOTAL NUMBER OF BASIS SET SHELLS             =   54
 NUMBER OF CARTESIAN GAUSSIAN BASIS FUNCTIONS =  200
 NOTE: THIS RUN WILL RESTRICT THE MO VARIATION SPACE TO SPHERICAL HARMONICS.
 THE NUMBER OF ORBITALS KEPT IN THE VARIATIONAL SPACE WILL BE PRINTED LATER.
 NUMBER OF ELECTRONS                          =   48
 CHARGE OF MOLECULE                           =   24
 SPIN MULTIPLICITY                            =    1
 NUMBER OF OCCUPIED ORBITALS (ALPHA)          =   24
 NUMBER OF OCCUPIED ORBITALS (BETA )          =   24
 TOTAL NUMBER OF ATOMS                        =    4
 THE NUCLEAR REPULSION ENERGY IS      346.4695025410

     ---------------------------------
     RELATIVISTIC WAVEFUNCTION OPTIONS
     ---------------------------------
     METHOD=LUT-IOTC NORDER= 2       NESOC=  0      MODEQR=      1
     NRATOM=  0      QMTTOL= 1.000E-10      QRTOL= 1.000E-10
     CLIGHT=137.03598950     TAU= 3.500E+00

 INTERNAL BASIS SET UNCONTRACTION FOR RESC/DK/IOTC/LUT-IOTC:
   114 SHELLS AND    388 AOS ARE CONSTRUCTED, COMPARED TO
    54 SHELLS AND    200 AOS IN THE CONTRACTED BASIS SET


     $CONTRL OPTIONS
     ---------------
 SCFTYP=RHF          RUNTYP=ENERGY       EXETYP=RUN     
 MPLEVL=       0     CITYP =NONE         CCTYP =NONE         VBTYP =NONE    
 DFTTYP=NONE         TDDFT =NONE    
 MULT  =       1     ICHARG=      24     NZVAR =       0     COORD =UNIQUE  
 PP    =NONE         RELWFN=LUT-IOTC     LOCAL =NONE         NUMGRD=       F
 ISPHER=       1     NOSYM =       0     MAXIT =     200     UNITS =ANGS    
 PLTORB=       F     MOLPLT=       F     AIMPAC=       F     FRIEND=        
 NPRINT=       7     IREST =       0     GEOM  =INPUT   
 NORMF =       0     NORMP =       0     ITOL  =      20     ICUT  =       9
 INTTYP=RYSQUAD      GRDTYP=BEST         QMTTOL= 1.0E-05

     $SYSTEM OPTIONS
     ---------------
  REPLICATED MEMORY=   200000000 WORDS (ON EVERY NODE).
 DISTRIBUTED MEMDDI=        3000 MILLION WORDS IN AGGREGATE,
 MEMDDI DISTRIBUTED OVER  12 PROCESSORS IS   250000000 WORDS/PROCESSOR.
 TOTAL MEMORY REQUESTED ON EACH PROCESSOR=   450000000 WORDS.
 TIMLIM=      525600.00 MINUTES, OR     365.0 DAYS.
 PARALL= T  BALTYP=  DLB     KDIAG=    3  COREFL= F
 MXSEQ2=     300 MXSEQ3=     150  mem10=         0

          ----------------
          PROPERTIES INPUT
          ----------------

     MOMENTS            FIELD           POTENTIAL          DENSITY
 IEMOM =       1   IEFLD =       0   IEPOT =       0   IEDEN =       0
 WHERE =COMASS     WHERE =NUCLEI     WHERE =NUCLEI     WHERE =NUCLEI  
 OUTPUT=BOTH       OUTPUT=BOTH       OUTPUT=BOTH       OUTPUT=BOTH    
 IEMINT=       0   IEFINT=       0                     IEDINT=       0
                                                       MORB  =       0
          EXTRAPOLATION IN EFFECT
          DIIS IN EFFECT
 ORBITAL PRINTING OPTION: NPREO=     1   200     2     1

     -------------------------------
     INTEGRAL TRANSFORMATION OPTIONS
     -------------------------------
     NWORD  =            0
     CUTOFF = 1.0E-09     MPTRAN =       0
     DIRTRF =       T     AOINTS =DUP     

          ----------------------
          INTEGRAL INPUT OPTIONS
          ----------------------
 NOPK  =       1 NORDER=       0 SCHWRZ=       T

     ------------------------------------------
     THE POINT GROUP IS DNH, NAXIS= 3, ORDER=12
     ------------------------------------------

 -- VARIATIONAL SPACE WILL BE RESTRICTED TO PURE SPHERICAL HARMONICS ONLY --
 AFTER EXCLUDING CONTAMINANT COMBINATIONS FROM THE CARTESIAN GAUSSIAN BASIS
 SET, THE NUMBER OF SPHERICAL HARMONICS KEPT IN THE VARIATION SPACE IS  168

     DIMENSIONS OF THE SYMMETRY SUBSPACES ARE
 A1' =   30     A1" =    4     A2' =    9     A2" =   17     E'' =   18
 E'  =   36

 ..... DONE SETTING UP THE RUN .....
 CPU     0: STEP CPU TIME=     0.47 TOTAL CPU TIME=          0.5 (      0.0 MIN)
 TOTAL WALL CLOCK TIME=          0.5 SECONDS, CPU UTILIZATION IS    92.16%

          ********************
          1 ELECTRON INTEGRALS
          ********************
 TIME TO DO ORDINARY INTEGRALS=      0.01

 ======================================================================
      INFINITE-ORDER TWO-COMPONENT (IOTC) ONE-ELECTRON HAMILTONIAN
      WITH LOCAL UNITARY TRANSFORMATION (LUT) SCHEME
                                            CODED BY YUYA NAKAJIMA
             J. SEINO, H. NAKAI, J. CHEM. PHYS. 136, 244102 (2012)
             J. SEINO, H. NAKAI, J. CHEM. PHYS. 137, 144101 (2012)
             J. SEINO, H. NAKAI, J. CHEM. PHYS. 139, 034109 (2013)
        J. SEINO, H. NAKAI, INT. J. QUANTUM. CHEM. 115, 253 (2015)
 ======================================================================

 LUT-IOTC TRANSFORMATION FOR ATOM:    1
 THE SMALLEST EIGENVALUE OF THE OVERLAP MATRIX IS   8.00E-15
 THERE ARE     3 OVERLAP MATRIX EIGENVALUES LESS THAN   1.00E-10
 THE NUMBER OF LINEARLY INDEPENDENT ORBITALS KEPT IS   196

 LUT-IOTC TRANSFORMATION FOR ATOM:    2
 LUT-IOTC TRANSFORMATION FOR ATOM:    3
 LUT-IOTC TRANSFORMATION FOR ATOM:    4

     -------------------------------------
     LUT-IOTC TRANSFORMATION FOR ATOM-PAIR
     -------------------------------------

                1 RH         2 F          3 F          4 F     

   1 RH      0.0000000    2.0700000 *  2.0700000 *  2.0700000 *
   2 F       2.0700000 *  0.0000000    3.5853452    3.5853452  
   3 F       2.0700000 *  3.5853452    0.0000000    3.5853452  
   4 F       2.0700000 *  3.5853452    3.5853452    0.0000000  

  * ... TRANSFORMED ATOM PAIR (LESS THAN   3.500 ANGS.)

 TIME TO DO  RELATIVISTIC INTS=      0.80
 ...... END OF ONE-ELECTRON INTEGRALS ......
 CPU     0: STEP CPU TIME=     0.81 TOTAL CPU TIME=          1.3 (      0.0 MIN)
 TOTAL WALL CLOCK TIME=          1.6 SECONDS, CPU UTILIZATION IS    79.50%

          -------------
          GUESS OPTIONS
          -------------
          GUESS =MOREAD            NORB  =     168          NORDER=       1
          MIX   =       F          PRTMO =       F          PUNMO =       F
          TOLZ  = 1.0E-08          TOLE  = 1.0E-05
          SYMDEN=       F          PURIFY=       T

 INITIAL GUESS ORBITALS GENERATED BY MOREAD   ROUTINE.

 STATISTICS FOR GENERATION OF SYMMETRY ORBITAL -Q- MATRIX
 NUMBER OF CARTESIAN ATOMIC ORBITALS=        200
 NUMBER OF SPHERICAL CONTAMINANTS DROPPED=    32
 NUMBER OF LINEARLY DEPENDENT MOS DROPPED=     0
 TOTAL NUMBER OF MOS IN VARIATION SPACE=     168
 ORBITAL PURIFICATION WILL OCCUR

 SYMMETRIES FOR INITIAL GUESS ORBITALS FOLLOW.   BOTH SET(S).
    24 ORBITALS ARE OCCUPIED (   21 CORE ORBITALS).
     1=A1'      2=A1'      3=E'       4=E'       5=A2"      6=A1'      7=E'  
     8=E'       9=A1'     10=E'      11=E'      12=A2"     13=E'      14=E'  
    15=E''     16=E''     17=A1'     18=A1'     19=E'      20=E'      21=A2" 
    22=A1'     23=E'      24=E'      25=E'      26=E'      27=E''     28=E'' 
    29=A1'     30=E'      31=E'      32=A2'     33=E''     34=E''     35=A2" 
    36=E'      37=E'      38=A1'     39=A1'     40=E'      41=E'      42=A2' 
    43=A2"     44=A1'     45=E''     46=E''     47=E'      48=E'      49=E'  
    50=E'      51=A2"     52=E''     53=E''     54=A1'     55=A2'     56=A2" 
    57=E'      58=E'      59=A1'     60=E''     61=E''     62=A1'     63=E'  
    64=E'      65=E'      66=E'      67=A1"     68=E''     69=E''     70=A1' 
    71=E'      72=E'      73=A1'     74=E'      75=E'      76=A2'     77=A2" 
    78=E''     79=E''     80=E''     81=E''     82=E'      83=E'      84=A2' 
    85=A2"     86=E'      87=E'      88=A1'     89=E'      90=E'      91=A2" 
    92=A1"     93=E'      94=E'      95=A1'     96=A2"     97=E''     98=E'' 
    99=E'     100=E'     101=A1'    102=E''    103=E''    104=A1'    105=A1' 
   106=E'     107=E'     108=E'     109=E'     110=E''    111=E''    112=A2" 
   113=E'     114=E'     115=A2'    116=A1'    117=A2"    118=A1'    119=E'' 
   120=E''    121=E'     122=E'     123=E'     124=E'     125=A1'    126=E'  
   127=E'     128=A1'    129=E'     130=E'     131=A1"    132=E''    133=E'' 
   134=A2'    135=A2"    136=E'     137=E'     138=E''    139=E''    140=A1' 
   141=E'     142=E'     143=E''    144=E''    145=A2"    146=A2'    147=A1' 
   148=E'     149=E'     150=A1"    151=E''    152=E''    153=E'     154=E'  
   155=A1'    156=E'     157=E'     158=A2"    159=E''    160=E''    161=A2' 
   162=E'     163=E'     164=A1'    165=A2"    166=E'     167=E'     168=A1' 
 ...... END OF INITIAL ORBITAL SELECTION ......
 CPU     0: STEP CPU TIME=     0.41 TOTAL CPU TIME=          1.7 (      0.0 MIN)
 TOTAL WALL CLOCK TIME=          2.2 SECONDS, CPU UTILIZATION IS    77.52%

                    ----------------------
                    AO INTEGRAL TECHNOLOGY
                    ----------------------
     S,P,L SHELL ROTATED AXIS INTEGRALS, REPROGRAMMED BY
        KAZUYA ISHIMURA (IMS) AND JOSE SIERRA (SYNSTAR).
     S,P,D,L SHELL ROTATED AXIS INTEGRALS PROGRAMMED BY
        KAZUYA ISHIMURA (INSTITUTE FOR MOLECULAR SCIENCE).
     S,P,D,F,G SHELL TO TOTAL QUARTET ANGULAR MOMENTUM SUM 5,
        ERIC PROGRAM BY GRAHAM FLETCHER (ELORET AND NASA ADVANCED
        SUPERCOMPUTING DIVISION, AMES RESEARCH CENTER).
     S,P,D,F,G,L SHELL GENERAL RYS QUADRATURE PROGRAMMED BY
        MICHEL DUPUIS (PACIFIC NORTHWEST NATIONAL LABORATORY).

          --------------------
          2 ELECTRON INTEGRALS
          --------------------

 DIRECT SCF METHOD SKIPS INTEGRAL STORAGE ON DISK.
 DIRECT TRANSFORMATION SKIPS AO INTEGRAL STORAGE ON DISK.
  ...... END OF TWO-ELECTRON INTEGRALS .....
 CPU     0: STEP CPU TIME=     0.02 TOTAL CPU TIME=          1.7 (      0.0 MIN)
 TOTAL WALL CLOCK TIME=          2.2 SECONDS, CPU UTILIZATION IS    77.73%

          --------------------------
                 RHF SCF CALCULATION
          --------------------------

     NUCLEAR ENERGY =       346.4695025410
     MAXIT =  200     NPUNCH=    2
     EXTRAP=T  DAMP=F  SHIFT=F  RSTRCT=F  DIIS=T  DEM=F  SOSCF=F
     DENSITY MATRIX CONV=  2.00E-06
     MEMORY REQUIRED FOR RHF ITERS=    401135 WORDS.

 DIRECT SCF CALCULATION, SCHWRZ=T   FDIFF=T,  DIRTHR=  0.00E+00 NITDIR=10
 SCHWARZ INEQUALITY OVERHEAD:     19611 INTEGRALS, T=        0.02

                                                                                   NONZERO     BLOCKS
 ITER EX DEM     TOTAL ENERGY        E CHANGE  DENSITY CHANGE    DIIS ERROR      INTEGRALS    SKIPPED
          * * *   INITIATING DIIS PROCEDURE   * * *
   1  0  0    -4978.5106591363 -4978.5106591363   0.123449767   0.297675281       13150589      58530
   2  1  0    -4978.7606824062    -0.2500232699   0.034989051   0.072242662       13070599      62772
   3  2  0    -4978.7875855081    -0.0269031019   0.029479450   0.028630752       12632154      70370
   4  3  0    -4978.7927087158    -0.0051232077   0.000502473   0.000824859       12446390      73937
   5  4  0    -4978.7927128122    -0.0000040964   0.000096431   0.000098508       11941851      83060
   6  5  0    -4978.7927129250    -0.0000001128   0.000035621   0.000030944       11299065      96758
   7  6  0    -4978.7927129359    -0.0000000109   0.000008942   0.000006675       10871779     106133
   8  7  0    -4978.7927129362    -0.0000000003   0.000000259   0.000000289       10123611     119988
   9  8  0    -4978.7927129360     0.0000000002   0.000000055   0.000000066        7902116     153218

          -----------------
          DENSITY CONVERGED
          -----------------
     TIME TO FORM FOCK OPERATORS=       6.9 SECONDS (       0.8 SEC/ITER)
     FOCK TIME ON FIRST ITERATION=       0.9, LAST ITERATION=       0.7
     TIME TO SOLVE SCF EQUATIONS=       0.2 SECONDS (       0.0 SEC/ITER)

 FINAL RHF ENERGY IS    -4978.7927129360 AFTER   9 ITERATIONS

          ------------
          EIGENVECTORS
          ------------

                      1          2          3          4          5
                 -867.6236  -137.2661  -123.8426  -123.8426  -123.8422
                     A1'        A1'        E'         E'         A2" 
    1  RH 1  S    0.995681  -0.351775   0.000000   0.000000   0.000000
    2  RH 1  S    0.010997   1.047023   0.000000   0.000000   0.000000
    3  RH 1  S   -0.011455   0.027344   0.000000   0.000000   0.000000
    4  RH 1  S   -0.011774  -0.000522   0.000000   0.000000   0.000000
    5  RH 1  S    0.014426  -0.008368   0.000000   0.000000   0.000000
    6  RH 1  S    0.008538   0.004192   0.000000   0.000000   0.000000
    7  RH 1  S   -0.004915  -0.003101   0.000000   0.000000   0.000000
    8  RH 1  S    0.001284   0.000849   0.000000   0.000000   0.000000
    9  RH 1  S   -0.000303  -0.000216   0.000000   0.000000   0.000000
   10  RH 1  X    0.000000   0.000000   0.993653   0.000000   0.000000
   11  RH 1  Y    0.000000   0.000000   0.000000   0.993653   0.000000
   12  RH 1  Z    0.000000   0.000000   0.000000   0.000000   0.993658
   13  RH 1  X    0.000000   0.000000   0.012593   0.000000   0.000000
   14  RH 1  Y    0.000000   0.000000   0.000000   0.012593   0.000000
   15  RH 1  Z    0.000000   0.000000   0.000000   0.000000   0.012594
   16  RH 1  X    0.000000   0.000000   0.004953   0.000000   0.000000
   17  RH 1  Y    0.000000   0.000000   0.000000   0.004953   0.000000
   18  RH 1  Z    0.000000   0.000000   0.000000   0.000000   0.004853
   19  RH 1  X    0.000000   0.000000  -0.004889   0.000000   0.000000
   20  RH 1  Y    0.000000   0.000000   0.000000  -0.004889   0.000000
   21  RH 1  Z    0.000000   0.000000   0.000000   0.000000  -0.004677
   22  RH 1  X    0.000000   0.000000   0.002728   0.000000   0.000000
   23  RH 1  Y    0.000000   0.000000   0.000000   0.002728   0.000000
   24  RH 1  Z    0.000000   0.000000   0.000000   0.000000   0.002417
   25  RH 1  X    0.000000   0.000000  -0.001442   0.000000   0.000000
   26  RH 1  Y    0.000000   0.000000   0.000000  -0.001442   0.000000
   27  RH 1  Z    0.000000   0.000000   0.000000   0.000000  -0.001142
   28  RH 1  X    0.000000   0.000000   0.000297   0.000000   0.000000
   29  RH 1  Y    0.000000   0.000000   0.000000   0.000297   0.000000
   30  RH 1  Z    0.000000   0.000000   0.000000   0.000000   0.000312
   31  RH 1 XX    0.000002   0.000005   0.000003   0.000000   0.000000
   32  RH 1 YY    0.000002   0.000005  -0.000003   0.000000   0.000000
   33  RH 1 ZZ   -0.000004  -0.000009   0.000000   0.000000   0.000000
   34  RH 1 XY    0.000000   0.000000   0.000000  -0.000003   0.000000
   35  RH 1 XZ    0.000000   0.000000   0.000000   0.000000   0.000000
   36  RH 1 YZ    0.000000   0.000000   0.000000   0.000000   0.000000
   37  RH 1 XX   -0.000009  -0.000008  -0.000015   0.000000   0.000000
   38  RH 1 YY   -0.000009  -0.000008   0.000015   0.000000   0.000000
   39  RH 1 ZZ    0.000019   0.000017   0.000000   0.000000   0.000000
   40  RH 1 XY    0.000000   0.000000   0.000000   0.000018   0.000000
   41  RH 1 XZ    0.000000   0.000000   0.000000   0.000000   0.000000
   42  RH 1 YZ    0.000000   0.000000   0.000000   0.000000   0.000000
   43  RH 1 XX    0.000036   0.000029   0.000061   0.000000   0.000000
   44  RH 1 YY    0.000036   0.000029  -0.000061   0.000000   0.000000
   45  RH 1 ZZ   -0.000071  -0.000059   0.000000   0.000000   0.000000
   46  RH 1 XY    0.000000   0.000000   0.000000  -0.000071   0.000000
   47  RH 1 XZ    0.000000   0.000000   0.000000   0.000000   0.000000
   48  RH 1 YZ    0.000000   0.000000   0.000000   0.000000   0.000000
   49  RH 1 XX   -0.000095  -0.000083  -0.000173   0.000000   0.000000
   50  RH 1 YY   -0.000095  -0.000083   0.000173   0.000000   0.000000
   51  RH 1 ZZ    0.000190   0.000167   0.000000   0.000000   0.000000
   52  RH 1 XY    0.000000   0.000000   0.000000   0.000200   0.000000
   53  RH 1 XZ    0.000000   0.000000   0.000000   0.000000   0.000000
   54  RH 1 YZ    0.000000   0.000000   0.000000   0.000000   0.000000
   55  RH 1 XX    0.000022   0.000017   0.000065   0.000000   0.000000
   56  RH 1 YY    0.000022   0.000017  -0.000065   0.000000   0.000000
   57  RH 1 ZZ   -0.000044  -0.000033   0.000000   0.000000   0.000000
   58  RH 1 XY    0.000000   0.000000   0.000000  -0.000075   0.000000
   59  RH 1 XZ    0.000000   0.000000   0.000000   0.000000   0.000000
   60  RH 1 YZ    0.000000   0.000000   0.000000   0.000000   0.000000
   61  RH 1 XXX   0.000034   0.000029   0.000011   0.000000   0.000000
   62  RH 1 YYY   0.000000   0.000000   0.000000   0.000011   0.000000
   63  RH 1 ZZZ   0.000000   0.000000   0.000000   0.000000  -0.000001
   64  RH 1 XXY   0.000000   0.000000   0.000000   0.000005   0.000000
   65  RH 1 XXZ   0.000000   0.000000   0.000000   0.000000   0.000001
   66  RH 1 YYX  -0.000046  -0.000039   0.000005   0.000000   0.000000
   67  RH 1 YYZ   0.000000   0.000000   0.000000   0.000000   0.000001
   68  RH 1 ZZX   0.000000   0.000000  -0.000020   0.000000   0.000000
   69  RH 1 ZZY   0.000000   0.000000   0.000000  -0.000020   0.000000
   70  RH 1 XYZ   0.000000   0.000000   0.000000   0.000000   0.000000
   71  RH 1 XXX  -0.000112  -0.000099  -0.000038   0.000000   0.000000
   72  RH 1 YYY   0.000000   0.000000   0.000000  -0.000038   0.000000
   73  RH 1 ZZZ   0.000000   0.000000   0.000000   0.000000   0.000002
   74  RH 1 XXY   0.000000   0.000000   0.000000  -0.000017   0.000000
   75  RH 1 XXZ   0.000000   0.000000   0.000000   0.000000  -0.000002
   76  RH 1 YYX   0.000150   0.000133  -0.000017   0.000000   0.000000
   77  RH 1 YYZ   0.000000   0.000000   0.000000   0.000000  -0.000002
   78  RH 1 ZZX   0.000000   0.000000   0.000069   0.000000   0.000000
   79  RH 1 ZZY   0.000000   0.000000   0.000000   0.000069   0.000000
   80  RH 1 XYZ   0.000000   0.000000   0.000000   0.000000   0.000000
   81  RH 1XXXX  -0.000009  -0.000008  -0.000032   0.000000   0.000000
   82  RH 1YYYY  -0.000009  -0.000008  -0.000010   0.000000   0.000000
   83  RH 1ZZZZ  -0.000023  -0.000020   0.000000   0.000000   0.000000
   84  RH 1XXXY   0.000000   0.000000   0.000000  -0.000023   0.000000
   85  RH 1XXXZ   0.000000   0.000000   0.000000   0.000000  -0.000002
   86  RH 1YYYX   0.000000   0.000000   0.000000   0.000040   0.000000
   87  RH 1YYYZ   0.000000   0.000000   0.000000   0.000000   0.000000
   88  RH 1ZZZX   0.000000   0.000000   0.000000   0.000000   0.000000
   89  RH 1ZZZY   0.000000   0.000000   0.000000   0.000000   0.000000
   90  RH 1XXYY  -0.000005  -0.000004   0.000037   0.000000   0.000000
   91  RH 1XXZZ   0.000020   0.000018   0.000020   0.000000   0.000000
   92  RH 1YYZZ   0.000020   0.000018  -0.000020   0.000000   0.000000
   93  RH 1XXYZ   0.000000   0.000000   0.000000   0.000000   0.000000
   94  RH 1YYXZ   0.000000   0.000000   0.000000   0.000000   0.000003
   95  RH 1ZZXY   0.000000   0.000000   0.000000  -0.000023   0.000000
   96  F  2  S   -0.000003  -0.000002   0.000003  -0.000004   0.000000
   97  F  2  S   -0.000036  -0.000028   0.000032  -0.000056   0.000000
   98  F  2  S    0.000019   0.000002  -0.000037   0.000064   0.000000
   99  F  2  S    0.000080   0.000088  -0.000013   0.000022   0.000000
  100  F  2  X   -0.000008  -0.000006   0.000004  -0.000007   0.000000
  101  F  2  Y    0.000014   0.000011  -0.000007   0.000012   0.000000
  102  F  2  Z    0.000000   0.000000   0.000000   0.000000  -0.000003
  103  F  2  X    0.000017   0.000010  -0.000006   0.000008   0.000000
  104  F  2  Y   -0.000030  -0.000017   0.000008  -0.000016   0.000000
  105  F  2  Z    0.000000   0.000000   0.000000   0.000000   0.000008
  106  F  2  X    0.000055   0.000052  -0.000039   0.000064   0.000000
  107  F  2  Y   -0.000096  -0.000091   0.000064  -0.000113   0.000000
  108  F  2  Z    0.000000   0.000000   0.000000   0.000000  -0.000016
  109  F  2 XX    0.000003   0.000003  -0.000004   0.000003   0.000000
  110  F  2 YY   -0.000016  -0.000016   0.000013  -0.000018   0.000000
  111  F  2 ZZ    0.000012   0.000013  -0.000009   0.000016   0.000000
  112  F  2 XY    0.000019   0.000020  -0.000012   0.000024   0.000000
  113  F  2 XZ    0.000000   0.000000   0.000000   0.000000  -0.000003
  114  F  2 YZ    0.000000   0.000000   0.000000   0.000000   0.000005
  115  F  2 XX   -0.000012  -0.000011   0.000010  -0.000010   0.000000
  116  F  2 YY    0.000058   0.000054  -0.000040   0.000063   0.000000
  117  F  2 ZZ   -0.000046  -0.000043   0.000030  -0.000052   0.000000
  118  F  2 XY   -0.000071  -0.000065   0.000042  -0.000078   0.000000
  119  F  2 XZ    0.000000   0.000000   0.000000   0.000000   0.000007
  120  F  2 YZ    0.000000   0.000000   0.000000   0.000000  -0.000012
  121  F  2 XXX  -0.000004  -0.000007   0.000006  -0.000008   0.000000
  122  F  2 YYY  -0.000003  -0.000005   0.000010  -0.000003   0.000000
  123  F  2 ZZZ   0.000000   0.000000   0.000000   0.000000  -0.000006
  124  F  2 XXY  -0.000001  -0.000002  -0.000005  -0.000007   0.000000
  125  F  2 XXZ   0.000000   0.000000   0.000000   0.000000   0.000001
  126  F  2 YYX   0.000009   0.000014  -0.000010   0.000018   0.000000
  127  F  2 YYZ   0.000000   0.000000   0.000000   0.000000   0.000008
  128  F  2 ZZX  -0.000003  -0.000005   0.000002  -0.000007   0.000000
  129  F  2 ZZY   0.000005   0.000009  -0.000007   0.000011   0.000000
  130  F  2 XYZ   0.000000   0.000000   0.000000   0.000000  -0.000007
  131  F  3  S   -0.000003  -0.000002   0.000003   0.000004   0.000000
  132  F  3  S   -0.000036  -0.000028   0.000032   0.000056   0.000000
  133  F  3  S    0.000019   0.000002  -0.000037  -0.000064   0.000000
  134  F  3  S    0.000080   0.000088  -0.000013  -0.000022   0.000000
  135  F  3  X   -0.000008  -0.000006   0.000004   0.000007   0.000000
  136  F  3  Y   -0.000014  -0.000011   0.000007   0.000012   0.000000
  137  F  3  Z    0.000000   0.000000   0.000000   0.000000  -0.000003
  138  F  3  X    0.000017   0.000010  -0.000006  -0.000008   0.000000
  139  F  3  Y    0.000030   0.000017  -0.000008  -0.000016   0.000000
  140  F  3  Z    0.000000   0.000000   0.000000   0.000000   0.000008
  141  F  3  X    0.000055   0.000052  -0.000039  -0.000064   0.000000
  142  F  3  Y    0.000096   0.000091  -0.000064  -0.000113   0.000000
  143  F  3  Z    0.000000   0.000000   0.000000   0.000000  -0.000016
  144  F  3 XX    0.000003   0.000003  -0.000004  -0.000003   0.000000
  145  F  3 YY   -0.000016  -0.000016   0.000013   0.000018   0.000000
  146  F  3 ZZ    0.000012   0.000013  -0.000009  -0.000016   0.000000
  147  F  3 XY   -0.000019  -0.000020   0.000012   0.000024   0.000000
  148  F  3 XZ    0.000000   0.000000   0.000000   0.000000  -0.000003
  149  F  3 YZ    0.000000   0.000000   0.000000   0.000000  -0.000005
  150  F  3 XX   -0.000012  -0.000011   0.000010   0.000010   0.000000
  151  F  3 YY    0.000058   0.000054  -0.000040  -0.000063   0.000000
  152  F  3 ZZ   -0.000046  -0.000043   0.000030   0.000052   0.000000
  153  F  3 XY    0.000071   0.000065  -0.000042  -0.000078   0.000000
  154  F  3 XZ    0.000000   0.000000   0.000000   0.000000   0.000007
  155  F  3 YZ    0.000000   0.000000   0.000000   0.000000   0.000012
  156  F  3 XXX  -0.000004  -0.000007   0.000006   0.000008   0.000000
  157  F  3 YYY   0.000003   0.000005  -0.000010  -0.000003   0.000000
  158  F  3 ZZZ   0.000000   0.000000   0.000000   0.000000  -0.000006
  159  F  3 XXY   0.000001   0.000002   0.000005  -0.000007   0.000000
  160  F  3 XXZ   0.000000   0.000000   0.000000   0.000000   0.000001
  161  F  3 YYX   0.000009   0.000014  -0.000010  -0.000018   0.000000
  162  F  3 YYZ   0.000000   0.000000   0.000000   0.000000   0.000008
  163  F  3 ZZX  -0.000003  -0.000005   0.000002   0.000007   0.000000
  164  F  3 ZZY  -0.000005  -0.000009   0.000007   0.000011   0.000000
  165  F  3 XYZ   0.000000   0.000000   0.000000   0.000000   0.000007
  166  F  4  S   -0.000003  -0.000002  -0.000005   0.000000   0.000000
  167  F  4  S   -0.000036  -0.000028  -0.000064   0.000000   0.000000
  168  F  4  S    0.000019   0.000002   0.000074   0.000000   0.000000
  169  F  4  S    0.000080   0.000088   0.000025   0.000000   0.000000
  170  F  4  X    0.000016   0.000012   0.000016   0.000000   0.000000
  171  F  4  Y    0.000000   0.000000   0.000000  -0.000000   0.000000
  172  F  4  Z    0.000000   0.000000   0.000000   0.000000  -0.000003
  173  F  4  X   -0.000034  -0.000020  -0.000020   0.000000   0.000000
  174  F  4  Y    0.000000   0.000000   0.000000  -0.000002   0.000000
  175  F  4  Z    0.000000   0.000000   0.000000   0.000000   0.000008
  176  F  4  X   -0.000111  -0.000105  -0.000149   0.000000   0.000000
  177  F  4  Y    0.000000   0.000000   0.000000  -0.000003   0.000000
  178  F  4  Z    0.000000   0.000000   0.000000   0.000000  -0.000016
  179  F  4 XX   -0.000025  -0.000026  -0.000036   0.000000   0.000000
  180  F  4 YY    0.000013   0.000013   0.000017   0.000000   0.000000
  181  F  4 ZZ    0.000012   0.000013   0.000018   0.000000   0.000000
  182  F  4 XY    0.000000   0.000000   0.000000   0.000003   0.000000
  183  F  4 XZ    0.000000   0.000000   0.000000   0.000000   0.000006
  184  F  4 YZ    0.000000   0.000000   0.000000   0.000000   0.000000
  185  F  4 XX    0.000094   0.000087   0.000119   0.000000   0.000000
  186  F  4 YY   -0.000048  -0.000044  -0.000058   0.000000   0.000000
  187  F  4 ZZ   -0.000046  -0.000043  -0.000060   0.000000   0.000000
  188  F  4 XY    0.000000   0.000000   0.000000  -0.000005   0.000000
  189  F  4 XZ    0.000000   0.000000   0.000000   0.000000  -0.000014
  190  F  4 YZ    0.000000   0.000000   0.000000   0.000000   0.000000
  191  F  4 XXX  -0.000009  -0.000015  -0.000022   0.000000   0.000000
  192  F  4 YYY   0.000000   0.000000   0.000000  -0.000005   0.000000
  193  F  4 ZZZ   0.000000   0.000000   0.000000   0.000000  -0.000006
  194  F  4 XXY   0.000000   0.000000   0.000000   0.000009   0.000000
  195  F  4 XXZ   0.000000   0.000000   0.000000   0.000000   0.000011
  196  F  4 YYX   0.000006   0.000010   0.000015   0.000000   0.000000
  197  F  4 YYZ   0.000000   0.000000   0.000000   0.000000  -0.000003
  198  F  4 ZZX   0.000006   0.000010   0.000015   0.000000   0.000000
  199  F  4 ZZY   0.000000   0.000000   0.000000  -0.000002   0.000000
  200  F  4 XYZ   0.000000   0.000000   0.000000   0.000000   0.000000

                      6          7          8          9         10
                  -35.9708   -35.9708   -35.9708   -33.8024   -29.2660
                     A1'        E'         E'         A1'        E'  
    1  RH 1  S   -0.000021  -0.000000   0.000000   0.151542   0.000000
    2  RH 1  S   -0.000169  -0.000000   0.000000  -0.542483   0.000000
    3  RH 1  S   -0.000756  -0.000000   0.000000   1.125796   0.000000
    4  RH 1  S   -0.001587  -0.000000   0.000000   0.014054   0.000000
    5  RH 1  S    0.000980  -0.000000   0.000000  -0.017562   0.000000
    6  RH 1  S    0.002573  -0.000000   0.000000  -0.003710   0.000000
    7  RH 1  S   -0.002246  -0.000000   0.000000   0.002046   0.000000
    8  RH 1  S    0.001742  -0.000000   0.000000  -0.000493   0.000000
    9  RH 1  S    0.000379  -0.000000   0.000000   0.000120   0.000000
   10  RH 1  X    0.000000   0.000014   0.000000  -0.000000  -0.467884
   11  RH 1  Y    0.000000  -0.000000  -0.000014  -0.000000   0.000000
   12  RH 1  Z    0.000000  -0.000000   0.000000  -0.000000   0.000000
   13  RH 1  X    0.000000  -0.000097   0.000000  -0.000000   0.900252
   14  RH 1  Y    0.000000  -0.000000   0.000097  -0.000000   0.000000
   15  RH 1  Z    0.000000  -0.000000   0.000000  -0.000000   0.000000
   16  RH 1  X    0.000000   0.000503   0.000000  -0.000000   0.247488
   17  RH 1  Y    0.000000  -0.000000  -0.000503  -0.000000   0.000000
   18  RH 1  Z    0.000000  -0.000000   0.000000  -0.000000   0.000000
   19  RH 1  X    0.000000  -0.000981   0.000000  -0.000000   0.003203
   20  RH 1  Y    0.000000  -0.000000   0.000981  -0.000000   0.000000
   21  RH 1  Z    0.000000  -0.000000   0.000000  -0.000000   0.000000
   22  RH 1  X    0.000000   0.001330   0.000000  -0.000000   0.004391
   23  RH 1  Y    0.000000  -0.000000  -0.001330  -0.000000   0.000000
   24  RH 1  Z    0.000000  -0.000000   0.000000  -0.000000   0.000000
   25  RH 1  X    0.000000  -0.001308   0.000000  -0.000000  -0.001533
   26  RH 1  Y    0.000000  -0.000000   0.001308  -0.000000   0.000000
   27  RH 1  Z    0.000000  -0.000000   0.000000  -0.000000   0.000000
   28  RH 1  X    0.000000   0.002173   0.000000  -0.000000   0.000261
   29  RH 1  Y    0.000000  -0.000000  -0.002173  -0.000000   0.000000
   30  RH 1  Z    0.000000  -0.000000   0.000000  -0.000000   0.000000
   31  RH 1 XX    0.000005  -0.000001   0.000000   0.000159   0.000070
   32  RH 1 YY    0.000005   0.000001   0.000000   0.000159  -0.000070
   33  RH 1 ZZ   -0.000010  -0.000000   0.000000  -0.000317   0.000000
   34  RH 1 XY    0.000000  -0.000000  -0.000001  -0.000000   0.000000
   35  RH 1 XZ    0.000000  -0.000000   0.000000  -0.000000   0.000000
   36  RH 1 YZ    0.000000  -0.000000   0.000000  -0.000000   0.000000
   37  RH 1 XX   -0.000028  -0.000012   0.000000   0.000099   0.000017
   38  RH 1 YY   -0.000028   0.000012   0.000000   0.000099  -0.000017
   39  RH 1 ZZ    0.000056  -0.000000   0.000000  -0.000198   0.000000
   40  RH 1 XY    0.000000  -0.000000  -0.000014  -0.000000   0.000000
   41  RH 1 XZ    0.000000  -0.000000   0.000000  -0.000000   0.000000
   42  RH 1 YZ    0.000000  -0.000000   0.000000  -0.000000   0.000000
   43  RH 1 XX    0.000130   0.000118   0.000000  -0.000038   0.000077
   44  RH 1 YY    0.000130  -0.000118   0.000000  -0.000038  -0.000077
   45  RH 1 ZZ   -0.000260  -0.000000   0.000000   0.000077   0.000000
   46  RH 1 XY    0.000000  -0.000000   0.000137  -0.000000   0.000000
   47  RH 1 XZ    0.000000  -0.000000   0.000000  -0.000000   0.000000
   48  RH 1 YZ    0.000000  -0.000000   0.000000  -0.000000   0.000000
   49  RH 1 XX   -0.000155   0.000044   0.000000   0.000057  -0.000159
   50  RH 1 YY   -0.000155  -0.000044   0.000000   0.000057   0.000159
   51  RH 1 ZZ    0.000310  -0.000000   0.000000  -0.000113   0.000000
   52  RH 1 XY    0.000000  -0.000000   0.000051  -0.000000   0.000000
   53  RH 1 XZ    0.000000  -0.000000   0.000000  -0.000000   0.000000
   54  RH 1 YZ    0.000000  -0.000000   0.000000  -0.000000   0.000000
   55  RH 1 XX    0.000249   0.000711   0.000000  -0.000012   0.000047
   56  RH 1 YY    0.000249  -0.000711   0.000000  -0.000012  -0.000047
   57  RH 1 ZZ   -0.000498  -0.000000   0.000000   0.000023   0.000000
   58  RH 1 XY    0.000000  -0.000000   0.000821  -0.000000   0.000000
   59  RH 1 XZ    0.000000  -0.000000   0.000000  -0.000000   0.000000
   60  RH 1 YZ    0.000000  -0.000000   0.000000  -0.000000   0.000000
   61  RH 1 XXX   0.000161   0.000034   0.000000   0.000022   0.000110
   62  RH 1 YYY   0.000000  -0.000000  -0.000034  -0.000000   0.000000
   63  RH 1 ZZZ   0.000000  -0.000000   0.000000  -0.000000   0.000000
   64  RH 1 XXY   0.000000  -0.000000  -0.000015  -0.000000   0.000000
   65  RH 1 XXZ   0.000000  -0.000000   0.000000  -0.000000   0.000000
   66  RH 1 YYX  -0.000216   0.000015   0.000000  -0.000030   0.000049
   67  RH 1 YYZ   0.000000  -0.000000   0.000000  -0.000000   0.000000
   68  RH 1 ZZX   0.000000  -0.000061   0.000000  -0.000000  -0.000197
   69  RH 1 ZZY   0.000000  -0.000000   0.000061  -0.000000   0.000000
   70  RH 1 XYZ   0.000000  -0.000000   0.000000  -0.000000   0.000000
   71  RH 1 XXX  -0.000362  -0.000044   0.000000   0.000045  -0.000060
   72  RH 1 YYY   0.000000  -0.000000   0.000044  -0.000000   0.000000
   73  RH 1 ZZZ   0.000000  -0.000000   0.000000  -0.000000   0.000000
   74  RH 1 XXY   0.000000  -0.000000   0.000020  -0.000000   0.000000
   75  RH 1 XXZ   0.000000  -0.000000   0.000000  -0.000000   0.000000
   76  RH 1 YYX   0.000485  -0.000020   0.000000  -0.000061  -0.000027
   77  RH 1 YYZ   0.000000  -0.000000   0.000000  -0.000000   0.000000
   78  RH 1 ZZX   0.000000   0.000078   0.000000  -0.000000   0.000107
   79  RH 1 ZZY   0.000000  -0.000000  -0.000078  -0.000000   0.000000
   80  RH 1 XYZ   0.000000  -0.000000   0.000000  -0.000000   0.000000
   81  RH 1XXXX  -0.000056  -0.000181   0.000000   0.000005  -0.000001
   82  RH 1YYYY  -0.000056  -0.000051   0.000000   0.000005   0.000010
   83  RH 1ZZZZ  -0.000149  -0.000000   0.000000   0.000013   0.000000
   84  RH 1XXXY   0.000000  -0.000000   0.000127  -0.000000   0.000000
   85  RH 1XXXZ   0.000000  -0.000000   0.000000  -0.000000   0.000000
   86  RH 1YYYX   0.000000  -0.000000  -0.000225  -0.000000   0.000000
   87  RH 1YYYZ   0.000000  -0.000000   0.000000  -0.000000   0.000000
   88  RH 1ZZZX   0.000000  -0.000000   0.000000  -0.000000   0.000000
   89  RH 1ZZZY   0.000000  -0.000000   0.000000  -0.000000   0.000000
   90  RH 1XXYY  -0.000033   0.000204   0.000000   0.000003  -0.000008
   91  RH 1XXZZ   0.000131   0.000114   0.000000  -0.000011   0.000010
   92  RH 1YYZZ   0.000131  -0.000114   0.000000  -0.000011  -0.000010
   93  RH 1XXYZ   0.000000  -0.000000   0.000000  -0.000000   0.000000
   94  RH 1YYXZ   0.000000  -0.000000   0.000000  -0.000000   0.000000
   95  RH 1ZZXY   0.000000  -0.000000   0.000131  -0.000000   0.000000
   96  F  2  S    0.577102  -0.408076  -0.706808  -0.000001   0.000004
   97  F  2  S   -0.002586   0.001784   0.003090   0.000006   0.000025
   98  F  2  S    0.005176  -0.003626  -0.006281   0.000011  -0.000035
   99  F  2  S   -0.002677   0.002188   0.003789  -0.000055  -0.000016
  100  F  2  X   -0.000674   0.000481   0.000814   0.000002   0.000003
  101  F  2  Y    0.001168  -0.000814  -0.001421  -0.000004  -0.000006
  102  F  2  Z    0.000000  -0.000000   0.000000  -0.000000   0.000000
  103  F  2  X    0.000586  -0.000437  -0.000691  -0.000004  -0.000008
  104  F  2  Y   -0.001015   0.000691   0.001235   0.000007   0.000014
  105  F  2  Z    0.000000  -0.000000   0.000000  -0.000000   0.000000
  106  F  2  X   -0.000308   0.000374   0.000503  -0.000030  -0.000036
  107  F  2  Y    0.000534  -0.000503  -0.000955   0.000051   0.000051
  108  F  2  Z    0.000000  -0.000000   0.000000  -0.000000   0.000000
  109  F  2 XX    0.000002   0.000015   0.000014  -0.000001  -0.000002
  110  F  2 YY    0.000039  -0.000040  -0.000059   0.000007   0.000007
  111  F  2 ZZ   -0.000041   0.000026   0.000044  -0.000005  -0.000005
  112  F  2 XY   -0.000037   0.000042   0.000081  -0.000008  -0.000006
  113  F  2 XZ    0.000000  -0.000000   0.000000  -0.000000   0.000000
  114  F  2 YZ    0.000000  -0.000000   0.000000  -0.000000   0.000000
  115  F  2 XX   -0.000031  -0.000022  -0.000006   0.000005   0.000006
  116  F  2 YY    0.000054   0.000007  -0.000020  -0.000025  -0.000029
  117  F  2 ZZ   -0.000023   0.000015   0.000026   0.000021   0.000023
  118  F  2 XY   -0.000085   0.000008  -0.000007   0.000030   0.000031
  119  F  2 XZ    0.000000  -0.000000   0.000000  -0.000000   0.000000
  120  F  2 YZ    0.000000  -0.000000   0.000000  -0.000000   0.000000
  121  F  2 XXX  -0.000024   0.000008   0.000012   0.000001   0.000002
  122  F  2 YYY  -0.000010   0.000012   0.000012   0.000001   0.000006
  123  F  2 ZZZ   0.000000  -0.000000   0.000000  -0.000000   0.000000
  124  F  2 XXY  -0.000005  -0.000001   0.000009   0.000001  -0.000004
  125  F  2 XXZ   0.000000  -0.000000   0.000000  -0.000000   0.000000
  126  F  2 YYX   0.000043  -0.000018  -0.000032  -0.000003  -0.000003
  127  F  2 YYZ   0.000000  -0.000000   0.000000  -0.000000   0.000000
  128  F  2 ZZX  -0.000011   0.000008   0.000016   0.000001   0.000000
  129  F  2 ZZY   0.000019  -0.000016  -0.000026  -0.000003  -0.000004
  130  F  2 XYZ   0.000000  -0.000000   0.000000  -0.000000   0.000000
  131  F  3  S    0.577102  -0.408076   0.706808  -0.000001   0.000004
  132  F  3  S   -0.002586   0.001784  -0.003090   0.000006   0.000025
  133  F  3  S    0.005176  -0.003626   0.006281   0.000011  -0.000035
  134  F  3  S   -0.002677   0.002188  -0.003789  -0.000055  -0.000016
  135  F  3  X   -0.000674   0.000481  -0.000814   0.000002   0.000003
  136  F  3  Y   -0.001168   0.000814  -0.001421   0.000004   0.000006
  137  F  3  Z    0.000000  -0.000000   0.000000  -0.000000   0.000000
  138  F  3  X    0.000586  -0.000437   0.000691  -0.000004  -0.000008
  139  F  3  Y    0.001015  -0.000691   0.001235  -0.000007  -0.000014
  140  F  3  Z    0.000000  -0.000000   0.000000  -0.000000   0.000000
  141  F  3  X   -0.000308   0.000374  -0.000503  -0.000030  -0.000036
  142  F  3  Y   -0.000534   0.000503  -0.000955  -0.000051  -0.000051
  143  F  3  Z    0.000000  -0.000000   0.000000  -0.000000   0.000000
  144  F  3 XX    0.000002   0.000015  -0.000014  -0.000001  -0.000002
  145  F  3 YY    0.000039  -0.000040   0.000059   0.000007   0.000007
  146  F  3 ZZ   -0.000041   0.000026  -0.000044  -0.000005  -0.000005
  147  F  3 XY    0.000037  -0.000042   0.000081   0.000008   0.000006
  148  F  3 XZ    0.000000  -0.000000   0.000000  -0.000000   0.000000
  149  F  3 YZ    0.000000  -0.000000   0.000000  -0.000000   0.000000
  150  F  3 XX   -0.000031  -0.000022   0.000006   0.000005   0.000006
  151  F  3 YY    0.000054   0.000007   0.000020  -0.000025  -0.000029
  152  F  3 ZZ   -0.000023   0.000015  -0.000026   0.000021   0.000023
  153  F  3 XY    0.000085  -0.000008  -0.000007  -0.000030  -0.000031
  154  F  3 XZ    0.000000  -0.000000   0.000000  -0.000000   0.000000
  155  F  3 YZ    0.000000  -0.000000   0.000000  -0.000000   0.000000
  156  F  3 XXX  -0.000024   0.000008  -0.000012   0.000001   0.000002
  157  F  3 YYY   0.000010  -0.000012   0.000012  -0.000001  -0.000006
  158  F  3 ZZZ   0.000000  -0.000000   0.000000  -0.000000   0.000000
  159  F  3 XXY   0.000005   0.000001   0.000009  -0.000001   0.000004
  160  F  3 XXZ   0.000000  -0.000000   0.000000  -0.000000   0.000000
  161  F  3 YYX   0.000043  -0.000018   0.000032  -0.000003  -0.000003
  162  F  3 YYZ   0.000000  -0.000000   0.000000  -0.000000   0.000000
  163  F  3 ZZX  -0.000011   0.000008  -0.000016   0.000001   0.000000
  164  F  3 ZZY  -0.000019   0.000016  -0.000026   0.000003   0.000004
  165  F  3 XYZ   0.000000  -0.000000   0.000000  -0.000000   0.000000
  166  F  4  S    0.577102   0.816152   0.000000  -0.000001  -0.000007
  167  F  4  S   -0.002586  -0.003568   0.000000   0.000006  -0.000050
  168  F  4  S    0.005176   0.007253   0.000000   0.000011   0.000070
  169  F  4  S   -0.002677  -0.004376   0.000000  -0.000055   0.000033
  170  F  4  X    0.001348   0.001891   0.000000  -0.000004   0.000014
  171  F  4  Y    0.000000  -0.000000  -0.000010  -0.000000   0.000000
  172  F  4  Z    0.000000  -0.000000   0.000000  -0.000000   0.000000
  173  F  4  X   -0.001172  -0.001634   0.000000   0.000009  -0.000033
  174  F  4  Y    0.000000  -0.000000   0.000038  -0.000000   0.000000
  175  F  4  Z    0.000000  -0.000000   0.000000  -0.000000   0.000000
  176  F  4  X    0.000617   0.001246   0.000000   0.000059  -0.000125
  177  F  4  Y    0.000000  -0.000000  -0.000083  -0.000000   0.000000
  178  F  4  Z    0.000000  -0.000000   0.000000  -0.000000   0.000000
  179  F  4 XX    0.000058   0.000117   0.000000   0.000011  -0.000018
  180  F  4 YY   -0.000017  -0.000065   0.000000  -0.000005   0.000008
  181  F  4 ZZ   -0.000041  -0.000051   0.000000  -0.000005   0.000010
  182  F  4 XY    0.000000  -0.000000   0.000007  -0.000000   0.000000
  183  F  4 XZ    0.000000  -0.000000   0.000000  -0.000000   0.000000
  184  F  4 YZ    0.000000  -0.000000   0.000000  -0.000000   0.000000
  185  F  4 XX    0.000096   0.000013   0.000000  -0.000040   0.000087
  186  F  4 YY   -0.000073   0.000017   0.000000   0.000020  -0.000041
  187  F  4 ZZ   -0.000023  -0.000030   0.000000   0.000021  -0.000046
  188  F  4 XY    0.000000  -0.000000  -0.000022  -0.000000   0.000000
  189  F  4 XZ    0.000000  -0.000000   0.000000  -0.000000   0.000000
  190  F  4 YZ    0.000000  -0.000000   0.000000  -0.000000   0.000000
  191  F  4 XXX  -0.000042  -0.000044   0.000000   0.000004  -0.000009
  192  F  4 YYY   0.000000  -0.000000   0.000003  -0.000000   0.000000
  193  F  4 ZZZ   0.000000  -0.000000   0.000000  -0.000000   0.000000
  194  F  4 XXY   0.000000  -0.000000  -0.000006  -0.000000   0.000000
  195  F  4 XXZ   0.000000  -0.000000   0.000000  -0.000000   0.000000
  196  F  4 YYX   0.000035   0.000024   0.000000  -0.000002   0.000004
  197  F  4 YYZ   0.000000  -0.000000   0.000000  -0.000000   0.000000
  198  F  4 ZZX   0.000021   0.000035   0.000000  -0.000003   0.000007
  199  F  4 ZZY   0.000000  -0.000000   0.000001  -0.000000   0.000000
  200  F  4 XYZ   0.000000  -0.000000   0.000000  -0.000000   0.000000

                     11         12         13         14         15
                  -29.2660   -29.2604   -21.9938   -21.9938   -21.9897
                     E'         A2"        E'         E'         E'' 
    1  RH 1  S    0.000000   0.000000   0.000000  -0.000000   0.000000
    2  RH 1  S    0.000000   0.000000   0.000000  -0.000000   0.000000
    3  RH 1  S    0.000000   0.000000   0.000000  -0.000000   0.000000
    4  RH 1  S    0.000000   0.000000   0.000000  -0.000000   0.000000
    5  RH 1  S    0.000000   0.000000   0.000000  -0.000000   0.000000
    6  RH 1  S    0.000000   0.000000   0.000000  -0.000000   0.000000
    7  RH 1  S    0.000000   0.000000   0.000000  -0.000000   0.000000
    8  RH 1  S    0.000000   0.000000   0.000000  -0.000000   0.000000
    9  RH 1  S    0.000000   0.000000   0.000000  -0.000000   0.000000
   10  RH 1  X    0.000000   0.000000   0.000056  -0.000000   0.000000
   11  RH 1  Y   -0.467884   0.000000   0.000000  -0.000056   0.000000
   12  RH 1  Z    0.000000  -0.468001   0.000000  -0.000000   0.000000
   13  RH 1  X    0.000000   0.000000  -0.000095  -0.000000   0.000000
   14  RH 1  Y    0.900252   0.000000   0.000000   0.000095   0.000000
   15  RH 1  Z    0.000000   0.900658   0.000000  -0.000000   0.000000
   16  RH 1  X    0.000000   0.000000  -0.000135  -0.000000   0.000000
   17  RH 1  Y    0.247488   0.000000   0.000000   0.000135   0.000000
   18  RH 1  Z    0.000000   0.247262   0.000000  -0.000000   0.000000
   19  RH 1  X    0.000000   0.000000   0.000114  -0.000000   0.000000
   20  RH 1  Y    0.003203   0.000000   0.000000  -0.000114   0.000000
   21  RH 1  Z    0.000000   0.003029   0.000000  -0.000000   0.000000
   22  RH 1  X    0.000000   0.000000   0.000088  -0.000000   0.000000
   23  RH 1  Y    0.004391   0.000000   0.000000  -0.000088   0.000000
   24  RH 1  Z    0.000000   0.004104   0.000000  -0.000000   0.000000
   25  RH 1  X    0.000000   0.000000   0.000133  -0.000000   0.000000
   26  RH 1  Y   -0.001533   0.000000   0.000000  -0.000133   0.000000
   27  RH 1  Z    0.000000  -0.001308   0.000000  -0.000000   0.000000
   28  RH 1  X    0.000000   0.000000  -0.000681  -0.000000   0.000000
   29  RH 1  Y    0.000261   0.000000   0.000000   0.000681   0.000000
   30  RH 1  Z    0.000000   0.000294   0.000000  -0.000000   0.000000
   31  RH 1 XX    0.000000   0.000000   0.867821  -0.000000   0.000000
   32  RH 1 YY    0.000000   0.000000  -0.867821  -0.000000   0.000000
   33  RH 1 ZZ    0.000000   0.000000   0.000000  -0.000000   0.000000
   34  RH 1 XY   -0.000081   0.000000   0.000000   1.002074   0.000000
   35  RH 1 XZ    0.000000   0.000000   0.000000  -0.000000   0.000000
   36  RH 1 YZ    0.000000   0.000000   0.000000  -0.000000   1.002286
   37  RH 1 XX    0.000000   0.000000  -0.004693  -0.000000   0.000000
   38  RH 1 YY    0.000000   0.000000   0.004693  -0.000000   0.000000
   39  RH 1 ZZ    0.000000   0.000000   0.000000  -0.000000   0.000000
   40  RH 1 XY   -0.000019   0.000000   0.000000  -0.005419   0.000000
   41  RH 1 XZ    0.000000   0.000000   0.000000  -0.000000   0.000000
   42  RH 1 YZ    0.000000   0.000000   0.000000  -0.000000  -0.005820
   43  RH 1 XX    0.000000   0.000000   0.003997  -0.000000   0.000000
   44  RH 1 YY    0.000000   0.000000  -0.003997  -0.000000   0.000000
   45  RH 1 ZZ    0.000000   0.000000   0.000000  -0.000000   0.000000
   46  RH 1 XY   -0.000089   0.000000   0.000000   0.004615   0.000000
   47  RH 1 XZ    0.000000   0.000000   0.000000  -0.000000   0.000000
   48  RH 1 YZ    0.000000   0.000000   0.000000  -0.000000   0.004408
   49  RH 1 XX    0.000000   0.000000  -0.001607  -0.000000   0.000000
   50  RH 1 YY    0.000000   0.000000   0.001607  -0.000000   0.000000
   51  RH 1 ZZ    0.000000   0.000000   0.000000  -0.000000   0.000000
   52  RH 1 XY    0.000183   0.000000   0.000000  -0.001856   0.000000
   53  RH 1 XZ    0.000000   0.000000   0.000000  -0.000000   0.000000
   54  RH 1 YZ    0.000000   0.000000   0.000000  -0.000000  -0.001444
   55  RH 1 XX    0.000000   0.000000   0.000195  -0.000000   0.000000
   56  RH 1 YY    0.000000   0.000000  -0.000195  -0.000000   0.000000
   57  RH 1 ZZ    0.000000   0.000000   0.000000  -0.000000   0.000000
   58  RH 1 XY   -0.000054   0.000000   0.000000   0.000225   0.000000
   59  RH 1 XZ    0.000000   0.000000   0.000000  -0.000000   0.000000
   60  RH 1 YZ    0.000000   0.000000   0.000000  -0.000000   0.000392
   61  RH 1 XXX   0.000000   0.000000   0.000050  -0.000000   0.000000
   62  RH 1 YYY   0.000110   0.000000   0.000000  -0.000050   0.000000
   63  RH 1 ZZZ   0.000000  -0.000190   0.000000  -0.000000   0.000000
   64  RH 1 XXY   0.000049   0.000000   0.000000  -0.000023   0.000000
   65  RH 1 XXZ   0.000000   0.000128   0.000000  -0.000000   0.000000
   66  RH 1 YYX   0.000000   0.000000   0.000023  -0.000000   0.000000
   67  RH 1 YYZ   0.000000   0.000128   0.000000  -0.000000   0.000000
   68  RH 1 ZZX   0.000000   0.000000  -0.000090  -0.000000   0.000000
   69  RH 1 ZZY  -0.000197   0.000000   0.000000   0.000090   0.000000
   70  RH 1 XYZ   0.000000   0.000000   0.000000  -0.000000  -0.000072
   71  RH 1 XXX   0.000000   0.000000  -0.000077  -0.000000   0.000000
   72  RH 1 YYY  -0.000060   0.000000   0.000000   0.000077   0.000000
   73  RH 1 ZZZ   0.000000   0.000058   0.000000  -0.000000   0.000000
   74  RH 1 XXY  -0.000027   0.000000   0.000000   0.000035   0.000000
   75  RH 1 XXZ   0.000000  -0.000039   0.000000  -0.000000   0.000000
   76  RH 1 YYX   0.000000   0.000000  -0.000035  -0.000000   0.000000
   77  RH 1 YYZ   0.000000  -0.000039   0.000000  -0.000000   0.000000
   78  RH 1 ZZX   0.000000   0.000000   0.000138  -0.000000   0.000000
   79  RH 1 ZZY   0.000107   0.000000   0.000000  -0.000138   0.000000
   80  RH 1 XYZ   0.000000   0.000000   0.000000  -0.000000   0.000031
   81  RH 1XXXX   0.000000   0.000000   0.000042  -0.000000   0.000000
   82  RH 1YYYY   0.000000   0.000000  -0.000052  -0.000000   0.000000
   83  RH 1ZZZZ   0.000000   0.000000   0.000000  -0.000000   0.000000
   84  RH 1XXXY   0.000011   0.000000   0.000000   0.000044   0.000000
   85  RH 1XXXZ   0.000000   0.000011   0.000000  -0.000000   0.000000
   86  RH 1YYYX  -0.000003   0.000000   0.000000   0.000028   0.000000
   87  RH 1YYYZ   0.000000   0.000000   0.000000  -0.000000   0.000124
   88  RH 1ZZZX   0.000000   0.000000   0.000000  -0.000000   0.000000
   89  RH 1ZZZY   0.000000   0.000000   0.000000  -0.000000  -0.000165
   90  RH 1XXYY   0.000000   0.000000   0.000009  -0.000000   0.000000
   91  RH 1XXZZ   0.000000   0.000000  -0.000083  -0.000000   0.000000
   92  RH 1YYZZ   0.000000   0.000000   0.000083  -0.000000   0.000000
   93  RH 1XXYZ   0.000000   0.000000   0.000000  -0.000000   0.000055
   94  RH 1YYXZ   0.000000  -0.000015   0.000000  -0.000000   0.000000
   95  RH 1ZZXY  -0.000011   0.000000   0.000000  -0.000095   0.000000
   96  F  2  S   -0.000006   0.000000   0.000001   0.000002   0.000000
   97  F  2  S   -0.000043   0.000000  -0.000011  -0.000019   0.000000
   98  F  2  S    0.000061   0.000000   0.000045   0.000079   0.000000
   99  F  2  S    0.000028   0.000000  -0.000293  -0.000508   0.000000
  100  F  2  X   -0.000006   0.000000   0.000006  -0.000004   0.000000
  101  F  2  Y    0.000010   0.000000   0.000004  -0.000001   0.000000
  102  F  2  Z    0.000000  -0.000003   0.000000  -0.000000  -0.000009
  103  F  2  X    0.000014   0.000000  -0.000022  -0.000006   0.000000
  104  F  2  Y   -0.000024   0.000000   0.000006   0.000029   0.000000
  105  F  2  Z    0.000000   0.000005   0.000000  -0.000000   0.000028
  106  F  2  X    0.000051   0.000000  -0.000144  -0.000137   0.000000
  107  F  2  Y   -0.000095   0.000000   0.000137   0.000302   0.000000
  108  F  2  Z    0.000000  -0.000007   0.000000  -0.000000   0.000015
  109  F  2 XX    0.000001   0.000000   0.000017  -0.000010   0.000000
  110  F  2 YY   -0.000010   0.000000  -0.000026  -0.000006   0.000000
  111  F  2 ZZ    0.000009   0.000000   0.000009   0.000016   0.000000
  112  F  2 XY    0.000012   0.000000  -0.000002   0.000022   0.000000
  113  F  2 XZ    0.000000  -0.000003   0.000000  -0.000000  -0.000009
  114  F  2 YZ    0.000000   0.000006   0.000000  -0.000000   0.000012
  115  F  2 XX   -0.000007   0.000000  -0.000061   0.000047   0.000000
  116  F  2 YY    0.000046   0.000000   0.000069  -0.000034   0.000000
  117  F  2 ZZ   -0.000040   0.000000  -0.000007  -0.000013   0.000000
  118  F  2 XY   -0.000056   0.000000   0.000046  -0.000021   0.000000
  119  F  2 XZ    0.000000   0.000009   0.000000  -0.000000   0.000037
  120  F  2 YZ    0.000000  -0.000016   0.000000  -0.000000  -0.000053
  121  F  2 XXX  -0.000002   0.000000  -0.000012  -0.000018   0.000000
  122  F  2 YYY  -0.000001   0.000000  -0.000020  -0.000016   0.000000
  123  F  2 ZZZ   0.000000  -0.000006   0.000000  -0.000000  -0.000000
  124  F  2 XXY  -0.000004   0.000000   0.000004  -0.000015   0.000000
  125  F  2 XXZ   0.000000   0.000001   0.000000  -0.000000   0.000003
  126  F  2 YYX   0.000006   0.000000   0.000027   0.000047   0.000000
  127  F  2 YYZ   0.000000   0.000007   0.000000  -0.000000  -0.000003
  128  F  2 ZZX  -0.000004   0.000000  -0.000011  -0.000022   0.000000
  129  F  2 ZZY   0.000005   0.000000   0.000022   0.000037   0.000000
  130  F  2 XYZ   0.000000  -0.000007   0.000000  -0.000000  -0.000003
  131  F  3  S    0.000006   0.000000   0.000001  -0.000002   0.000000
  132  F  3  S    0.000043   0.000000  -0.000011   0.000019   0.000000
  133  F  3  S   -0.000061   0.000000   0.000045  -0.000079   0.000000
  134  F  3  S   -0.000028   0.000000  -0.000293   0.000508   0.000000
  135  F  3  X    0.000006   0.000000   0.000006   0.000004   0.000000
  136  F  3  Y    0.000010   0.000000  -0.000004  -0.000001   0.000000
  137  F  3  Z    0.000000  -0.000003   0.000000  -0.000000   0.000009
  138  F  3  X   -0.000014   0.000000  -0.000022   0.000006   0.000000
  139  F  3  Y   -0.000024   0.000000  -0.000006   0.000029   0.000000
  140  F  3  Z    0.000000   0.000005   0.000000  -0.000000  -0.000028
  141  F  3  X   -0.000051   0.000000  -0.000144   0.000137   0.000000
  142  F  3  Y   -0.000095   0.000000  -0.000137   0.000302   0.000000
  143  F  3  Z    0.000000  -0.000007   0.000000  -0.000000  -0.000015
  144  F  3 XX   -0.000001   0.000000   0.000017   0.000010   0.000000
  145  F  3 YY    0.000010   0.000000  -0.000026   0.000006   0.000000
  146  F  3 ZZ   -0.000009   0.000000   0.000009  -0.000016   0.000000
  147  F  3 XY    0.000012   0.000000   0.000002   0.000022   0.000000
  148  F  3 XZ    0.000000  -0.000003   0.000000  -0.000000   0.000009
  149  F  3 YZ    0.000000  -0.000006   0.000000  -0.000000   0.000012
  150  F  3 XX    0.000007   0.000000  -0.000061  -0.000047   0.000000
  151  F  3 YY   -0.000046   0.000000   0.000069   0.000034   0.000000
  152  F  3 ZZ    0.000040   0.000000  -0.000007   0.000013   0.000000
  153  F  3 XY   -0.000056   0.000000  -0.000046  -0.000021   0.000000
  154  F  3 XZ    0.000000   0.000009   0.000000  -0.000000  -0.000037
  155  F  3 YZ    0.000000   0.000016   0.000000  -0.000000  -0.000053
  156  F  3 XXX   0.000002   0.000000  -0.000012   0.000018   0.000000
  157  F  3 YYY  -0.000001   0.000000   0.000020  -0.000016   0.000000
  158  F  3 ZZZ   0.000000  -0.000006   0.000000  -0.000000   0.000000
  159  F  3 XXY  -0.000004   0.000000  -0.000004  -0.000015   0.000000
  160  F  3 XXZ   0.000000   0.000001   0.000000  -0.000000  -0.000003
  161  F  3 YYX  -0.000006   0.000000   0.000027  -0.000047   0.000000
  162  F  3 YYZ   0.000000   0.000007   0.000000  -0.000000   0.000003
  163  F  3 ZZX   0.000004   0.000000  -0.000011   0.000022   0.000000
  164  F  3 ZZY   0.000005   0.000000  -0.000022   0.000037   0.000000
  165  F  3 XYZ   0.000000   0.000007   0.000000  -0.000000  -0.000003
  166  F  4  S    0.000000   0.000000  -0.000002  -0.000000   0.000000
  167  F  4  S    0.000000   0.000000   0.000022  -0.000000   0.000000
  168  F  4  S    0.000000   0.000000  -0.000091  -0.000000   0.000000
  169  F  4  S    0.000000   0.000000   0.000587  -0.000000   0.000000
  170  F  4  X    0.000000   0.000000  -0.000001  -0.000000   0.000000
  171  F  4  Y   -0.000001   0.000000   0.000000  -0.000008   0.000000
  172  F  4  Z    0.000000  -0.000003   0.000000  -0.000000   0.000000
  173  F  4  X    0.000000   0.000000  -0.000033  -0.000000   0.000000
  174  F  4  Y    0.000000   0.000000   0.000000   0.000019   0.000000
  175  F  4  Z    0.000000   0.000005   0.000000  -0.000000   0.000000
  176  F  4  X    0.000000   0.000000  -0.000381  -0.000000   0.000000
  177  F  4  Y   -0.000006   0.000000   0.000000   0.000065   0.000000
  178  F  4  Z    0.000000  -0.000007   0.000000  -0.000000   0.000000
  179  F  4 XX    0.000000   0.000000   0.000027  -0.000000   0.000000
  180  F  4 YY    0.000000   0.000000  -0.000009  -0.000000   0.000000
  181  F  4 ZZ    0.000000   0.000000  -0.000019  -0.000000   0.000000
  182  F  4 XY    0.000001   0.000000   0.000000   0.000027   0.000000
  183  F  4 XZ    0.000000   0.000006   0.000000  -0.000000   0.000000
  184  F  4 YZ    0.000000   0.000000   0.000000  -0.000000  -0.000004
  185  F  4 XX    0.000000   0.000000  -0.000003  -0.000000   0.000000
  186  F  4 YY    0.000000   0.000000  -0.000012  -0.000000   0.000000
  187  F  4 ZZ    0.000000   0.000000   0.000015  -0.000000   0.000000
  188  F  4 XY   -0.000003   0.000000   0.000000  -0.000102   0.000000
  189  F  4 XZ    0.000000  -0.000018   0.000000  -0.000000   0.000000
  190  F  4 YZ    0.000000   0.000000   0.000000  -0.000000   0.000011
  191  F  4 XXX   0.000000   0.000000   0.000064  -0.000000   0.000000
  192  F  4 YYY  -0.000003   0.000000   0.000000  -0.000007   0.000000
  193  F  4 ZZZ   0.000000  -0.000006   0.000000  -0.000000   0.000000
  194  F  4 XXY   0.000006   0.000000   0.000000   0.000012   0.000000
  195  F  4 XXZ   0.000000   0.000011   0.000000  -0.000000   0.000000
  196  F  4 YYX   0.000000   0.000000  -0.000036  -0.000000   0.000000
  197  F  4 YYZ   0.000000  -0.000002   0.000000  -0.000000   0.000000
  198  F  4 ZZX   0.000000   0.000000  -0.000050  -0.000000   0.000000
  199  F  4 ZZY  -0.000002   0.000000   0.000000  -0.000002   0.000000
  200  F  4 XYZ   0.000000   0.000000   0.000000  -0.000000  -0.000009

                     16         17         18         19         20
                  -21.9897   -21.9885   -12.9150   -11.3865   -11.3865
                     E''        A1'        A1'        E'         E'  
    1  RH 1  S   -0.000000   0.000100  -0.066283  -0.000000  -0.000000
    2  RH 1  S   -0.000000  -0.000375   0.250157  -0.000000  -0.000000
    3  RH 1  S   -0.000000   0.000828  -0.647204  -0.000000  -0.000000
    4  RH 1  S   -0.000000  -0.000608   0.892847  -0.000000  -0.000000
    5  RH 1  S   -0.000000  -0.000016   0.057542  -0.000000  -0.000000
    6  RH 1  S   -0.000000   0.000009   0.268379  -0.000000  -0.000000
    7  RH 1  S   -0.000000  -0.000371  -0.047454  -0.000000  -0.000000
    8  RH 1  S   -0.000000   0.000637   0.011564  -0.000000  -0.000000
    9  RH 1  S   -0.000000  -0.000180  -0.002006  -0.000000  -0.000000
   10  RH 1  X   -0.000000  -0.000000   0.000000   0.200819  -0.000000
   11  RH 1  Y   -0.000000  -0.000000   0.000000  -0.000000   0.200819
   12  RH 1  Z   -0.000000  -0.000000   0.000000  -0.000000  -0.000000
   13  RH 1  X   -0.000000  -0.000000   0.000000  -0.551729  -0.000000
   14  RH 1  Y   -0.000000  -0.000000   0.000000  -0.000000  -0.551729
   15  RH 1  Z   -0.000000  -0.000000   0.000000  -0.000000  -0.000000
   16  RH 1  X   -0.000000  -0.000000   0.000000  -0.147617  -0.000000
   17  RH 1  Y   -0.000000  -0.000000   0.000000  -0.000000  -0.147617
   18  RH 1  Z   -0.000000  -0.000000   0.000000  -0.000000  -0.000000
   19  RH 1  X   -0.000000  -0.000000   0.000000   0.740790  -0.000000
   20  RH 1  Y   -0.000000  -0.000000   0.000000  -0.000000   0.740790
   21  RH 1  Z   -0.000000  -0.000000   0.000000  -0.000000  -0.000000
   22  RH 1  X   -0.000000  -0.000000   0.000000   0.507815  -0.000000
   23  RH 1  Y   -0.000000  -0.000000   0.000000  -0.000000   0.507815
   24  RH 1  Z   -0.000000  -0.000000   0.000000  -0.000000  -0.000000
   25  RH 1  X   -0.000000  -0.000000   0.000000  -0.030475  -0.000000
   26  RH 1  Y   -0.000000  -0.000000   0.000000  -0.000000  -0.030475
   27  RH 1  Z   -0.000000  -0.000000   0.000000  -0.000000  -0.000000
   28  RH 1  X   -0.000000  -0.000000   0.000000   0.011024  -0.000000
   29  RH 1  Y   -0.000000  -0.000000   0.000000  -0.000000   0.011024
   30  RH 1  Z   -0.000000  -0.000000   0.000000  -0.000000  -0.000000
   31  RH 1 XX   -0.000000  -0.501179  -0.002645  -0.002847  -0.000000
   32  RH 1 YY   -0.000000  -0.501179  -0.002645   0.002847  -0.000000
   33  RH 1 ZZ   -0.000000   1.002358   0.005290  -0.000000  -0.000000
   34  RH 1 XY   -0.000000  -0.000000   0.000000  -0.000000   0.003288
   35  RH 1 XZ    1.002286  -0.000000   0.000000  -0.000000  -0.000000
   36  RH 1 YZ   -0.000000  -0.000000   0.000000  -0.000000  -0.000000
   37  RH 1 XX   -0.000000   0.002994   0.003522   0.003622  -0.000000
   38  RH 1 YY   -0.000000   0.002994   0.003522  -0.003622  -0.000000
   39  RH 1 ZZ   -0.000000  -0.005989  -0.007043  -0.000000  -0.000000
   40  RH 1 XY   -0.000000  -0.000000   0.000000  -0.000000  -0.004182
   41  RH 1 XZ   -0.005820  -0.000000   0.000000  -0.000000  -0.000000
   42  RH 1 YZ   -0.000000  -0.000000   0.000000  -0.000000  -0.000000
   43  RH 1 XX   -0.000000  -0.002252   0.004871   0.007706  -0.000000
   44  RH 1 YY   -0.000000  -0.002252   0.004871  -0.007706  -0.000000
   45  RH 1 ZZ   -0.000000   0.004504  -0.009742  -0.000000  -0.000000
   46  RH 1 XY   -0.000000  -0.000000   0.000000  -0.000000  -0.008898
   47  RH 1 XZ    0.004408  -0.000000   0.000000  -0.000000  -0.000000
   48  RH 1 YZ   -0.000000  -0.000000   0.000000  -0.000000  -0.000000
   49  RH 1 XX   -0.000000   0.000799  -0.000403  -0.002022  -0.000000
   50  RH 1 YY   -0.000000   0.000799  -0.000403   0.002022  -0.000000
   51  RH 1 ZZ   -0.000000  -0.001599   0.000806  -0.000000  -0.000000
   52  RH 1 XY   -0.000000  -0.000000   0.000000  -0.000000   0.002335
   53  RH 1 XZ   -0.001444  -0.000000   0.000000  -0.000000  -0.000000
   54  RH 1 YZ   -0.000000  -0.000000   0.000000  -0.000000  -0.000000
   55  RH 1 XX   -0.000000  -0.000202   0.000339   0.002082  -0.000000
   56  RH 1 YY   -0.000000  -0.000202   0.000339  -0.002082  -0.000000
   57  RH 1 ZZ   -0.000000   0.000404  -0.000678  -0.000000  -0.000000
   58  RH 1 XY   -0.000000  -0.000000   0.000000  -0.000000  -0.002404
   59  RH 1 XZ    0.000392  -0.000000   0.000000  -0.000000  -0.000000
   60  RH 1 YZ   -0.000000  -0.000000   0.000000  -0.000000  -0.000000
   61  RH 1 XXX  -0.000000  -0.000106   0.002695   0.005200  -0.000000
   62  RH 1 YYY  -0.000000  -0.000000   0.000000  -0.000000   0.005200
   63  RH 1 ZZZ  -0.000000  -0.000000   0.000000  -0.000000  -0.000000
   64  RH 1 XXY  -0.000000  -0.000000   0.000000  -0.000000   0.002325
   65  RH 1 XXZ   0.000063  -0.000000   0.000000  -0.000000  -0.000000
   66  RH 1 YYX  -0.000000   0.000142  -0.003615   0.002325  -0.000000
   67  RH 1 YYZ  -0.000063  -0.000000   0.000000  -0.000000  -0.000000
   68  RH 1 ZZX  -0.000000  -0.000000   0.000000  -0.009301  -0.000000
   69  RH 1 ZZY  -0.000000  -0.000000   0.000000  -0.000000  -0.009301
   70  RH 1 XYZ  -0.000000  -0.000000   0.000000  -0.000000  -0.000000
   71  RH 1 XXX  -0.000000   0.000093   0.001635   0.002007  -0.000000
   72  RH 1 YYY  -0.000000  -0.000000   0.000000  -0.000000   0.002007
   73  RH 1 ZZZ  -0.000000  -0.000000   0.000000  -0.000000  -0.000000
   74  RH 1 XXY  -0.000000  -0.000000   0.000000  -0.000000   0.000898
   75  RH 1 XXZ  -0.000027  -0.000000   0.000000  -0.000000  -0.000000
   76  RH 1 YYX  -0.000000  -0.000124  -0.002193   0.000898  -0.000000
   77  RH 1 YYZ   0.000027  -0.000000   0.000000  -0.000000  -0.000000
   78  RH 1 ZZX  -0.000000  -0.000000   0.000000  -0.003590  -0.000000
   79  RH 1 ZZY  -0.000000  -0.000000   0.000000  -0.000000  -0.003590
   80  RH 1 XYZ  -0.000000  -0.000000   0.000000  -0.000000  -0.000000
   81  RH 1XXXX  -0.000000  -0.000056   0.000251   0.003299  -0.000000
   82  RH 1YYYY  -0.000000  -0.000056   0.000251   0.002256  -0.000000
   83  RH 1ZZZZ  -0.000000  -0.000150   0.000670  -0.000000  -0.000000
   84  RH 1XXXY  -0.000000  -0.000000   0.000000  -0.000000   0.003805
   85  RH 1XXXZ   0.000124  -0.000000   0.000000  -0.000000  -0.000000
   86  RH 1YYYX  -0.000000  -0.000000   0.000000  -0.000000  -0.004594
   87  RH 1YYYZ  -0.000000  -0.000000   0.000000  -0.000000  -0.000000
   88  RH 1ZZZX  -0.000165  -0.000000   0.000000  -0.000000  -0.000000
   89  RH 1ZZZY  -0.000000  -0.000000   0.000000  -0.000000  -0.000000
   90  RH 1XXYY  -0.000000  -0.000033   0.000147  -0.004879  -0.000000
   91  RH 1XXZZ  -0.000000   0.000131  -0.000589  -0.000917  -0.000000
   92  RH 1YYZZ  -0.000000   0.000131  -0.000589   0.000917  -0.000000
   93  RH 1XXYZ  -0.000000  -0.000000   0.000000  -0.000000  -0.000000
   94  RH 1YYXZ   0.000055  -0.000000   0.000000  -0.000000  -0.000000
   95  RH 1ZZXY  -0.000000  -0.000000   0.000000  -0.000000   0.001058
   96  F  2  S   -0.000000   0.000005  -0.000185   0.000709  -0.001227
   97  F  2  S   -0.000000   0.000020   0.000207  -0.000662   0.001147
   98  F  2  S   -0.000000  -0.000080   0.000728  -0.002295   0.003974
   99  F  2  S   -0.000000  -0.000063  -0.000871   0.001356  -0.002348
  100  F  2  X   -0.000000  -0.000000   0.000063  -0.000191   0.000385
  101  F  2  Y   -0.000000   0.000000  -0.000109   0.000385  -0.000635
  102  F  2  Z    0.000005  -0.000000   0.000000  -0.000000  -0.000000
  103  F  2  X   -0.000000  -0.000014   0.000233  -0.000594   0.001079
  104  F  2  Y   -0.000000   0.000023  -0.000403   0.001079  -0.001839
  105  F  2  Z   -0.000016  -0.000000   0.000000  -0.000000  -0.000000
  106  F  2  X   -0.000000  -0.000067  -0.000065  -0.000562   0.000861
[...]
  162  F  3 YYZ  -0.000000  -0.000000   0.000000
  163  F  3 ZZX  -0.002331  -0.012293   0.007461
  164  F  3 ZZY  -0.012293  -0.016526   0.012923
  165  F  3 XYZ  -0.000000  -0.000000   0.000000
  166  F  4  S    0.007652  -0.000000   0.005389
  167  F  4  S    0.106478  -0.000000   0.069746
  168  F  4  S   -0.126471  -0.000000  -0.028416
  169  F  4  S   -0.037600  -0.000000  -0.171086
  170  F  4  X   -0.027889  -0.000000  -0.034269
  171  F  4  Y   -0.000000   0.000116   0.000000
  172  F  4  Z   -0.000000  -0.000000   0.000000
  173  F  4  X    0.033934  -0.000000   0.059857
  174  F  4  Y   -0.000000   0.002901   0.000000
  175  F  4  Z   -0.000000  -0.000000   0.000000
  176  F  4  X    0.216959  -0.000000   0.212520
  177  F  4  Y   -0.000000   0.002006   0.000000
  178  F  4  Z   -0.000000  -0.000000   0.000000
  179  F  4 XX    0.073270  -0.000000   0.070447
  180  F  4 YY   -0.035348  -0.000000  -0.036314
  181  F  4 ZZ   -0.037922  -0.000000  -0.034133
  182  F  4 XY   -0.000000  -0.006378   0.000000
  183  F  4 XZ   -0.000000  -0.000000   0.000000
  184  F  4 YZ   -0.000000  -0.000000   0.000000
  185  F  4 XX   -0.186373  -0.000000  -0.192499
  186  F  4 YY    0.091160  -0.000000   0.097830
  187  F  4 ZZ    0.095213  -0.000000   0.094669
  188  F  4 XY   -0.000000   0.008676   0.000000
  189  F  4 XZ   -0.000000  -0.000000   0.000000
  190  F  4 YZ   -0.000000  -0.000000   0.000000
  191  F  4 XXX   0.034551  -0.000000   0.023487
  192  F  4 YYY  -0.000000   0.009629   0.000000
  193  F  4 ZZZ  -0.000000  -0.000000   0.000000
  194  F  4 XXY  -0.000000  -0.017685   0.000000
  195  F  4 XXZ  -0.000000  -0.000000   0.000000
  196  F  4 YYX  -0.022732  -0.000000  -0.016589
  197  F  4 YYZ  -0.000000  -0.000000   0.000000
  198  F  4 ZZX  -0.023623  -0.000000  -0.014922
  199  F  4 ZZY  -0.000000   0.004766   0.000000
  200  F  4 XYZ  -0.000000  -0.000000   0.000000
 ...... END OF RHF CALCULATION ......
 CPU     0: STEP CPU TIME=     7.20 TOTAL CPU TIME=          8.9 (      0.1 MIN)
 TOTAL WALL CLOCK TIME=         11.5 SECONDS, CPU UTILIZATION IS    77.55%

     ----------------------------------------------------------------
     PROPERTY VALUES FOR THE RHF   SELF-CONSISTENT FIELD WAVEFUNCTION
     ----------------------------------------------------------------

          -----------------
          ENERGY COMPONENTS
          -----------------

         WAVEFUNCTION NORMALIZATION =       1.0000000000

                ONE ELECTRON ENERGY =   -7067.6828576832
                TWO ELECTRON ENERGY =    1742.4206422061
           NUCLEAR REPULSION ENERGY =     346.4695025410
                                      ------------------
                       TOTAL ENERGY =   -4978.7927129360

 ELECTRON-ELECTRON POTENTIAL ENERGY =    1742.4206422061
  NUCLEUS-ELECTRON POTENTIAL ENERGY =   -7067.6988432659
   NUCLEUS-NUCLEUS POTENTIAL ENERGY =     346.4695025410
                                      ------------------
             TOTAL POTENTIAL ENERGY =   -4978.8086985187
               TOTAL KINETIC ENERGY =       0.0159855827
                 VIRIAL RATIO (V/T) =  311456.1909641587

          ---------------------------------------
          MULLIKEN AND LOWDIN POPULATION ANALYSES
          ---------------------------------------

     ATOMIC MULLIKEN POPULATION IN EACH MOLECULAR ORBITAL

                      1          2          3          4          5

                  2.000000   2.000000   2.000000   2.000000   2.000000

    1             1.999999   1.999995   1.999999   1.999999   2.000000
    2             0.000000   0.000002   0.000000   0.000000  -0.000000
    3             0.000000   0.000002   0.000000   0.000000  -0.000000
    4             0.000000   0.000002   0.000000  -0.000000  -0.000000

                      6          7          8          9         10

                  2.000000   2.000000   2.000000   2.000000   2.000000

    1             0.000109   0.000254   0.000254   2.000012   1.999994
    2             0.666630   0.333291   0.999873  -0.000004   0.000001
    3             0.666630   0.333291   0.999873  -0.000004   0.000001
    4             0.666630   1.333164   0.000000  -0.000004   0.000004

                     11         12         13         14         15

                  2.000000   2.000000   2.000000   2.000000   2.000000

    1             1.999994   2.000000   1.999991   1.999991   2.000000
    2             0.000003  -0.000000   0.000002   0.000004   0.000000
    3             0.000003  -0.000000   0.000002   0.000004   0.000000
    4            -0.000000  -0.000000   0.000006   0.000000   0.000000

                     16         17         18         19         20

                  2.000000   2.000000   2.000000   2.000000   2.000000

    1             2.000000   1.999997   2.000273   1.999036   1.999036
    2             0.000000   0.000001  -0.000091   0.000160   0.000482
    3             0.000000   0.000001  -0.000091   0.000160   0.000482
    4             0.000000   0.000001  -0.000091   0.000643  -0.000000

                     21         22         23         24

                  2.000000   2.000000   2.000000   2.000000

    1             2.000077   0.041402   0.044699   0.044699
    2            -0.000026   0.652866   0.325881   0.977653
    3            -0.000026   0.652866   0.325881   0.977653
    4            -0.000026   0.652866   1.303539  -0.000005

               ----- POPULATIONS IN EACH AO -----
                             MULLIKEN      LOWDIN
              1  RH 1  S      1.99934     1.99789
              2  RH 1  S      1.99931     1.96578
              3  RH 1  S      2.02281     0.83085
              4  RH 1  S      1.57744     0.50282
              5  RH 1  S      0.02367     0.34093
              6  RH 1  S      0.43218     0.23723
              7  RH 1  S     -0.05134     0.10794
              8  RH 1  S      0.01121     0.02864
              9  RH 1  S      0.00323     0.00924
             10  RH 1  X      1.99979     1.98508
             11  RH 1  Y      1.99979     1.98508
             12  RH 1  Z      1.99980     1.98527
             13  RH 1  X      1.70432     1.53812
             14  RH 1  Y      1.70432     1.53811
             15  RH 1  Z      1.70673     1.54256
             16  RH 1  X      0.29999     0.58300
             17  RH 1  Y      0.29999     0.58300
             18  RH 1  Z      0.29572     0.58428
             19  RH 1  X      1.12261     0.61964
             20  RH 1  Y      1.12261     0.61961
             21  RH 1  Z      1.15760     0.63063
             22  RH 1  X      0.90542     0.39746
             23  RH 1  Y      0.90542     0.39748
             24  RH 1  Z      0.87694     0.39205
             25  RH 1  X     -0.03072     0.10569
             26  RH 1  Y     -0.03072     0.10568
             27  RH 1  Z     -0.04279     0.09883
             28  RH 1  X      0.01668     0.02488
             29  RH 1  Y      0.01668     0.02504
             30  RH 1  Z      0.00582     0.01077
             31  RH 1 XX      2.00471     1.57157
             32  RH 1 YY      2.00414     1.57155
             33  RH 1 ZZ      2.00414     1.57082
             34  RH 1 XY      2.00456     1.86696
             35  RH 1 XZ      2.00456     1.86736
             36  RH 1 YZ      0.00000     1.86736
             37  RH 1 XX     -0.00441     0.33995
             38  RH 1 YY     -0.00296     0.33989
             39  RH 1 ZZ     -0.00296     0.32792
             40  RH 1 XY     -0.00564     0.13180
             41  RH 1 XZ     -0.00564     0.12984
             42  RH 1 YZ      0.00000     0.12984
             43  RH 1 XX      0.00462     0.04983
             44  RH 1 YY      0.00671     0.04974
             45  RH 1 ZZ      0.00671     0.04302
             46  RH 1 XY      0.00118     0.00415
             47  RH 1 XZ      0.00118     0.00229
             48  RH 1 YZ      0.00000     0.00229
             49  RH 1 XX      0.00678     0.01412
             50  RH 1 YY      0.01014     0.01388
             51  RH 1 ZZ      0.01014     0.00032
             52  RH 1 XY     -0.00010     0.01359
             53  RH 1 XZ     -0.00010     0.00027
             54  RH 1 YZ      0.00000     0.00027
             55  RH 1 XX      0.00145     0.01346
             56  RH 1 YY      0.00346     0.01354
             57  RH 1 ZZ      0.00346     0.00020
             58  RH 1 XY      0.00000     0.01441
             59  RH 1 XZ      0.00000     0.00000
             60  RH 1 YZ      0.00000     0.00000
             61  RH 1 XXX     0.00026     0.40619
             62  RH 1 YYY     0.00000     0.40622
             63  RH 1 ZZZ     0.00023     0.38660
             64  RH 1 XXY     0.00020     0.17492
             65  RH 1 XXZ     0.00023     0.17791
             66  RH 1 YYX     0.00000     0.17511
             67  RH 1 YYZ     0.00000     0.17791
             68  RH 1 ZZX     0.00000     0.16320
             69  RH 1 ZZY     0.00000     0.16319
             70  RH 1 XYZ     0.00000     0.00000
             71  RH 1 XXX     0.01013     0.01784
             72  RH 1 YYY    -0.00000     0.01548
             73  RH 1 ZZZ     0.00309     0.00619
             74  RH 1 XXY     0.00006     0.00716
             75  RH 1 XXZ     0.00309     0.00347
             76  RH 1 YYX    -0.00000     0.01544
             77  RH 1 YYZ     0.00000     0.00348
             78  RH 1 ZZX     0.00000     0.00263
             79  RH 1 ZZY     0.00000     0.00263
             80  RH 1 XYZ     0.00000     0.00000
             81  RH 1XXXX     0.00063     0.02546
             82  RH 1YYYY     0.00001     0.02387
             83  RH 1ZZZZ     0.00043     0.01745
             84  RH 1XXXY     0.00000     0.00133
             85  RH 1XXXZ     0.00040     0.00008
             86  RH 1YYYX     0.00000     0.00519
             87  RH 1YYYZ     0.00043     0.00008
             88  RH 1ZZZX     0.00000     0.00007
             89  RH 1ZZZY     0.00063     0.00007
             90  RH 1XXYY     0.00000     0.02717
             91  RH 1XXZZ     0.00000     0.02269
             92  RH 1YYZZ     0.00000     0.02268
             93  RH 1XXYZ     0.00000     0.00008
             94  RH 1YYXZ     0.00000     0.00009
             95  RH 1ZZXY     0.00000     0.00021
             96  F  2  S      1.99952     1.97325
             97  F  2  S      1.19511     0.52942
             98  F  2  S      0.61025     0.30864
             99  F  2  S     -0.06458     0.08512
            100  F  2  X      0.02372     0.02136
            101  F  2  Y      0.07117     0.06417
            102  F  2  Z     -0.00000     0.00000
            103  F  2  X      0.02874     0.01313
            104  F  2  Y      0.08621     0.03960
            105  F  2  Z      0.00000     0.00000
            106  F  2  X      0.00063     0.00260
            107  F  2  Y      0.00190     0.00738
            108  F  2  Z     -0.00003     0.00001
            109  F  2 XX      0.00008     0.22039
            110  F  2 YY      0.00006     0.23238
            111  F  2 ZZ      0.00017     0.21396
            112  F  2 XY     -0.00000     0.00024
            113  F  2 XZ     -0.00000     0.00000
            114  F  2 YZ      0.00000     0.00000
            115  F  2 XX      0.00095     0.05163
            116  F  2 YY      0.00066     0.06706
            117  F  2 ZZ      0.00198     0.04367
            118  F  2 XY      0.00000     0.00174
            119  F  2 XZ      0.00000     0.00000
            120  F  2 YZ      0.00000     0.00000
            121  F  2 XXX     0.00011     0.00794
            122  F  2 YYY     0.00000     0.02606
            123  F  2 ZZZ     0.00002     0.00000
            124  F  2 XXY     0.00000     0.01154
            125  F  2 XXZ     0.00006     0.00000
            126  F  2 YYX     0.00000     0.00493
            127  F  2 YYZ     0.00000     0.00000
            128  F  2 ZZX     0.00000     0.00332
            129  F  2 ZZY     0.00000     0.00993
            130  F  2 XYZ     0.00000     0.00000
            131  F  3  S      1.99952     1.97325
            132  F  3  S      1.19511     0.52942
            133  F  3  S      0.61025     0.30864
            134  F  3  S     -0.06458     0.08512
            135  F  3  X      0.02372     0.02136
            136  F  3  Y      0.07117     0.06417
            137  F  3  Z     -0.00000     0.00000
            138  F  3  X      0.02874     0.01313
            139  F  3  Y      0.08621     0.03960
            140  F  3  Z      0.00000     0.00000
            141  F  3  X      0.00063     0.00260
            142  F  3  Y      0.00190     0.00738
            143  F  3  Z     -0.00003     0.00001
            144  F  3 XX      0.00008     0.22039
            145  F  3 YY      0.00006     0.23238
            146  F  3 ZZ      0.00017     0.21396
            147  F  3 XY     -0.00000     0.00024
            148  F  3 XZ     -0.00000     0.00000
            149  F  3 YZ      0.00000     0.00000
            150  F  3 XX      0.00095     0.05163
            151  F  3 YY      0.00066     0.06706
            152  F  3 ZZ      0.00198     0.04367
            153  F  3 XY      0.00000     0.00174
            154  F  3 XZ      0.00000     0.00000
            155  F  3 YZ      0.00000     0.00000
            156  F  3 XXX     0.00011     0.00794
            157  F  3 YYY     0.00000     0.02606
            158  F  3 ZZZ     0.00002     0.00000
            159  F  3 XXY     0.00000     0.01154
            160  F  3 XXZ     0.00006     0.00000
            161  F  3 YYX     0.00000     0.00493
            162  F  3 YYZ     0.00000     0.00000
            163  F  3 ZZX     0.00000     0.00332
            164  F  3 ZZY     0.00000     0.00993
            165  F  3 XYZ     0.00000     0.00000
            166  F  4  S      1.99952     1.97325
            167  F  4  S      1.19511     0.52986
            168  F  4  S      0.61025     0.30973
            169  F  4  S     -0.06458     0.08604
            170  F  4  X      0.09489     0.08557
            171  F  4  Y     -0.00000     0.00000
            172  F  4  Z     -0.00000     0.00000
            173  F  4  X      0.11495     0.05338
            174  F  4  Y      0.00000     0.00000
            175  F  4  Z      0.00000     0.00000
            176  F  4  X      0.00254     0.01031
            177  F  4  Y     -0.00001     0.00003
            178  F  4  Z     -0.00003     0.00001
            179  F  4 XX      0.00008     0.23874
            180  F  4 YY      0.00022     0.21469
            181  F  4 ZZ     -0.00000     0.21410
            182  F  4 XY     -0.00000     0.00000
            183  F  4 XZ     -0.00000     0.00000
            184  F  4 YZ      0.00000     0.00000
            185  F  4 XX      0.00095     0.07711
            186  F  4 YY      0.00263     0.04455
            187  F  4 ZZ      0.00000     0.04396
            188  F  4 XY      0.00000     0.00000
            189  F  4 XZ      0.00000     0.00000
            190  F  4 YZ      0.00000     0.00000
            191  F  4 XXX     0.00011     0.03699
            192  F  4 YYY     0.00000     0.00000
            193  F  4 ZZZ     0.00007     0.00000
            194  F  4 XXY     0.00000     0.00000
            195  F  4 XXZ     0.00000     0.00000
            196  F  4 YYX     0.00000     0.01346
            197  F  4 YYZ     0.00000     0.00000
            198  F  4 ZZX     0.00000     0.01334
            199  F  4 ZZY     0.00000     0.00000
            200  F  4 XYZ     0.00000     0.00000

          ----- MULLIKEN ATOMIC OVERLAP POPULATIONS -----
          (OFF-DIAGONAL ELEMENTS NEED TO BE MULTIPLIED BY 2)

             1           2           3           4

    1   36.0280290
    2    0.0339273   3.9228000
    3    0.0339273   0.0000012   3.9228000
    4    0.0339273   0.0000012   0.0000012   3.9228000

          TOTAL MULLIKEN AND LOWDIN ATOMIC POPULATIONS
       ATOM         MULL.POP.    CHARGE          LOW.POP.     CHARGE
    1 RH           36.129811    8.870189        36.175936    8.824064
    2 F             3.956730    5.043270         3.939467    5.060533
    3 F             3.956730    5.043270         3.939467    5.060533
    4 F             3.956730    5.043270         3.945130    5.054870

          MULLIKEN SPHERICAL HARMONIC POPULATIONS
       ATOM           S       P       D      F      G      H      I    TOTAL
    1 RH            8.02   18.04   10.06   0.02   0.00   0.00   0.00   36.13
    2 F             3.74    0.21    0.00   0.00   0.00   0.00   0.00    3.96
    3 F             3.74    0.21    0.00   0.00   0.00   0.00   0.00    3.96
    4 F             3.74    0.21    0.00   0.00   0.00   0.00   0.00    3.96

          -------------------------------
          BOND ORDER AND VALENCE ANALYSIS     BOND ORDER THRESHOLD=0.050
          -------------------------------

                   BOND                       BOND                       BOND
  ATOM PAIR DIST  ORDER      ATOM PAIR DIST  ORDER      ATOM PAIR DIST  ORDER
    1   2  2.070  0.086        1   3  2.070  0.086        1   4  2.070  0.086

                       TOTAL       BONDED        FREE
      ATOM            VALENCE     VALENCE     VALENCE
    1 RH                0.259       0.259      -0.000
    2 F                 0.086       0.086       0.000
    3 F                 0.086       0.086       0.000
    4 F                 0.086       0.086       0.000

          ---------------------
          ELECTROSTATIC MOMENTS
          ---------------------

 POINT   1           X           Y           Z (BOHR)    CHARGE
                -0.000000    0.000000    0.000000       24.00 (A.U.)
         DX          DY          DZ         /D/  (DEBYE)
     0.000000   -0.000000    0.000000    0.000000
 ...... END OF PROPERTY EVALUATION ......
 CPU     0: STEP CPU TIME=     0.29 TOTAL CPU TIME=          9.2 (      0.2 MIN)
 TOTAL WALL CLOCK TIME=         11.9 SECONDS, CPU UTILIZATION IS    77.57%
              1211552  WORDS OF DYNAMIC MEMORY USED
 EXECUTION OF GAMESS TERMINATED NORMALLY Sat Dec 16 23:24:23 2023
 DDI: 263640 bytes (0.3 MB / 0 MWords) used by master data server.
Note: The following floating-point exceptions are signalling: IEEE_DENORMAL
Note: The following floating-point exceptions are signalling: IEEE_DENORMAL
Note: The following floating-point exceptions are signalling: IEEE_DENORMAL
Note: The following floating-point exceptions are signalling: IEEE_DENORMAL
Note: The following floating-point exceptions are signalling: IEEE_DENORMAL
Note: The following floating-point exceptions are signalling: IEEE_DENORMAL
Note: The following floating-point exceptions are signalling: IEEE_DENORMAL
Note: The following floating-point exceptions are signalling: IEEE_DENORMAL
Note: The following floating-point exceptions are signalling: IEEE_DENORMAL
Note: The following floating-point exceptions are signalling: IEEE_DENORMAL

 ----------------------------------------
 CPU timing information for all processes
 ========================================
 0: 8.998 + 0.231 = 9.230
 1: 8.366 + 0.196 = 8.563
 2: 8.104 + 0.108 = 8.213
 3: 8.170 + 0.180 = 8.350
 4: 7.967 + 0.210 = 8.178
 5: 8.184 + 0.68 = 8.253
 6: 8.550 + 0.228 = 8.778
 7: 7.836 + 0.172 = 8.08
 8: 8.38 + 0.120 = 8.159
 9: 8.563 + 0.146 = 8.710
 10: 8.693 + 0.142 = 8.835
 11: 8.259 + 0.74 = 8.333
 ----------------------------------------
Note: The following floating-point exceptions are signalling: IEEE_DENORMAL
Note: The following floating-point exceptions are signalling: IEEE_DENORMAL
 ddikick.x: exited gracefully.
unset echo
----- accounting info -----
Files used on the master node io001 were:
-rw-r--r-- 1 bjb2chen nooijen  545620 Dec 16 23:24 /home/bjb2chen/gmsscr//RhF3_cat24_SPK_rhf_D3h_e_F2sfilled.F05
-rw-r--r-- 1 bjb2chen nooijen 7754640 Dec 16 23:24 /home/bjb2chen/gmsscr//RhF3_cat24_SPK_rhf_D3h_e_F2sfilled.F10
ls: No match.
ls: No match.
ls: No match.
Sat 16 Dec 2023 11:24:26 PM EST
0.306u 0.084s 0:15.55 2.4%	0+0k 1072+1400io 0pf+0w
