----- GAMESS execution script 'rungms' -----
This job is running on host io001
under operating system Linux at Tue 19 Dec 2023 12:27:57 AM EST
Available scratch disk space (Kbyte units) at beginning of the job is
Filesystem             1K-blocks       Used Available Use% Mounted on
helmholtz.nlogn:/home 6391504896 5255097344 814268416  87% /home
GAMESS temporary binary files will be written to /home/bjb2chen/gmsscr/
GAMESS supplementary output files will be written to /home/bjb2chen/gamess/vibronics/SbH3
Copying input file SbH3_cct_rhf_mp2_D3h_gh.inp to your run's scratch directory...
cp SbH3_cct_rhf_mp2_D3h_gh.inp /home/bjb2chen/gmsscr//SbH3_cct_rhf_mp2_D3h_gh.F05
unset echo
Please save, rename, or erase these files from a previous run:
     /home/bjb2chen/gamess/vibronics/SbH3/SbH3_cct_rhf_mp2_D3h_gh.casino,
     /home/bjb2chen/gamess/vibronics/SbH3/SbH3_cct_rhf_mp2_D3h_gh.dmn,
     /home/bjb2chen/gamess/vibronics/SbH3/SbH3_cct_rhf_mp2_D3h_gh.cim,
     /home/bjb2chen/gamess/vibronics/SbH3/SbH3_cct_rhf_mp2_D3h_gh.cosmo,
     /home/bjb2chen/gamess/vibronics/SbH3/SbH3_cct_rhf_mp2_D3h_gh.pot,
     /home/bjb2chen/gamess/vibronics/SbH3/SbH3_cct_rhf_mp2_D3h_gh.gamma,
     /home/bjb2chen/gamess/vibronics/SbH3/SbH3_cct_rhf_mp2_D3h_gh.efp,
     /home/bjb2chen/gamess/vibronics/SbH3/SbH3_cct_rhf_mp2_D3h_gh.dip,
     /home/bjb2chen/gamess/vibronics/SbH3/SbH3_cct_rhf_mp2_D3h_gh.hs1,
     /home/bjb2chen/gamess/vibronics/SbH3/SbH3_cct_rhf_mp2_D3h_gh.hs2,
     /home/bjb2chen/gamess/vibronics/SbH3/SbH3_cct_rhf_mp2_D3h_gh.dat,
     /home/bjb2chen/gamess/vibronics/SbH3/SbH3_cct_rhf_mp2_D3h_gh.qmw,
     /home/bjb2chen/gamess/vibronics/SbH3/SbH3_cct_rhf_mp2_D3h_gh.rst, and/or
     /home/bjb2chen/gamess/vibronics/SbH3/SbH3_cct_rhf_mp2_D3h_gh.trj,
and then resubmit this computation.
Benny is deleting them all
 
Assuming a single but multicore node.
 
/home/bjb2chen/gamess/ddikick.x /home/bjb2chen/gamess/gamess.00.x SbH3_cct_rhf_mp2_D3h_gh -ddi 1 12 io001:cpus=12 -scr /home/bjb2chen/gmsscr/

 Distributed Data Interface kickoff program.
 Initiating 12 compute processes on 1 nodes to run the following command:
 /home/bjb2chen/gamess/gamess.00.x SbH3_cct_rhf_mp2_D3h_gh 

          ******************************************************
          *         GAMESS VERSION = 02 AUG 2018 (R2)         *
          *             FROM IOWA STATE UNIVERSITY             *
          * M.W.SCHMIDT, K.K.BALDRIDGE, J.A.BOATZ, S.T.ELBERT, *
          *   M.S.GORDON, J.H.JENSEN, S.KOSEKI, N.MATSUNAGA,   *
          *          K.A.NGUYEN, S.J.SU, T.L.WINDUS,           *
          *       TOGETHER WITH M.DUPUIS, J.A.MONTGOMERY       *
          *         J.COMPUT.CHEM.  14, 1347-1363(1993)        *
          **************** 64 BIT LINUX VERSION ****************

  SINCE 1993, STUDENTS AND POSTDOCS WORKING AT IOWA STATE UNIVERSITY
  AND ALSO IN THEIR VARIOUS JOBS AFTER LEAVING ISU HAVE MADE IMPORTANT
  CONTRIBUTIONS TO THE CODE:
     IVANA ADAMOVIC, CHRISTINE AIKENS, YURI ALEXEEV, POOJA ARORA,
     ANDREY ASADCHEV, ROB BELL, PRADIPTA BANDYOPADHYAY, JONATHAN BENTZ,
     BRETT BODE, KURT BRORSEN, CALEB CARLIN, GALINA CHABAN, WEI CHEN,
     CHEOL HO CHOI, PAUL DAY, ALBERT DEFUSCO, NUWAN DESILVA, TIM DUDLEY,
     DMITRI FEDOROV, ALEX FINDLATER, GRAHAM FLETCHER, MARK FREITAG,
     KURT GLAESEMANN, ANASTASIA GUININA,
     DAN KEMP, GRANT MERRILL, NORIYUKI MINEZAWA, JONATHAN MULLIN,
     TAKESHI NAGATA, SEAN NEDD, HEATHER NETZLOFF, BOSILJKA NJEGIC, RYAN OLSON,
     MIKE PAK, BUU PHAM,
     SPENCER PRUITT, LUKE ROSKOP, JIM SHOEMAKER, LYUDMILA SLIPCHENKO,
     TONY SMITH, SAROM SOK LEANG, JIE SONG, TETSUYA TAKETSUGU, SIMON WEBB,
     PENG XU, SOOHAENG YOO, FEDERICO ZAHARIEV

  ADDITIONAL CODE HAS BEEN PROVIDED BY COLLABORATORS IN OTHER GROUPS:
     IOWA STATE UNIVERSITY:
          JOE IVANIC, AARON WEST, LAIMUTIS BYTAUTAS, KLAUS RUEDENBERG
     UNIVERSITY OF TOKYO: KIMIHIKO HIRAO, TAKAHITO NAKAJIMA,
          TAKAO TSUNEDA, MUNEAKI KAMIYA, SUSUMU YANAGISAWA,
          KIYOSHI YAGI, MAHITO CHIBA, SEIKEN TOKURA, NAOAKI KAWAKAMI
     UNIVERSITY OF AARHUS: FRANK JENSEN
     UNIVERSITY OF IOWA: VISVALDAS KAIRYS, HUI LI
     NATIONAL INST. OF STANDARDS AND TECHNOLOGY: WALT STEVENS, DAVID GARMER
     UNIVERSITY OF PISA: BENEDETTA MENNUCCI, JACOPO TOMASI
     UNIVERSITY OF MEMPHIS: HENRY KURTZ, PRAKASHAN KORAMBATH
     UNIVERSITY OF ALBERTA: TOBY ZENG, MARIUSZ KLOBUKOWSKI
     UNIVERSITY OF NEW ENGLAND: MARK SPACKMAN
     MIE UNIVERSITY: HIROAKI UMEDA
     NAT. INST. OF ADVANCED INDUSTRIAL SCIENCE AND TECHNOLOGY: KAZUO KITAURA
     MICHIGAN STATE UNIVERSITY:
          KAROL KOWALSKI, MARTA WLOCH, JEFFREY GOUR, JESSE LUTZ,
          WEI LI, JUN SHEN, J. EMILIANO DEUSTUA, PIOTR PIECUCH
     UNIVERSITY OF MINNESOTA:
          YINAN SHU
     UNIVERSITY OF SILESIA: MONIKA MUSIAL, STANISLAW KUCHARSKI
     FACULTES UNIVERSITAIRES NOTRE-DAME DE LA PAIX:
          OLIVIER QUINET, BENOIT CHAMPAGNE
     UNIVERSITY OF CALIFORNIA - SANTA BARBARA: BERNARD KIRTMAN
     INSTITUTE FOR MOLECULAR SCIENCE:
          KAZUYA ISHIMURA, MICHIO KATOUDA, AND SHIGERU NAGASE
     UNIVERSITY OF NOTRE DAME: ANNA POMOGAEVA, DAN CHIPMAN
     KYUSHU UNIVERSITY:
          HARUYUKI NAKANO,
          FENG LONG GU, JACEK KORCHOWIEC, MARCIN MAKOWSKI, AND YURIKO AOKI,
          HIROTOSHI MORI AND EISAKU MIYOSHI
     PENNSYLVANIA STATE UNIVERSITY:
          TZVETELIN IORDANOV, CHET SWALINA, JONATHAN SKONE,
          SHARON HAMMES-SCHIFFER
     WASEDA UNIVERSITY:
          MASATO KOBAYASHI, TOMOKO AKAMA, TSUGUKI TOUMA,
          TAKESHI YOSHIKAWA, YASUHIRO IKABATA, JUNJI SEINO,
          YUYA NAKAJIMA, HIROMI NAKAI
     NANJING UNIVERSITY: SHUHUA LI
     UNIVERSITY OF NEBRASKA:
          PEIFENG SU, DEJUN SI, NANDUN THELLAMUREGE, YALI WANG, HUI LI
     UNIVERSITY OF ZURICH: ROBERTO PEVERATI, KIM BALDRIDGE
     N. COPERNICUS UNIVERSITY AND JACKSON STATE UNIVERSITY:
          MARIA BARYSZ
     UNIVERSITY OF COPENHAGEN: Jimmy Kromann, CASPER STEINMANN
     TOKYO INSTITUTE OF TECHNOLOGY: HIROYA NAKATA
     NAGOYA UNIVERSITY: YOSHIO NISHIMOTO, STEPHAN IRLE
     MOSCOW STATE UNIVERSITY: VLADIMIR MIRONOV


 PARALLEL VERSION RUNNING ON       12 PROCESSORS IN        1 NODES.

 EXECUTION OF GAMESS BEGUN Tue Dec 19 00:27:57 2023

            ECHO OF THE FIRST FEW INPUT CARDS -
 INPUT CARD> !Step 1: Geometry optimization and Hessian calculation of SbH3 at MP2 level.   
 INPUT CARD> $system kdiag=3 mwords=250 memddi=8000 parall=.t. $end                         
 INPUT CARD> $contrl runtyp=optimize ispher=1 relwfn=LUT-IOTC $end                          
 INPUT CARD> $scf    npunch=2 conv=1.0d-06 dirscf=.t.      $end                             
 INPUT CARD> $contrl scftyp=rhf  mult=1 maxit=200 icharg=0 mplevl=2 $end                    
 INPUT CARD> $basis  gbasis=SPKrTZC $end                                                    
 INPUT CARD> $statpt hssend=.t. nstep=200 $end                                              
 INPUT CARD> $force  method=seminum $end                                                    
 INPUT CARD> $trans  dirtrf=.t. $end                                                        
 INPUT CARD> $data                                                                          
 INPUT CARD> SbH3 MP2 Geometry Opt and Hessian                                              
 INPUT CARD>DNH 3                                                                           
 INPUT CARD>                                                                                
 INPUT CARD>Sb    51.0    -0.00000000    -0.00000000     0.00000000                         
 INPUT CARD>H     1.0     1.77000022     0.00000000     0.00000000                          
 INPUT CARD> $end                                                                           
 INPUT CARD>                                                                                
  250000000 WORDS OF MEMORY AVAILABLE

     $BASIS REQUESTS READING THE "SPKRTZC " BASIS SET FROM AN EXTERNAL FILE


     RUN TITLE
     ---------
  SbH3 MP2 Geometry Opt and Hessian                                              

 THE POINT GROUP OF THE MOLECULE IS DNH     
 THE ORDER OF THE PRINCIPAL AXIS IS     3

 THE EXTERNAL BASIS SET FILE BEING READ IS
     "/home/bjb2chen/gamess/auxdata/BASES/SPKRTZC"

 ATOM      ATOMIC                      COORDINATES (BOHR)
           CHARGE         X                   Y                   Z
 SB         51.0    -0.0000000000       -0.0000000000        0.0000000000
 H           1.0    -1.6724077070        2.8966951195        0.0000000000
 H           1.0    -1.6724077070       -2.8966951195        0.0000000000
 H           1.0     3.3448154140        0.0000000000        0.0000000000

          INTERNUCLEAR DISTANCES (ANGS.)
          ------------------------------

                1 SB         2 H          3 H          4 H     

   1 SB      0.0000000    1.7700002 *  1.7700002 *  1.7700002 *
   2 H       1.7700002 *  0.0000000    3.0657303    3.0657303  
   3 H       1.7700002 *  3.0657303    0.0000000    3.0657303  
   4 H       1.7700002 *  3.0657303    3.0657303    0.0000000  

  * ... LESS THAN  3.000


     ATOMIC BASIS SET
     ----------------
 THE CONTRACTED PRIMITIVE FUNCTIONS HAVE BEEN UNNORMALIZED
 THE CONTRACTED BASIS FUNCTIONS ARE NOW NORMALIZED TO UNITY

  SHELL TYPE  PRIMITIVE        EXPONENT          CONTRACTION COEFFICIENT(S)

 SB        

      1   S       1       6886027.1886540    0.000862999490
      1   S       2        738266.6935470    0.003465997950
      1   S       3        123524.4683470    0.011457993225
      1   S       4         26813.0348300    0.035290979132
      1   S       5          7014.0697260    0.103705938676
      1   S       6          2130.6886530    0.260306846074
      1   S       7           724.5975210    0.451763732861
      1   S       8           258.7234880    0.308300817694

      2   S       9          1761.8944920   -0.021299992365
      2   S      10           497.4018890   -0.102881963123
      2   S      11            78.9736370    0.539229806718
      2   S      12            33.3363510    0.542377805590

      3   S      13            55.7414270   -0.262304052906
      3   S      14             9.9144790    0.837525168927
      3   S      15             4.5683080    0.308578062239

      4   S      16             8.5441260   -0.531776157331
      4   S      17             1.9679950    1.289208381424

      5   S      18             3.9489230    1.000000000000

      6   S      19             1.3788630    1.000000000000

      7   S      20             0.8970990    1.000000000000

      8   S      21             0.2242670    1.000000000000

      9   S      22             0.0862550    1.000000000000

     10   P      23         34158.4881170    0.000944999454
     10   P      24          5854.2596380    0.005772996664
     10   P      25          1555.2016110    0.029128983167
     10   P      26           520.7815360    0.114358933914
     10   P      27           200.5056100    0.303794824443
     10   P      28            82.8088800    0.470618728038
     10   P      29            34.4702320    0.258944850361

     11   P      30           149.0205090   -0.019417994150
     11   P      31            23.4542920    0.303118908673
     11   P      32            11.0189370    0.548685834686
     11   P      33             5.0979910    0.230798930463

     12   P      34             3.1242150    1.000000000000

     13   P      35             1.4186210    1.000000000000

     14   P      36             0.6265660    1.000000000000

     15   P      37             0.3191960    1.000000000000

     16   P      38             0.1330000    1.000000000000

     17   P      39             0.0544050    1.000000000000

     18   D      40          1126.1662160    0.001741001521
     18   D      41           321.4913720    0.014651012802
     18   D      42           120.5607670    0.070039061202
     18   D      43            51.1773800    0.211562184869
     18   D      44            23.0919620    0.388313339319
     18   D      45            10.5804150    0.402600351803
     18   D      46             4.6363260    0.144075125897

     19   D      47             7.2608070    0.229541840700
     19   D      48             2.9866870    0.822777429000

     20   D      49             2.2085800    1.000000000000

     21   D      50             1.2205850    0.768975179663
     21   D      51             0.4586640    0.306394071586

     22   D      52             0.3357850    1.000000000000

     23   D      53             0.1376250    1.000000000000

     24   F      54             7.4839730    0.155638931491
     24   F      55             3.0870070    0.891509607575

     25   F      56             1.2614050    1.000000000000

     26   F      57             0.4300080    0.595910485930
     26   F      58             0.1749190    0.506376412921

     27   G      59             3.4737580    0.697033696259
     27   G      60             1.4727250    0.407840822279

 H         

     40   S      61            82.9217781    0.006162599862
     40   S      62            12.4524160    0.047142298945
     40   S      63             2.8330522    0.232313794801
     40   S      64             0.8000097    0.790749382305

     41   S      65             0.2585946    1.000000000000

     42   S      66             0.0899690    1.000000000000

     43   P      67             2.8606730    0.180931198730
     43   P      68             0.8881900    0.870211193892

     44   P      69             0.3037760    1.000000000000

     45   D      70             1.7706130    0.381654213201
     45   D      71             0.5930810    0.721225424946

 TOTAL NUMBER OF BASIS SET SHELLS             =   45
 NUMBER OF CARTESIAN GAUSSIAN BASIS FUNCTIONS =  159
 NOTE: THIS RUN WILL RESTRICT THE MO VARIATION SPACE TO SPHERICAL HARMONICS.
 THE NUMBER OF ORBITALS KEPT IN THE VARIATIONAL SPACE WILL BE PRINTED LATER.
 NUMBER OF ELECTRONS                          =   54
 CHARGE OF MOLECULE                           =    0
 SPIN MULTIPLICITY                            =    1
 NUMBER OF OCCUPIED ORBITALS (ALPHA)          =   27
 NUMBER OF OCCUPIED ORBITALS (BETA )          =   27
 TOTAL NUMBER OF ATOMS                        =    4
 THE NUCLEAR REPULSION ENERGY IS       46.2602660104

     ---------------------------------
     RELATIVISTIC WAVEFUNCTION OPTIONS
     ---------------------------------
     METHOD=LUT-IOTC NORDER= 2       NESOC=  0      MODEQR=      1
     NRATOM=  0      QMTTOL= 1.000E-10      QRTOL= 1.000E-10
     CLIGHT=137.03598950     TAU= 3.500E+00

 INTERNAL BASIS SET UNCONTRACTION FOR RESC/DK/IOTC/LUT-IOTC:
    93 SHELLS AND    318 AOS ARE CONSTRUCTED, COMPARED TO
    45 SHELLS AND    159 AOS IN THE CONTRACTED BASIS SET


     $CONTRL OPTIONS
     ---------------
 SCFTYP=RHF          RUNTYP=OPTIMIZE     EXETYP=RUN     
 MPLEVL=       2     CITYP =NONE         CCTYP =NONE         VBTYP =NONE    
 DFTTYP=NONE         TDDFT =NONE    
 MULT  =       1     ICHARG=       0     NZVAR =       0     COORD =UNIQUE  
 PP    =NONE         RELWFN=LUT-IOTC     LOCAL =NONE         NUMGRD=       F
 ISPHER=       1     NOSYM =       0     MAXIT =     200     UNITS =ANGS    
 PLTORB=       F     MOLPLT=       F     AIMPAC=       F     FRIEND=        
 NPRINT=       7     IREST =       0     GEOM  =INPUT   
 NORMF =       0     NORMP =       0     ITOL  =      20     ICUT  =       9
 INTTYP=BEST         GRDTYP=BEST         QMTTOL= 1.0E-06

     $SYSTEM OPTIONS
     ---------------
  REPLICATED MEMORY=   250000000 WORDS (ON EVERY NODE).
 DISTRIBUTED MEMDDI=        8000 MILLION WORDS IN AGGREGATE,
 MEMDDI DISTRIBUTED OVER  12 PROCESSORS IS   666666666 WORDS/PROCESSOR.
 TOTAL MEMORY REQUESTED ON EACH PROCESSOR=   916666666 WORDS.
 TIMLIM=      525600.00 MINUTES, OR     365.0 DAYS.
 PARALL= T  BALTYP=  DLB     KDIAG=    3  COREFL= F
 MXSEQ2=     300 MXSEQ3=     150  mem10=         0

          ----------------
          PROPERTIES INPUT
          ----------------

     MOMENTS            FIELD           POTENTIAL          DENSITY
 IEMOM =       1   IEFLD =       0   IEPOT =       0   IEDEN =       0
 WHERE =COMASS     WHERE =NUCLEI     WHERE =NUCLEI     WHERE =NUCLEI  
 OUTPUT=BOTH       OUTPUT=BOTH       OUTPUT=BOTH       OUTPUT=BOTH    
 IEMINT=       0   IEFINT=       0                     IEDINT=       0
                                                       MORB  =       0
          EXTRAPOLATION IN EFFECT
          DIIS IN EFFECT
 ORBITAL PRINTING OPTION: NPREO=     1   159     2     1

     -------------------------------
     INTEGRAL TRANSFORMATION OPTIONS
     -------------------------------
     NWORD  =            0
     CUTOFF = 1.0E-09     MPTRAN =       0
     DIRTRF =       T     AOINTS =DUP     

          ----------------------
          INTEGRAL INPUT OPTIONS
          ----------------------
 NOPK  =       1 NORDER=       0 SCHWRZ=       T

          -----------------------
          MP2 CONTROL INFORMATION
          -----------------------
          NACORE =       23  NBCORE =       23
          LMOMP2 =        F  AOINTS = DUP     
          METHOD =        2  NWORD  =               0
          MP2PRP =        F  OSPT   = NONE    
          CUTOFF = 1.00E-09  CPHFBS = BASISAO 
          CODE   = DDI     

          NUMBER OF CORE -A-  ORBITALS =    23
          NUMBER OF CORE -B-  ORBITALS =    23
          NUMBER OF OCC. -A-  ORBITALS =    27
          NUMBER OF OCC. -B-  ORBITALS =    27
          NUMBER OF MOLECULAR ORBITALS =   159
          NUMBER OF   BASIS  FUNCTIONS =   159


 **** EFFICIENCY NOTE ****
 THE MP2 TRANSFORMATION CANNOT USE SYMMETRY WHEN THE GROUP IS NON-ABELIAN.
 YOU MAY BE ABLE TO SPEED UP THIS RUN BY USING AN ABELIAN SUBGROUP IN $DATA.


     ------------------------------------------
     THE POINT GROUP IS DNH, NAXIS= 3, ORDER=12
     ------------------------------------------

 -- VARIATIONAL SPACE WILL BE RESTRICTED TO PURE SPHERICAL HARMONICS ONLY --
 AFTER EXCLUDING CONTAMINANT COMBINATIONS FROM THE CARTESIAN GAUSSIAN BASIS
 SET, THE NUMBER OF SPHERICAL HARMONICS KEPT IN THE VARIATION SPACE IS  135

     DIMENSIONS OF THE SYMMETRY SUBSPACES ARE
 A1' =   26     A1" =    2     A2' =    6     A2" =   15     E'' =   14
 E'  =   29

 ..... DONE SETTING UP THE RUN .....
 CPU     0: STEP CPU TIME=     0.10 TOTAL CPU TIME=          0.1 (      0.0 MIN)
 TOTAL WALL CLOCK TIME=          0.1 SECONDS, CPU UTILIZATION IS    71.43%


          -----------------------------
          STATIONARY POINT LOCATION RUN
          -----------------------------

 OBTAINING INITIAL HESSIAN, HESS=GUESS   
 CARTESIAN COORDINATE OPTIMIZATION USING BADGER'S RULE FORCE CONSTANT GUESS

          PARAMETERS CONTROLLING GEOMETRY SEARCH ARE
          METHOD =QA                  UPHESS =BFGS    
          NNEG   =         0          NFRZ   =         0
          NSTEP  =       200          IFOLOW =         1
          HESS   =GUESS               RESTAR =         F
          IHREP  =         0          HSSEND =         T
          NPRT   =         0          NPUN   =         0
          OPTTOL = 1.000E-04          RMIN   = 1.500E-03
          RMAX   = 1.000E-01          RLIM   = 7.000E-02
          DXMAX  = 3.000E-01          PURIFY =         F
          MOVIE  =         F          TRUPD  =         T
          TRMAX  = 5.000E-01          TRMIN  = 5.000E-02
          ITBMAT =         5          STPT   =         F
          STSTEP = 1.000E-02          PROJCT=          T

 BEGINNING GEOMETRY SEARCH POINT NSERCH=   0 ...

 COORDINATES OF SYMMETRY UNIQUE ATOMS (ANGS)
   ATOM   CHARGE       X              Y              Z
 ------------------------------------------------------------
 SB         51.0  -0.0000000000  -0.0000000000   0.0000000000
 H           1.0   1.7700002200   0.0000000000   0.0000000000
 COORDINATES OF ALL ATOMS ARE (ANGS)
   ATOM   CHARGE       X              Y              Z
 ------------------------------------------------------------
 SB         51.0  -0.0000000000  -0.0000000000   0.0000000000
 H           1.0  -0.8850001100   1.5328651552   0.0000000000
 H           1.0  -0.8850001100  -1.5328651552   0.0000000000
 H           1.0   1.7700002200   0.0000000000   0.0000000000

          ********************
          1 ELECTRON INTEGRALS
          ********************
 TIME TO DO ORDINARY INTEGRALS=      0.00

 ======================================================================
      INFINITE-ORDER TWO-COMPONENT (IOTC) ONE-ELECTRON HAMILTONIAN
      WITH LOCAL UNITARY TRANSFORMATION (LUT) SCHEME
                                            CODED BY YUYA NAKAJIMA
             J. SEINO, H. NAKAI, J. CHEM. PHYS. 136, 244102 (2012)
             J. SEINO, H. NAKAI, J. CHEM. PHYS. 137, 144101 (2012)
             J. SEINO, H. NAKAI, J. CHEM. PHYS. 139, 034109 (2013)
        J. SEINO, H. NAKAI, INT. J. QUANTUM. CHEM. 115, 253 (2015)
 ======================================================================

 LUT-IOTC TRANSFORMATION FOR ATOM:    1
 THE SMALLEST EIGENVALUE OF THE OVERLAP MATRIX IS   2.19E-15
 THERE ARE     4 OVERLAP MATRIX EIGENVALUES LESS THAN   1.00E-10
 THE NUMBER OF LINEARLY INDEPENDENT ORBITALS KEPT IS   233

 LUT-IOTC TRANSFORMATION FOR ATOM:    2
 LUT-IOTC TRANSFORMATION FOR ATOM:    3
 LUT-IOTC TRANSFORMATION FOR ATOM:    4

     -------------------------------------
     LUT-IOTC TRANSFORMATION FOR ATOM-PAIR
     -------------------------------------

                1 SB         2 H          3 H          4 H     

   1 SB      0.0000000    1.7700002 *  1.7700002 *  1.7700002 *
   2 H       1.7700002 *  0.0000000    3.0657303 *  3.0657303 *
   3 H       1.7700002 *  3.0657303 *  0.0000000    3.0657303 *
   4 H       1.7700002 *  3.0657303 *  3.0657303 *  0.0000000  

  * ... TRANSFORMED ATOM PAIR (LESS THAN   3.500 ANGS.)

 TIME TO DO  RELATIVISTIC INTS=      1.01
 ...... END OF ONE-ELECTRON INTEGRALS ......
 CPU     0: STEP CPU TIME=     1.01 TOTAL CPU TIME=          1.1 (      0.0 MIN)
 TOTAL WALL CLOCK TIME=          1.4 SECONDS, CPU UTILIZATION IS    81.02%

          -------------
          GUESS OPTIONS
          -------------
          GUESS =HUCKEL            NORB  =       0          NORDER=       0
          MIX   =       F          PRTMO =       F          PUNMO =       F
          TOLZ  = 1.0E-08          TOLE  = 1.0E-05
          SYMDEN=       F          PURIFY=       F

 INITIAL GUESS ORBITALS GENERATED BY HUCKEL   ROUTINE.
 HUCKEL GUESS REQUIRES    190269 WORDS.

 STATISTICS FOR GENERATION OF SYMMETRY ORBITAL -Q- MATRIX
 NUMBER OF CARTESIAN ATOMIC ORBITALS=        159
 NUMBER OF SPHERICAL CONTAMINANTS DROPPED=    24
 NUMBER OF LINEARLY DEPENDENT MOS DROPPED=     0
 TOTAL NUMBER OF MOS IN VARIATION SPACE=     135

 SYMMETRIES FOR INITIAL GUESS ORBITALS FOLLOW.   BOTH SET(S).
    27 ORBITALS ARE OCCUPIED (   23 CORE ORBITALS).
    24=?A1'    25=?E'     26=?E'     27=A2"     28=?A1'    29=?E'     30=?E' 
    31=A1'     32=A1'     33=A1'     34=A1'     35=A1'     36=A1'     37=A1' 
 ...... END OF INITIAL ORBITAL SELECTION ......
 CPU     0: STEP CPU TIME=     0.03 TOTAL CPU TIME=          1.1 (      0.0 MIN)
 TOTAL WALL CLOCK TIME=          1.4 SECONDS, CPU UTILIZATION IS    82.01%

                    ----------------------
                    AO INTEGRAL TECHNOLOGY
                    ----------------------
     S,P,L SHELL ROTATED AXIS INTEGRALS, REPROGRAMMED BY
        KAZUYA ISHIMURA (IMS) AND JOSE SIERRA (SYNSTAR).
     S,P,D,L SHELL ROTATED AXIS INTEGRALS PROGRAMMED BY
        KAZUYA ISHIMURA (INSTITUTE FOR MOLECULAR SCIENCE).
     S,P,D,F,G SHELL TO TOTAL QUARTET ANGULAR MOMENTUM SUM 5,
        ERIC PROGRAM BY GRAHAM FLETCHER (ELORET AND NASA ADVANCED
        SUPERCOMPUTING DIVISION, AMES RESEARCH CENTER).
     S,P,D,F,G,L SHELL GENERAL RYS QUADRATURE PROGRAMMED BY
        MICHEL DUPUIS (PACIFIC NORTHWEST NATIONAL LABORATORY).

          --------------------
          2 ELECTRON INTEGRALS
          --------------------

 DIRECT SCF METHOD SKIPS INTEGRAL STORAGE ON DISK.
 DIRECT TRANSFORMATION SKIPS AO INTEGRAL STORAGE ON DISK.
  ...... END OF TWO-ELECTRON INTEGRALS .....
 CPU     0: STEP CPU TIME=     0.01 TOTAL CPU TIME=          1.1 (      0.0 MIN)
 TOTAL WALL CLOCK TIME=          1.4 SECONDS, CPU UTILIZATION IS    80.99%

          --------------------------
                 RHF SCF CALCULATION
          --------------------------

     NUCLEAR ENERGY =        46.2602660104
     MAXIT =  200     NPUNCH=    2
     EXTRAP=T  DAMP=F  SHIFT=F  RSTRCT=F  DIIS=T  DEM=F  SOSCF=F
     DENSITY MATRIX CONV=  2.00E-06
     MEMORY REQUIRED FOR RHF ITERS=    296628 WORDS.

 DIRECT SCF CALCULATION, SCHWRZ=T   FDIFF=T,  DIRTHR=  0.00E+00 NITDIR=10
 SCHWARZ INEQUALITY OVERHEAD:     12720 INTEGRALS, T=        0.00

                                                                                   NONZERO     BLOCKS
 ITER EX DEM     TOTAL ENERGY        E CHANGE  DENSITY CHANGE    DIIS ERROR      INTEGRALS    SKIPPED
   1  0  0    -6477.8925692271 -6477.8925692271   4.560430224  10.355420013        8051487        136
          * * *   INITIATING DIIS PROCEDURE   * * *
   2  1  0    -6479.4890746257    -1.5965053986   0.068877403   0.146210305        8051801        189
   3  2  0    -6479.5117232208    -0.0226485951   0.051366736   0.063033638        8042475        668
   4  3  0    -6479.5190794970    -0.0073562761   0.018730377   0.006306413        8034406       1005
   5  4  0    -6479.5193771048    -0.0002976079   0.008233442   0.001588484        8011584       1661
   6  5  0    -6479.5194018453    -0.0000247405   0.002235920   0.000323243        7983426       2519
   7  6  0    -6479.5194030753    -0.0000012300   0.000519769   0.000053119        7905430       5135
   8  7  0    -6479.5194031289    -0.0000000536   0.000057470   0.000009304        7793400       8598
   9  8  0    -6479.5194031302    -0.0000000013   0.000006922   0.000001661        7602315      13510
  10  9  0    -6479.5194031299     0.0000000003   0.000000782   0.000000193        7202059      22417
  11 10  0    -6479.5194031294     0.0000000005   0.000000035   0.000000048        6377080      40350

          -----------------
          DENSITY CONVERGED
          -----------------
     TIME TO FORM FOCK OPERATORS=       7.7 SECONDS (       0.7 SEC/ITER)
     FOCK TIME ON FIRST ITERATION=       0.7, LAST ITERATION=       0.7
     TIME TO SOLVE SCF EQUATIONS=       0.1 SECONDS (       0.0 SEC/ITER)

 FINAL RHF ENERGY IS    -6479.5194031294 AFTER  11 ITERATIONS

          ------------
          EIGENVECTORS
          ------------

                      1          2          3          4          5
                -1126.0879  -174.8526  -156.8160  -156.8158  -156.8158
                     A1'        A1'        A2"        E'         E'  
    1  SB 1  S    0.994753  -0.360510  -0.000000   0.000000   0.000000
    2  SB 1  S    0.008968   1.044123  -0.000000   0.000000   0.000000
    3  SB 1  S   -0.026138   0.013935  -0.000000   0.000000   0.000000
    4  SB 1  S   -0.031705  -0.033256  -0.000000   0.000000   0.000000
    5  SB 1  S    0.020622   0.001935  -0.000000   0.000000   0.000000
    6  SB 1  S    0.046177   0.055660  -0.000000   0.000000   0.000000
    7  SB 1  S   -0.018018  -0.023792  -0.000000   0.000000   0.000000
    8  SB 1  S    0.002469   0.003590  -0.000000   0.000000   0.000000
    9  SB 1  S    0.000288   0.000475  -0.000000   0.000000   0.000000
   10  SB 1  X    0.000000  -0.000000  -0.000000   0.992079   0.000000
   11  SB 1  Y    0.000000  -0.000000  -0.000000   0.000000   0.992079
   12  SB 1  Z    0.000000  -0.000000   0.992086   0.000000   0.000000
   13  SB 1  X    0.000000  -0.000000  -0.000000   0.019310   0.000000
   14  SB 1  Y    0.000000  -0.000000  -0.000000   0.000000   0.019310
   15  SB 1  Z    0.000000  -0.000000   0.019291   0.000000   0.000000
   16  SB 1  X    0.000000  -0.000000  -0.000000  -0.004622   0.000000
   17  SB 1  Y    0.000000  -0.000000  -0.000000   0.000000  -0.004622
   18  SB 1  Z    0.000000  -0.000000  -0.004596   0.000000   0.000000
   19  SB 1  X    0.000000  -0.000000  -0.000000   0.001893   0.000000
   20  SB 1  Y    0.000000  -0.000000  -0.000000   0.000000   0.001893
   21  SB 1  Z    0.000000  -0.000000   0.001857   0.000000   0.000000
   22  SB 1  X    0.000000  -0.000000  -0.000000  -0.001104   0.000000
   23  SB 1  Y    0.000000  -0.000000  -0.000000   0.000000  -0.001104
   24  SB 1  Z    0.000000  -0.000000  -0.001047   0.000000   0.000000
   25  SB 1  X    0.000000  -0.000000  -0.000000   0.000611   0.000000
   26  SB 1  Y    0.000000  -0.000000  -0.000000   0.000000   0.000611
   27  SB 1  Z    0.000000  -0.000000   0.000555   0.000000   0.000000
   28  SB 1  X    0.000000  -0.000000  -0.000000  -0.000159   0.000000
   29  SB 1  Y    0.000000  -0.000000  -0.000000   0.000000  -0.000159
   30  SB 1  Z    0.000000  -0.000000  -0.000192   0.000000   0.000000
   31  SB 1  X    0.000000  -0.000000  -0.000000   0.000058   0.000000
   32  SB 1  Y    0.000000  -0.000000  -0.000000   0.000000   0.000058
   33  SB 1  Z    0.000000  -0.000000   0.000052   0.000000   0.000000
   34  SB 1 XX    0.000008   0.000012  -0.000000  -0.000001   0.000000
   35  SB 1 YY    0.000008   0.000012  -0.000000   0.000001   0.000000
   36  SB 1 ZZ   -0.000016  -0.000023  -0.000000   0.000000   0.000000
   37  SB 1 XY    0.000000  -0.000000  -0.000000   0.000000   0.000002
   38  SB 1 XZ    0.000000  -0.000000  -0.000000   0.000000   0.000000
   39  SB 1 YZ    0.000000  -0.000000  -0.000000   0.000000   0.000000
   40  SB 1 XX   -0.000058  -0.000084  -0.000000  -0.000005   0.000000
   41  SB 1 YY   -0.000058  -0.000084  -0.000000   0.000005   0.000000
   42  SB 1 ZZ    0.000116   0.000167  -0.000000   0.000000   0.000000
   43  SB 1 XY    0.000000  -0.000000  -0.000000   0.000000   0.000006
   44  SB 1 XZ    0.000000  -0.000000  -0.000000   0.000000   0.000000
   45  SB 1 YZ    0.000000  -0.000000  -0.000000   0.000000   0.000000
   46  SB 1 XX    0.000117   0.000171  -0.000000   0.000011   0.000000
   47  SB 1 YY    0.000117   0.000171  -0.000000  -0.000011   0.000000
   48  SB 1 ZZ   -0.000235  -0.000342  -0.000000   0.000000   0.000000
   49  SB 1 XY    0.000000  -0.000000  -0.000000   0.000000  -0.000013
   50  SB 1 XZ    0.000000  -0.000000  -0.000000   0.000000   0.000000
   51  SB 1 YZ    0.000000  -0.000000  -0.000000   0.000000   0.000000
   52  SB 1 XX   -0.000136  -0.000202  -0.000000  -0.000015   0.000000
   53  SB 1 YY   -0.000136  -0.000202  -0.000000   0.000015   0.000000
   54  SB 1 ZZ    0.000273   0.000403  -0.000000   0.000000   0.000000
   55  SB 1 XY    0.000000  -0.000000  -0.000000   0.000000   0.000018
   56  SB 1 XZ    0.000000  -0.000000  -0.000000   0.000000   0.000000
   57  SB 1 YZ    0.000000  -0.000000  -0.000000   0.000000   0.000000
   58  SB 1 XX    0.000233   0.000350  -0.000000   0.000025   0.000000
   59  SB 1 YY    0.000233   0.000350  -0.000000  -0.000025   0.000000
   60  SB 1 ZZ   -0.000466  -0.000699  -0.000000   0.000000   0.000000
   61  SB 1 XY    0.000000  -0.000000  -0.000000   0.000000  -0.000029
   62  SB 1 XZ    0.000000  -0.000000  -0.000000   0.000000   0.000000
   63  SB 1 YZ    0.000000  -0.000000  -0.000000   0.000000   0.000000
   64  SB 1 XX    0.000138   0.000209  -0.000000   0.000015   0.000000
   65  SB 1 YY    0.000138   0.000209  -0.000000  -0.000015   0.000000
   66  SB 1 ZZ   -0.000277  -0.000417  -0.000000   0.000000   0.000000
   67  SB 1 XY    0.000000  -0.000000  -0.000000   0.000000  -0.000017
   68  SB 1 XZ    0.000000  -0.000000  -0.000000   0.000000   0.000000
   69  SB 1 YZ    0.000000  -0.000000  -0.000000   0.000000   0.000000
   70  SB 1 XXX   0.000028   0.000039  -0.000000   0.000001   0.000000
   71  SB 1 YYY   0.000000  -0.000000  -0.000000   0.000000   0.000001
   72  SB 1 ZZZ   0.000000  -0.000000  -0.000000   0.000000   0.000000
   73  SB 1 XXY   0.000000  -0.000000  -0.000000   0.000000   0.000000
   74  SB 1 XXZ   0.000000  -0.000000   0.000000   0.000000   0.000000
   75  SB 1 YYX  -0.000037  -0.000053  -0.000000   0.000000   0.000000
   76  SB 1 YYZ   0.000000  -0.000000   0.000000   0.000000   0.000000
   77  SB 1 ZZX   0.000000  -0.000000  -0.000000  -0.000001   0.000000
   78  SB 1 ZZY   0.000000  -0.000000  -0.000000   0.000000  -0.000001
   79  SB 1 XYZ   0.000000  -0.000000  -0.000000   0.000000   0.000000
   80  SB 1 XXX  -0.000083  -0.000122  -0.000000  -0.000002   0.000000
   81  SB 1 YYY   0.000000  -0.000000  -0.000000   0.000000  -0.000002
   82  SB 1 ZZZ   0.000000  -0.000000   0.000000   0.000000   0.000000
   83  SB 1 XXY   0.000000  -0.000000  -0.000000   0.000000  -0.000001
   84  SB 1 XXZ   0.000000  -0.000000  -0.000000   0.000000   0.000000
   85  SB 1 YYX   0.000111   0.000163  -0.000000  -0.000001   0.000000
   86  SB 1 YYZ   0.000000  -0.000000  -0.000000   0.000000   0.000000
   87  SB 1 ZZX   0.000000  -0.000000  -0.000000   0.000003   0.000000
   88  SB 1 ZZY   0.000000  -0.000000  -0.000000   0.000000   0.000003
   89  SB 1 XYZ   0.000000  -0.000000  -0.000000   0.000000   0.000000
   90  SB 1 XXX   0.000413   0.000620  -0.000000   0.000008   0.000000
   91  SB 1 YYY   0.000000  -0.000000  -0.000000   0.000000   0.000008
   92  SB 1 ZZZ   0.000000  -0.000000  -0.000002   0.000000   0.000000
   93  SB 1 XXY   0.000000  -0.000000  -0.000000   0.000000   0.000004
   94  SB 1 XXZ   0.000000  -0.000000   0.000001   0.000000   0.000000
   95  SB 1 YYX  -0.000554  -0.000832  -0.000000   0.000004   0.000000
   96  SB 1 YYZ   0.000000  -0.000000   0.000001   0.000000   0.000000
   97  SB 1 ZZX   0.000000  -0.000000  -0.000000  -0.000014   0.000000
   98  SB 1 ZZY   0.000000  -0.000000  -0.000000   0.000000  -0.000014
   99  SB 1 XYZ   0.000000  -0.000000  -0.000000   0.000000   0.000000
  100  SB 1XXXX   0.000004   0.000006  -0.000000   0.000001   0.000000
  101  SB 1YYYY   0.000004   0.000006  -0.000000   0.000000   0.000000
  102  SB 1ZZZZ   0.000010   0.000015  -0.000000   0.000000   0.000000
  103  SB 1XXXY   0.000000  -0.000000  -0.000000   0.000000   0.000000
  104  SB 1XXXZ   0.000000  -0.000000   0.000000   0.000000   0.000000
  105  SB 1YYYX   0.000000  -0.000000  -0.000000   0.000000  -0.000001
  106  SB 1YYYZ   0.000000  -0.000000  -0.000000   0.000000   0.000000
  107  SB 1ZZZX   0.000000  -0.000000  -0.000000   0.000000   0.000000
  108  SB 1ZZZY   0.000000  -0.000000  -0.000000   0.000000   0.000000
  109  SB 1XXYY   0.000002   0.000003  -0.000000  -0.000001   0.000000
  110  SB 1XXZZ  -0.000009  -0.000013  -0.000000  -0.000000   0.000000
  111  SB 1YYZZ  -0.000009  -0.000013  -0.000000   0.000000   0.000000
  112  SB 1XXYZ   0.000000  -0.000000  -0.000000   0.000000   0.000000
  113  SB 1YYXZ   0.000000  -0.000000  -0.000000   0.000000   0.000000
  114  SB 1ZZXY   0.000000  -0.000000  -0.000000   0.000000   0.000001
  115  H  2  S    0.000080   0.000123  -0.000000   0.000002  -0.000003
  116  H  2  S   -0.000718  -0.001080  -0.000000   0.000014  -0.000025
  117  H  2  S   -0.000031  -0.000053  -0.000000   0.000011  -0.000019
  118  H  2  X   -0.000014  -0.000020  -0.000000   0.000000  -0.000004
  119  H  2  Y    0.000024   0.000035  -0.000000  -0.000004   0.000005
  120  H  2  Z    0.000000  -0.000000  -0.000002   0.000000   0.000000
  121  H  2  X   -0.000205  -0.000309  -0.000000   0.000011  -0.000012
  122  H  2  Y    0.000354   0.000535  -0.000000  -0.000012   0.000025
  123  H  2  Z    0.000000  -0.000000   0.000001   0.000000   0.000000
  124  H  2 XX    0.000022   0.000034  -0.000000  -0.000002  -0.000001
  125  H  2 YY   -0.000056  -0.000087  -0.000000   0.000002   0.000000
  126  H  2 ZZ    0.000034   0.000054  -0.000000  -0.000001   0.000001
  127  H  2 XY    0.000079   0.000121  -0.000000   0.000001   0.000001
  128  H  2 XZ    0.000000  -0.000000  -0.000002   0.000000   0.000000
  129  H  2 YZ    0.000000  -0.000000   0.000003   0.000000   0.000000
  130  H  3  S    0.000080   0.000123  -0.000000   0.000002   0.000003
  131  H  3  S   -0.000718  -0.001080  -0.000000   0.000014   0.000025
  132  H  3  S   -0.000031  -0.000053  -0.000000   0.000011   0.000019
  133  H  3  X   -0.000014  -0.000020  -0.000000   0.000000   0.000004
  134  H  3  Y   -0.000024  -0.000035  -0.000000   0.000004   0.000005
  135  H  3  Z    0.000000  -0.000000  -0.000002   0.000000   0.000000
  136  H  3  X   -0.000205  -0.000309  -0.000000   0.000011   0.000012
  137  H  3  Y   -0.000354  -0.000535  -0.000000   0.000012   0.000025
  138  H  3  Z    0.000000  -0.000000   0.000001   0.000000   0.000000
  139  H  3 XX    0.000022   0.000034  -0.000000  -0.000002   0.000001
  140  H  3 YY   -0.000056  -0.000087  -0.000000   0.000002  -0.000000
  141  H  3 ZZ    0.000034   0.000054  -0.000000  -0.000001  -0.000001
  142  H  3 XY   -0.000079  -0.000121  -0.000000  -0.000001   0.000001
  143  H  3 XZ    0.000000  -0.000000  -0.000002   0.000000   0.000000
  144  H  3 YZ    0.000000  -0.000000  -0.000003   0.000000   0.000000
  145  H  4  S    0.000080   0.000123  -0.000000  -0.000004   0.000000
  146  H  4  S   -0.000718  -0.001080  -0.000000  -0.000029   0.000000
  147  H  4  S   -0.000031  -0.000053  -0.000000  -0.000022   0.000000
  148  H  4  X    0.000028   0.000040  -0.000000   0.000007   0.000000
  149  H  4  Y    0.000000  -0.000000  -0.000000   0.000000  -0.000002
  150  H  4  Z    0.000000  -0.000000  -0.000002   0.000000   0.000000
  151  H  4  X    0.000409   0.000618  -0.000000   0.000032   0.000000
  152  H  4  Y    0.000000  -0.000000  -0.000000   0.000000   0.000003
  153  H  4  Z    0.000000  -0.000000   0.000001   0.000000   0.000000
  154  H  4 XX   -0.000096  -0.000148  -0.000000  -0.000001   0.000000
  155  H  4 YY    0.000062   0.000094  -0.000000   0.000000   0.000000
  156  H  4 ZZ    0.000034   0.000054  -0.000000   0.000001   0.000000
  157  H  4 XY    0.000000  -0.000000  -0.000000   0.000000   0.000002
  158  H  4 XZ    0.000000  -0.000000   0.000004   0.000000   0.000000
  159  H  4 YZ    0.000000  -0.000000  -0.000000   0.000000   0.000000

                      6          7          8          9         10
                  -35.7808   -29.7446   -29.7446   -29.7444   -20.5069
                     A1'        E'         E'         A2"        E'  
    1  SB 1  S    0.159286  -0.000000  -0.000000  -0.000000   0.000000
    2  SB 1  S   -0.562141  -0.000000  -0.000000  -0.000000   0.000000
    3  SB 1  S    1.120305  -0.000000  -0.000000  -0.000000   0.000000
    4  SB 1  S    0.006661  -0.000000  -0.000000  -0.000000   0.000000
    5  SB 1  S    0.000768  -0.000000  -0.000000  -0.000000   0.000000
    6  SB 1  S   -0.006904  -0.000000  -0.000000  -0.000000   0.000000
    7  SB 1  S    0.006586  -0.000000  -0.000000  -0.000000   0.000000
    8  SB 1  S   -0.001302  -0.000000  -0.000000  -0.000000   0.000000
    9  SB 1  S   -0.000184  -0.000000  -0.000000  -0.000000   0.000000
   10  SB 1  X   -0.000000  -0.485102  -0.000000  -0.000000  -0.000022
   11  SB 1  Y   -0.000000  -0.000000  -0.485102  -0.000000   0.000000
   12  SB 1  Z   -0.000000  -0.000000  -0.000000  -0.485130   0.000000
   13  SB 1  X   -0.000000   1.099941  -0.000000  -0.000000   0.000090
   14  SB 1  Y   -0.000000  -0.000000   1.099941  -0.000000   0.000000
   15  SB 1  Z   -0.000000  -0.000000  -0.000000   1.100071   0.000000
   16  SB 1  X   -0.000000   0.003288  -0.000000  -0.000000  -0.000121
   17  SB 1  Y   -0.000000  -0.000000   0.003288  -0.000000   0.000000
   18  SB 1  Z   -0.000000  -0.000000  -0.000000   0.003073   0.000000
   19  SB 1  X   -0.000000   0.008381  -0.000000  -0.000000  -0.000116
   20  SB 1  Y   -0.000000  -0.000000   0.008381  -0.000000   0.000000
   21  SB 1  Z   -0.000000  -0.000000  -0.000000   0.008475   0.000000
   22  SB 1  X   -0.000000  -0.001971  -0.000000  -0.000000   0.000562
   23  SB 1  Y   -0.000000  -0.000000  -0.001971  -0.000000   0.000000
   24  SB 1  Z   -0.000000  -0.000000  -0.000000  -0.002029   0.000000
   25  SB 1  X   -0.000000   0.000903  -0.000000  -0.000000  -0.000708
   26  SB 1  Y   -0.000000  -0.000000   0.000903  -0.000000   0.000000
   27  SB 1  Z   -0.000000  -0.000000  -0.000000   0.000950   0.000000
   28  SB 1  X   -0.000000  -0.000222  -0.000000  -0.000000  -0.000767
   29  SB 1  Y   -0.000000  -0.000000  -0.000222  -0.000000   0.000000
   30  SB 1  Z   -0.000000  -0.000000  -0.000000  -0.000292   0.000000
   31  SB 1  X   -0.000000   0.000068  -0.000000  -0.000000   0.000441
   32  SB 1  Y   -0.000000  -0.000000   0.000068  -0.000000   0.000000
   33  SB 1  Z   -0.000000  -0.000000  -0.000000   0.000076   0.000000
   34  SB 1 XX    0.000041   0.000048  -0.000000  -0.000000   0.864271
   35  SB 1 YY    0.000041  -0.000048  -0.000000  -0.000000  -0.864271
   36  SB 1 ZZ   -0.000082  -0.000000  -0.000000  -0.000000   0.000000
   37  SB 1 XY   -0.000000  -0.000000  -0.000056  -0.000000   0.000000
   38  SB 1 XZ   -0.000000  -0.000000  -0.000000  -0.000000   0.000000
   39  SB 1 YZ   -0.000000  -0.000000  -0.000000  -0.000000   0.000000
   40  SB 1 XX    0.000036  -0.000171  -0.000000  -0.000000   0.002128
   41  SB 1 YY    0.000036   0.000171  -0.000000  -0.000000  -0.002128
   42  SB 1 ZZ   -0.000072  -0.000000  -0.000000  -0.000000   0.000000
   43  SB 1 XY   -0.000000  -0.000000   0.000197  -0.000000   0.000000
   44  SB 1 XZ   -0.000000  -0.000000  -0.000000  -0.000000   0.000000
   45  SB 1 YZ   -0.000000  -0.000000  -0.000000  -0.000000   0.000000
   46  SB 1 XX   -0.000071   0.000177  -0.000000  -0.000000  -0.000112
   47  SB 1 YY   -0.000071  -0.000177  -0.000000  -0.000000   0.000112
   48  SB 1 ZZ    0.000141  -0.000000  -0.000000  -0.000000   0.000000
   49  SB 1 XY   -0.000000  -0.000000  -0.000205  -0.000000   0.000000
   50  SB 1 XZ   -0.000000  -0.000000  -0.000000  -0.000000   0.000000
   51  SB 1 YZ   -0.000000  -0.000000  -0.000000  -0.000000   0.000000
   52  SB 1 XX    0.000081  -0.000088  -0.000000  -0.000000   0.004938
   53  SB 1 YY    0.000081   0.000088  -0.000000  -0.000000  -0.004938
   54  SB 1 ZZ   -0.000162  -0.000000  -0.000000  -0.000000   0.000000
   55  SB 1 XY   -0.000000  -0.000000   0.000101  -0.000000   0.000000
   56  SB 1 XZ   -0.000000  -0.000000  -0.000000  -0.000000   0.000000
   57  SB 1 YZ   -0.000000  -0.000000  -0.000000  -0.000000   0.000000
   58  SB 1 XX   -0.000130   0.000041  -0.000000  -0.000000  -0.002719
   59  SB 1 YY   -0.000130  -0.000041  -0.000000  -0.000000   0.002719
   60  SB 1 ZZ    0.000260  -0.000000  -0.000000  -0.000000   0.000000
   61  SB 1 XY   -0.000000  -0.000000  -0.000048  -0.000000   0.000000
   62  SB 1 XZ   -0.000000  -0.000000  -0.000000  -0.000000   0.000000
   63  SB 1 YZ   -0.000000  -0.000000  -0.000000  -0.000000   0.000000
   64  SB 1 XX   -0.000077   0.000009  -0.000000  -0.000000   0.000454
   65  SB 1 YY   -0.000077  -0.000009  -0.000000  -0.000000  -0.000454
   66  SB 1 ZZ    0.000154  -0.000000  -0.000000  -0.000000   0.000000
   67  SB 1 XY   -0.000000  -0.000000  -0.000011  -0.000000   0.000000
   68  SB 1 XZ   -0.000000  -0.000000  -0.000000  -0.000000   0.000000
   69  SB 1 YZ   -0.000000  -0.000000  -0.000000  -0.000000   0.000000
   70  SB 1 XXX  -0.000028   0.000017  -0.000000  -0.000000  -0.000013
   71  SB 1 YYY  -0.000000  -0.000000   0.000017  -0.000000   0.000000
   72  SB 1 ZZZ  -0.000000  -0.000000  -0.000000  -0.000032   0.000000
   73  SB 1 XXY  -0.000000  -0.000000   0.000008  -0.000000   0.000000
   74  SB 1 XXZ  -0.000000  -0.000000  -0.000000   0.000022   0.000000
   75  SB 1 YYX   0.000037   0.000008  -0.000000  -0.000000  -0.000006
   76  SB 1 YYZ  -0.000000  -0.000000  -0.000000   0.000022   0.000000
   77  SB 1 ZZX  -0.000000  -0.000031  -0.000000  -0.000000   0.000024
   78  SB 1 ZZY  -0.000000  -0.000000  -0.000031  -0.000000   0.000000
   79  SB 1 XYZ  -0.000000  -0.000000  -0.000000  -0.000000   0.000000
   80  SB 1 XXX   0.000054  -0.000006  -0.000000  -0.000000   0.000025
   81  SB 1 YYY  -0.000000  -0.000000  -0.000006  -0.000000   0.000000
   82  SB 1 ZZZ  -0.000000  -0.000000  -0.000000   0.000007   0.000000
   83  SB 1 XXY  -0.000000  -0.000000  -0.000003  -0.000000   0.000000
   84  SB 1 XXZ  -0.000000  -0.000000  -0.000000  -0.000004   0.000000
   85  SB 1 YYX  -0.000073  -0.000003  -0.000000  -0.000000   0.000011
   86  SB 1 YYZ  -0.000000  -0.000000  -0.000000  -0.000004   0.000000
   87  SB 1 ZZX  -0.000000   0.000010  -0.000000  -0.000000  -0.000045
   88  SB 1 ZZY  -0.000000  -0.000000   0.000010  -0.000000   0.000000
   89  SB 1 XYZ  -0.000000  -0.000000  -0.000000  -0.000000   0.000000
   90  SB 1 XXX  -0.000242   0.000008  -0.000000  -0.000000  -0.000142
   91  SB 1 YYY  -0.000000  -0.000000   0.000008  -0.000000   0.000000
   92  SB 1 ZZZ  -0.000000  -0.000000  -0.000000  -0.000006   0.000000
   93  SB 1 XXY  -0.000000  -0.000000   0.000004  -0.000000   0.000000
   94  SB 1 XXZ  -0.000000  -0.000000  -0.000000   0.000004   0.000000
   95  SB 1 YYX   0.000325   0.000004  -0.000000  -0.000000  -0.000063
   96  SB 1 YYZ  -0.000000  -0.000000  -0.000000   0.000004   0.000000
   97  SB 1 ZZX  -0.000000  -0.000015  -0.000000  -0.000000   0.000254
   98  SB 1 ZZY  -0.000000  -0.000000  -0.000015  -0.000000   0.000000
   99  SB 1 XYZ  -0.000000  -0.000000  -0.000000  -0.000000   0.000000
  100  SB 1XXXX  -0.000002  -0.000008  -0.000000  -0.000000  -0.000003
  101  SB 1YYYY  -0.000002  -0.000006  -0.000000  -0.000000  -0.000007
  102  SB 1ZZZZ  -0.000006  -0.000000  -0.000000  -0.000000   0.000000
  103  SB 1XXXY  -0.000000  -0.000000  -0.000009  -0.000000   0.000000
  104  SB 1XXXZ  -0.000000  -0.000000  -0.000000  -0.000005   0.000000
  105  SB 1YYYX  -0.000000  -0.000000   0.000011  -0.000000   0.000000
  106  SB 1YYYZ  -0.000000  -0.000000  -0.000000  -0.000000   0.000000
  107  SB 1ZZZX  -0.000000  -0.000000  -0.000000  -0.000000   0.000000
  108  SB 1ZZZY  -0.000000  -0.000000  -0.000000  -0.000000   0.000000
  109  SB 1XXYY  -0.000001   0.000012  -0.000000  -0.000000   0.000009
  110  SB 1XXZZ   0.000005   0.000002  -0.000000  -0.000000  -0.000004
  111  SB 1YYZZ   0.000005  -0.000002  -0.000000  -0.000000   0.000004
  112  SB 1XXYZ  -0.000000  -0.000000  -0.000000  -0.000000   0.000000
  113  SB 1YYXZ  -0.000000  -0.000000  -0.000000   0.000007   0.000000
  114  SB 1ZZXY  -0.000000  -0.000000  -0.000002  -0.000000   0.000000
  115  H  2  S   -0.000050   0.000008  -0.000015  -0.000000   0.000042
  116  H  2  S    0.000405   0.000012  -0.000021  -0.000000  -0.000468
  117  H  2  S    0.000014   0.000011  -0.000019  -0.000000   0.000178
  118  H  2  X    0.000010  -0.000000  -0.000004  -0.000000  -0.000045
  119  H  2  Y   -0.000017  -0.000004   0.000005  -0.000000   0.000017
  120  H  2  Z   -0.000000  -0.000000  -0.000000  -0.000003   0.000000
  121  H  2  X    0.000112   0.000009  -0.000012  -0.000000  -0.000156
  122  H  2  Y   -0.000194  -0.000012   0.000023  -0.000000   0.000243
  123  H  2  Z   -0.000000  -0.000000  -0.000000  -0.000000   0.000000
  124  H  2 XX   -0.000013  -0.000001  -0.000002  -0.000000  -0.000062
  125  H  2 YY    0.000033  -0.000001   0.000005  -0.000000   0.000036
  126  H  2 ZZ   -0.000020   0.000002  -0.000003  -0.000000   0.000026
  127  H  2 XY   -0.000046   0.000004  -0.000005  -0.000000   0.000082
  128  H  2 XZ   -0.000000  -0.000000  -0.000000  -0.000003   0.000000
  129  H  2 YZ   -0.000000  -0.000000  -0.000000   0.000005   0.000000
  130  H  3  S   -0.000050   0.000008   0.000015  -0.000000   0.000042
  131  H  3  S    0.000405   0.000012   0.000021  -0.000000  -0.000468
  132  H  3  S    0.000014   0.000011   0.000019  -0.000000   0.000178
  133  H  3  X    0.000010  -0.000000   0.000004  -0.000000  -0.000045
  134  H  3  Y    0.000017   0.000004   0.000005  -0.000000  -0.000017
  135  H  3  Z   -0.000000  -0.000000  -0.000000  -0.000003   0.000000
  136  H  3  X    0.000112   0.000009   0.000012  -0.000000  -0.000156
  137  H  3  Y    0.000194   0.000012   0.000023  -0.000000  -0.000243
  138  H  3  Z   -0.000000  -0.000000  -0.000000  -0.000000   0.000000
  139  H  3 XX   -0.000013  -0.000001   0.000002  -0.000000  -0.000062
  140  H  3 YY    0.000033  -0.000001  -0.000005  -0.000000   0.000036
  141  H  3 ZZ   -0.000020   0.000002   0.000003  -0.000000   0.000026
  142  H  3 XY    0.000046  -0.000004  -0.000005  -0.000000  -0.000082
  143  H  3 XZ   -0.000000  -0.000000  -0.000000  -0.000003   0.000000
  144  H  3 YZ   -0.000000  -0.000000  -0.000000  -0.000005   0.000000
  145  H  4  S   -0.000050  -0.000017  -0.000000  -0.000000  -0.000083
  146  H  4  S    0.000405  -0.000024  -0.000000  -0.000000   0.000936
  147  H  4  S    0.000014  -0.000022  -0.000000  -0.000000  -0.000355
  148  H  4  X   -0.000020   0.000007  -0.000000  -0.000000  -0.000073
  149  H  4  Y   -0.000000  -0.000000  -0.000003  -0.000000   0.000000
  150  H  4  Z   -0.000000  -0.000000  -0.000000  -0.000003   0.000000
  151  H  4  X   -0.000224   0.000030  -0.000000  -0.000000  -0.000578
  152  H  4  Y   -0.000000  -0.000000   0.000003  -0.000000   0.000000
  153  H  4  Z   -0.000000  -0.000000  -0.000000  -0.000000   0.000000
  154  H  4 XX    0.000055   0.000008  -0.000000  -0.000000   0.000101
  155  H  4 YY   -0.000036  -0.000004  -0.000000  -0.000000  -0.000048
  156  H  4 ZZ   -0.000020  -0.000004  -0.000000  -0.000000  -0.000053
  157  H  4 XY   -0.000000  -0.000000   0.000002  -0.000000   0.000000
  158  H  4 XZ   -0.000000  -0.000000  -0.000000   0.000005   0.000000
  159  H  4 YZ   -0.000000  -0.000000  -0.000000  -0.000000   0.000000

                     11         12         13         14         15
                  -20.5069   -20.5057   -20.5057   -20.5053    -6.4829
                     E'         E''        E''        A1'        A1' 
    1  SB 1  S   -0.000000  -0.000000   0.000000   0.000002  -0.070163
    2  SB 1  S   -0.000000  -0.000000   0.000000  -0.000167   0.256334
    3  SB 1  S   -0.000000  -0.000000   0.000000  -0.000352  -0.671343
    4  SB 1  S   -0.000000  -0.000000   0.000000  -0.000985   0.730979
    5  SB 1  S   -0.000000  -0.000000   0.000000   0.000010  -0.007190
    6  SB 1  S   -0.000000  -0.000000   0.000000   0.003132   0.012062
    7  SB 1  S   -0.000000  -0.000000   0.000000  -0.002449   0.445893
    8  SB 1  S   -0.000000  -0.000000   0.000000   0.000913   0.008782
    9  SB 1  S   -0.000000  -0.000000   0.000000   0.000580  -0.001750
   10  SB 1  X   -0.000000  -0.000000   0.000000  -0.000000   0.000000
   11  SB 1  Y    0.000022  -0.000000   0.000000  -0.000000   0.000000
   12  SB 1  Z   -0.000000  -0.000000   0.000000  -0.000000   0.000000
   13  SB 1  X   -0.000000  -0.000000   0.000000  -0.000000   0.000000
   14  SB 1  Y   -0.000090  -0.000000   0.000000  -0.000000   0.000000
   15  SB 1  Z   -0.000000  -0.000000   0.000000  -0.000000   0.000000
   16  SB 1  X   -0.000000  -0.000000   0.000000  -0.000000   0.000000
   17  SB 1  Y    0.000121  -0.000000   0.000000  -0.000000   0.000000
   18  SB 1  Z   -0.000000  -0.000000   0.000000  -0.000000   0.000000
   19  SB 1  X   -0.000000  -0.000000   0.000000  -0.000000   0.000000
   20  SB 1  Y    0.000116  -0.000000   0.000000  -0.000000   0.000000
   21  SB 1  Z   -0.000000  -0.000000   0.000000  -0.000000   0.000000
   22  SB 1  X   -0.000000  -0.000000   0.000000  -0.000000   0.000000
   23  SB 1  Y   -0.000562  -0.000000   0.000000  -0.000000   0.000000
   24  SB 1  Z   -0.000000  -0.000000   0.000000  -0.000000   0.000000
   25  SB 1  X   -0.000000  -0.000000   0.000000  -0.000000   0.000000
   26  SB 1  Y    0.000708  -0.000000   0.000000  -0.000000   0.000000
   27  SB 1  Z   -0.000000  -0.000000   0.000000  -0.000000   0.000000
   28  SB 1  X   -0.000000  -0.000000   0.000000  -0.000000   0.000000
   29  SB 1  Y    0.000767  -0.000000   0.000000  -0.000000   0.000000
   30  SB 1  Z   -0.000000  -0.000000   0.000000  -0.000000   0.000000
   31  SB 1  X   -0.000000  -0.000000   0.000000  -0.000000   0.000000
   32  SB 1  Y   -0.000441  -0.000000   0.000000  -0.000000   0.000000
   33  SB 1  Z   -0.000000  -0.000000   0.000000  -0.000000   0.000000
   34  SB 1 XX   -0.000000  -0.000000   0.000000  -0.499004  -0.000245
   35  SB 1 YY   -0.000000  -0.000000   0.000000  -0.499004  -0.000245
   36  SB 1 ZZ   -0.000000  -0.000000   0.000000   0.998008   0.000491
   37  SB 1 XY    0.997974  -0.000000   0.000000  -0.000000   0.000000
   38  SB 1 XZ   -0.000000  -0.000000   0.998013  -0.000000   0.000000
   39  SB 1 YZ   -0.000000   0.998013   0.000000  -0.000000   0.000000
   40  SB 1 XX   -0.000000  -0.000000   0.000000  -0.001150   0.000264
   41  SB 1 YY   -0.000000  -0.000000   0.000000  -0.001150   0.000264
   42  SB 1 ZZ   -0.000000  -0.000000   0.000000   0.002299  -0.000529
   43  SB 1 XY    0.002457  -0.000000   0.000000  -0.000000   0.000000
   44  SB 1 XZ   -0.000000  -0.000000   0.002235  -0.000000   0.000000
   45  SB 1 YZ   -0.000000   0.002235   0.000000  -0.000000   0.000000
   46  SB 1 XX   -0.000000  -0.000000   0.000000  -0.000064   0.000053
   47  SB 1 YY   -0.000000  -0.000000   0.000000  -0.000064   0.000053
   48  SB 1 ZZ   -0.000000  -0.000000   0.000000   0.000129  -0.000106
   49  SB 1 XY   -0.000129  -0.000000   0.000000  -0.000000   0.000000
   50  SB 1 XZ   -0.000000  -0.000000   0.000281  -0.000000   0.000000
   51  SB 1 YZ   -0.000000   0.000281   0.000000  -0.000000   0.000000
   52  SB 1 XX   -0.000000  -0.000000   0.000000  -0.002704   0.000572
   53  SB 1 YY   -0.000000  -0.000000   0.000000  -0.002704   0.000572
   54  SB 1 ZZ   -0.000000  -0.000000   0.000000   0.005408  -0.001144
   55  SB 1 XY    0.005702  -0.000000   0.000000  -0.000000   0.000000
   56  SB 1 XZ   -0.000000  -0.000000   0.005221  -0.000000   0.000000
   57  SB 1 YZ   -0.000000   0.005221   0.000000  -0.000000   0.000000
   58  SB 1 XX   -0.000000  -0.000000   0.000000   0.001365  -0.000183
   59  SB 1 YY   -0.000000  -0.000000   0.000000   0.001365  -0.000183
   60  SB 1 ZZ   -0.000000  -0.000000   0.000000  -0.002731   0.000367
   61  SB 1 XY   -0.003139  -0.000000   0.000000  -0.000000   0.000000
   62  SB 1 XZ   -0.000000  -0.000000  -0.002382  -0.000000   0.000000
   63  SB 1 YZ   -0.000000  -0.002382   0.000000  -0.000000   0.000000
   64  SB 1 XX   -0.000000  -0.000000   0.000000  -0.000190  -0.000068
   65  SB 1 YY   -0.000000  -0.000000   0.000000  -0.000190  -0.000068
   66  SB 1 ZZ   -0.000000  -0.000000   0.000000   0.000381   0.000135
   67  SB 1 XY    0.000524  -0.000000   0.000000  -0.000000   0.000000
   68  SB 1 XZ   -0.000000  -0.000000   0.000594  -0.000000   0.000000
   69  SB 1 YZ   -0.000000   0.000594   0.000000  -0.000000   0.000000
   70  SB 1 XXX  -0.000000  -0.000000   0.000000   0.000043   0.000027
   71  SB 1 YYY   0.000013  -0.000000   0.000000  -0.000000   0.000000
   72  SB 1 ZZZ  -0.000000  -0.000000   0.000000  -0.000000   0.000000
   73  SB 1 XXY   0.000006  -0.000000   0.000000  -0.000000   0.000000
   74  SB 1 XXZ  -0.000000  -0.000000  -0.000018  -0.000000   0.000000
   75  SB 1 YYX  -0.000000  -0.000000   0.000000  -0.000058  -0.000037
   76  SB 1 YYZ  -0.000000  -0.000000   0.000018  -0.000000   0.000000
   77  SB 1 ZZX  -0.000000  -0.000000   0.000000  -0.000000   0.000000
   78  SB 1 ZZY  -0.000024  -0.000000   0.000000  -0.000000   0.000000
   79  SB 1 XYZ  -0.000000   0.000021   0.000000  -0.000000   0.000000
   80  SB 1 XXX  -0.000000  -0.000000   0.000000  -0.000078  -0.000318
   81  SB 1 YYY  -0.000025  -0.000000   0.000000  -0.000000   0.000000
   82  SB 1 ZZZ  -0.000000  -0.000000   0.000000  -0.000000   0.000000
   83  SB 1 XXY  -0.000011  -0.000000   0.000000  -0.000000   0.000000
   84  SB 1 XXZ  -0.000000  -0.000000   0.000015  -0.000000   0.000000
   85  SB 1 YYX  -0.000000  -0.000000   0.000000   0.000104   0.000426
   86  SB 1 YYZ  -0.000000  -0.000000  -0.000015  -0.000000   0.000000
   87  SB 1 ZZX  -0.000000  -0.000000   0.000000  -0.000000   0.000000
   88  SB 1 ZZY   0.000045  -0.000000   0.000000  -0.000000   0.000000
   89  SB 1 XYZ  -0.000000  -0.000018   0.000000  -0.000000   0.000000
   90  SB 1 XXX  -0.000000  -0.000000   0.000000   0.000362  -0.000092
   91  SB 1 YYY   0.000142  -0.000000   0.000000  -0.000000   0.000000
   92  SB 1 ZZZ  -0.000000  -0.000000   0.000000  -0.000000   0.000000
   93  SB 1 XXY   0.000063  -0.000000   0.000000  -0.000000   0.000000
   94  SB 1 XXZ  -0.000000  -0.000000  -0.000043  -0.000000   0.000000
   95  SB 1 YYX  -0.000000  -0.000000   0.000000  -0.000485   0.000124
   96  SB 1 YYZ  -0.000000  -0.000000   0.000043  -0.000000   0.000000
   97  SB 1 ZZX  -0.000000  -0.000000   0.000000  -0.000000   0.000000
   98  SB 1 ZZY  -0.000254  -0.000000   0.000000  -0.000000   0.000000
   99  SB 1 XYZ  -0.000000   0.000050   0.000000  -0.000000   0.000000
  100  SB 1XXXX  -0.000000  -0.000000   0.000000  -0.000006  -0.000004
  101  SB 1YYYY  -0.000000  -0.000000   0.000000  -0.000006  -0.000004
  102  SB 1ZZZZ  -0.000000  -0.000000   0.000000  -0.000015  -0.000011
  103  SB 1XXXY   0.000009  -0.000000   0.000000  -0.000000   0.000000
  104  SB 1XXXZ  -0.000000  -0.000000   0.000015  -0.000000   0.000000
  105  SB 1YYYX  -0.000006  -0.000000   0.000000  -0.000000   0.000000
  106  SB 1YYYZ  -0.000000   0.000015   0.000000  -0.000000   0.000000
  107  SB 1ZZZX  -0.000000  -0.000000  -0.000020  -0.000000   0.000000
  108  SB 1ZZZY  -0.000000  -0.000020   0.000000  -0.000000   0.000000
  109  SB 1XXYY  -0.000000  -0.000000   0.000000  -0.000003  -0.000002
  110  SB 1XXZZ  -0.000000  -0.000000   0.000000   0.000013   0.000010
  111  SB 1YYZZ  -0.000000  -0.000000   0.000000   0.000013   0.000010
  112  SB 1XXYZ  -0.000000   0.000007   0.000000  -0.000000   0.000000
  113  SB 1YYXZ  -0.000000  -0.000000   0.000007  -0.000000   0.000000
  114  SB 1ZZXY  -0.000005  -0.000000   0.000000  -0.000000   0.000000
  115  H  2  S    0.000072  -0.000000   0.000000   0.000023   0.000107
  116  H  2  S   -0.000810  -0.000000   0.000000  -0.000547   0.000183
  117  H  2  S    0.000308  -0.000000   0.000000  -0.000036   0.000240
  118  H  2  X   -0.000017  -0.000000   0.000000  -0.000028   0.000062
  119  H  2  Y    0.000064  -0.000000   0.000000   0.000048  -0.000107
  120  H  2  Z   -0.000000   0.000031  -0.000018  -0.000000   0.000000
  121  H  2  X   -0.000243  -0.000000   0.000000  -0.000172   0.000043
  122  H  2  Y    0.000437  -0.000000   0.000000   0.000298  -0.000074
  123  H  2  Z   -0.000000   0.000004  -0.000003  -0.000000   0.000000
  124  H  2 XX    0.000048  -0.000000   0.000000   0.000013  -0.000017
  125  H  2 YY   -0.000094  -0.000000   0.000000  -0.000042   0.000076
  126  H  2 ZZ    0.000046  -0.000000   0.000000   0.000028  -0.000059
  127  H  2 XY    0.000038  -0.000000   0.000000   0.000055  -0.000092
  128  H  2 XZ   -0.000000   0.000040  -0.000020  -0.000000   0.000000
  129  H  2 YZ   -0.000000  -0.000066   0.000040  -0.000000   0.000000
  130  H  3  S   -0.000072  -0.000000   0.000000   0.000023   0.000107
  131  H  3  S    0.000810  -0.000000   0.000000  -0.000547   0.000183
  132  H  3  S   -0.000308  -0.000000   0.000000  -0.000036   0.000240
  133  H  3  X    0.000017  -0.000000   0.000000  -0.000028   0.000062
  134  H  3  Y    0.000064  -0.000000   0.000000  -0.000048   0.000107
  135  H  3  Z   -0.000000  -0.000031  -0.000018  -0.000000   0.000000
  136  H  3  X    0.000243  -0.000000   0.000000  -0.000172   0.000043
  137  H  3  Y    0.000437  -0.000000   0.000000  -0.000298   0.000074
  138  H  3  Z   -0.000000  -0.000004  -0.000003  -0.000000   0.000000
  139  H  3 XX   -0.000048  -0.000000   0.000000   0.000013  -0.000017
  140  H  3 YY    0.000094  -0.000000   0.000000  -0.000042   0.000076
  141  H  3 ZZ   -0.000046  -0.000000   0.000000   0.000028  -0.000059
  142  H  3 XY    0.000038  -0.000000   0.000000  -0.000055   0.000092
  143  H  3 XZ   -0.000000  -0.000040  -0.000020  -0.000000   0.000000
  144  H  3 YZ   -0.000000  -0.000066  -0.000040  -0.000000   0.000000
  145  H  4  S   -0.000000  -0.000000   0.000000   0.000023   0.000107
  146  H  4  S   -0.000000  -0.000000   0.000000  -0.000547   0.000183
  147  H  4  S   -0.000000  -0.000000   0.000000  -0.000036   0.000240
  148  H  4  X   -0.000000  -0.000000   0.000000   0.000055  -0.000124
  149  H  4  Y    0.000035  -0.000000   0.000000  -0.000000   0.000000
  150  H  4  Z   -0.000000  -0.000000   0.000036  -0.000000   0.000000
  151  H  4  X   -0.000000  -0.000000   0.000000   0.000344  -0.000086
  152  H  4  Y    0.000016  -0.000000   0.000000  -0.000000   0.000000
  153  H  4  Z   -0.000000  -0.000000   0.000005  -0.000000   0.000000
  154  H  4 XX   -0.000000  -0.000000   0.000000  -0.000069   0.000122
  155  H  4 YY   -0.000000  -0.000000   0.000000   0.000041  -0.000063
  156  H  4 ZZ   -0.000000  -0.000000   0.000000   0.000028  -0.000059
  157  H  4 XY   -0.000104  -0.000000   0.000000  -0.000000   0.000000
  158  H  4 XZ   -0.000000  -0.000000  -0.000089  -0.000000   0.000000
  159  H  4 YZ   -0.000000   0.000004   0.000000  -0.000000   0.000000

                     16         17         18         19         20
                   -4.5463    -4.5463    -4.5421    -1.6321    -1.6321
                     E'         E'         A2"        E'         E'  
    1  SB 1  S    0.000000   0.000000   0.000000   0.000000  -0.000000
    2  SB 1  S    0.000000   0.000000   0.000000   0.000000  -0.000000
    3  SB 1  S    0.000000   0.000000   0.000000   0.000000  -0.000000
    4  SB 1  S    0.000000   0.000000   0.000000   0.000000  -0.000000
    5  SB 1  S    0.000000   0.000000   0.000000   0.000000  -0.000000
    6  SB 1  S    0.000000   0.000000   0.000000   0.000000  -0.000000
    7  SB 1  S    0.000000   0.000000   0.000000   0.000000  -0.000000
    8  SB 1  S    0.000000   0.000000   0.000000   0.000000  -0.000000
    9  SB 1  S    0.000000   0.000000   0.000000   0.000000  -0.000000
   10  SB 1  X   -0.206362   0.000000   0.000000  -0.000045  -0.000000
   11  SB 1  Y    0.000000  -0.206362   0.000000   0.000000   0.000045
   12  SB 1  Z    0.000000   0.000000  -0.206635   0.000000  -0.000000
   13  SB 1  X    0.680267   0.000000   0.000000   0.000040  -0.000000
   14  SB 1  Y    0.000000   0.680267   0.000000   0.000000  -0.000040
   15  SB 1  Z    0.000000   0.000000   0.681354   0.000000  -0.000000
   16  SB 1  X   -0.527344   0.000000   0.000000   0.000578  -0.000000
   17  SB 1  Y    0.000000  -0.527344   0.000000   0.000000  -0.000578
   18  SB 1  Z    0.000000   0.000000  -0.529207   0.000000  -0.000000
   19  SB 1  X   -0.587925   0.000000   0.000000   0.000559  -0.000000
   20  SB 1  Y    0.000000  -0.587925   0.000000   0.000000  -0.000559
   21  SB 1  Z    0.000000   0.000000  -0.588261   0.000000  -0.000000
   22  SB 1  X   -0.148072   0.000000   0.000000  -0.005835  -0.000000
   23  SB 1  Y    0.000000  -0.148072   0.000000   0.000000   0.005835
   24  SB 1  Z    0.000000   0.000000  -0.146259   0.000000  -0.000000
   25  SB 1  X    0.002030   0.000000   0.000000   0.004177  -0.000000
   26  SB 1  Y    0.000000   0.002030   0.000000   0.000000  -0.004177
   27  SB 1  Z    0.000000   0.000000   0.002126   0.000000  -0.000000
   28  SB 1  X   -0.002685   0.000000   0.000000  -0.001850  -0.000000
   29  SB 1  Y    0.000000  -0.002685   0.000000   0.000000   0.001850
   30  SB 1  Z    0.000000   0.000000  -0.003367   0.000000  -0.000000
   31  SB 1  X    0.000615   0.000000   0.000000   0.001114  -0.000000
   32  SB 1  Y    0.000000   0.000615   0.000000   0.000000  -0.001114
   33  SB 1  Z    0.000000   0.000000   0.000692   0.000000  -0.000000
   34  SB 1 XX    0.000390   0.000000   0.000000  -0.338897  -0.000000
   35  SB 1 YY   -0.000390   0.000000   0.000000   0.338897  -0.000000
   36  SB 1 ZZ    0.000000   0.000000   0.000000   0.000000  -0.000000
   37  SB 1 XY    0.000000  -0.000450   0.000000   0.000000  -0.391325
   38  SB 1 XZ    0.000000   0.000000   0.000000   0.000000  -0.000000
   39  SB 1 YZ    0.000000   0.000000   0.000000   0.000000  -0.000000
   40  SB 1 XX   -0.000849   0.000000   0.000000   0.471190  -0.000000
   41  SB 1 YY    0.000849   0.000000   0.000000  -0.471190  -0.000000
   42  SB 1 ZZ    0.000000   0.000000   0.000000   0.000000  -0.000000
   43  SB 1 XY    0.000000   0.000980   0.000000   0.000000   0.544083
   44  SB 1 XZ    0.000000   0.000000   0.000000   0.000000  -0.000000
   45  SB 1 YZ    0.000000   0.000000   0.000000   0.000000  -0.000000
   46  SB 1 XX   -0.000146   0.000000   0.000000  -0.001577  -0.000000
   47  SB 1 YY    0.000146   0.000000   0.000000   0.001577  -0.000000
   48  SB 1 ZZ    0.000000   0.000000   0.000000   0.000000  -0.000000
   49  SB 1 XY    0.000000   0.000169   0.000000   0.000000  -0.001821
   50  SB 1 XZ    0.000000   0.000000   0.000000   0.000000  -0.000000
   51  SB 1 YZ    0.000000   0.000000   0.000000   0.000000  -0.000000
   52  SB 1 XX    0.000434   0.000000   0.000000   0.575219  -0.000000
   53  SB 1 YY   -0.000434   0.000000   0.000000  -0.575219  -0.000000
   54  SB 1 ZZ    0.000000   0.000000   0.000000   0.000000  -0.000000
   55  SB 1 XY    0.000000  -0.000501   0.000000   0.000000   0.664205
   56  SB 1 XZ    0.000000   0.000000   0.000000   0.000000  -0.000000
   57  SB 1 YZ    0.000000   0.000000   0.000000   0.000000  -0.000000
   58  SB 1 XX    0.000286   0.000000   0.000000  -0.005367  -0.000000
   59  SB 1 YY   -0.000286   0.000000   0.000000   0.005367  -0.000000
   60  SB 1 ZZ    0.000000   0.000000   0.000000   0.000000  -0.000000
   61  SB 1 XY    0.000000  -0.000330   0.000000   0.000000  -0.006197
   62  SB 1 XZ    0.000000   0.000000   0.000000   0.000000  -0.000000
   63  SB 1 YZ    0.000000   0.000000   0.000000   0.000000  -0.000000
   64  SB 1 XX    0.000138   0.000000   0.000000   0.007489  -0.000000
   65  SB 1 YY   -0.000138   0.000000   0.000000  -0.007489  -0.000000
   66  SB 1 ZZ    0.000000   0.000000   0.000000   0.000000  -0.000000
   67  SB 1 XY    0.000000  -0.000159   0.000000   0.000000   0.008647
   68  SB 1 XZ    0.000000   0.000000   0.000000   0.000000  -0.000000
   69  SB 1 YZ    0.000000   0.000000   0.000000   0.000000  -0.000000
   70  SB 1 XXX  -0.000114   0.000000   0.000000  -0.000051  -0.000000
   71  SB 1 YYY   0.000000  -0.000114   0.000000   0.000000   0.000051
   72  SB 1 ZZZ   0.000000   0.000000   0.000301   0.000000  -0.000000
   73  SB 1 XXY   0.000000  -0.000051   0.000000   0.000000   0.000023
   74  SB 1 XXZ   0.000000   0.000000  -0.000202   0.000000  -0.000000
   75  SB 1 YYX  -0.000051   0.000000   0.000000  -0.000023  -0.000000
   76  SB 1 YYZ   0.000000   0.000000  -0.000202   0.000000  -0.000000
   77  SB 1 ZZX   0.000204   0.000000   0.000000   0.000091  -0.000000
   78  SB 1 ZZY   0.000000   0.000204   0.000000   0.000000  -0.000091
   79  SB 1 XYZ   0.000000   0.000000   0.000000   0.000000  -0.000000
   80  SB 1 XXX  -0.000381   0.000000   0.000000  -0.000186  -0.000000
   81  SB 1 YYY   0.000000  -0.000381   0.000000   0.000000   0.000186
   82  SB 1 ZZZ   0.000000   0.000000   0.000748   0.000000  -0.000000
   83  SB 1 XXY   0.000000  -0.000170   0.000000   0.000000   0.000083
   84  SB 1 XXZ   0.000000   0.000000  -0.000502   0.000000  -0.000000
   85  SB 1 YYX  -0.000170   0.000000   0.000000  -0.000083  -0.000000
   86  SB 1 YYZ   0.000000   0.000000  -0.000502   0.000000  -0.000000
   87  SB 1 ZZX   0.000682   0.000000   0.000000   0.000333  -0.000000
   88  SB 1 ZZY   0.000000   0.000682   0.000000   0.000000  -0.000333
   89  SB 1 XYZ   0.000000   0.000000   0.000000   0.000000  -0.000000
   90  SB 1 XXX  -0.000004   0.000000   0.000000   0.000358  -0.000000
   91  SB 1 YYY   0.000000  -0.000004   0.000000   0.000000  -0.000358
   92  SB 1 ZZZ   0.000000   0.000000   0.000073   0.000000  -0.000000
   93  SB 1 XXY   0.000000  -0.000002   0.000000   0.000000  -0.000160
   94  SB 1 XXZ   0.000000   0.000000  -0.000049   0.000000  -0.000000
   95  SB 1 YYX  -0.000002   0.000000   0.000000   0.000160  -0.000000
   96  SB 1 YYZ   0.000000   0.000000  -0.000049   0.000000  -0.000000
   97  SB 1 ZZX   0.000007   0.000000   0.000000  -0.000640  -0.000000
   98  SB 1 ZZY   0.000000   0.000007   0.000000   0.000000   0.000640
   99  SB 1 XYZ   0.000000   0.000000   0.000000   0.000000  -0.000000
  100  SB 1XXXX   0.000201   0.000000   0.000000   0.000303  -0.000000
  101  SB 1YYYY   0.000146   0.000000   0.000000  -0.000254  -0.000000
  102  SB 1ZZZZ   0.000000   0.000000   0.000000   0.000000  -0.000000
  103  SB 1XXXY   0.000000   0.000241   0.000000   0.000000   0.000173
  104  SB 1XXXZ   0.000000   0.000000   0.000133   0.000000  -0.000000
  105  SB 1YYYX   0.000000  -0.000283   0.000000   0.000000   0.000248
  106  SB 1YYYZ   0.000000   0.000000   0.000000   0.000000  -0.000000
  107  SB 1ZZZX   0.000000   0.000000   0.000000   0.000000  -0.000000
  108  SB 1ZZZY   0.000000   0.000000   0.000000   0.000000  -0.000000
  109  SB 1XXYY  -0.000304   0.000000   0.000000  -0.000043  -0.000000
  110  SB 1XXZZ  -0.000048   0.000000   0.000000  -0.000489  -0.000000
  111  SB 1YYZZ   0.000048   0.000000   0.000000   0.000489  -0.000000
  112  SB 1XXYZ   0.000000   0.000000   0.000000   0.000000  -0.000000
  113  SB 1YYXZ   0.000000   0.000000  -0.000178   0.000000  -0.000000
  114  SB 1ZZXY   0.000000   0.000055   0.000000   0.000000  -0.000565
  115  H  2  S    0.000461  -0.000799   0.000000  -0.005090  -0.008817
  116  H  2  S    0.000370  -0.000642   0.000000  -0.003837  -0.006646
  117  H  2  S    0.000075  -0.000130   0.000000   0.000266   0.000460
  118  H  2  X    0.000014  -0.000208   0.000000  -0.000950  -0.000260
  119  H  2  Y   -0.000208   0.000254   0.000000   0.000260   0.001250
  120  H  2  Z    0.000000   0.000000  -0.000103   0.000000  -0.000000
  121  H  2  X    0.000047  -0.000254   0.000000  -0.001532  -0.000011
  122  H  2  Y   -0.000254   0.000340   0.000000   0.000011   0.001545
  123  H  2  Z    0.000000   0.000000  -0.000049   0.000000  -0.000000
  124  H  2 XX   -0.000075  -0.000017   0.000000  -0.000125   0.000147
  125  H  2 YY    0.000096  -0.000019   0.000000   0.000049  -0.000279
  126  H  2 ZZ   -0.000021   0.000036   0.000000   0.000076   0.000132
  127  H  2 XY   -0.000001   0.000100   0.000000   0.000246   0.000184
  128  H  2 XZ    0.000000   0.000000  -0.000044   0.000000  -0.000000
  129  H  2 YZ    0.000000   0.000000   0.000077   0.000000  -0.000000
  130  H  3  S    0.000461   0.000799   0.000000  -0.005090   0.008817
  131  H  3  S    0.000370   0.000642   0.000000  -0.003837   0.006646
  132  H  3  S    0.000075   0.000130   0.000000   0.000266  -0.000460
  133  H  3  X    0.000014   0.000208   0.000000  -0.000950   0.000260
  134  H  3  Y    0.000208   0.000254   0.000000  -0.000260   0.001250
  135  H  3  Z    0.000000   0.000000  -0.000103   0.000000  -0.000000
  136  H  3  X    0.000047   0.000254   0.000000  -0.001532   0.000011
  137  H  3  Y    0.000254   0.000340   0.000000  -0.000011   0.001545
  138  H  3  Z    0.000000   0.000000  -0.000049   0.000000  -0.000000
  139  H  3 XX   -0.000075   0.000017   0.000000  -0.000125  -0.000147
  140  H  3 YY    0.000096   0.000019   0.000000   0.000049   0.000279
  141  H  3 ZZ   -0.000021  -0.000036   0.000000   0.000076  -0.000132
  142  H  3 XY    0.000001   0.000100   0.000000  -0.000246   0.000184
  143  H  3 XZ    0.000000   0.000000  -0.000044   0.000000  -0.000000
  144  H  3 YZ    0.000000   0.000000  -0.000077   0.000000  -0.000000
  145  H  4  S   -0.000922   0.000000   0.000000   0.010180  -0.000000
  146  H  4  S   -0.000741   0.000000   0.000000   0.007674  -0.000000
  147  H  4  S   -0.000150   0.000000   0.000000  -0.000531  -0.000000
  148  H  4  X    0.000374   0.000000   0.000000  -0.001400  -0.000000
  149  H  4  Y    0.000000  -0.000106   0.000000   0.000000   0.000799
  150  H  4  Z    0.000000   0.000000  -0.000103   0.000000  -0.000000
  151  H  4  X    0.000486   0.000000   0.000000  -0.001551  -0.000000
  152  H  4  Y    0.000000  -0.000100   0.000000   0.000000   0.001525
  153  H  4  Z    0.000000   0.000000  -0.000049   0.000000  -0.000000
  154  H  4 XX   -0.000108   0.000000   0.000000   0.000359  -0.000000
  155  H  4 YY    0.000066   0.000000   0.000000  -0.000206  -0.000000
  156  H  4 ZZ    0.000041   0.000000   0.000000  -0.000153  -0.000000
  157  H  4 XY    0.000000   0.000098   0.000000   0.000000  -0.000242
  158  H  4 XZ    0.000000   0.000000   0.000089   0.000000  -0.000000
  159  H  4 YZ    0.000000   0.000000   0.000000   0.000000  -0.000000

                     21         22         23         24         25
                   -1.6228    -1.6228    -1.6221    -0.7348    -0.4929
                     E''        E''        A1'        A1'        E'  
    1  SB 1  S   -0.000000   0.000000  -0.000252   0.018738   0.000000
    2  SB 1  S   -0.000000   0.000000   0.000953  -0.068400   0.000000
    3  SB 1  S   -0.000000   0.000000  -0.002424   0.190052   0.000000
    4  SB 1  S   -0.000000   0.000000   0.003364  -0.262631   0.000000
    5  SB 1  S   -0.000000   0.000000   0.000045  -0.013018   0.000000
    6  SB 1  S   -0.000000   0.000000   0.000614  -0.158182   0.000000
    7  SB 1  S   -0.000000   0.000000   0.002882  -0.200800   0.000000
    8  SB 1  S   -0.000000   0.000000  -0.006856   0.640369   0.000000
    9  SB 1  S   -0.000000   0.000000   0.002742   0.305603   0.000000
   10  SB 1  X   -0.000000   0.000000  -0.000000  -0.000000  -0.037514
   11  SB 1  Y   -0.000000   0.000000  -0.000000  -0.000000   0.000000
   12  SB 1  Z   -0.000000   0.000000  -0.000000  -0.000000   0.000000
   13  SB 1  X   -0.000000   0.000000  -0.000000  -0.000000   0.130320
   14  SB 1  Y   -0.000000   0.000000  -0.000000  -0.000000   0.000000
   15  SB 1  Z   -0.000000   0.000000  -0.000000  -0.000000   0.000000
   16  SB 1  X   -0.000000   0.000000  -0.000000  -0.000000  -0.127474
   17  SB 1  Y   -0.000000   0.000000  -0.000000  -0.000000   0.000000
   18  SB 1  Z   -0.000000   0.000000  -0.000000  -0.000000   0.000000
   19  SB 1  X   -0.000000   0.000000  -0.000000  -0.000000  -0.153760
   20  SB 1  Y   -0.000000   0.000000  -0.000000  -0.000000   0.000000
   21  SB 1  Z   -0.000000   0.000000  -0.000000  -0.000000   0.000000
   22  SB 1  X   -0.000000   0.000000  -0.000000  -0.000000  -0.026358
   23  SB 1  Y   -0.000000   0.000000  -0.000000  -0.000000   0.000000
   24  SB 1  Z   -0.000000   0.000000  -0.000000  -0.000000   0.000000
   25  SB 1  X   -0.000000   0.000000  -0.000000  -0.000000   0.239114
   26  SB 1  Y   -0.000000   0.000000  -0.000000  -0.000000   0.000000
   27  SB 1  Z   -0.000000   0.000000  -0.000000  -0.000000   0.000000
   28  SB 1  X   -0.000000   0.000000  -0.000000  -0.000000   0.251352
   29  SB 1  Y   -0.000000   0.000000  -0.000000  -0.000000   0.000000
   30  SB 1  Z   -0.000000   0.000000  -0.000000  -0.000000   0.000000
   31  SB 1  X   -0.000000   0.000000  -0.000000  -0.000000   0.033281
   32  SB 1  Y   -0.000000   0.000000  -0.000000  -0.000000   0.000000
   33  SB 1  Z   -0.000000   0.000000  -0.000000  -0.000000   0.000000
   34  SB 1 XX   -0.000000   0.000000   0.195939   0.009322   0.031406
   35  SB 1 YY   -0.000000   0.000000   0.195939   0.009322  -0.031406
   36  SB 1 ZZ   -0.000000   0.000000  -0.391878  -0.018645   0.000000
   37  SB 1 XY   -0.000000   0.000000  -0.000000  -0.000000   0.000000
   38  SB 1 XZ   -0.000000  -0.392577  -0.000000  -0.000000   0.000000
   39  SB 1 YZ   -0.392577   0.000000  -0.000000  -0.000000   0.000000
   40  SB 1 XX   -0.000000   0.000000  -0.272581  -0.013812  -0.046064
   41  SB 1 YY   -0.000000   0.000000  -0.272581  -0.013812   0.046064
   42  SB 1 ZZ   -0.000000   0.000000   0.545162   0.027624   0.000000
   43  SB 1 XY   -0.000000   0.000000  -0.000000  -0.000000   0.000000
   44  SB 1 XZ   -0.000000   0.546157  -0.000000  -0.000000   0.000000
   45  SB 1 YZ    0.546157   0.000000  -0.000000  -0.000000   0.000000
   46  SB 1 XX   -0.000000   0.000000   0.000881   0.000402  -0.001898
   47  SB 1 YY   -0.000000   0.000000   0.000881   0.000402   0.001898
   48  SB 1 ZZ   -0.000000   0.000000  -0.001763  -0.000804   0.000000
   49  SB 1 XY   -0.000000   0.000000  -0.000000  -0.000000   0.000000
   50  SB 1 XZ   -0.000000  -0.001840  -0.000000  -0.000000   0.000000
   51  SB 1 YZ   -0.001840   0.000000  -0.000000  -0.000000   0.000000
   52  SB 1 XX   -0.000000   0.000000  -0.332162  -0.017184  -0.053562
   53  SB 1 YY   -0.000000   0.000000  -0.332162  -0.017184   0.053562
   54  SB 1 ZZ   -0.000000   0.000000   0.664325   0.034368   0.000000
   55  SB 1 XY   -0.000000   0.000000  -0.000000  -0.000000   0.000000
   56  SB 1 XZ   -0.000000   0.665988  -0.000000  -0.000000   0.000000
   57  SB 1 YZ    0.665988   0.000000  -0.000000  -0.000000   0.000000
   58  SB 1 XX   -0.000000   0.000000   0.003838   0.010970   0.035697
   59  SB 1 YY   -0.000000   0.000000   0.003838   0.010970  -0.035697
   60  SB 1 ZZ   -0.000000   0.000000  -0.007676  -0.021940   0.000000
   61  SB 1 XY   -0.000000   0.000000  -0.000000  -0.000000   0.000000
   62  SB 1 XZ   -0.000000  -0.009346  -0.000000  -0.000000   0.000000
   63  SB 1 YZ   -0.009346   0.000000  -0.000000  -0.000000   0.000000
   64  SB 1 XX   -0.000000   0.000000  -0.005917   0.002446   0.030050
   65  SB 1 YY   -0.000000   0.000000  -0.005917   0.002446  -0.030050
   66  SB 1 ZZ   -0.000000   0.000000   0.011834  -0.004893   0.000000
   67  SB 1 XY   -0.000000   0.000000  -0.000000  -0.000000   0.000000
   68  SB 1 XZ   -0.000000   0.010837  -0.000000  -0.000000   0.000000
   69  SB 1 YZ    0.010837   0.000000  -0.000000  -0.000000   0.000000
   70  SB 1 XXX  -0.000000   0.000000   0.000085   0.001609   0.001471
   71  SB 1 YYY  -0.000000   0.000000  -0.000000  -0.000000   0.000000
   72  SB 1 ZZZ  -0.000000   0.000000  -0.000000  -0.000000   0.000000
   73  SB 1 XXY  -0.000000   0.000000  -0.000000  -0.000000   0.000000
   74  SB 1 XXZ  -0.000000  -0.000096  -0.000000  -0.000000   0.000000
   75  SB 1 YYX  -0.000000   0.000000  -0.000114  -0.002159   0.000658
   76  SB 1 YYZ  -0.000000   0.000096  -0.000000  -0.000000   0.000000
   77  SB 1 ZZX  -0.000000   0.000000  -0.000000  -0.000000  -0.002632
   78  SB 1 ZZY  -0.000000   0.000000  -0.000000  -0.000000   0.000000
   79  SB 1 XYZ   0.000111   0.000000  -0.000000  -0.000000   0.000000
   80  SB 1 XXX  -0.000000   0.000000   0.000648   0.002413   0.002860
   81  SB 1 YYY  -0.000000   0.000000  -0.000000  -0.000000   0.000000
   82  SB 1 ZZZ  -0.000000   0.000000  -0.000000  -0.000000   0.000000
   83  SB 1 XXY  -0.000000   0.000000  -0.000000  -0.000000   0.000000
   84  SB 1 XXZ  -0.000000  -0.000529  -0.000000  -0.000000   0.000000
   85  SB 1 YYX  -0.000000   0.000000  -0.000870  -0.003237   0.001279
   86  SB 1 YYZ  -0.000000   0.000529  -0.000000  -0.000000   0.000000
   87  SB 1 ZZX  -0.000000   0.000000  -0.000000  -0.000000  -0.005117
   88  SB 1 ZZY  -0.000000   0.000000  -0.000000  -0.000000   0.000000
   89  SB 1 XYZ   0.000611   0.000000  -0.000000  -0.000000   0.000000
   90  SB 1 XXX  -0.000000   0.000000  -0.001504   0.018952   0.011854
   91  SB 1 YYY  -0.000000   0.000000  -0.000000  -0.000000   0.000000
   92  SB 1 ZZZ  -0.000000   0.000000  -0.000000  -0.000000   0.000000
   93  SB 1 XXY  -0.000000   0.000000  -0.000000  -0.000000   0.000000
   94  SB 1 XXZ  -0.000000   0.000025  -0.000000  -0.000000   0.000000
   95  SB 1 YYX  -0.000000   0.000000   0.002018  -0.025426   0.005301
   96  SB 1 YYZ  -0.000000  -0.000025  -0.000000  -0.000000   0.000000
   97  SB 1 ZZX  -0.000000   0.000000  -0.000000  -0.000000  -0.021204
   98  SB 1 ZZY  -0.000000   0.000000  -0.000000  -0.000000   0.000000
   99  SB 1 XYZ  -0.000029   0.000000  -0.000000  -0.000000   0.000000
  100  SB 1XXXX  -0.000000   0.000000  -0.000276   0.000128   0.000708
  101  SB 1YYYY  -0.000000   0.000000  -0.000276   0.000128   0.000189
[...]

 UNITS ARE HARTREE/BOHR    E'X               E'Y               E'Z 
    1 SB              -0.000004247       0.000000000      -0.000457551
    2 H               -0.000020776       0.000036536       0.000152565
    3 H               -0.000020776      -0.000036536       0.000152565
    4 H                0.000045799       0.000000000       0.000152422
  $VIB   
          IVIB=   2 IATOM=   4 ICOORD=   3 E=    -6479.6810681552
 -4.246650720E-06 0.000000000E+00-4.575514524E-04-2.077636964E-05 3.653564164E-05
  1.525645620E-04-2.077636964E-05-3.653563837E-05 1.525645620E-04 4.579939011E-05
  0.000000000E+00 1.524223321E-04
 -1.968892200E-05 5.304949766E-13-6.847528617E-03
 ...... END OF NUMERICAL HESSIAN CALCULATION ......
 CPU     0: STEP CPU TIME=     0.01 TOTAL CPU TIME=        744.7 (     12.4 MIN)
 TOTAL WALL CLOCK TIME=        804.6 SECONDS, CPU UTILIZATION IS    92.55%

          ---------------
          ENERGY GRADIENT
          ---------------

 UNITS ARE HARTREE/BOHR    E'X               E'Y               E'Z 
    1 SB               0.000000000       0.000000000       0.000000000
    2 H               -0.000021237       0.000036784       0.000000000
    3 H               -0.000021237      -0.000036784       0.000000000
    4 H                0.000042475       0.000000000       0.000000000

          -------------------------------
          CARTESIAN FORCE CONSTANT MATRIX
          -------------------------------

                                   1                          2
                               SB                         H         
                          X        Y        Z        X        Y        Z
  1   SB           X 0.302869-0.000000 0.000000-0.057912 0.074550 0.000000
                   Y-0.000000 0.302865 0.000000 0.074554-0.144000-0.000000
                   Z 0.000000 0.000000-0.137259-0.000000-0.000000 0.045754
  2   H            X-0.057912 0.074554-0.000000 0.057844-0.076733-0.000000
                   Y 0.074550-0.144000-0.000000-0.076733 0.146448 0.000000
                   Z 0.000000-0.000000 0.045754-0.000000 0.000000-0.015242
  3   H            X-0.057912-0.074554-0.000000 0.001923 0.005247 0.000000
                   Y-0.074550-0.144000 0.000000-0.005247-0.003110 0.000000
                   Z 0.000000 0.000000 0.045754 0.000000-0.000000-0.015256
  4   H            X-0.187049 0.000000-0.000000-0.001852-0.003067-0.000000
                   Y-0.000000-0.014872 0.000000 0.007427 0.000665-0.000000
                   Z-0.000000 0.000000 0.045754 0.000000-0.000000-0.015256

                                   3                          4
                               H                          H         
                          X        Y        Z        X        Y        Z
  3   H            X 0.057844 0.076733-0.000000-0.001852-0.007427 0.000000
                   Y 0.076733 0.146448-0.000000 0.003067 0.000665 0.000000
                   Z-0.000000-0.000000-0.015242-0.000000 0.000000-0.015256
  4   H            X-0.001852 0.003067-0.000000 0.190750 0.000000 0.000000
                   Y-0.007427 0.000665 0.000000 0.000000 0.013542 0.000000
                   Z 0.000000 0.000000-0.015256 0.000000 0.000000-0.015242

          ------------------------          ----------------
          DIPOLE DERIVATIVE TENSOR          (DEBYE/ANGSTROM)
          ------------------------          ----------------

        ATOM                 MU-X           MU-Y           MU-Z
     SB         D/DX     1.768439005    0.000000000    0.000000000
                D/DY     0.000001140    1.768440693    0.000000000
                D/DZ    -0.000002415    0.000000000   -3.881943219
     H          D/DX    -0.721153721   -0.228052711    0.000000000
                D/DY    -0.228052710   -0.457821133    0.000000000
                D/DZ    -0.000000005    0.000000009    1.293995290
     H          D/DX    -0.721153721    0.228052710   -0.000000000
                D/DY     0.228052711   -0.457821133   -0.000000000
                D/DZ    -0.000000005   -0.000000009    1.293995290
     H          D/DX    -0.326154839   -0.000000000    0.000000000
                D/DY     0.000000000   -0.852820015   -0.000000000
                D/DZ     0.000000010   -0.000000000    1.293995290

          --------------------------------------------------------
          NORMAL COORDINATE ANALYSIS IN THE HARMONIC APPROXIMATION
          --------------------------------------------------------

          ATOMIC WEIGHTS (AMU)

    1     SB              120.90380
    2     H                 1.00782
    3     H                 1.00782
    4     H                 1.00782

 * * * WARNING, MODE 1 HAS BEEN CHOSEN AS A VIBRATION
          WHILE MODE 7 IS ASSUMED TO BE A TRANSLATION/ROTATION.
 PLEASE VERIFY THE PROGRAM'S DECISION MANUALLY!


 MODE(S)     1 TO     1 TREATED AS IMAGINARY.

 MODES    2 TO    7 ARE TAKEN AS ROTATIONS AND TRANSLATIONS.

 ANALYZING SYMMETRY OF NORMAL MODES...
 WATCH OUT!! THE COUNTING OF DEGENERATE MODES COUNTS INDIVIDUAL MODES,
 E.G. 2*E MEANS ONE (1) SET OF DEGENERATE E MODES

 --- SYMMETRY FOR NORMAL MODES ---
 INCLUDING TRANSLATION AND ROTATION
    1*A1'    0*A1"    1*A2'    2*A2"    2*E''    6*E'  
 EXCLUDING TRANSLATION AND ROTATION (SAYVETZ < 0.01)
    1*A1'    0*A1"    0*A2'    1*A2"    0*E''    4*E'  

     FREQUENCIES IN CM**-1, IR INTENSITIES IN DEBYE**2/AMU-ANGSTROM**2,
     REDUCED MASSES IN AMU.

                            1           2           3           4           5
       FREQUENCY:      1108.91 I      0.27        0.04        0.04       19.23  
        SYMMETRY:         A2"         E'          A2"         E'          A2' 
    REDUCED MASS:      1.03281    30.81203    30.98285    30.98376     1.00801
    IR INTENSITY:      5.10891     0.00000     0.00000     0.00000     0.00000

  1   SB           X  0.00000000 -0.00001719 -0.00270433  0.08978837 -0.00000000
                   Y -0.00000000  0.08982067 -0.00002806  0.00001636 -0.00123056
                   Z -0.01420496  0.00002756  0.08978833  0.00270433  0.00000004
  2   H            X -0.00000000 -0.00684250 -0.00270172  0.08978085 -0.49800872
                   Y -0.00000000  0.08587844 -0.00002665  0.00001488 -0.28875613
                   Z  0.56804610  0.00002714  0.08975363  0.00270286  0.00000068
  3   H            X -0.00000000  0.00680805 -0.00270644  0.08978332  0.49800872
                   Y  0.00000000  0.08587846 -0.00002675  0.00001640 -0.28875613
                   Z  0.56804610  0.00002738  0.08975359  0.00270385  0.00000029
  4   H            X -0.00000000 -0.00001719 -0.00270434  0.08978930  0.00000000
                   Y -0.00000000  0.09769193 -0.00003078  0.00001778  0.57381924
                   Z  0.56804609  0.00002815  0.08985157  0.00270609 -0.00000085

 TRANS. SAYVETZ    X  0.00000000 -0.00213084 -0.33513919 11.12721673 -0.00000000
                   Y -0.00000000 11.13121745 -0.00347717  0.00202688 -0.15250177
                   Z  0.00003949  0.00341496 11.12721636  0.33513983  0.00000502
               TOTAL  0.00003949 11.13121818 11.13226276 11.13226280  0.15250177

   ROT. SAYVETZ    X -0.00000000 -0.00000067  0.00000011 -0.00000269  0.00000104
                   Y  0.00000001 -0.00000278 -0.00030660 -0.00000857  0.00000417
                   Z -0.00000000  0.07397083 -0.00002554  0.00001340  5.39918684
               TOTAL  0.00000002  0.07397083  0.00030766  0.00001613  5.39918684

                            6           7           8           9          10
       FREQUENCY:        19.31       19.31      731.33      731.33     2215.99  
        SYMMETRY:         E''         E''         E'          E'          A1' 
    REDUCED MASS:      1.00783     1.00783     1.02076     1.02076     1.00783
    IR INTENSITY:      0.00000     0.00000     1.12103     1.12103     0.00000

  1   SB           X -0.00000006  0.00000002 -0.00048867 -0.01026960 -0.00000022
                   Y -0.00000002 -0.00000006 -0.01026956  0.00048867 -0.00000000
                   Z  0.00000000 -0.00000722 -0.00000000 -0.00000001 -0.00000000
  2   H            X -0.00000020 -0.00000052  0.37224035  0.59254669 -0.28755399
                   Y -0.00000009 -0.00000037  0.22884287  0.33315564  0.49805860
                   Z -0.70435636 -0.40666754 -0.00000000 -0.00000000 -0.00000000
  3   H            X  0.00000007  0.00000056 -0.31429428  0.62521482 -0.28755401
                   Y -0.00000009 -0.00000038  0.19617472 -0.35337971 -0.49805863
                   Z  0.70435636 -0.40666754  0.00000000 -0.00000001 -0.00000000
  4   H            X -0.00000006  0.00000002  0.00068154  0.01432294  0.57509685
                   Y  0.00000014  0.00000056  0.80706710 -0.03840355  0.00000000
                   Z  0.00000000  0.81331345 -0.00000000 -0.00000001 -0.00000000

 TRANS. SAYVETZ    X -0.00000784  0.00000195  0.00000437  0.00009174 -0.00003808
                   Y -0.00000199 -0.00000800  0.00009729 -0.00000410 -0.00000010
                   Z  0.00000008 -0.00089427 -0.00000005 -0.00000098 -0.00000003
               TOTAL  0.00000809  0.00089431  0.00009739  0.00009184  0.00003808

   ROT. SAYVETZ    X -3.81815991 -0.00000000 -0.00000001  0.00000000 -0.00000000
                   Y -0.00000000 -3.81815990  0.00000000  0.00000001  0.00000000
                   Z  0.00000146  0.00000585  0.00000585 -0.00000028 -0.00000000
               TOTAL  3.81815991  3.81815990  0.00000585  0.00000028  0.00000000

                           11          12
       FREQUENCY:      2260.64     2260.64  
        SYMMETRY:         E'          E'  
    REDUCED MASS:      1.01957     1.01957
    IR INTENSITY:      0.14564     0.14564

  1   SB           X -0.00004298 -0.00980141
                   Y -0.00980134  0.00004298
                   Z -0.00000000 -0.00000000
  2   H            X -0.35968925  0.18539210
                   Y  0.59849711 -0.36312209
                   Z  0.00000000 -0.00000000
  3   H            X  0.36130133  0.18223042
                   Y  0.60165872  0.35785918
                   Z -0.00000000 -0.00000000
  4   H            X  0.00354419  0.80821518
                   Y -0.02431806  0.00010664
                   Z -0.00000000  0.00000000

 TRANS. SAYVETZ    X  0.00000005  0.00001145
                   Y  0.00001946 -0.00000002
                   Z -0.00000000 -0.00000011
               TOTAL  0.00001946  0.00001145

   ROT. SAYVETZ    X  0.00000000  0.00000000
                   Y  0.00000000 -0.00000000
                   Z  0.00000058 -0.00000000
               TOTAL  0.00000058  0.00000000

 REFERENCE ON SAYVETZ CONDITIONS - A. SAYVETZ, J.CHEM.PHYS., 7, 383-389(1939).

 NOTE - THE MODES J,K ARE ORTHONORMALIZED ACCORDING TO
 SUM ON I   M(I) * (X(I,J)*X(I,K) + Y(I,J)*Y(I,K) + Z(I,J)*Z(I,K)) = DELTA(J,K)

  MODE FREQ(CM**-1)  SYMMETRY  RED. MASS  IR INTENS.
     1    1108.907    A2"      1.032812    5.108910
     2       0.267    E'      30.812032    0.000000
     3       0.044    A2"     30.982848    0.000000
     4       0.042    E'      30.983765    0.000000
     5      19.226    A2'      1.008008    0.000000
     6      19.311    E''      1.007825    0.000000
     7      19.311    E''      1.007825    0.000000
     8     731.335    E'       1.020761    1.121034
     9     731.335    E'       1.020762    1.121034
    10    2215.990    A1'      1.007825    0.000000
    11    2260.642    E'       1.019569    0.145642
    12    2260.642    E'       1.019569    0.145642

     -------------------------------
     THERMOCHEMISTRY AT T=  298.15 K
     -------------------------------

 USING IDEAL GAS, RIGID ROTOR, HARMONIC NORMAL MODE APPROXIMATIONS.
 P=  1.01325E+05 PASCAL.
 ALL FREQUENCIES ARE SCALED BY   1.00000
 THE MOMENTS OF INERTIA ARE (IN AMU*BOHR**2)
     14.57835    14.57835    29.15669
 THE ROTATIONAL SYMMETRY NUMBER IS  6.0
 THE ROTATIONAL CONSTANTS ARE (IN GHZ)
    123.68264   123.68264    61.84132
   1 IMAGINARY FREQUENCY VIBRATION(S) IS(ARE) EXCLUDED
     FROM THE FOLLOWING THERMOCHEMICAL ANALYSIS.
      8 -     12 VIBRATIONAL MODES ARE USED IN THERMOCHEMISTRY.
 THE HARMONIC ZERO POINT ENERGY IS (SCALED BY   1.000)
        0.018681 HARTREE/MOLECULE     4099.971573 CM**-1/MOLECULE 
       11.722419 KCAL/MOL               49.046600 KJ/MOL

               Q               LN Q
 ELEC.     1.00000E+00       0.000000
 TRANS.    5.42256E+07      17.808663
 ROT.      1.48514E+02       5.000679
 VIB.      1.06140E+00       0.059593
 TOT.      8.54776E+09      22.868935

              E         H         G         CV        CP        S
           KJ/MOL    KJ/MOL    KJ/MOL   J/MOL-K   J/MOL-K   J/MOL-K
 ELEC.      0.000     0.000     0.000     0.000     0.000     0.000
 TRANS.     3.718     6.197   -44.147    12.472    20.786   168.855
 ROT.       3.718     3.718   -12.396    12.472    12.472    54.049
 VIB.      49.577    49.577    48.899     6.505     6.505     2.274
 TOTAL     57.014    59.493    -7.644    31.448    39.762   225.178
 VIB. THERMAL CORRECTION E(T)-E(0) = H(T)-H(0) =   530.260 J/MOL

              E         H         G         CV        CP        S
         KCAL/MOL  KCAL/MOL  KCAL/MOL CAL/MOL-K CAL/MOL-K CAL/MOL-K
 ELEC.      0.000     0.000     0.000     0.000     0.000     0.000
 TRANS.     0.889     1.481   -10.551     2.981     4.968    40.357
 ROT.       0.889     0.889    -2.963     2.981     2.981    12.918
 VIB.      11.849    11.849    11.687     1.555     1.555     0.543
 TOTAL     13.627    14.219    -1.827     7.516     9.503    53.819
 VIB. THERMAL CORRECTION E(T)-E(0) = H(T)-H(0) =   126.735 CAL/MOL
 ......END OF NORMAL COORDINATE ANALYSIS......
 CPU     0: STEP CPU TIME=     0.00 TOTAL CPU TIME=        744.7 (     12.4 MIN)
 TOTAL WALL CLOCK TIME=        804.6 SECONDS, CPU UTILIZATION IS    92.55%
              2373523  WORDS OF DYNAMIC MEMORY USED
 EXECUTION OF GAMESS TERMINATED NORMALLY Tue Dec 19 00:41:22 2023
 DDI: 10843800 bytes (10.3 MB / 1 MWords) used by master data server.
Note: The following floating-point exceptions are signalling: IEEE_UNDERFLOW_FLAG IEEE_DENORMAL
Note: The following floating-point exceptions are signalling: IEEE_UNDERFLOW_FLAG IEEE_DENORMAL
Note: The following floating-point exceptions are signalling: IEEE_UNDERFLOW_FLAG IEEE_DENORMAL
Note: The following floating-point exceptions are signalling: IEEE_UNDERFLOW_FLAG IEEE_DENORMAL
Note: The following floating-point exceptions are signalling: IEEE_UNDERFLOW_FLAG IEEE_DENORMAL
Note: The following floating-point exceptions are signalling: IEEE_UNDERFLOW_FLAG IEEE_DENORMAL
Note: The following floating-point exceptions are signalling: IEEE_UNDERFLOW_FLAG IEEE_DENORMAL
Note: The following floating-point exceptions are signalling: IEEE_UNDERFLOW_FLAG IEEE_DENORMAL
Note: The following floating-point exceptions are signalling: IEEE_UNDERFLOW_FLAG IEEE_DENORMAL

 ----------------------------------------
 CPU timing information for all processes
 ========================================
 0: 739.366 + 5.338 = 744.704
 1: 733.668 + 4.741 = 738.410
 2: 733.465 + 3.45 = 736.511
 3: 738.663 + 4.117 = 742.780
 4: 735.762 + 4.335 = 740.98
 5: 733.397 + 2.762 = 736.160
 6: 738.342 + 4.483 = 742.826
 7: 734.274 + 3.388 = 737.662
 8: 732.905 + 2.704 = 735.609
 9: 733.359 + 3.404 = 736.764
 10: 733.225 + 3.277 = 736.503
 11: 734.449 + 2.152 = 736.602
 ----------------------------------------
Note: The following floating-point exceptions are signalling: IEEE_UNDERFLOW_FLAG IEEE_DENORMAL
Note: The following floating-point exceptions are signalling: IEEE_UNDERFLOW_FLAG IEEE_DENORMAL
Note: The following floating-point exceptions are signalling: IEEE_UNDERFLOW_FLAG IEEE_DENORMAL
 ddikick.x: exited gracefully.
unset echo
----- accounting info -----
Files used on the master node io001 were:
-rw-r--r-- 1 bjb2chen nooijen      591 Dec 19 00:27 /home/bjb2chen/gmsscr//SbH3_cct_rhf_mp2_D3h_gh.F05
-rw-r--r-- 1 bjb2chen nooijen  8212720 Dec 19 00:41 /home/bjb2chen/gmsscr//SbH3_cct_rhf_mp2_D3h_gh.F10
-rw-r--r-- 1 bjb2chen nooijen 19660800 Dec 19 00:41 /home/bjb2chen/gmsscr//SbH3_cct_rhf_mp2_D3h_gh.F30
-rw-r--r-- 1 bjb2chen nooijen 19660800 Dec 19 00:41 /home/bjb2chen/gmsscr//SbH3_cct_rhf_mp2_D3h_gh.F30.001
-rw-r--r-- 1 bjb2chen nooijen 19660800 Dec 19 00:41 /home/bjb2chen/gmsscr//SbH3_cct_rhf_mp2_D3h_gh.F30.002
-rw-r--r-- 1 bjb2chen nooijen 19660800 Dec 19 00:41 /home/bjb2chen/gmsscr//SbH3_cct_rhf_mp2_D3h_gh.F30.003
-rw-r--r-- 1 bjb2chen nooijen 19660800 Dec 19 00:41 /home/bjb2chen/gmsscr//SbH3_cct_rhf_mp2_D3h_gh.F30.004
-rw-r--r-- 1 bjb2chen nooijen 19660800 Dec 19 00:41 /home/bjb2chen/gmsscr//SbH3_cct_rhf_mp2_D3h_gh.F30.005
-rw-r--r-- 1 bjb2chen nooijen 19660800 Dec 19 00:41 /home/bjb2chen/gmsscr//SbH3_cct_rhf_mp2_D3h_gh.F30.006
-rw-r--r-- 1 bjb2chen nooijen 19660800 Dec 19 00:41 /home/bjb2chen/gmsscr//SbH3_cct_rhf_mp2_D3h_gh.F30.007
-rw-r--r-- 1 bjb2chen nooijen 19660800 Dec 19 00:41 /home/bjb2chen/gmsscr//SbH3_cct_rhf_mp2_D3h_gh.F30.008
-rw-r--r-- 1 bjb2chen nooijen 19660800 Dec 19 00:41 /home/bjb2chen/gmsscr//SbH3_cct_rhf_mp2_D3h_gh.F30.009
-rw-r--r-- 1 bjb2chen nooijen 19660800 Dec 19 00:41 /home/bjb2chen/gmsscr//SbH3_cct_rhf_mp2_D3h_gh.F30.010
-rw-r--r-- 1 bjb2chen nooijen 19660800 Dec 19 00:41 /home/bjb2chen/gmsscr//SbH3_cct_rhf_mp2_D3h_gh.F30.011
-rw-r--r-- 1 bjb2chen nooijen   466880 Dec 19 00:40 /home/bjb2chen/gmsscr//SbH3_cct_rhf_mp2_D3h_gh.F45
-rw-r--r-- 1 bjb2chen nooijen   933760 Dec 19 00:40 /home/bjb2chen/gmsscr//SbH3_cct_rhf_mp2_D3h_gh.F45.001
-rw-r--r-- 1 bjb2chen nooijen   933760 Dec 19 00:40 /home/bjb2chen/gmsscr//SbH3_cct_rhf_mp2_D3h_gh.F45.002
-rw-r--r-- 1 bjb2chen nooijen   933760 Dec 19 00:40 /home/bjb2chen/gmsscr//SbH3_cct_rhf_mp2_D3h_gh.F45.003
-rw-r--r-- 1 bjb2chen nooijen   933760 Dec 19 00:40 /home/bjb2chen/gmsscr//SbH3_cct_rhf_mp2_D3h_gh.F45.004
-rw-r--r-- 1 bjb2chen nooijen   933760 Dec 19 00:40 /home/bjb2chen/gmsscr//SbH3_cct_rhf_mp2_D3h_gh.F45.005
-rw-r--r-- 1 bjb2chen nooijen   933760 Dec 19 00:40 /home/bjb2chen/gmsscr//SbH3_cct_rhf_mp2_D3h_gh.F45.006
-rw-r--r-- 1 bjb2chen nooijen   466880 Dec 19 00:40 /home/bjb2chen/gmsscr//SbH3_cct_rhf_mp2_D3h_gh.F45.007
-rw-r--r-- 1 bjb2chen nooijen   466880 Dec 19 00:40 /home/bjb2chen/gmsscr//SbH3_cct_rhf_mp2_D3h_gh.F45.008
-rw-r--r-- 1 bjb2chen nooijen   933760 Dec 19 00:40 /home/bjb2chen/gmsscr//SbH3_cct_rhf_mp2_D3h_gh.F45.009
-rw-r--r-- 1 bjb2chen nooijen   933760 Dec 19 00:40 /home/bjb2chen/gmsscr//SbH3_cct_rhf_mp2_D3h_gh.F45.010
-rw-r--r-- 1 bjb2chen nooijen   933760 Dec 19 00:40 /home/bjb2chen/gmsscr//SbH3_cct_rhf_mp2_D3h_gh.F45.011
-rw-r--r-- 1 bjb2chen nooijen   466880 Dec 19 00:40 /home/bjb2chen/gmsscr//SbH3_cct_rhf_mp2_D3h_gh.F46
-rw-r--r-- 1 bjb2chen nooijen   933760 Dec 19 00:40 /home/bjb2chen/gmsscr//SbH3_cct_rhf_mp2_D3h_gh.F46.001
-rw-r--r-- 1 bjb2chen nooijen   933760 Dec 19 00:40 /home/bjb2chen/gmsscr//SbH3_cct_rhf_mp2_D3h_gh.F46.002
-rw-r--r-- 1 bjb2chen nooijen   933760 Dec 19 00:40 /home/bjb2chen/gmsscr//SbH3_cct_rhf_mp2_D3h_gh.F46.003
-rw-r--r-- 1 bjb2chen nooijen   933760 Dec 19 00:40 /home/bjb2chen/gmsscr//SbH3_cct_rhf_mp2_D3h_gh.F46.004
-rw-r--r-- 1 bjb2chen nooijen   933760 Dec 19 00:40 /home/bjb2chen/gmsscr//SbH3_cct_rhf_mp2_D3h_gh.F46.005
-rw-r--r-- 1 bjb2chen nooijen   933760 Dec 19 00:40 /home/bjb2chen/gmsscr//SbH3_cct_rhf_mp2_D3h_gh.F46.006
-rw-r--r-- 1 bjb2chen nooijen   466880 Dec 19 00:40 /home/bjb2chen/gmsscr//SbH3_cct_rhf_mp2_D3h_gh.F46.007
-rw-r--r-- 1 bjb2chen nooijen   466880 Dec 19 00:40 /home/bjb2chen/gmsscr//SbH3_cct_rhf_mp2_D3h_gh.F46.008
-rw-r--r-- 1 bjb2chen nooijen   933760 Dec 19 00:40 /home/bjb2chen/gmsscr//SbH3_cct_rhf_mp2_D3h_gh.F46.009
-rw-r--r-- 1 bjb2chen nooijen   933760 Dec 19 00:40 /home/bjb2chen/gmsscr//SbH3_cct_rhf_mp2_D3h_gh.F46.010
-rw-r--r-- 1 bjb2chen nooijen   933760 Dec 19 00:40 /home/bjb2chen/gmsscr//SbH3_cct_rhf_mp2_D3h_gh.F46.011
ls: No match.
ls: No match.
ls: No match.
Tue 19 Dec 2023 12:41:26 AM EST
0.288u 0.135s 13:28.90 0.0%	0+0k 8+344io 0pf+0w
