 Entering Gaussian System, Link 0=g16
 Initial command:
 /opt/software/gaussian/16/g16/l1.exe "/home/bjb2chen/project_claire_tiara/ch2o_5st/Gau-834859.inp" -scrdir="/home/bjb2chen/project_claire_tiara/ch2o_5st/"
 Entering Link 1 = /opt/software/gaussian/16/g16/l1.exe PID=    834861.
  
 Copyright (c) 1988-2017, Gaussian, Inc.  All Rights Reserved.
  
 This is part of the Gaussian(R) 16 program.  It is based on
 the Gaussian(R) 09 system (copyright 2009, Gaussian, Inc.),
 the Gaussian(R) 03 system (copyright 2003, Gaussian, Inc.),
 the Gaussian(R) 98 system (copyright 1998, Gaussian, Inc.),
 the Gaussian(R) 94 system (copyright 1995, Gaussian, Inc.),
 the Gaussian 92(TM) system (copyright 1992, Gaussian, Inc.),
 the Gaussian 90(TM) system (copyright 1990, Gaussian, Inc.),
 the Gaussian 88(TM) system (copyright 1988, Gaussian, Inc.),
 the Gaussian 86(TM) system (copyright 1986, Carnegie Mellon
 University), and the Gaussian 82(TM) system (copyright 1983,
 Carnegie Mellon University). Gaussian is a federally registered
 trademark of Gaussian, Inc.
  
 This software contains proprietary and confidential information,
 including trade secrets, belonging to Gaussian, Inc.
  
 This software is provided under written license and may be
 used, copied, transmitted, or stored only in accord with that
 written license.
  
 The following legend is applicable only to US Government
 contracts under FAR:
  
                    RESTRICTED RIGHTS LEGEND
  
 Use, reproduction and disclosure by the US Government is
 subject to restrictions as set forth in subparagraphs (a)
 and (c) of the Commercial Computer Software - Restricted
 Rights clause in FAR 52.227-19.
  
 Gaussian, Inc.
 340 Quinnipiac St., Bldg. 40, Wallingford CT 06492
  
  
 ---------------------------------------------------------------
 Warning -- This program may not be used in any manner that
 competes with the business of Gaussian, Inc. or will provide
 assistance to any competitor of Gaussian, Inc.  The licensee
 of this program is prohibited from giving any competitor of
 Gaussian, Inc. access to this program.  By using this program,
 the user acknowledges that Gaussian, Inc. is engaged in the
 business of creating and licensing software in the field of
 computational chemistry and represents and warrants to the
 licensee that it is not a competitor of Gaussian, Inc. and that
 it will not use this program in any manner prohibited above.
 ---------------------------------------------------------------
  

 Cite this work as:
 Gaussian 16, Revision B.01,
 M. J. Frisch, G. W. Trucks, H. B. Schlegel, G. E. Scuseria, 
 M. A. Robb, J. R. Cheeseman, G. Scalmani, V. Barone, 
 G. A. Petersson, H. Nakatsuji, X. Li, M. Caricato, A. V. Marenich, 
 J. Bloino, B. G. Janesko, R. Gomperts, B. Mennucci, H. P. Hratchian, 
 J. V. Ortiz, A. F. Izmaylov, J. L. Sonnenberg, D. Williams-Young, 
 F. Ding, F. Lipparini, F. Egidi, J. Goings, B. Peng, A. Petrone, 
 T. Henderson, D. Ranasinghe, V. G. Zakrzewski, J. Gao, N. Rega, 
 G. Zheng, W. Liang, M. Hada, M. Ehara, K. Toyota, R. Fukuda, 
 J. Hasegawa, M. Ishida, T. Nakajima, Y. Honda, O. Kitao, H. Nakai, 
 T. Vreven, K. Throssell, J. A. Montgomery, Jr., J. E. Peralta, 
 F. Ogliaro, M. J. Bearpark, J. J. Heyd, E. N. Brothers, K. N. Kudin, 
 V. N. Staroverov, T. A. Keith, R. Kobayashi, J. Normand, 
 K. Raghavachari, A. P. Rendell, J. C. Burant, S. S. Iyengar, 
 J. Tomasi, M. Cossi, J. M. Millam, M. Klene, C. Adamo, R. Cammi, 
 J. W. Ochterski, R. L. Martin, K. Morokuma, O. Farkas, 
 J. B. Foresman, and D. J. Fox, Gaussian, Inc., Wallingford CT, 2016.
 
 ******************************************
 Gaussian 16:  ES64L-G16RevB.01 20-Dec-2017
                11-Apr-2022 
 ******************************************
 %chk=ch2o_excited.chk
 %nprocshared=7
 Will use up to    7 processors via shared memory.
 %Mem=25GB
 -----------------------------------------------
 #p td=(nstates=5) cam-b3lyp/def2tzvp scrf=check
 -----------------------------------------------
 1/38=1,40=1,172=1/1;
 2/12=2,17=6,18=5,40=1/2;
 3/5=44,7=101,11=9,25=1,30=1,70=2,74=-40/1,2,3,8;
 4//1;
 5/5=2,38=5/2;
 8/6=1,10=1,108=5/1;
 9/41=5,42=1,70=2/14;
 6/7=2,8=2,9=2,10=2/1;
 99/5=1,9=1/99;
 Leave Link    1 at Mon Apr 11 03:05:58 2022, MaxMem=  3355443200 cpu:               0.6 elap:               0.1
 (Enter /opt/software/gaussian/16/g16/l101.exe)
 ----------------------------------
 Molecule 5 excited states def2tzvp
 ----------------------------------
 Symbolic Z-matrix:
 Charge =  0 Multiplicity = 1
 6                    0    -0.10967  -0.28302   0. 
 1                    0     0.47457  -0.28302   0.9385 
 1                    0     0.47457  -0.28302  -0.9385 
 8                    0    -1.30455  -0.283     0. 
 
 ITRead=  0  0  0  0
 MicOpt= -1 -1 -1 -1
 NAtoms=      4 NQM=        4 NQMF=       0 NMMI=      0 NMMIF=      0
                NMic=       0 NMicF=      0.
                    Isotopes and Nuclear Properties:
 (Nuclear quadrupole moments (NQMom) in fm**2, nuclear magnetic moments (NMagM)
  in nuclear magnetons)

  Atom         1           2           3           4
 IAtWgt=          12           1           1          16
 AtmWgt=  12.0000000   1.0078250   1.0078250  15.9949146
 NucSpn=           0           1           1           0
 AtZEff=  -0.0000000  -0.0000000  -0.0000000  -0.0000000
 NQMom=    0.0000000   0.0000000   0.0000000   0.0000000
 NMagM=    0.0000000   2.7928460   2.7928460   0.0000000
 AtZNuc=   6.0000000   1.0000000   1.0000000   8.0000000
 Leave Link  101 at Mon Apr 11 03:05:59 2022, MaxMem=  3355443200 cpu:               1.6 elap:               0.3
 (Enter /opt/software/gaussian/16/g16/l202.exe)
                          Input orientation:                          
 ---------------------------------------------------------------------
 Center     Atomic      Atomic             Coordinates (Angstroms)
 Number     Number       Type             X           Y           Z
 ---------------------------------------------------------------------
      1          6           0       -0.109673   -0.283017    0.000000
      2          1           0        0.474566   -0.283024    0.938499
      3          1           0        0.474566   -0.283024   -0.938499
      4          8           0       -1.304552   -0.283002    0.000000
 ---------------------------------------------------------------------
                    Distance matrix (angstroms):
                    1          2          3          4
     1  C    0.000000
     2  H    1.105493   0.000000
     3  H    1.105493   1.876998   0.000000
     4  O    1.194879   2.011477   2.011477   0.000000
 Stoichiometry    CH2O
 Framework group  C2V[C2(CO),SGV'(H2)]
 Deg. of freedom     3
 Full point group                 C2V     NOp   4
 Largest Abelian subgroup         C2V     NOp   4
 Largest concise Abelian subgroup C2      NOp   2
                         Standard orientation:                         
 ---------------------------------------------------------------------
 Center     Atomic      Atomic             Coordinates (Angstroms)
 Number     Number       Type             X           Y           Z
 ---------------------------------------------------------------------
      1          6           0        0.000000    0.000000   -0.524410
      2          1           0        0.938499   -0.000000   -1.108649
      3          1           0       -0.938499    0.000000   -1.108649
      4          8           0       -0.000000   -0.000000    0.670469
 ---------------------------------------------------------------------
 Rotational constants (GHZ):         284.6652354          39.4614130          34.6571085
 Leave Link  202 at Mon Apr 11 03:05:59 2022, MaxMem=  3355443200 cpu:               1.1 elap:               0.2
 (Enter /opt/software/gaussian/16/g16/l301.exe)
 Standard basis: def2TZVP (5D, 7F)
 Ernie: Thresh=  0.10000D-02 Tol=  0.10000D-05 Strict=F.
 There are    39 symmetry adapted cartesian basis functions of A1  symmetry.
 There are     7 symmetry adapted cartesian basis functions of A2  symmetry.
 There are    21 symmetry adapted cartesian basis functions of B1  symmetry.
 There are    17 symmetry adapted cartesian basis functions of B2  symmetry.
 There are    33 symmetry adapted basis functions of A1  symmetry.
 There are     7 symmetry adapted basis functions of A2  symmetry.
 There are    19 symmetry adapted basis functions of B1  symmetry.
 There are    15 symmetry adapted basis functions of B2  symmetry.
    74 basis functions,   118 primitive gaussians,    84 cartesian basis functions
     8 alpha electrons        8 beta electrons
       nuclear repulsion energy        31.4931517568 Hartrees.
 IExCor=20419 DFT=T Ex+Corr=CAM-B3LYP ExCW=0 ScaHFX=  1.000000
 ScaDFX=  1.000000  1.000000  1.000000  0.810000 ScalE2=  1.000000  1.000000
 IRadAn=      5 IRanWt=     -1 IRanGd=            0 ICorTp=0 IEmpDi=  4
 HFx  wShort=  0.000000 wLong=  0.330000 cFull=  0.190000 cShort=  0.000000 cLong=  0.460000
 DFx  wShort=  0.000000 wLong=  0.330000 cFull=  0.190000 cShort=  0.000000 cLong=  0.460000
 NAtoms=    4 NActive=    4 NUniq=    3 SFac= 1.78D+00 NAtFMM=   60 NAOKFM=F Big=F
 Integral buffers will be    131072 words long.
 Raffenetti 1 integral format.
 Two-electron integral symmetry is turned on.
 Leave Link  301 at Mon Apr 11 03:05:59 2022, MaxMem=  3355443200 cpu:               0.5 elap:               0.1
 (Enter /opt/software/gaussian/16/g16/l302.exe)
 NPDir=0 NMtPBC=     1 NCelOv=     1 NCel=       1 NClECP=     1 NCelD=      1
         NCelK=      1 NCelE2=     1 NClLst=     1 CellRange=     0.0.
 One-electron integrals computed using PRISM.
 One-electron integral symmetry used in STVInt
   4 Symmetry operations used in ECPInt.
 ECPInt:  NShTT=     465 NPrTT=    1428 LenC2=     466 LenP2D=    1322.
 LDataN:  DoStor=T MaxTD1= 6 Len=  172
 NBasis=    74 RedAO= T EigKep=  1.41D-03  NBF=    33     7    19    15
 NBsUse=    74 1.00D-06 EigRej= -1.00D+00 NBFU=    33     7    19    15
 Precomputing XC quadrature grid using
 IXCGrd= 4 IRadAn=           5 IRanWt=          -1 IRanGd=           0 AccXCQ= 0.00D+00.
 Generated NRdTot=       0 NPtTot=           0 NUsed=           0 NTot=          32
 NSgBfM=    84    84    84    84    84 MxSgAt=     4 MxSgA2=     4.
 Leave Link  302 at Mon Apr 11 03:06:01 2022, MaxMem=  3355443200 cpu:              10.7 elap:               1.8
 (Enter /opt/software/gaussian/16/g16/l303.exe)
 DipDrv:  MaxL=1.
 Leave Link  303 at Mon Apr 11 03:06:01 2022, MaxMem=  3355443200 cpu:               1.0 elap:               0.2
 (Enter /opt/software/gaussian/16/g16/l308.exe)
 Leave Link  308 at Mon Apr 11 03:06:02 2022, MaxMem=  3355443200 cpu:               3.2 elap:               0.6
 (Enter /opt/software/gaussian/16/g16/l401.exe)
 ExpMin= 9.52D-02 ExpMax= 2.70D+04 ExpMxC= 9.22D+02 IAcc=3 IRadAn=         5 AccDes= 0.00D+00
 Harris functional with IExCor=20419 and IRadAn=       5 diagonalized for initial guess.
 HarFok:  IExCor=20419 AccDes= 0.00D+00 IRadAn=         5 IDoV= 1 UseB2=F ITyADJ=14
 ICtDFT=  3500011 ScaDFX=  1.000000  1.000000  1.000000  1.000000
 FoFCou: FMM=F IPFlag=           0 FMFlag=      100000 FMFlg1=           0
         NFxFlg=           0 DoJE=T BraDBF=F KetDBF=T FulRan=T
         wScrn=  0.000000 ICntrl=       500 IOpCl=  0 I1Cent=   200000004 NGrid=           0
         NMat0=    1 NMatS0=      1 NMatT0=    0 NMatD0=    1 NMtDS0=    0 NMtDT0=    0
 Petite list used in FoFCou.
 Harris En= -110.519645348670    
 JPrj=0 DoOrth=F DoCkMO=F.
 Initial guess orbital symmetries:
       Occupied  (A1) (A1) (A1) (A1) (B1) (A1) (B2) (B1)
       Virtual   (B2) (A1) (A1) (B1) (B2) (A1) (B1) (A1) (A1) (B1)
                 (B2) (A1) (B1) (A2) (A1) (B2) (A1) (B1) (A1) (A1)
                 (B2) (A2) (A1) (B1) (B1) (A1) (B2) (B2) (A1) (A2)
                 (B1) (A1) (B1) (A1) (B1) (A1) (B2) (A1) (A2) (B2)
                 (A1) (B1) (B2) (B1) (A2) (A1) (B2) (B1) (A1) (B1)
                 (A1) (A1) (B2) (B1) (A2) (A1) (B2) (B1) (A2) (A1)
                 (A1) (B2) (B1) (A1) (A1) (A1)
 The electronic state of the initial guess is 1-A1.
 Leave Link  401 at Mon Apr 11 03:06:03 2022, MaxMem=  3355443200 cpu:               9.1 elap:               1.5
 (Enter /opt/software/gaussian/16/g16/l502.exe)
 Keep R1 ints in memory in symmetry-blocked form, NReq=14081715.
 FoFCou: FMM=F IPFlag=           0 FMFlag=           0 FMFlg1=           0
         NFxFlg=           0 DoJE=F BraDBF=F KetDBF=F FulRan=T
         wScrn=  0.000000 ICntrl=       600 IOpCl=  0 I1Cent=           0 NGrid=           0
         NMat0=    1 NMatS0=   2775 NMatT0=    0 NMatD0=    1 NMtDS0=    0 NMtDT0=    0
 Petite list used in FoFCou.
 Closed shell SCF:
 Using DIIS extrapolation, IDIIS=  1040.
 NGot=  3355443200 LenX=  3354415366 LenY=  3354407869
 Requested convergence on RMS density matrix=1.00D-08 within 128 cycles.
 Requested convergence on MAX density matrix=1.00D-06.
 Requested convergence on             energy=1.00D-06.
 No special actions if energy rises.
 Integral accuracy reduced to 1.0D-05 until final iterations.

 Cycle   1  Pass 0  IDiag  1:
 E= -114.481956633182    
 DIIS: error= 6.37D-02 at cycle   1 NSaved=   1.
 NSaved= 1 IEnMin= 1 EnMin= -114.481956633182     IErMin= 1 ErrMin= 6.37D-02
 ErrMax= 6.37D-02  0.00D+00 EMaxC= 1.00D-01 BMatC= 1.83D-01 BMatP= 1.83D-01
 IDIUse=3 WtCom= 3.63D-01 WtEn= 6.37D-01
 Coeff-Com:  0.100D+01
 Coeff-En:   0.100D+01
 Coeff:      0.100D+01
 Gap=     0.351 Goal=   None    Shift=    0.000
 GapD=    0.351 DampG=1.000 DampE=0.500 DampFc=0.5000 IDamp=-1.
 Damping current iteration by 5.00D-01
 RMSDP=2.93D-03 MaxDP=3.95D-02              OVMax= 6.12D-02

 Cycle   2  Pass 0  IDiag  1:
 E= -114.492109411592     Delta-E=       -0.010152778411 Rises=F Damp=T
 DIIS: error= 2.70D-02 at cycle   2 NSaved=   2.
 NSaved= 2 IEnMin= 2 EnMin= -114.492109411592     IErMin= 2 ErrMin= 2.70D-02
 ErrMax= 2.70D-02  0.00D+00 EMaxC= 1.00D-01 BMatC= 3.62D-02 BMatP= 1.83D-01
 IDIUse=3 WtCom= 7.30D-01 WtEn= 2.70D-01
 Coeff-Com: -0.605D+00 0.161D+01
 Coeff-En:   0.000D+00 0.100D+01
 Coeff:     -0.442D+00 0.144D+01
 Gap=     0.329 Goal=   None    Shift=    0.000
 RMSDP=1.09D-03 MaxDP=1.97D-02 DE=-1.02D-02 OVMax= 7.67D-02

 Cycle   3  Pass 0  IDiag  1:
 E= -114.494406333568     Delta-E=       -0.002296921976 Rises=F Damp=F
 DIIS: error= 1.55D-02 at cycle   3 NSaved=   3.
 NSaved= 3 IEnMin= 3 EnMin= -114.494406333568     IErMin= 3 ErrMin= 1.55D-02
 ErrMax= 1.55D-02  0.00D+00 EMaxC= 1.00D-01 BMatC= 1.40D-02 BMatP= 3.62D-02
 IDIUse=3 WtCom= 8.45D-01 WtEn= 1.55D-01
 Coeff-Com: -0.408D+00 0.895D+00 0.512D+00
 Coeff-En:   0.000D+00 0.366D+00 0.634D+00
 Coeff:     -0.344D+00 0.813D+00 0.531D+00
 Gap=     0.346 Goal=   None    Shift=    0.000
 RMSDP=1.01D-03 MaxDP=1.65D-02 DE=-2.30D-03 OVMax= 4.61D-02

 Cycle   4  Pass 0  IDiag  1:
 E= -114.503335711462     Delta-E=       -0.008929377894 Rises=F Damp=F
 DIIS: error= 3.73D-03 at cycle   4 NSaved=   4.
 NSaved= 4 IEnMin= 4 EnMin= -114.503335711462     IErMin= 4 ErrMin= 3.73D-03
 ErrMax= 3.73D-03  0.00D+00 EMaxC= 1.00D-01 BMatC= 7.32D-04 BMatP= 1.40D-02
 IDIUse=3 WtCom= 9.63D-01 WtEn= 3.73D-02
 Coeff-Com: -0.124D+00 0.268D+00 0.273D+00 0.584D+00
 Coeff-En:   0.000D+00 0.000D+00 0.000D+00 0.100D+01
 Coeff:     -0.120D+00 0.258D+00 0.263D+00 0.599D+00
 Gap=     0.341 Goal=   None    Shift=    0.000
 RMSDP=1.58D-04 MaxDP=3.11D-03 DE=-8.93D-03 OVMax= 9.79D-03

 Cycle   5  Pass 0  IDiag  1:
 E= -114.503857093013     Delta-E=       -0.000521381551 Rises=F Damp=F
 DIIS: error= 2.40D-04 at cycle   5 NSaved=   5.
 NSaved= 5 IEnMin= 5 EnMin= -114.503857093013     IErMin= 5 ErrMin= 2.40D-04
 ErrMax= 2.40D-04  0.00D+00 EMaxC= 1.00D-01 BMatC= 2.22D-06 BMatP= 7.32D-04
 IDIUse=3 WtCom= 9.98D-01 WtEn= 2.40D-03
 Coeff-Com:  0.153D-01-0.331D-01-0.128D-01 0.539D-01 0.977D+00
 Coeff-En:   0.000D+00 0.000D+00 0.000D+00 0.000D+00 0.100D+01
 Coeff:      0.153D-01-0.330D-01-0.128D-01 0.538D-01 0.977D+00
 Gap=     0.341 Goal=   None    Shift=    0.000
 RMSDP=2.71D-05 MaxDP=4.08D-04 DE=-5.21D-04 OVMax= 6.43D-04

 Cycle   6  Pass 0  IDiag  1:
 E= -114.503859252485     Delta-E=       -0.000002159473 Rises=F Damp=F
 DIIS: error= 4.46D-05 at cycle   6 NSaved=   6.
 NSaved= 6 IEnMin= 6 EnMin= -114.503859252485     IErMin= 6 ErrMin= 4.46D-05
 ErrMax= 4.46D-05  0.00D+00 EMaxC= 1.00D-01 BMatC= 6.27D-08 BMatP= 2.22D-06
 IDIUse=1 WtCom= 1.00D+00 WtEn= 0.00D+00
 Coeff-Com:  0.302D-02-0.645D-02-0.781D-02-0.103D-01 0.391D-01 0.982D+00
 Coeff:      0.302D-02-0.645D-02-0.781D-02-0.103D-01 0.391D-01 0.982D+00
 Gap=     0.342 Goal=   None    Shift=    0.000
 RMSDP=7.31D-06 MaxDP=1.18D-04 DE=-2.16D-06 OVMax= 1.26D-04

 Initial convergence to 1.0D-05 achieved.  Increase integral accuracy.
 Cycle   7  Pass 1  IDiag  1:
 E= -114.503858918781     Delta-E=        0.000000333705 Rises=F Damp=F
 DIIS: error= 6.80D-06 at cycle   1 NSaved=   1.
 NSaved= 1 IEnMin= 1 EnMin= -114.503858918781     IErMin= 1 ErrMin= 6.80D-06
 ErrMax= 6.80D-06  0.00D+00 EMaxC= 1.00D-01 BMatC= 9.56D-10 BMatP= 9.56D-10
 IDIUse=1 WtCom= 1.00D+00 WtEn= 0.00D+00
 Coeff-Com:  0.100D+01
 Coeff:      0.100D+01
 Gap=     0.342 Goal=   None    Shift=    0.000
 RMSDP=7.31D-06 MaxDP=1.18D-04 DE= 3.34D-07 OVMax= 2.60D-05

 Cycle   8  Pass 1  IDiag  1:
 E= -114.503858920234     Delta-E=       -0.000000001453 Rises=F Damp=F
 DIIS: error= 3.76D-06 at cycle   2 NSaved=   2.
 NSaved= 2 IEnMin= 2 EnMin= -114.503858920234     IErMin= 2 ErrMin= 3.76D-06
 ErrMax= 3.76D-06  0.00D+00 EMaxC= 1.00D-01 BMatC= 5.50D-10 BMatP= 9.56D-10
 IDIUse=1 WtCom= 1.00D+00 WtEn= 0.00D+00
 Coeff-Com:  0.406D+00 0.594D+00
 Coeff:      0.406D+00 0.594D+00
 Gap=     0.342 Goal=   None    Shift=    0.000
 RMSDP=1.92D-07 MaxDP=5.51D-06 DE=-1.45D-09 OVMax= 1.50D-05

 Cycle   9  Pass 1  IDiag  1:
 E= -114.503858920590     Delta-E=       -0.000000000356 Rises=F Damp=F
 DIIS: error= 2.35D-06 at cycle   3 NSaved=   3.
 NSaved= 3 IEnMin= 3 EnMin= -114.503858920590     IErMin= 3 ErrMin= 2.35D-06
 ErrMax= 2.35D-06  0.00D+00 EMaxC= 1.00D-01 BMatC= 2.05D-10 BMatP= 5.50D-10
 IDIUse=1 WtCom= 1.00D+00 WtEn= 0.00D+00
 Coeff-Com: -0.122D+00 0.347D+00 0.774D+00
 Coeff:     -0.122D+00 0.347D+00 0.774D+00
 Gap=     0.342 Goal=   None    Shift=    0.000
 RMSDP=2.41D-07 MaxDP=3.72D-06 DE=-3.56D-10 OVMax= 5.64D-06

 Cycle  10  Pass 1  IDiag  1:
 E= -114.503858920757     Delta-E=       -0.000000000168 Rises=F Damp=F
 DIIS: error= 3.30D-07 at cycle   4 NSaved=   4.
 NSaved= 4 IEnMin= 4 EnMin= -114.503858920757     IErMin= 4 ErrMin= 3.30D-07
 ErrMax= 3.30D-07  0.00D+00 EMaxC= 1.00D-01 BMatC= 4.41D-12 BMatP= 2.05D-10
 IDIUse=1 WtCom= 1.00D+00 WtEn= 0.00D+00
 Coeff-Com: -0.713D-01 0.455D-01 0.210D+00 0.816D+00
 Coeff:     -0.713D-01 0.455D-01 0.210D+00 0.816D+00
 Gap=     0.342 Goal=   None    Shift=    0.000
 RMSDP=5.90D-08 MaxDP=8.83D-07 DE=-1.68D-10 OVMax= 1.94D-06

 Cycle  11  Pass 1  IDiag  1:
 E= -114.503858920764     Delta-E=       -0.000000000007 Rises=F Damp=F
 DIIS: error= 8.63D-08 at cycle   5 NSaved=   5.
 NSaved= 5 IEnMin= 5 EnMin= -114.503858920764     IErMin= 5 ErrMin= 8.63D-08
 ErrMax= 8.63D-08  0.00D+00 EMaxC= 1.00D-01 BMatC= 4.63D-13 BMatP= 4.41D-12
 IDIUse=1 WtCom= 1.00D+00 WtEn= 0.00D+00
 Coeff-Com: -0.194D-01-0.626D-03 0.251D-01 0.282D+00 0.713D+00
 Coeff:     -0.194D-01-0.626D-03 0.251D-01 0.282D+00 0.713D+00
 Gap=     0.342 Goal=   None    Shift=    0.000
 RMSDP=7.95D-09 MaxDP=1.16D-07 DE=-6.99D-12 OVMax= 1.93D-07

 SCF Done:  E(RCAM-B3LYP) =  -114.503858921     A.U. after   11 cycles
            NFock= 11  Conv=0.80D-08     -V/T= 2.0038
 KE= 1.140724231972D+02 PE=-3.319843363220D+02 EE= 7.191490244730D+01
 Leave Link  502 at Mon Apr 11 03:06:16 2022, MaxMem=  3355443200 cpu:              77.5 elap:              12.9
 (Enter /opt/software/gaussian/16/g16/l801.exe)
 DoSCS=F DFT=T ScalE2(SS,OS)=  1.000000  1.000000
 ExpMin= 9.52D-02 ExpMax= 2.70D+04 ExpMxC= 9.22D+02 IAcc=3 IRadAn=         5 AccDes= 0.00D+00
 HarFok:  IExCor=  205 AccDes= 0.00D+00 IRadAn=         5 IDoV=-2 UseB2=F ITyADJ=14
 ICtDFT= 12500011 ScaDFX=  1.000000  1.000000  1.000000  1.000000
 Largest valence mixing into a core orbital is  5.41D-05
 Largest core mixing into a valence orbital is  7.26D-06
 Range of M.O.s used for correlation:     3    74
 NBasis=    74 NAE=     8 NBE=     8 NFC=     2 NFV=     0
 NROrb=     72 NOA=     6 NOB=     6 NVA=    66 NVB=    66
 Leave Link  801 at Mon Apr 11 03:06:16 2022, MaxMem=  3355443200 cpu:               1.7 elap:               0.3
 (Enter /opt/software/gaussian/16/g16/l914.exe)
 RHF ground state
 Keep R1, R2, and R3 ints in memory in symmetry-blocked form, NReq=18853668.
 FoFCou: FMM=F IPFlag=           0 FMFlag=           0 FMFlg1=           0
         NFxFlg=           0 DoJE=F BraDBF=F KetDBF=F FulRan=T
         wScrn=  0.000000 ICntrl=       600 IOpCl=  0 I1Cent=           0 NGrid=           0
         NMat0=    1 NMatS0=   2775 NMatT0=    0 NMatD0=    1 NMtDS0=    0 NMtDT0=    0
 Petite list used in FoFCou.
 MDV=  3355443200 DFT=T DoStab=F Mixed=T DoRPA=T DoScal=F NonHer=T
 Making orbital integer symmetry assigments:
 Orbital symmetries:
       Occupied  (A1) (A1) (A1) (A1) (B1) (A1) (B2) (B1)
       Virtual   (B2) (A1) (A1) (B1) (A1) (B2) (B1) (A1) (A1) (B1)
                 (A1) (B2) (A2) (B1) (A1) (B2) (A1) (B1) (A1) (A1)
                 (B2) (A2) (A1) (B1) (B1) (A1) (B2) (B2) (A2) (A1)
                 (B1) (A1) (B1) (A1) (B1) (A1) (B2) (A2) (A1) (B2)
                 (A1) (B1) (B2) (B1) (A2) (A1) (B2) (A1) (B1) (B1)
                 (A1) (A1) (B2) (B1) (A2) (A1) (B2) (B1) (A2) (A1)
                 (A1) (B2) (B1) (A1) (A1) (A1)
    20 initial guesses have been made.
 Convergence on wavefunction:    0.001000000000000
 Davidson Disk Diagonalization:  ConvIn= 1.00D-03 SkipCon=T Conv= 1.00D-03.
 Max sub-space:  2000 roots to seek:    20 dimension of matrix:          792
 Iteration     1 Dimension    20 NMult     0 NNew     20
 CISAX will form    20 AO SS matrices at one time.
 NMat=    20 NSing=    20 JSym2X=-1.
 New state      3 was old state      4
 New state      4 was old state      6
 Excitation Energies [eV] at current iteration:
 Root      1 :     4.093658311339761
 Root      2 :     8.339462894064003
 Root      3 :     9.354728915347126
 Root      4 :     9.534058036274892
 Root      5 :    10.152922466183080
 Root      6 :    10.475206366421500
 Root      7 :    11.308684903346470
 Root      8 :    11.872808544334000
 Root      9 :    11.903877707367740
 Root     10 :    12.317163478214240
 Root     11 :    13.078786736668790
 Root     12 :    13.451952778305430
 Root     13 :    13.686196452596740
 Root     14 :    14.499761692925180
 Root     15 :    14.529806140399210
 Root     16 :    15.137611515540670
 Root     17 :    15.378367126603810
 Root     18 :    15.536741427057600
 Root     19 :    15.821936351997510
 Root     20 :    16.453452251876920
 Iteration     2 Dimension    30 NMult    20 NNew     10
 CISAX will form    10 AO SS matrices at one time.
 NMat=    10 NSing=    10 JSym2X=-1.
 Root      1 not converged, maximum delta is    0.022251463863563
 Root      2 not converged, maximum delta is    0.017118760308964
 New state      3 was old state      4
 Root      3 not converged, maximum delta is    0.048284610552276
 New state      4 was old state      3
 Root      4 not converged, maximum delta is    0.021601152754151
 Root      5 not converged, maximum delta is    0.182993162992775
 Excitation Energies [eV] at current iteration:
 Root      1 :     4.023275335389247   Change is   -0.070382975950514
 Root      2 :     8.285242245264225   Change is   -0.054220648799777
 Root      3 :     9.266993332657737   Change is   -0.267064703617155
 Root      4 :     9.278245866593284   Change is   -0.076483048753842
 Root      5 :     9.720702152680923   Change is   -0.432220313502160
 Iteration     3 Dimension    40 NMult    30 NNew     10
 CISAX will form    10 AO SS matrices at one time.
 NMat=    10 NSing=    10 JSym2X=-1.
 Root      1 not converged, maximum delta is    0.001874457204421
 Root      2 not converged, maximum delta is    0.001955227321765
 Root      3 not converged, maximum delta is    0.007826710551716
 Root      4 not converged, maximum delta is    0.003449779107003
 Root      5 not converged, maximum delta is    0.112291279035322
 Excitation Energies [eV] at current iteration:
 Root      1 :     4.022836500494446   Change is   -0.000438834894801
 Root      2 :     8.284399351425163   Change is   -0.000842893839061
 Root      3 :     9.262157160135688   Change is   -0.004836172522049
 Root      4 :     9.276918628003576   Change is   -0.001327238589706
 Root      5 :     9.599081042041174   Change is   -0.121621110639749
 Iteration     4 Dimension    50 NMult    40 NNew     10
 CISAX will form    10 AO SS matrices at one time.
 NMat=    10 NSing=    10 JSym2X=-1.
 Root      1 has converged.
 Root      2 has converged.
 Root      3 has converged.
 Root      4 has converged.
 Root      5 not converged, maximum delta is    0.016987542174384
 Excitation Energies [eV] at current iteration:
 Root      1 :     4.022835136820572   Change is   -0.000001363673874
 Root      2 :     8.284378379847768   Change is   -0.000020971577396
 Root      3 :     9.262039346567470   Change is   -0.000117813568219
 Root      4 :     9.276886711191345   Change is   -0.000031916812232
 Root      5 :     9.586713107935260   Change is   -0.012367934105913
 Iteration     5 Dimension    52 NMult    50 NNew      2
 CISAX will form     2 AO SS matrices at one time.
 NMat=     2 NSing=     2 JSym2X=-1.
 Root      1 has converged.
 Root      2 has converged.
 Root      3 has converged.
 Root      4 has converged.
 Root      5 not converged, maximum delta is    0.002962533225564
 Excitation Energies [eV] at current iteration:
 Root      1 :     4.022835136820532   Change is   -0.000000000000041
 Root      2 :     8.284378379847837   Change is    0.000000000000069
 Root      3 :     9.262039346567416   Change is   -0.000000000000054
 Root      4 :     9.276886711191372   Change is    0.000000000000026
 Root      5 :     9.586232322372251   Change is   -0.000480785563010
 Iteration     6 Dimension    54 NMult    52 NNew      2
 CISAX will form     2 AO SS matrices at one time.
 NMat=     2 NSing=     2 JSym2X=-1.
 Root      1 has converged.
 Root      2 has converged.
 Root      3 has converged.
 Root      4 has converged.
 Root      5 has converged.
 Excitation Energies [eV] at current iteration:
 Root      1 :     4.022835136820572   Change is    0.000000000000041
 Root      2 :     8.284378379847807   Change is   -0.000000000000030
 Root      3 :     9.262039346567416   Change is    0.000000000000000
 Root      4 :     9.276886711191407   Change is    0.000000000000036
 Root      5 :     9.586220417495971   Change is   -0.000011904876281
 Convergence achieved on expansion vectors.
 ***********************************************************************
 Excited states from <AA,BB:AA,BB> singles matrix:
 ***********************************************************************
 
 1PDM for each excited state written to RWF  633
 Ground to excited state transition densities written to RWF  633
 Ground to excited state transition electric dipole moments (Au):
       state          X           Y           Z        Dip. S.      Osc.
         1         0.0000      0.0000     -0.0000      0.0000      0.0000
         2        -0.6695      0.0000      0.0000      0.4482      0.0910
         3         0.0000      0.0317      0.0000      0.0010      0.0002
         4         0.4828     -0.0000      0.0000      0.2331      0.0530
         5         0.0000      0.0000      0.2038      0.0415      0.0098
 Ground to excited state transition velocity dipole moments (Au):
       state          X           Y           Z        Dip. S.      Osc.
         1        -0.0000     -0.0000      0.0000      0.0000      0.0000
         2         0.1887     -0.0000      0.0000      0.0356      0.0780
         3        -0.0000     -0.0199     -0.0000      0.0004      0.0008
         4        -0.1788      0.0000     -0.0000      0.0320      0.0625
         5         0.0000     -0.0000     -0.0686      0.0047      0.0089
 Ground to excited state transition magnetic dipole moments (Au):
       state          X           Y           Z
         1         0.0000      0.0000     -1.2365
         2        -0.0000     -0.9826     -0.0000
         3         1.5399     -0.0000     -0.0000
         4        -0.0000     -0.8760     -0.0000
         5         0.0000      0.0000     -0.0000
 Ground to excited state transition velocity quadrupole moments (Au):
       state          XX          YY          ZZ          XY          XZ          YZ
         1        -0.0000      0.0000     -0.0000     -0.0821      0.0000     -0.0000
         2        -0.0000     -0.0000     -0.0000     -0.0000     -0.7434      0.0000
         3        -0.0000     -0.0000     -0.0000      0.0000      0.0000     -0.3243
         4         0.0000     -0.0000      0.0000     -0.0000      0.1854      0.0000
         5        -0.2989      0.1719     -0.4569     -0.0000     -0.0000     -0.0000
 <0|del|b> * <b|rxdel|0> + <0|del|b> * <b|delr+rdel|0>
 Rotatory Strengths (R) in cgs (10**-40 erg-esu-cm/Gauss)
       state          XX          YY          ZZ    R(velocity)    E-M Angle
         1        -0.0000     -0.0000     -0.0000     -0.0000       90.00
         2         0.0000     -0.0000     -0.0000     -0.0000       90.00
         3         0.0000     -0.0000     -0.0000     -0.0000       90.00
         4        -0.0000      0.0000      0.0000      0.0000       90.00
         5         0.0000     -0.0000      0.0000      0.0000       90.00
 1/2[<0|r|b>*<b|rxdel|0> + (<0|rxdel|b>*<b|r|0>)*]
 Rotatory Strengths (R) in cgs (10**-40 erg-esu-cm/Gauss)
       state          XX          YY          ZZ     R(length)
         1        -0.0000     -0.0000     -0.0000     -0.0000
         2        -0.0000      0.0000      0.0000     -0.0000
         3        -0.0000      0.0000      0.0000     -0.0000
         4         0.0000     -0.0000      0.0000      0.0000
         5        -0.0000     -0.0000      0.0000      0.0000
  1/2[<0|del|b>*<b|r|0> + (<0|r|b>*<b|del|0>)*] (Au)
       state          X           Y           Z        Dip. S.   Osc.(frdel)
         1        -0.0000     -0.0000     -0.0000      0.0000      0.0000
         2        -0.1263     -0.0000      0.0000      0.1263      0.0842
         3        -0.0000     -0.0006     -0.0000      0.0006      0.0004
         4        -0.0863     -0.0000     -0.0000      0.0863      0.0576
         5         0.0000     -0.0000     -0.0140      0.0140      0.0093

 Excitation energies and oscillator strengths:
 
 Excited State   1:      Singlet-A2     4.0228 eV  308.20 nm  f=0.0000  <S**2>=0.000
       8 ->  9         0.70431
 This state for optimization and/or second-order correction.
 Total Energy, E(TD-HF/TD-DFT) =  -114.356022450    
 Copying the excited state density for this state as the 1-particle RhoCI density.
 
 Excited State   2:      Singlet-B1     8.2844 eV  149.66 nm  f=0.0910  <S**2>=0.000
       8 -> 10         0.68841
       8 -> 11         0.15371
 
 Excited State   3:      Singlet-B2     9.2620 eV  133.86 nm  f=0.0002  <S**2>=0.000
       6 ->  9         0.70327
 
 Excited State   4:      Singlet-B1     9.2769 eV  133.65 nm  f=0.0530  <S**2>=0.000
       8 -> 10        -0.15380
       8 -> 11         0.68853
 
 Excited State   5:      Singlet-A1     9.5862 eV  129.34 nm  f=0.0098  <S**2>=0.000
       7 ->  9         0.55134
       8 -> 12         0.42702
 SavETr:  write IOETrn=   770 NScale= 10 NData=  16 NLR=1 NState=    5 LETran=     100.
 Leave Link  914 at Mon Apr 11 03:06:22 2022, MaxMem=  3355443200 cpu:              39.1 elap:               5.8
 (Enter /opt/software/gaussian/16/g16/l601.exe)
 Copying SCF densities to generalized density rwf, IOpCl= 0 IROHF=0.

 **********************************************************************

            Population analysis using the SCF Density.

 **********************************************************************

 Orbital symmetries:
       Occupied  (A1) (A1) (A1) (A1) (B1) (A1) (B2) (B1)
       Virtual   (B2) (A1) (A1) (B1) (A1) (B2) (B1) (A1) (A1) (B1)
                 (A1) (B2) (A2) (B1) (A1) (B2) (A1) (B1) (A1) (A1)
                 (B2) (A2) (A1) (B1) (B1) (A1) (B2) (B2) (A2) (A1)
                 (B1) (A1) (B1) (A1) (B1) (A1) (B2) (A2) (A1) (B2)
                 (A1) (B1) (B2) (B1) (A2) (A1) (B2) (A1) (B1) (B1)
                 (A1) (A1) (B2) (B1) (A2) (A1) (B2) (B1) (A2) (A1)
                 (A1) (B2) (B1) (A1) (A1) (A1)
 The electronic state is 1-A1.
 Alpha  occ. eigenvalues --  -19.22017 -10.34809  -1.15308  -0.71629  -0.57728
 Alpha  occ. eigenvalues --   -0.53070  -0.47843  -0.34208
 Alpha virt. eigenvalues --   -0.00054   0.09516   0.14735   0.15260   0.24476
 Alpha virt. eigenvalues --    0.25090   0.30006   0.44208   0.46982   0.49582
 Alpha virt. eigenvalues --    0.55171   0.55423   0.63905   0.65146   0.76503
 Alpha virt. eigenvalues --    0.85535   0.87705   1.00990   1.13668   1.36675
 Alpha virt. eigenvalues --    1.41935   1.50885   1.51890   1.55174   1.65142
 Alpha virt. eigenvalues --    1.71206   1.83370   1.96914   2.03895   2.04444
 Alpha virt. eigenvalues --    2.10854   2.23609   2.34894   2.48460   2.57007
 Alpha virt. eigenvalues --    2.61449   2.65387   2.94447   2.95519   3.01971
 Alpha virt. eigenvalues --    3.04302   3.07343   3.11924   3.22168   3.22922
 Alpha virt. eigenvalues --    3.31270   3.62952   3.77157   3.78711   4.02717
 Alpha virt. eigenvalues --    4.10763   4.45701   5.22783   5.23958   5.56591
 Alpha virt. eigenvalues --    5.71328   6.12448   6.31386   6.36254   6.37958
 Alpha virt. eigenvalues --    6.42759   6.81188   6.85064   7.08515  22.43986
 Alpha virt. eigenvalues --   43.53713
          Condensed to atoms (all electrons):
               1          2          3          4
     1  C    4.586862   0.381316   0.381316   0.602458
     2  H    0.381316   0.714227  -0.116642  -0.069113
     3  H    0.381316  -0.116642   0.714227  -0.069113
     4  O    0.602458  -0.069113  -0.069113   7.764238
 Mulliken charges:
               1
     1  C    0.048047
     2  H    0.090212
     3  H    0.090212
     4  O   -0.228471
 Sum of Mulliken charges =  -0.00000
 Mulliken charges with hydrogens summed into heavy atoms:
               1
     1  C    0.228471
     4  O   -0.228471
 Electronic spatial extent (au):  <R**2>=             60.3414
 Charge=             -0.0000 electrons
 Dipole moment (field-independent basis, Debye):
    X=              0.0000    Y=              0.0000    Z=             -2.4010  Tot=              2.4010
 Quadrupole moment (field-independent basis, Debye-Ang):
   XX=            -11.6742   YY=            -11.7198   ZZ=            -12.2999
   XY=             -0.0000   XZ=             -0.0000   YZ=             -0.0000
 Traceless Quadrupole moment (field-independent basis, Debye-Ang):
   XX=              0.2237   YY=              0.1782   ZZ=             -0.4019
   XY=             -0.0000   XZ=             -0.0000   YZ=             -0.0000
 Octapole moment (field-independent basis, Debye-Ang**2):
  XXX=              0.0000  YYY=             -0.0000  ZZZ=              0.7131  XYY=             -0.0000
  XXY=             -0.0000  XXZ=             -0.3383  XZZ=              0.0000  YZZ=             -0.0000
  YYZ=              0.7153  XYZ=              0.0000
 Hexadecapole moment (field-independent basis, Debye-Ang**3):
 XXXX=            -19.0920 YYYY=            -10.5782 ZZZZ=            -46.1400 XXXY=              0.0000
 XXXZ=              0.0000 YYYX=              0.0000 YYYZ=              0.0000 ZZZX=             -0.0000
 ZZZY=              0.0000 XXYY=             -5.2347 XXZZ=            -10.5559 YYZZ=             -9.3770
 XXYZ=              0.0000 YYXZ=              0.0000 ZZXY=              0.0000
 N-N= 3.149315175677D+01 E-N=-3.319843331211D+02  KE= 1.140724231972D+02
 Symmetry A1   KE= 1.036017544243D+02
 Symmetry A2   KE= 2.584061171736D-32
 Symmetry B1   KE= 6.786859526902D+00
 Symmetry B2   KE= 3.683809246000D+00
 Leave Link  601 at Mon Apr 11 03:06:23 2022, MaxMem=  3355443200 cpu:               5.4 elap:               0.9
 (Enter /opt/software/gaussian/16/g16/l9999.exe)
 Electronic transition elements 
                 1             2             3             4             5 
      1  -0.114356D+03 -0.114199D+03 -0.114163D+03 -0.114163D+03 -0.114152D+03
      2   0.000000D+00  0.000000D+00  0.000000D+00  0.000000D+00 -0.203801D+00
      3   0.000000D+00  0.000000D+00  0.317024D-01  0.000000D+00  0.253882D-05
      4   0.000000D+00 -0.669478D+00  0.000000D+00  0.482799D+00  0.000000D+00
      5   0.000000D+00  0.000000D+00  0.000000D+00  0.000000D+00  0.686050D-01
      6   0.000000D+00  0.000000D+00 -0.199084D-01  0.000000D+00  0.000000D+00
      7   0.000000D+00  0.188727D+00  0.000000D+00 -0.178828D+00  0.000000D+00
      8   0.123650D+01 -0.122400D-04  0.000000D+00 -0.109124D-04  0.000000D+00
      9  -0.154036D-04 -0.982553D+00  0.000000D+00 -0.875978D+00  0.000000D+00
     10   0.000000D+00  0.000000D+00  0.153990D+01  0.000000D+00  0.000000D+00
     11   0.000000D+00  0.000000D+00  0.807997D-05  0.000000D+00 -0.456872D+00
     12   0.000000D+00  0.000000D+00 -0.807997D-05  0.000000D+00  0.171854D+00
     13   0.000000D+00  0.000000D+00  0.000000D+00  0.000000D+00 -0.298858D+00
     14   0.000000D+00  0.000000D+00  0.324305D+00  0.000000D+00  0.783227D-05
     15  -0.102290D-05  0.743387D+00  0.000000D+00 -0.185428D+00  0.000000D+00
     16  -0.821123D-01 -0.926064D-05  0.000000D+00  0.230994D-05  0.000000D+00
 1\1\GINC-CPU006\SP\RCAM-B3LYP TD-FC\def2TZVP\C1H2O1\BJB2CHEN\11-Apr-20
 22\0\\#p td=(nstates=5) cam-b3lyp/def2tzvp scrf=check\\Molecule 5 exci
 ted states def2tzvp\\0,1\C,0,-0.109673,-0.283017,0.\H,0,0.474566,-0.28
 3024,0.938499\H,0,0.474566,-0.283024,-0.938499\O,0,-1.304552,-0.283002
 ,0.\\Version=ES64L-G16RevB.01\State=1-A1\HF=-114.5038589\RMSD=7.954e-0
 9\PG=C02V [C2(C1O1),SGV'(H2)]\\@


 IF YOU DON'T HAVE THE LAW - ARGUE THE FACTS.
 IF YOU DON'T HAVE THE FACTS - ARGUE THE LAW.
 IF YOU DON'T HAVE EITHER - POUND THE TABLE.
 Job cpu time:       0 days  0 hours  2 minutes 32.1 seconds.
 Elapsed time:       0 days  0 hours  0 minutes 24.7 seconds.
 File lengths (MBytes):  RWF=    150 Int=      0 D2E=      0 Chk=      3 Scr=      2
 Normal termination of Gaussian 16 at Mon Apr 11 03:06:23 2022.
