----- GAMESS execution script 'rungms' -----
This job is running on host io001
under operating system Linux at Sat 25 Nov 2023 11:42:31 PM EST
Available scratch disk space (Kbyte units) at beginning of the job is
Filesystem             1K-blocks       Used Available Use% Mounted on
helmholtz.nlogn:/home 6391504896 5219977216 849388544  87% /home
GAMESS temporary binary files will be written to /home/bjb2chen/gmsscr/
GAMESS supplementary output files will be written to /home/bjb2chen/gamess/vibronics/Toby_automate/ph3/python
Copying input file ph3_cct_gmcpt_D3h_3st_diab_mode1_+0.05x2.inp to your run's scratch directory...
cp ph3_cct_gmcpt_D3h_3st_diab_mode1_+0.05x2.inp /home/bjb2chen/gmsscr//ph3_cct_gmcpt_D3h_3st_diab_mode1_+0.05x2.F05
unset echo
 
Assuming a single but multicore node.
 
/home/bjb2chen/gamess/ddikick.x /home/bjb2chen/gamess/gamess.00.x ph3_cct_gmcpt_D3h_3st_diab_mode1_+0.05x2 -ddi 1 2 io001:cpus=2 -scr /home/bjb2chen/gmsscr/

 Distributed Data Interface kickoff program.
 Initiating 2 compute processes on 1 nodes to run the following command:
 /home/bjb2chen/gamess/gamess.00.x ph3_cct_gmcpt_D3h_3st_diab_mode1_+0.05x2 

          ******************************************************
          *         GAMESS VERSION = 02 AUG 2018 (R2)         *
          *             FROM IOWA STATE UNIVERSITY             *
          * M.W.SCHMIDT, K.K.BALDRIDGE, J.A.BOATZ, S.T.ELBERT, *
          *   M.S.GORDON, J.H.JENSEN, S.KOSEKI, N.MATSUNAGA,   *
          *          K.A.NGUYEN, S.J.SU, T.L.WINDUS,           *
          *       TOGETHER WITH M.DUPUIS, J.A.MONTGOMERY       *
          *         J.COMPUT.CHEM.  14, 1347-1363(1993)        *
          **************** 64 BIT LINUX VERSION ****************

  SINCE 1993, STUDENTS AND POSTDOCS WORKING AT IOWA STATE UNIVERSITY
  AND ALSO IN THEIR VARIOUS JOBS AFTER LEAVING ISU HAVE MADE IMPORTANT
  CONTRIBUTIONS TO THE CODE:
     IVANA ADAMOVIC, CHRISTINE AIKENS, YURI ALEXEEV, POOJA ARORA,
     ANDREY ASADCHEV, ROB BELL, PRADIPTA BANDYOPADHYAY, JONATHAN BENTZ,
     BRETT BODE, KURT BRORSEN, CALEB CARLIN, GALINA CHABAN, WEI CHEN,
     CHEOL HO CHOI, PAUL DAY, ALBERT DEFUSCO, NUWAN DESILVA, TIM DUDLEY,
     DMITRI FEDOROV, ALEX FINDLATER, GRAHAM FLETCHER, MARK FREITAG,
     KURT GLAESEMANN, ANASTASIA GUININA,
     DAN KEMP, GRANT MERRILL, NORIYUKI MINEZAWA, JONATHAN MULLIN,
     TAKESHI NAGATA, SEAN NEDD, HEATHER NETZLOFF, BOSILJKA NJEGIC, RYAN OLSON,
     MIKE PAK, BUU PHAM,
     SPENCER PRUITT, LUKE ROSKOP, JIM SHOEMAKER, LYUDMILA SLIPCHENKO,
     TONY SMITH, SAROM SOK LEANG, JIE SONG, TETSUYA TAKETSUGU, SIMON WEBB,
     PENG XU, SOOHAENG YOO, FEDERICO ZAHARIEV

  ADDITIONAL CODE HAS BEEN PROVIDED BY COLLABORATORS IN OTHER GROUPS:
     IOWA STATE UNIVERSITY:
          JOE IVANIC, AARON WEST, LAIMUTIS BYTAUTAS, KLAUS RUEDENBERG
     UNIVERSITY OF TOKYO: KIMIHIKO HIRAO, TAKAHITO NAKAJIMA,
          TAKAO TSUNEDA, MUNEAKI KAMIYA, SUSUMU YANAGISAWA,
          KIYOSHI YAGI, MAHITO CHIBA, SEIKEN TOKURA, NAOAKI KAWAKAMI
     UNIVERSITY OF AARHUS: FRANK JENSEN
     UNIVERSITY OF IOWA: VISVALDAS KAIRYS, HUI LI
     NATIONAL INST. OF STANDARDS AND TECHNOLOGY: WALT STEVENS, DAVID GARMER
     UNIVERSITY OF PISA: BENEDETTA MENNUCCI, JACOPO TOMASI
     UNIVERSITY OF MEMPHIS: HENRY KURTZ, PRAKASHAN KORAMBATH
     UNIVERSITY OF ALBERTA: TOBY ZENG, MARIUSZ KLOBUKOWSKI
     UNIVERSITY OF NEW ENGLAND: MARK SPACKMAN
     MIE UNIVERSITY: HIROAKI UMEDA
     NAT. INST. OF ADVANCED INDUSTRIAL SCIENCE AND TECHNOLOGY: KAZUO KITAURA
     MICHIGAN STATE UNIVERSITY:
          KAROL KOWALSKI, MARTA WLOCH, JEFFREY GOUR, JESSE LUTZ,
          WEI LI, JUN SHEN, J. EMILIANO DEUSTUA, PIOTR PIECUCH
     UNIVERSITY OF MINNESOTA:
          YINAN SHU
     UNIVERSITY OF SILESIA: MONIKA MUSIAL, STANISLAW KUCHARSKI
     FACULTES UNIVERSITAIRES NOTRE-DAME DE LA PAIX:
          OLIVIER QUINET, BENOIT CHAMPAGNE
     UNIVERSITY OF CALIFORNIA - SANTA BARBARA: BERNARD KIRTMAN
     INSTITUTE FOR MOLECULAR SCIENCE:
          KAZUYA ISHIMURA, MICHIO KATOUDA, AND SHIGERU NAGASE
     UNIVERSITY OF NOTRE DAME: ANNA POMOGAEVA, DAN CHIPMAN
     KYUSHU UNIVERSITY:
          HARUYUKI NAKANO,
          FENG LONG GU, JACEK KORCHOWIEC, MARCIN MAKOWSKI, AND YURIKO AOKI,
          HIROTOSHI MORI AND EISAKU MIYOSHI
     PENNSYLVANIA STATE UNIVERSITY:
          TZVETELIN IORDANOV, CHET SWALINA, JONATHAN SKONE,
          SHARON HAMMES-SCHIFFER
     WASEDA UNIVERSITY:
          MASATO KOBAYASHI, TOMOKO AKAMA, TSUGUKI TOUMA,
          TAKESHI YOSHIKAWA, YASUHIRO IKABATA, JUNJI SEINO,
          YUYA NAKAJIMA, HIROMI NAKAI
     NANJING UNIVERSITY: SHUHUA LI
     UNIVERSITY OF NEBRASKA:
          PEIFENG SU, DEJUN SI, NANDUN THELLAMUREGE, YALI WANG, HUI LI
     UNIVERSITY OF ZURICH: ROBERTO PEVERATI, KIM BALDRIDGE
     N. COPERNICUS UNIVERSITY AND JACKSON STATE UNIVERSITY:
          MARIA BARYSZ
     UNIVERSITY OF COPENHAGEN: Jimmy Kromann, CASPER STEINMANN
     TOKYO INSTITUTE OF TECHNOLOGY: HIROYA NAKATA
     NAGOYA UNIVERSITY: YOSHIO NISHIMOTO, STEPHAN IRLE
     MOSCOW STATE UNIVERSITY: VLADIMIR MIRONOV


 PARALLEL VERSION RUNNING ON        2 PROCESSORS IN        1 NODES.

 EXECUTION OF GAMESS BEGUN Sat Nov 25 23:42:31 2023

            ECHO OF THE FIRST FEW INPUT CARDS -
 INPUT CARD> !Step 2: single point gmcpt calculation averaging 3 states                     
 INPUT CARD> !        for PH3+ at PH3 structure.                                            
 INPUT CARD> $system kdiag=3 mwords=100 memddi=1000 parall=.t. $end                         
 INPUT CARD> $contrl runtyp=energy ispher=1 $end                                            
 INPUT CARD> $contrl icut=9 itol=20 inttyp=rysquad qmttol=1.0d-05 nosym=1 $end              
 INPUT CARD> $scf    npunch=2 conv=1.0d-06 dirscf=.t.      $end                             
 INPUT CARD> $contrl scftyp=mcscf  mult=2 maxit=200 icharg=1 mplevl=2 $end                  
 INPUT CARD> $guess  guess=moread norb=81 purify=.t. $end                                   
 INPUT CARD> $basis  gbasis=cct $end                                                        
 INPUT CARD> $mcscf  cistep=gmcci fullnr=.t. finci=mos                                      
 INPUT CARD>         acurcy=1.d-6 maxit=100 $end                                            
 INPUT CARD> $trans  dirtrf=.t. $end                                                        
 INPUT CARD> $mrmp   mrpt=gmcpt rdvecs=.f. $end                                             
 INPUT CARD> $gmcpt  nmofzc=1 nmodoc=4 nmoact=7 nelact=7 stsym(1)=A                         
 INPUT CARD>         reftyp=ormas nspace=1 mstart(1)=6 mine(1)=7 maxe(1)=7                  
 INPUT CARD>         kstate(1)=1,1,1                                                        
 INPUT CARD>         wstate(1)=1,1,1                                                        
 INPUT CARD>         iwgt=0 thrwgt=-1.0 krot=.f. kszdoe=.f. knospn=.f.                      
 INPUT CARD>         thrde=-1.0 edshft=0.02 $end                                            
 INPUT CARD> --- Semi-canonical MOs --- generated at Wed Oct 25 14:28:45 2023               
 INPUT CARD> $VEC                                                                           
 INPUT CARD> 1  1 1.00014026E+00 2.12288233E-04 2.35259310E-04-9.69987525E-04-1.56061240E-04
 INPUT CARD> 1  2 2.24704850E-11 1.08104557E-11 0.00000000E+00 5.27654619E-11 2.51315613E-11
 INPUT CARD> 1  3 0.00000000E+00 0.00000000E+00 0.00000000E+00 0.00000000E+00 4.84975230E-11
 INPUT CARD> 1  4 0.00000000E+00 0.00000000E+00 5.97478244E-06 5.97478789E-06-1.19495703E-05
 INPUT CARD> 1  5 0.00000000E+00 0.00000000E+00 0.00000000E+00 1.39699393E-05 1.39699024E-05
 INPUT CARD> 1  6-2.79398417E-05-1.35074126E-11 0.00000000E+00 0.00000000E+00 1.67531508E-05
 INPUT CARD> 1  7 0.00000000E+00 0.00000000E+00 0.00000000E+00 0.00000000E+00-2.24766870E-05
 INPUT CARD> 1  8 0.00000000E+00-2.30057367E-11 0.00000000E+00 0.00000000E+00-1.16832778E-06
 INPUT CARD> 1  9-1.16830452E-06 2.33663231E-06 0.00000000E+00 0.00000000E+00 0.00000000E+00
 INPUT CARD> 1 10 5.17768380E-06-4.27232609E-05 3.09734201E-05 1.40215208E-06-2.42859932E-06
 INPUT CARD> 1 11 0.00000000E+00-1.09877526E-05 1.90313097E-05 0.00000000E+00-9.67969422E-07
 INPUT CARD> 1 12 5.86741647E-06-4.89944705E-06-6.83538926E-06 0.00000000E+00 0.00000000E+00
 INPUT CARD> 1 13 5.17767961E-06-4.27232159E-05 3.09734322E-05 1.40215234E-06 2.42859905E-06
 INPUT CARD> 1 14 0.00000000E+00-1.09877418E-05-1.90312875E-05 0.00000000E+00-9.67970307E-07
 INPUT CARD> 1 15 5.86741940E-06-4.89944909E-06 6.83539284E-06 0.00000000E+00 0.00000000E+00
 INPUT CARD> 1 16 5.17766201E-06-4.27232844E-05 3.09734099E-05-2.80427679E-06 0.00000000E+00
 INPUT CARD> 1 17 0.00000000E+00 2.19754740E-05 0.00000000E+00 0.00000000E+00 9.28508813E-06
 INPUT CARD> 1 18-4.38566624E-06-4.89942190E-06 0.00000000E+00 0.00000000E+00 0.00000000E+00
 INPUT CARD> 2  1-5.33920981E-04 9.53778939E-01-4.19196922E-03 6.30276435E-02 2.61399638E-03
 INPUT CARD> 2  2 6.28974787E-11 9.96812470E-11-0.00000000E+00 1.02891712E-10 2.05126344E-10
 INPUT CARD> 2  3-0.00000000E+00-0.00000000E+00-2.38713249E-11-0.00000000E+00 6.64911093E-11
 INPUT CARD> 2  4 6.27034786E-11-0.00000000E+00 9.65793100E-05 9.65794243E-05-1.93158734E-04
 INPUT CARD> 2  5-2.69954090E-11-0.00000000E+00-0.00000000E+00-1.78396631E-04-1.78396545E-04
 INPUT CARD> 2  6 3.56793176E-04-1.04925850E-10-0.00000000E+00-0.00000000E+00 1.01826168E-04
 INPUT CARD> 2  7 2.20823880E-11-0.00000000E+00-0.00000000E+00-0.00000000E+00-1.36614181E-04
 INPUT CARD> 2  8-0.00000000E+00 4.29651361E-11-3.02789776E-11-0.00000000E+00 2.38139809E-04
 INPUT CARD> 2  9 2.38139912E-04-4.76279721E-04-0.00000000E+00-0.00000000E+00-0.00000000E+00
 INPUT CARD> 2 10-1.82868827E-04 1.39177203E-04-5.45492220E-04-2.22000393E-05 3.84515667E-05
 INPUT CARD> 2 11-0.00000000E+00 8.78319684E-05-1.52129428E-04-0.00000000E+00 2.62487215E-06
  100000000 WORDS OF MEMORY AVAILABLE

     BASIS OPTIONS
     -------------
     GBASIS=CCT          IGAUSS=       0      POLAR=NONE    
     NDFUNC=       0     NFFUNC=       0     DIFFSP=       F
     NPFUNC=       0      DIFFS=       F     BASNAM=        


     RUN TITLE
     ---------
  PH3+ 3 states calculation at PH3 structure.                                    

 THE POINT GROUP OF THE MOLECULE IS C1      
 THE ORDER OF THE PRINCIPAL AXIS IS     0

 ATOM      ATOMIC                      COORDINATES (BOHR)
           CHARGE         X                   Y                   Z
 P          15.0     0.0000000000        0.0000000000       -0.0017704210
 H           1.0    -1.2973917212        2.2471483786        0.0181371343
 H           1.0    -1.2973917212       -2.2471483786        0.0181371343
 H           1.0     2.5947834425        0.0000000000        0.0181371327

          INTERNUCLEAR DISTANCES (ANGS.)
          ------------------------------

                1 P          2 H          3 H          4 H     

   1 P       0.0000000    1.3731408 *  1.3731408 *  1.3731408 *
   2 H       1.3731408 *  0.0000000    2.3782796 *  2.3782796 *
   3 H       1.3731408 *  2.3782796 *  0.0000000    2.3782796 *
   4 H       1.3731408 *  2.3782796 *  2.3782796 *  0.0000000  

  * ... LESS THAN  3.000


     ATOMIC BASIS SET
     ----------------
 THE CONTRACTED PRIMITIVE FUNCTIONS HAVE BEEN UNNORMALIZED
 THE CONTRACTED BASIS FUNCTIONS ARE NOW NORMALIZED TO UNITY

  SHELL TYPE  PRIMITIVE        EXPONENT          CONTRACTION COEFFICIENT(S)

 P         

      1   S       1        312400.0000000    0.000057689641
      1   S       2         46800.0000000    0.000448246591
      1   S       3         10650.0000000    0.002349131061
      1   S       4          3018.0000000    0.009781571802
      1   S       5           986.8000000    0.034142936511
      1   S       6           357.4000000    0.100192955985
      1   S       7           139.6000000    0.234346168617
      1   S       8            57.6300000    0.382391849918
      1   S       9            24.6000000    0.318052941833
      1   S      10            10.1200000    0.070770999093
      1   S      11             4.2830000   -0.001817789630
      1   S      12             1.8050000    0.002161561737
      1   S      13             0.2782000    0.000432249354

      2   S      14        312400.0000000   -0.000016380204
      2   S      15         46800.0000000   -0.000127233535
      2   S      16         10650.0000000   -0.000668625166
      2   S      17          3018.0000000   -0.002795303744
      2   S      18           986.8000000   -0.009928227435
      2   S      19           357.4000000   -0.030244566456
      2   S      20           139.6000000   -0.077884705328
      2   S      21            57.6300000   -0.156724571545
      2   S      22            24.6000000   -0.198042753651
      2   S      23            10.1200000    0.037971251521
      2   S      24             4.2830000    0.552751544147
      2   S      25             1.8050000    0.542611452452
      2   S      26             0.2782000   -0.009675942874

      3   S      27        312400.0000000    0.000006865735
      3   S      28         46800.0000000    0.000053281983
      3   S      29         10650.0000000    0.000280421002
      3   S      30          3018.0000000    0.001170789768
      3   S      31           986.8000000    0.004173591138
      3   S      32           357.4000000    0.012720496749
      3   S      33           139.6000000    0.033152766352
      3   S      34            57.6300000    0.067671246836
      3   S      35            24.6000000    0.089831018862
      3   S      36            10.1200000   -0.020305232360
      3   S      37             4.2830000   -0.313280408979
      3   S      38             1.8050000   -0.563687905527
      3   S      39             0.2782000    1.117494073734

      4   S      40             0.6158000    1.000000000000

      5   S      41             0.1055000    1.000000000000

      6   P      42           504.9000000    0.002433660431
      6   P      43           119.4000000    0.019305559477
      6   P      44            37.9600000    0.088473106893
      6   P      45            13.9500000    0.254701981099
      6   P      46             5.4570000    0.440199242653
      6   P      47             2.1770000    0.383632006272
      6   P      48             0.2877000   -0.003946337074

      7   P      49           504.9000000   -0.000954298933
      7   P      50           119.4000000   -0.007664025747
      7   P      51            37.9600000   -0.035465925259
      7   P      52            13.9500000   -0.106164716437
      7   P      53             5.4570000   -0.187210586037
      7   P      54             2.1770000   -0.181495819791
      7   P      55             0.2877000    0.991672644618

      8   P      56             0.8010000    1.000000000000

      9   P      57             0.0971400    1.000000000000

     10   D      58             0.6480000    1.000000000000

     11   D      59             0.2180000    1.000000000000

     12   F      60             0.4520000    1.000000000000

     13   D      61             3.1200000    1.000000000000

 H         

     14   S      62            33.8700000    0.025494863235
     14   S      63             5.0950000    0.190362765893
     14   S      64             1.1590000    0.852162022245

     15   S      65             0.3258000    1.000000000000

     16   S      66             0.1027000    1.000000000000

     17   P      67             1.4070000    1.000000000000

     18   P      68             0.3880000    1.000000000000

     19   D      69             1.0570000    1.000000000000

 H         

     20   S      70            33.8700000    0.025494863235
     20   S      71             5.0950000    0.190362765893
     20   S      72             1.1590000    0.852162022245

     21   S      73             0.3258000    1.000000000000

     22   S      74             0.1027000    1.000000000000

     23   P      75             1.4070000    1.000000000000

     24   P      76             0.3880000    1.000000000000

     25   D      77             1.0570000    1.000000000000

 H         

     26   S      78            33.8700000    0.025494863235
     26   S      79             5.0950000    0.190362765893
     26   S      80             1.1590000    0.852162022245

     27   S      81             0.3258000    1.000000000000

     28   S      82             0.1027000    1.000000000000

     29   P      83             1.4070000    1.000000000000

     30   P      84             0.3880000    1.000000000000

     31   D      85             1.0570000    1.000000000000

 TOTAL NUMBER OF BASIS SET SHELLS             =   31
 NUMBER OF CARTESIAN GAUSSIAN BASIS FUNCTIONS =   90
 NOTE: THIS RUN WILL RESTRICT THE MO VARIATION SPACE TO SPHERICAL HARMONICS.
 THE NUMBER OF ORBITALS KEPT IN THE VARIATIONAL SPACE WILL BE PRINTED LATER.
 NUMBER OF ELECTRONS                          =   17
 CHARGE OF MOLECULE                           =    1
 SPIN MULTIPLICITY                            =    2
 NUMBER OF OCCUPIED ORBITALS (ALPHA)          =    9
 NUMBER OF OCCUPIED ORBITALS (BETA )          =    8
 TOTAL NUMBER OF ATOMS                        =    4
 THE NUCLEAR REPULSION ENERGY IS       18.0094900059

     $CONTRL OPTIONS
     ---------------
 SCFTYP=MCSCF        RUNTYP=ENERGY       EXETYP=RUN     
 MPLEVL=       2     CITYP =NONE         CCTYP =NONE         VBTYP =NONE    
 DFTTYP=NONE         TDDFT =NONE    
 MULT  =       2     ICHARG=       1     NZVAR =       0     COORD =UNIQUE  
 PP    =NONE         RELWFN=NONE         LOCAL =NONE         NUMGRD=       F
 ISPHER=       1     NOSYM =       1     MAXIT =     200     UNITS =ANGS    
 PLTORB=       F     MOLPLT=       F     AIMPAC=       F     FRIEND=        
 NPRINT=       7     IREST =       0     GEOM  =INPUT   
 NORMF =       0     NORMP =       0     ITOL  =      20     ICUT  =       9
 INTTYP=RYSQUAD      GRDTYP=BEST         QMTTOL= 1.0E-05

     $SYSTEM OPTIONS
     ---------------
  REPLICATED MEMORY=   100000000 WORDS (ON EVERY NODE).
 DISTRIBUTED MEMDDI=        1000 MILLION WORDS IN AGGREGATE,
 MEMDDI DISTRIBUTED OVER   2 PROCESSORS IS   500000000 WORDS/PROCESSOR.
 TOTAL MEMORY REQUESTED ON EACH PROCESSOR=   600000000 WORDS.
 TIMLIM=      525600.00 MINUTES, OR     365.0 DAYS.
 PARALL= T  BALTYP=  DLB     KDIAG=    3  COREFL= F
 MXSEQ2=     300 MXSEQ3=     150  mem10=         0

          ----------------
          PROPERTIES INPUT
          ----------------

     MOMENTS            FIELD           POTENTIAL          DENSITY
 IEMOM =       1   IEFLD =       0   IEPOT =       0   IEDEN =       0
 WHERE =COMASS     WHERE =NUCLEI     WHERE =NUCLEI     WHERE =NUCLEI  
 OUTPUT=BOTH       OUTPUT=BOTH       OUTPUT=BOTH       OUTPUT=BOTH    
 IEMINT=       0   IEFINT=       0                     IEDINT=       0
                                                       MORB  =       0

     -------------------------------
     INTEGRAL TRANSFORMATION OPTIONS
     -------------------------------
     NWORD  =            0
     CUTOFF = 1.0E-09     MPTRAN =       0
     DIRTRF =       T     AOINTS =DUP     

          ----------------------
          MCSCF INPUT PARAMETERS
          ----------------------
 CONVERGER SELECTION: FOCAS = F  SOSCF = F  FULLNR = T  QUD = F  JACOBI = F
 SECULAR EQUATION METHOD CISTEP = GMCCI   
 --- GENERAL INPUT OPTIONS:
 MAXIT =     100  MICIT =       1  ACURCY= 1.000E-06
 DAMP  =   0.000  CANONC=       T  ENGTOL= 1.000E-10
 EKT   =       F  NPUNCH=       2  NWORD =         0
 REGENERATE CI AFTER CONVERGENCE = NONE    
 DIABATIZATION AFTER CONVERGENCE =        F
 --- INPUT FOR FULLNR CONVERGER:
 METHOD=DM2       FORS  =       F  DROPC =       T
 LINSER=       F  FCORE =       F  NORB  =      90

          ----------------------
          INTEGRAL INPUT OPTIONS
          ----------------------
 NOPK  =       1 NORDER=       0 SCHWRZ=       T

 ------------------------------------------
 MULTIREFERENCE PERTURBATION THEORY CONTROL
 ------------------------------------------
 MRPT=GMCPT    READ CONVERGED MCSCF VECTORS= F


     ------------------------------------------
     THE POINT GROUP IS C1 , NAXIS= 1, ORDER= 1
     ------------------------------------------

 -- VARIATIONAL SPACE WILL BE RESTRICTED TO PURE SPHERICAL HARMONICS ONLY --
 AFTER EXCLUDING CONTAMINANT COMBINATIONS FROM THE CARTESIAN GAUSSIAN BASIS
 SET, THE NUMBER OF SPHERICAL HARMONICS KEPT IN THE VARIATION SPACE IS   81

     DIMENSIONS OF THE SYMMETRY SUBSPACES ARE
 A   =   81

 ..... DONE SETTING UP THE RUN .....
 CPU     0: STEP CPU TIME=     0.14 TOTAL CPU TIME=          0.1 (      0.0 MIN)
 TOTAL WALL CLOCK TIME=          0.4 SECONDS, CPU UTILIZATION IS    37.84%

          ********************
          1 ELECTRON INTEGRALS
          ********************
 TIME TO DO   DIPOLE INTEGRALS=      0.00
 ...... END OF ONE-ELECTRON INTEGRALS ......
 CPU     0: STEP CPU TIME=     0.00 TOTAL CPU TIME=          0.1 (      0.0 MIN)
 TOTAL WALL CLOCK TIME=          0.4 SECONDS, CPU UTILIZATION IS    36.84%

          -------------
          GUESS OPTIONS
          -------------
          GUESS =MOREAD            NORB  =      81          NORDER=       0
          MIX   =       F          PRTMO =       F          PUNMO =       F
          TOLZ  = 1.0E-08          TOLE  = 1.0E-05
          SYMDEN=       F          PURIFY=       T

 INITIAL GUESS ORBITALS GENERATED BY MOREAD   ROUTINE.

 STATISTICS FOR GENERATION OF SYMMETRY ORBITAL -Q- MATRIX
 NUMBER OF CARTESIAN ATOMIC ORBITALS=         90
 NUMBER OF SPHERICAL CONTAMINANTS DROPPED=     9
 NUMBER OF LINEARLY DEPENDENT MOS DROPPED=     0
 TOTAL NUMBER OF MOS IN VARIATION SPACE=      81
 ORBITAL PURIFICATION WILL OCCUR

 SYMMETRIES FOR INITIAL GUESS ORBITALS FOLLOW.   BOTH SET(S).
     9 ORBITALS ARE OCCUPIED (    5 CORE ORBITALS).
     1=A        2=A        3=A        4=A        5=A        6=A        7=A   
     8=A        9=A       10=A       11=A       12=A       13=A       14=A   
    15=A       16=A       17=A       18=A       19=A       20=A       21=A   
    22=A       23=A       24=A       25=A       26=A       27=A       28=A   
    29=A       30=A       31=A       32=A       33=A       34=A       35=A   
    36=A       37=A       38=A       39=A       40=A       41=A       42=A   
    43=A       44=A       45=A       46=A       47=A       48=A       49=A   
    50=A       51=A       52=A       53=A       54=A       55=A       56=A   
    57=A       58=A       59=A       60=A       61=A       62=A       63=A   
    64=A       65=A       66=A       67=A       68=A       69=A       70=A   
    71=A       72=A       73=A       74=A       75=A       76=A       77=A   
    78=A       79=A       80=A       81=A   
 ...... END OF INITIAL ORBITAL SELECTION ......
 CPU     0: STEP CPU TIME=     0.08 TOTAL CPU TIME=          0.2 (      0.0 MIN)
 TOTAL WALL CLOCK TIME=          0.5 SECONDS, CPU UTILIZATION IS    45.83%

                    ----------------------
                    AO INTEGRAL TECHNOLOGY
                    ----------------------
     S,P,L SHELL ROTATED AXIS INTEGRALS, REPROGRAMMED BY
        KAZUYA ISHIMURA (IMS) AND JOSE SIERRA (SYNSTAR).
     S,P,D,L SHELL ROTATED AXIS INTEGRALS PROGRAMMED BY
        KAZUYA ISHIMURA (INSTITUTE FOR MOLECULAR SCIENCE).
     S,P,D,F,G SHELL TO TOTAL QUARTET ANGULAR MOMENTUM SUM 5,
        ERIC PROGRAM BY GRAHAM FLETCHER (ELORET AND NASA ADVANCED
        SUPERCOMPUTING DIVISION, AMES RESEARCH CENTER).
     S,P,D,F,G,L SHELL GENERAL RYS QUADRATURE PROGRAMMED BY
        MICHEL DUPUIS (PACIFIC NORTHWEST NATIONAL LABORATORY).

          --------------------
          2 ELECTRON INTEGRALS
          --------------------

 DIRECT SCF METHOD SKIPS INTEGRAL STORAGE ON DISK.
 DIRECT TRANSFORMATION SKIPS AO INTEGRAL STORAGE ON DISK.
  ...... END OF TWO-ELECTRON INTEGRALS .....
 STEP CPU TIME =     0.02 TOTAL CPU TIME =          0.2 (      0.0 MIN)
 TOTAL WALL CLOCK TIME=          0.5 SECONDS, CPU UTILIZATION IS    47.06%
 DDI: Creating Array [0] - 8100 x 78 = 631800 words.
 DDI: Creating Array [1] - 69 x 936 = 64584 words.
 DDI: Creating Array [2] - 78 x 78 = 6084 words.
 DDI: Creating Array [3] - 4095 x 78 = 319410 words.

          -----------------
          MCSCF CALCULATION
          -----------------

 ----- NUCLEAR ENERGY ----- =        18.0094900059

     -------------------------------------------------
     GMC-PT/GMC-QDPT or general MCSCF input parameters
     -------------------------------------------------
 # of frozen core orbs. =         1 ->         0
 # of doubly occ. orbs. =         4
 # of active      orbs. =         7
 # of virtual     orbs. =        69
 # of active electrons  =         7
 # of states in CI      =         3
 Highest state in CI    =         3
 kstate =  1 1 1
 avecoe =  0.333 0.333 0.333
 State symmetry           = A           
 Assigned symmetry number = 1

 <<<Act. MO sym.: 1111111

 <<<Division of 1-ext.:  0 0
 <<<Division of 2-ext.:  0 1

 *** Reference space

 Reference type: ORMAS (= Occupation restricted multiple active space)
 # of orbitals          =  7
 # of minimum electrons =  7
 # of maximum electrons =  7
 State symmetry    =    1 (input)
 2*Sz              =    1 (input)
 Spin multiplicity =    2 (input)
 Dimension of reference space =      1225  (from      3432 walks)

 Dimension of reference space =      1225  (from      1225 walks)

 <<<Ionized spaces for Ref-CI:
      0:         1225 /   -1-0:         1960 /  0-1-0:         2891

 EVALUATING EXCHANGE INTEGRALS FOR DIRECT INTEGRAL TRANSFORMATION
 SCHWARZ INEQUALITY OVERHEAD:      4095 INTEGRALS, T=        0.01

     --------------------------------------------
     PARTIAL TWO ELECTRON INTEGRAL TRANSFORMATION
     --------------------------------------------

 NUMBER OF CORE MOLECULAR ORBITALS     =    5
 NUMBER OF OCCUPIED MOLECULAR ORBITALS =   12
 TOTAL NUMBER OF MOLECULAR ORBITALS    =   81
 TOTAL NUMBER OF ATOMIC ORBITALS       =   90
 THRESHOLD FOR KEEPING TRANSFORMED 2E- INTEGRALS = 1.000E-09

 -------------------------------     ------------------------------
 DISTRIBUTED DATA TRANSFORMATION     PROGRAM WRITTEN BY G. FLETCHER
 -------------------------------     ------------------------------

 THE DISTRIBUTED MEMORY REQUIRED FOR THIS STEP IS MEMDDI=         2 MWORDS
 CREATING DISTRIBUTED STORAGE FOR [VIR OCC|VIR OCC] INTEGRALS
 CREATING DISTRIBUTED STORAGE FOR [VIR OCC|OCC OCC] INTEGRALS
 CREATING DISTRIBUTED STORAGE FOR [OCC OCC|OCC OCC] INTEGRALS
 CREATING DISTRIBUTED STORAGE FOR [VIR VIR|OCC OCC] INTEGRALS
 FOR    2 PROCESSORS, THE REPLICATED MEMORY NEEDED IS      340708 WORDS.
 SCHWARZ INEQUALITY OVERHEAD:      4095 INTEGRALS, T=        0.01

      DIRECT 4-INDEX TRANSFORMATION 
      SCHWARZ INEQUALITY TEST SKIPPED        168 INTEGRAL BLOCKS
 ----- FROZEN CORE ENERGY =      -345.9215345844
 ... END OF INTEGRAL TRANSFORMATION ...
 CPU     0: STEP CPU TIME=     3.23 TOTAL CPU TIME=          3.5 (      0.1 MIN)
 TOTAL WALL CLOCK TIME=          3.8 SECONDS, CPU UTILIZATION IS    91.08%

     --------------------------------     -----------------------------
     MCHF NEWTON-RAPHSON OPTIMIZATION     CODE WRITTEN BY MICHEL DUPUIS
     --------------------------------     -----------------------------
     PARALLEL VERSION WRITTEN BY G. FLETCHER (ELORET)
     NASA ADVANCED SUPERCOMPUTING DIVISION, AMES RESEARCH CENTER

 NUMBER OF INDEPENDENT ORBITAL ROTATION PARAMETERS =   416
 ..... DONE SOLVING NEWTON-RAPHSON EQUATIONS .....
 CPU     0: STEP CPU TIME=     0.49 TOTAL CPU TIME=          4.0 (      0.1 MIN)
 TOTAL WALL CLOCK TIME=          4.7 SECONDS, CPU UTILIZATION IS    84.80%
 ..... DONE WITH NTN-RPH ORBITAL ROTATIONS ..... 
 CPU     0: STEP CPU TIME=     0.00 TOTAL CPU TIME=          4.0 (      0.1 MIN)
 TOTAL WALL CLOCK TIME=          4.7 SECONDS, CPU UTILIZATION IS    84.80%
 MAXIMUM MEMORY USED BY NTN-RPH CODE WAS    135813 WORDS.

 ITER     TOTAL ENERGY      DEL(E)  LAGRANGIAN ASYMMETRY   SQCDF  MICIT   DAMP
   1     -342.038899336 -0.038899336  0.002098   22    9 3.519E-05  1   0.0000
   2     -342.038916403 -0.000017067  0.000340   31    9 2.844E-05  1   0.0000
   3     -342.038917828 -0.000001425  0.000121   22    9 2.192E-05  1   0.0000
   4     -342.038918685 -0.000000858  0.000078   22    9 1.741E-05  1   0.0000
   5     -342.038919349 -0.000000663  0.000061   22    9 1.393E-05  1   0.0000
   6     -342.038919878 -0.000000530  0.000052   22    9 1.117E-05  1   0.0000
   7     -342.038920303 -0.000000424  0.000046   22    9 8.954E-06  1   0.0000
   8     -342.038920643 -0.000000340  0.000041   22    9 7.180E-06  1   0.0000
   9     -342.038920916 -0.000000273  0.000036   22    9 5.758E-06  1   0.0000
  10     -342.038921135 -0.000000219  0.000032   22    9 4.618E-06  1   0.0000
  11     -342.038921310 -0.000000176  0.000029   22    9 3.704E-06  1   0.0000
  12     -342.038921451 -0.000000141  0.000026   22    9 2.971E-06  1   0.0000
  13     -342.038921564 -0.000000113  0.000023   22    9 2.383E-06  1   0.0000
  14     -342.038921655 -0.000000091  0.000021   22    9 1.912E-06  1   0.0000
  15     -342.038921727 -0.000000073  0.000019   22    9 1.533E-06  1   0.0000
  16     -342.038921786 -0.000000058  0.000017   22    9 1.230E-06  1   0.0000
  17     -342.038921832 -0.000000047  0.000015   22    9 9.867E-07  1   0.0000
  18     -342.038921870 -0.000000037  0.000013   22    9 7.916E-07  1   0.0000
  19     -342.038921900 -0.000000030  0.000012   22    9 6.350E-07  1   0.0000
  20     -342.038921924 -0.000000024  0.000011   22    9 5.094E-07  1   0.0000
  21     -342.038921943 -0.000000019  0.000010   22    9 4.087E-07  1   0.0000
  22     -342.038921959 -0.000000016  0.000009   22    9 3.279E-07  1   0.0000
  23     -342.038921971 -0.000000012  0.000008   22    9 2.630E-07  1   0.0000
  24     -342.038921981 -0.000000010  0.000007   22    9 2.110E-07  1   0.0000
  25     -342.038921989 -0.000000008  0.000006   22    9 1.693E-07  1   0.0000
  26     -342.038921996 -0.000000006  0.000006   22    9 1.357E-07  1   0.0000
  27     -342.038922001 -0.000000005  0.000005   22    9 1.090E-07  1   0.0000
  28     -342.038922005 -0.000000004  0.000004   22    9 8.744E-08  1   0.0000
  29     -342.038922008 -0.000000003  0.000004   22    9 7.016E-08  1   0.0000
  30     -342.038922011 -0.000000003  0.000004   22    9 5.628E-08  1   0.0000
  31     -342.038922013 -0.000000002  0.000003   22    9 4.516E-08  1   0.0000
  32     -342.038922015 -0.000000002  0.000003   22    9 3.623E-08  1   0.0000
  33     -342.038922016 -0.000000001  0.000003   22    9 2.907E-08  1   0.0000
  34     -342.038922017 -0.000000001  0.000002   22    9 2.332E-08  1   0.0000
  35     -342.038922018 -0.000000001  0.000002   22    9 1.871E-08  1   0.0000
  36     -342.038922019 -0.000000001  0.000002   22    9 1.501E-08  1   0.0000
  37     -342.038922020 -0.000000001  0.000002   22    9 1.205E-08  1   0.0000
  38     -342.038922020 -0.000000000  0.000001   22    9 9.665E-09  1   0.0000
  39     -342.038922020 -0.000000000  0.000001   22    9 7.754E-09  1   0.0000
  40     -342.038922021 -0.000000000  0.000001   22    9 6.222E-09  1   0.0000
  41     -342.038922021 -0.000000000  0.000001   22    9 4.992E-09  1   0.0000
  42     -342.038922021 -0.000000000  0.000001   22    9 3.989E-09  1   0.0000

          --------------------
          LAGRANGIAN CONVERGED
          --------------------

 FINAL MCSCF ENERGY IS     -342.0389220211 AFTER  42 ITERATIONS

 -MCCI- BASED ON OPTIMIZED ORBITALS
 ----------------------------------

 PLEASE NOTE: IF THE ACTIVE ORBITALS ARE CANONICALIZED BELOW,
 THE FOLLOWING CI EXPANSION COEFFICIENTS AND THE DENSITY DO NOT
 CORRESPOND TO THE PRINTED ORBITALS.  THE PRINTED EXPANSIONS MATCH
 THE ORBITALS USED DURING THE LAST ITERATION.  IF YOU WISH TO SEE
 CI EXPANSIONS BASED ON THE CANONICAL (OR NATURAL) ORBITALS, YOU
 MUST RUN A CI CALCULATION WITH THAT ORBITAL CHOICE READ IN $VEC.

 Averaged energy =    -342.038922021

 State #    1  Energy =    -342.207469269  S =  0.500

      Det      Coef    Occupancy (Ignoring core)
      ---      ----    --------- --------- -----
        1   -0.977730  11110001110000
      107    0.076190  11101000111000
      143   -0.052523  11011001100100
      179   -0.052523  10111001010100
      393   -0.055329  10110101010010
      717   -0.055329  11010011100001

 State #    2  Energy =    -341.954648397  S =  0.500

      Det      Coef    Occupancy (Ignoring core)
      ---      ----    --------- --------- -----
        6    0.115230  11100101110000
       36   -0.114646  11110001101000
       38    0.075059  11011001101000
       71    0.948205  11110001011000
       74   -0.075059  10111001011000
       78   -0.075187  10110101011000
      109    0.057668  10111000111000
      177   -0.112884  11101001010100
      248   -0.057041  11011001001100
      822   -0.051634  11010011001001

 State #    3  Energy =    -341.954648397  S =  0.500

      Det      Coef    Occupancy (Ignoring core)
      ---      ----    --------- --------- -----
       16    0.115230  11100011110000
       36   -0.948205  11110001101000
       39   -0.075059  10111001101000
       52   -0.075187  11010011101000
       71   -0.114646  11110001011000
       73   -0.075059  11011001011000
      108   -0.057668  11011000111000
      142    0.112884  11101001100100
      249   -0.057041  10111001001100
      463   -0.051634  10110101001010

 DENSITY MATRIX OVER ACTIVE MO-S

             1           2           3           4           5

    1    1.9768581
    2   -0.0000000   1.6444585
    3    0.0000000   0.0000000   1.6444585
    4    0.0011174   0.0000000   0.0000000   1.6281820
    5    0.0045726  -0.0000000   0.0000000  -0.0108796   0.0543931
    6   -0.0000000   0.0029977  -0.0003098   0.0000000  -0.0000000
    7    0.0000000   0.0003098   0.0029977   0.0000000  -0.0000000

             6           7

    6    0.0258249
    7    0.0000000   0.0258249

 FORMING THE "STANDARD FOCK OPERATOR" IN DIRECT AO INTEGRAL MODE...
 ONLY THE    5 CORE AND   69 VIRTUAL ORBITALS WILL BE CANONICALIZED

          ----------------------
          MCSCF NATURAL ORBITALS
          ----------------------

                      1          2          3          4          5
                  -80.2666    -7.8143    -5.7093    -5.7093    -5.7080
                     A          A          A          A          A   
    1  P  1  S    1.000140  -0.000534  -0.000000  -0.000000  -0.000027
    2  P  1  S    0.000212   0.953780   0.000000  -0.000000  -0.000429
    3  P  1  S    0.000235  -0.004193  -0.000000  -0.000000   0.000084
    4  P  1  S   -0.000970   0.063027  -0.000000   0.000000   0.000144
    5  P  1  S   -0.000156   0.002613   0.000000  -0.000000   0.000087
    6  P  1  X    0.000000  -0.000000   0.956378  -0.056204   0.000000
    7  P  1  Y   -0.000000  -0.000000   0.056204   0.956378  -0.000000
    8  P  1  Z    0.000004   0.000239  -0.000000   0.000000   0.961345
    9  P  1  X    0.000000  -0.000000  -0.003358   0.000197   0.000000
   10  P  1  Y   -0.000000  -0.000000  -0.000197  -0.003358  -0.000000
   11  P  1  Z    0.000002  -0.000036  -0.000000   0.000000  -0.000076
   12  P  1  X   -0.000000   0.000000   0.079268  -0.004658   0.000000
   13  P  1  Y   -0.000000   0.000000   0.004658   0.079268  -0.000000
   14  P  1  Z   -0.000002   0.000086  -0.000000   0.000000   0.075514
   15  P  1  X    0.000000  -0.000000   0.001224  -0.000072   0.000000
   16  P  1  Y   -0.000000  -0.000000   0.000072   0.001224  -0.000000
   17  P  1  Z   -0.000001   0.000020  -0.000000  -0.000000   0.001288
   18  P  1 XX    0.000006   0.000097   0.000256  -0.000015  -0.000013
   19  P  1 YY    0.000006   0.000097  -0.000256   0.000015  -0.000013
   20  P  1 ZZ   -0.000012  -0.000193  -0.000000  -0.000000   0.000027
   21  P  1 XY   -0.000000   0.000000  -0.000017  -0.000295   0.000000
   22  P  1 XZ    0.000000  -0.000000   0.000029  -0.000002   0.000000
   23  P  1 YZ   -0.000000   0.000000   0.000002   0.000029  -0.000000
   24  P  1 XX    0.000014  -0.000178  -0.001471   0.000086   0.000001
   25  P  1 YY    0.000014  -0.000178   0.001471  -0.000086   0.000001
   26  P  1 ZZ   -0.000028   0.000357  -0.000000   0.000000  -0.000003
   27  P  1 XY    0.000000   0.000000   0.000100   0.001698   0.000000
   28  P  1 XZ   -0.000000  -0.000000  -0.000041   0.000002  -0.000000
   29  P  1 YZ   -0.000000   0.000000  -0.000002  -0.000041  -0.000000
   30  P  1 XXX   0.000017   0.000102  -0.000045   0.000003  -0.000003
   31  P  1 YYY  -0.000000  -0.000000  -0.000003  -0.000045  -0.000000
   32  P  1 ZZZ  -0.000000   0.000001  -0.000000  -0.000000  -0.000255
   33  P  1 XXY  -0.000000  -0.000000  -0.000001  -0.000020  -0.000000
   34  P  1 XXZ   0.000000  -0.000001  -0.000007   0.000000   0.000171
   35  P  1 YYX  -0.000022  -0.000137  -0.000020   0.000001   0.000004
   36  P  1 YYZ   0.000000  -0.000001   0.000007  -0.000000   0.000171
   37  P  1 ZZX  -0.000000   0.000000   0.000081  -0.000005  -0.000000
   38  P  1 ZZY  -0.000000   0.000000   0.000005   0.000081   0.000000
   39  P  1 XYZ  -0.000000   0.000000   0.000000   0.000008  -0.000000
   40  P  1 XX   -0.000001   0.000238  -0.000273   0.000016  -0.000032
   41  P  1 YY   -0.000001   0.000238   0.000273  -0.000016  -0.000032
   42  P  1 ZZ    0.000002  -0.000476  -0.000000  -0.000000   0.000063
   43  P  1 XY   -0.000000  -0.000000   0.000019   0.000316  -0.000000
   44  P  1 XZ   -0.000000  -0.000000   0.000053  -0.000003   0.000000
   45  P  1 YZ   -0.000000   0.000000   0.000003   0.000053  -0.000000
   46  H  2  S    0.000005  -0.000183  -0.000265   0.000529   0.000031
   47  H  2  S   -0.000043   0.000139  -0.001583   0.003156   0.000069
   48  H  2  S    0.000031  -0.000545   0.000156  -0.000312  -0.000003
   49  H  2  X    0.000001  -0.000022   0.000090   0.000028   0.000002
   50  H  2  Y   -0.000002   0.000038   0.000036   0.000048  -0.000004
   51  H  2  Z   -0.000000   0.000001   0.000000  -0.000001   0.000041
   52  H  2  X   -0.000011   0.000088  -0.000380   0.000626   0.000012
   53  H  2  Y    0.000019  -0.000152   0.000536  -0.001145  -0.000021
   54  H  2  Z    0.000000   0.000001   0.000003  -0.000007   0.000118
   55  H  2 XX   -0.000001   0.000003   0.000037  -0.000011  -0.000001
   56  H  2 YY    0.000006   0.000017  -0.000012  -0.000040   0.000002
   57  H  2 ZZ   -0.000005  -0.000019  -0.000026   0.000051  -0.000001
   58  H  2 XY   -0.000007  -0.000014  -0.000018  -0.000005  -0.000003
   59  H  2 XZ   -0.000000   0.000001   0.000001  -0.000000  -0.000011
   60  H  2 YZ    0.000000  -0.000001   0.000000   0.000000   0.000020
   61  H  3  S    0.000005  -0.000183  -0.000326  -0.000495   0.000031
   62  H  3  S   -0.000043   0.000139  -0.001942  -0.002949   0.000069
   63  H  3  S    0.000031  -0.000545   0.000192   0.000291  -0.000003
   64  H  3  X    0.000001  -0.000022   0.000086  -0.000038   0.000002
   65  H  3  Y    0.000002  -0.000038  -0.000030   0.000052   0.000004
   66  H  3  Z   -0.000000   0.000001   0.000000   0.000001   0.000041
   67  H  3  X   -0.000011   0.000088  -0.000450  -0.000577   0.000012
   68  H  3  Y   -0.000019   0.000152  -0.000667  -0.001074   0.000021
   69  H  3  Z    0.000000   0.000001   0.000004   0.000006   0.000118
   70  H  3 XX   -0.000001   0.000003   0.000038   0.000007  -0.000001
   71  H  3 YY    0.000006   0.000017  -0.000007   0.000041   0.000002
   72  H  3 ZZ   -0.000005  -0.000019  -0.000031  -0.000048  -0.000001
   73  H  3 XY    0.000007   0.000014   0.000018  -0.000007   0.000003
   74  H  3 XZ   -0.000000   0.000001   0.000001  -0.000000  -0.000011
   75  H  3 YZ   -0.000000   0.000001   0.000000   0.000000  -0.000020
   76  H  4  S    0.000005  -0.000183   0.000591  -0.000035   0.000031
   77  H  4  S   -0.000043   0.000139   0.003524  -0.000207   0.000069
   78  H  4  S    0.000031  -0.000545  -0.000348   0.000020  -0.000003
   79  H  4  X   -0.000003   0.000044   0.000031  -0.000002  -0.000004
   80  H  4  Y   -0.000000   0.000000   0.000006   0.000107  -0.000000
   81  H  4  Z   -0.000000   0.000001  -0.000001   0.000000   0.000041
   82  H  4  X    0.000022  -0.000176  -0.001457   0.000086  -0.000024
   83  H  4  Y   -0.000000  -0.000000  -0.000004  -0.000068  -0.000000
   84  H  4  Z    0.000000   0.000001  -0.000008   0.000000   0.000118
   85  H  4 XX    0.000009   0.000024  -0.000032   0.000002   0.000003
   86  H  4 YY   -0.000004  -0.000004  -0.000025   0.000001  -0.000002
   87  H  4 ZZ   -0.000005  -0.000019   0.000057  -0.000003  -0.000001
   88  H  4 XY   -0.000000   0.000000  -0.000002  -0.000038  -0.000000
   89  H  4 XZ    0.000000  -0.000001   0.000000  -0.000000   0.000023
   90  H  4 YZ   -0.000000   0.000000   0.000000   0.000001  -0.000000

                      6          7          8          9         10
                    1.9769     1.6445     1.6445     1.6283     0.0543
                     A          A          A          A          A   
    1  P  1  S    0.001041  -0.000000   0.000000  -0.000075   0.012036
    2  P  1  S    0.002913  -0.000000   0.000000  -0.000783   0.112463
    3  P  1  S    0.549056  -0.000000   0.000000  -0.007889   0.572668
    4  P  1  S    0.057555   0.000000   0.000000  -0.001097   0.093275
    5  P  1  S    0.220798  -0.000000   0.000000  -0.006899   0.415936
    6  P  1  X    0.000000  -0.000724  -0.036564   0.000000   0.000000
    7  P  1  Y    0.000000  -0.036564   0.000724  -0.000000  -0.000000
    8  P  1  Z   -0.000616  -0.000000  -0.000000   0.001470   0.001266
    9  P  1  X   -0.000000   0.007476   0.377598  -0.000000   0.000000
   10  P  1  Y    0.000000   0.377598  -0.007476  -0.000000  -0.000000
   11  P  1  Z    0.002153   0.000000   0.000000   0.598276   0.008763
   12  P  1  X    0.000000   0.002303   0.116314  -0.000000  -0.000000
   13  P  1  Y   -0.000000   0.116314  -0.002303   0.000000   0.000000
   14  P  1  Z    0.000628   0.000000   0.000000   0.162429   0.001458
   15  P  1  X   -0.000000   0.002139   0.108035   0.000000  -0.000000
   16  P  1  Y    0.000000   0.108035  -0.002139  -0.000000  -0.000000
   17  P  1  Z    0.000818   0.000000   0.000000   0.364562   0.007785
   18  P  1 XX    0.011666   0.000870   0.043951  -0.000128  -0.092221
   19  P  1 YY    0.011666  -0.000870  -0.043951  -0.000128  -0.092221
   20  P  1 ZZ   -0.023331   0.000000  -0.000000   0.000257   0.184442
   21  P  1 XY   -0.000000  -0.050750   0.001005   0.000000   0.000000
   22  P  1 XZ    0.000000   0.000013   0.000638   0.000000  -0.000000
   23  P  1 YZ   -0.000000   0.000638  -0.000013  -0.000000   0.000000
   24  P  1 XX    0.005424   0.000538   0.027184  -0.000593  -0.094750
   25  P  1 YY    0.005424  -0.000538  -0.027184  -0.000593  -0.094750
   26  P  1 ZZ   -0.010847   0.000000  -0.000000   0.001186   0.189500
   27  P  1 XY   -0.000000  -0.031389   0.000621   0.000000   0.000000
   28  P  1 XZ   -0.000000   0.000004   0.000209   0.000000   0.000000
   29  P  1 YZ   -0.000000   0.000209  -0.000004  -0.000000  -0.000000
   30  P  1 XXX   0.011604   0.000165   0.008347   0.000340  -0.063155
   31  P  1 YYY  -0.000000   0.008347  -0.000165  -0.000000  -0.000000
   32  P  1 ZZZ  -0.000121  -0.000000  -0.000000  -0.011579   0.003399
   33  P  1 XXY   0.000000   0.003733  -0.000074  -0.000000   0.000000
   34  P  1 XXZ   0.000081   0.000007   0.000372   0.007767  -0.002280
   35  P  1 YYX  -0.015568   0.000074   0.003733  -0.000456   0.084732
   36  P  1 YYZ   0.000081  -0.000007  -0.000372   0.007767  -0.002280
   37  P  1 ZZX  -0.000000  -0.000296  -0.014931  -0.000000  -0.000000
   38  P  1 ZZY  -0.000000  -0.014931   0.000296   0.000000   0.000000
   39  P  1 XYZ  -0.000000  -0.000430   0.000009  -0.000000   0.000000
   40  P  1 XX    0.002042   0.000168   0.008488  -0.000004  -0.010167
   41  P  1 YY    0.002042  -0.000168  -0.008488  -0.000004  -0.010167
   42  P  1 ZZ   -0.004085   0.000000  -0.000000   0.000008   0.020335
   43  P  1 XY    0.000000  -0.009801   0.000194  -0.000000   0.000000
   44  P  1 XZ    0.000000   0.000002   0.000120  -0.000000   0.000000
   45  P  1 YZ   -0.000000   0.000120  -0.000002  -0.000000   0.000000
   46  H  2  S    0.080017   0.145036  -0.087609   0.001458  -0.193504
   47  H  2  S    0.114920   0.244400  -0.147630   0.003222  -0.367141
   48  H  2  S    0.003693   0.045716  -0.027615   0.001273  -0.053773
   49  H  2  X    0.003940   0.006731  -0.002043   0.000040  -0.006667
   50  H  2  Y   -0.006824  -0.009591   0.006962  -0.000068   0.011548
   51  H  2  Z   -0.000029  -0.000069   0.000042   0.005076  -0.000105
   52  H  2  X    0.007986   0.014079  -0.002161   0.000081  -0.022253
   53  H  2  Y   -0.013832  -0.017902   0.014476  -0.000140   0.038543
   54  H  2  Z    0.000024  -0.000019   0.000011   0.024177  -0.001017
   55  H  2 XX    0.000038   0.000204   0.001434   0.000020  -0.001249
   56  H  2 YY    0.001929   0.002086  -0.002817   0.000048  -0.004893
   57  H  2 ZZ   -0.001967  -0.002290   0.001383  -0.000068   0.006143
   58  H  2 XY   -0.001890  -0.003719   0.001208  -0.000029   0.003644
   59  H  2 XZ   -0.000004  -0.000017   0.000014   0.001334  -0.000113
   60  H  2 YZ    0.000007   0.000034  -0.000018  -0.002311   0.000196
   61  H  3  S    0.080017  -0.148390  -0.081800   0.001458  -0.193504
   62  H  3  S    0.114920  -0.250051  -0.137841   0.003222  -0.367141
   63  H  3  S    0.003693  -0.046773  -0.025784   0.001273  -0.053773
   64  H  3  X    0.003940  -0.006807  -0.001775   0.000040  -0.006667
   65  H  3  Y    0.006824  -0.009859  -0.006577   0.000068  -0.011548
   66  H  3  Z   -0.000029   0.000071   0.000039   0.005076  -0.000105
   67  H  3  X    0.007986  -0.014154  -0.001602   0.000081  -0.022253
   68  H  3  Y    0.013832  -0.018461  -0.013756   0.000140  -0.038543
   69  H  3  Z    0.000024   0.000019   0.000011   0.024177  -0.001017
   70  H  3 XX    0.000038  -0.000148   0.001441   0.000020  -0.001249
   71  H  3 YY    0.001929  -0.002196  -0.002732   0.000048  -0.004893
   72  H  3 ZZ   -0.001967   0.002343   0.001292  -0.000068   0.006143
   73  H  3 XY    0.001890  -0.003764  -0.001060   0.000029  -0.003644
   74  H  3 XZ   -0.000004   0.000018   0.000014   0.001334  -0.000113
   75  H  3 YZ   -0.000007   0.000035   0.000017   0.002311  -0.000196
   76  H  4  S    0.080017   0.003354   0.169409   0.001458  -0.193504
   77  H  4  S    0.114920   0.005652   0.285471   0.003222  -0.367141
   78  H  4  S    0.003693   0.001057   0.053399   0.001273  -0.053773
   79  H  4  X   -0.007879  -0.000270  -0.013633  -0.000079   0.013335
   80  H  4  Y   -0.000000   0.001999  -0.000040  -0.000000   0.000000
   81  H  4  Z   -0.000029  -0.000002  -0.000081   0.005076  -0.000105
   82  H  4  X   -0.015972  -0.000521  -0.026332  -0.000162   0.044506
   83  H  4  Y   -0.000000   0.006268  -0.000124  -0.000000  -0.000000
   84  H  4  Z    0.000024  -0.000000  -0.000022   0.024177  -0.001017
   85  H  4 XX    0.002874   0.000102   0.005145   0.000063  -0.006715
   86  H  4 YY   -0.000907  -0.000049  -0.002470   0.000005   0.000573
   87  H  4 ZZ   -0.001967  -0.000053  -0.002675  -0.000068   0.006143
   88  H  4 XY    0.000000  -0.001777   0.000035  -0.000000  -0.000000
   89  H  4 XZ    0.000008   0.000001   0.000045  -0.002669   0.000226
   90  H  4 YZ   -0.000000   0.000004  -0.000000  -0.000000   0.000000

                     11         12
                    0.0258     0.0258
                     A          A   
    1  P  1  S    0.000000   0.000000
    2  P  1  S    0.000000   0.000000
    3  P  1  S    0.000000   0.000000
    4  P  1  S   -0.000000   0.000000
    5  P  1  S   -0.000000   0.000000
    6  P  1  X    0.006559   0.164807
    7  P  1  Y    0.164807  -0.006559
    8  P  1  Z   -0.000000  -0.000000
    9  P  1  X    0.034357   0.863327
   10  P  1  Y    0.863327  -0.034357
   11  P  1  Z   -0.000000  -0.000000
   12  P  1  X    0.005682   0.142782
   13  P  1  Y    0.142782  -0.005682
   14  P  1  Z   -0.000000   0.000000
   15  P  1  X    0.013608   0.341951
   16  P  1  Y    0.341951  -0.013608
   17  P  1  Z    0.000000   0.000000
   18  P  1 XX   -0.005592  -0.140518
   19  P  1 YY    0.005592   0.140518
   20  P  1 ZZ   -0.000000  -0.000000
   21  P  1 XY    0.162256  -0.006457
   22  P  1 XZ   -0.000686  -0.017231
   23  P  1 YZ   -0.017231   0.000686
   24  P  1 XX   -0.001474  -0.037044
   25  P  1 YY    0.001474   0.037044
   26  P  1 ZZ    0.000000  -0.000000
   27  P  1 XY    0.042774  -0.001702
   28  P  1 XZ   -0.000807  -0.020287
   29  P  1 YZ   -0.020287   0.000807
   30  P  1 XXX  -0.000803  -0.020186
   31  P  1 YYY  -0.020186   0.000803
   32  P  1 ZZZ   0.000000   0.000000
   33  P  1 XXY  -0.009027   0.000359
   34  P  1 XXZ  -0.000026  -0.000653
   35  P  1 YYX  -0.000359  -0.009027
   36  P  1 YYZ   0.000026   0.000653
   37  P  1 ZZX   0.001437   0.036109
   38  P  1 ZZY   0.036109  -0.001437
   39  P  1 XYZ   0.000753  -0.000030
   40  P  1 XX   -0.000645  -0.016197
   41  P  1 YY    0.000645   0.016197
   42  P  1 ZZ   -0.000000  -0.000000
   43  P  1 XY    0.018703  -0.000744
   44  P  1 XZ   -0.000065  -0.001623
   45  P  1 YZ   -0.001623   0.000065
   46  H  2  S   -0.224656   0.141906
   47  H  2  S   -0.552903   0.349246
   48  H  2  S   -0.038047   0.024033
   49  H  2  X   -0.006288   0.018330
   50  H  2  Y    0.025863  -0.008046
   51  H  2  Z   -0.000859   0.000542
   52  H  2  X   -0.042157   0.079921
   53  H  2  Y    0.128587  -0.050455
   54  H  2  Z   -0.003313   0.002093
   55  H  2 XX    0.005773   0.004915
   56  H  2 YY   -0.015131   0.000996
   57  H  2 ZZ    0.009358  -0.005911
   58  H  2 XY    0.010595  -0.012400
   59  H  2 XZ   -0.000673  -0.000172
   60  H  2 YZ    0.000544  -0.000688
   61  H  3  S    0.235223   0.123605
   62  H  3  S    0.578907   0.304205
   63  H  3  S    0.039837   0.020934
   64  H  3  X    0.007724   0.017773
   65  H  3  Y    0.026420   0.005966
   66  H  3  Z    0.000899   0.000472
   67  H  3  X    0.048375   0.076318
   68  H  3  Y    0.132190   0.040077
   69  H  3  Z    0.003469   0.001823
   70  H  3 XX   -0.005364   0.005359
   71  H  3 YY    0.015162  -0.000210
   72  H  3 ZZ   -0.009798  -0.005149
   73  H  3 XY    0.011547   0.011519
   74  H  3 XZ    0.000657  -0.000225
   75  H  3 YZ    0.000597   0.000643
   76  H  4  S   -0.010566  -0.265511
   77  H  4  S   -0.026004  -0.653451
   78  H  4  S   -0.001789  -0.044967
   79  H  4  X    0.001201   0.030186
   80  H  4  Y    0.014007  -0.000557
   81  H  4  Z   -0.000040  -0.001015
   82  H  4  X    0.006229   0.156523
   83  H  4  Y    0.051985  -0.002069
   84  H  4  Z   -0.000156  -0.003916
   85  H  4 XX   -0.000840  -0.021097
   86  H  4 YY    0.000399   0.010037
   87  H  4 ZZ    0.000440   0.011060
   88  H  4 XY   -0.009644   0.000384
   89  H  4 XZ    0.000038   0.000954
   90  H  4 YZ   -0.000582   0.000023

          ------------------------
          MCSCF OPTIMIZED ORBITALS
          ------------------------

                      1          2          3          4          5
                  -80.2666    -7.8143    -5.7093    -5.7093    -5.7080
                     A          A          A          A          A   
    1  P  1  S    1.000140  -0.000534  -0.000000  -0.000000  -0.000027
    2  P  1  S    0.000212   0.953780   0.000000  -0.000000  -0.000429
    3  P  1  S    0.000235  -0.004193  -0.000000  -0.000000   0.000084
    4  P  1  S   -0.000970   0.063027  -0.000000   0.000000   0.000144
    5  P  1  S   -0.000156   0.002613   0.000000  -0.000000   0.000087
    6  P  1  X    0.000000  -0.000000   0.956378  -0.056204   0.000000
    7  P  1  Y   -0.000000  -0.000000   0.056204   0.956378  -0.000000
    8  P  1  Z    0.000004   0.000239  -0.000000   0.000000   0.961345
    9  P  1  X    0.000000  -0.000000  -0.003358   0.000197   0.000000
   10  P  1  Y   -0.000000  -0.000000  -0.000197  -0.003358  -0.000000
   11  P  1  Z    0.000002  -0.000036  -0.000000   0.000000  -0.000076
   12  P  1  X   -0.000000   0.000000   0.079268  -0.004658   0.000000
   13  P  1  Y   -0.000000   0.000000   0.004658   0.079268  -0.000000
   14  P  1  Z   -0.000002   0.000086  -0.000000   0.000000   0.075514
   15  P  1  X    0.000000  -0.000000   0.001224  -0.000072   0.000000
   16  P  1  Y   -0.000000  -0.000000   0.000072   0.001224  -0.000000
   17  P  1  Z   -0.000001   0.000020  -0.000000  -0.000000   0.001288
   18  P  1 XX    0.000006   0.000097   0.000256  -0.000015  -0.000013
   19  P  1 YY    0.000006   0.000097  -0.000256   0.000015  -0.000013
   20  P  1 ZZ   -0.000012  -0.000193  -0.000000  -0.000000   0.000027
   21  P  1 XY   -0.000000   0.000000  -0.000017  -0.000295   0.000000
   22  P  1 XZ    0.000000  -0.000000   0.000029  -0.000002   0.000000
   23  P  1 YZ   -0.000000   0.000000   0.000002   0.000029  -0.000000
   24  P  1 XX    0.000014  -0.000178  -0.001471   0.000086   0.000001
   25  P  1 YY    0.000014  -0.000178   0.001471  -0.000086   0.000001
   26  P  1 ZZ   -0.000028   0.000357  -0.000000   0.000000  -0.000003
   27  P  1 XY    0.000000   0.000000   0.000100   0.001698   0.000000
   28  P  1 XZ   -0.000000  -0.000000  -0.000041   0.000002  -0.000000
   29  P  1 YZ   -0.000000   0.000000  -0.000002  -0.000041  -0.000000
   30  P  1 XXX   0.000017   0.000102  -0.000045   0.000003  -0.000003
   31  P  1 YYY  -0.000000  -0.000000  -0.000003  -0.000045  -0.000000
   32  P  1 ZZZ  -0.000000   0.000001  -0.000000  -0.000000  -0.000255
   33  P  1 XXY  -0.000000  -0.000000  -0.000001  -0.000020  -0.000000
   34  P  1 XXZ   0.000000  -0.000001  -0.000007   0.000000   0.000171
   35  P  1 YYX  -0.000022  -0.000137  -0.000020   0.000001   0.000004
   36  P  1 YYZ   0.000000  -0.000001   0.000007  -0.000000   0.000171
   37  P  1 ZZX  -0.000000   0.000000   0.000081  -0.000005  -0.000000
   38  P  1 ZZY  -0.000000   0.000000   0.000005   0.000081   0.000000
   39  P  1 XYZ  -0.000000   0.000000   0.000000   0.000008  -0.000000
   40  P  1 XX   -0.000001   0.000238  -0.000273   0.000016  -0.000032
   41  P  1 YY   -0.000001   0.000238   0.000273  -0.000016  -0.000032
   42  P  1 ZZ    0.000002  -0.000476  -0.000000  -0.000000   0.000063
   43  P  1 XY   -0.000000  -0.000000   0.000019   0.000316  -0.000000
   44  P  1 XZ   -0.000000  -0.000000   0.000053  -0.000003   0.000000
   45  P  1 YZ   -0.000000   0.000000   0.000003   0.000053  -0.000000
   46  H  2  S    0.000005  -0.000183  -0.000265   0.000529   0.000031
   47  H  2  S   -0.000043   0.000139  -0.001583   0.003156   0.000069
   48  H  2  S    0.000031  -0.000545   0.000156  -0.000312  -0.000003
   49  H  2  X    0.000001  -0.000022   0.000090   0.000028   0.000002
   50  H  2  Y   -0.000002   0.000038   0.000036   0.000048  -0.000004
   51  H  2  Z   -0.000000   0.000001   0.000000  -0.000001   0.000041
   52  H  2  X   -0.000011   0.000088  -0.000380   0.000626   0.000012
   53  H  2  Y    0.000019  -0.000152   0.000536  -0.001145  -0.000021
   54  H  2  Z    0.000000   0.000001   0.000003  -0.000007   0.000118
   55  H  2 XX   -0.000001   0.000003   0.000037  -0.000011  -0.000001
   56  H  2 YY    0.000006   0.000017  -0.000012  -0.000040   0.000002
   57  H  2 ZZ   -0.000005  -0.000019  -0.000026   0.000051  -0.000001
   58  H  2 XY   -0.000007  -0.000014  -0.000018  -0.000005  -0.000003
   59  H  2 XZ   -0.000000   0.000001   0.000001  -0.000000  -0.000011
   60  H  2 YZ    0.000000  -0.000001   0.000000   0.000000   0.000020
   61  H  3  S    0.000005  -0.000183  -0.000326  -0.000495   0.000031
   62  H  3  S   -0.000043   0.000139  -0.001942  -0.002949   0.000069
   63  H  3  S    0.000031  -0.000545   0.000192   0.000291  -0.000003
   64  H  3  X    0.000001  -0.000022   0.000086  -0.000038   0.000002
   65  H  3  Y    0.000002  -0.000038  -0.000030   0.000052   0.000004
   66  H  3  Z   -0.000000   0.000001   0.000000   0.000001   0.000041
   67  H  3  X   -0.000011   0.000088  -0.000450  -0.000577   0.000012
   68  H  3  Y   -0.000019   0.000152  -0.000667  -0.001074   0.000021
   69  H  3  Z    0.000000   0.000001   0.000004   0.000006   0.000118
   70  H  3 XX   -0.000001   0.000003   0.000038   0.000007  -0.000001
   71  H  3 YY    0.000006   0.000017  -0.000007   0.000041   0.000002
   72  H  3 ZZ   -0.000005  -0.000019  -0.000031  -0.000048  -0.000001
   73  H  3 XY    0.000007   0.000014   0.000018  -0.000007   0.000003
   74  H  3 XZ   -0.000000   0.000001   0.000001  -0.000000  -0.000011
   75  H  3 YZ   -0.000000   0.000001   0.000000   0.000000  -0.000020
   76  H  4  S    0.000005  -0.000183   0.000591  -0.000035   0.000031
   77  H  4  S   -0.000043   0.000139   0.003524  -0.000207   0.000069
   78  H  4  S    0.000031  -0.000545  -0.000348   0.000020  -0.000003
   79  H  4  X   -0.000003   0.000044   0.000031  -0.000002  -0.000004
   80  H  4  Y   -0.000000   0.000000   0.000006   0.000107  -0.000000
   81  H  4  Z   -0.000000   0.000001  -0.000001   0.000000   0.000041
   82  H  4  X    0.000022  -0.000176  -0.001457   0.000086  -0.000024
   83  H  4  Y   -0.000000  -0.000000  -0.000004  -0.000068  -0.000000
   84  H  4  Z    0.000000   0.000001  -0.000008   0.000000   0.000118
   85  H  4 XX    0.000009   0.000024  -0.000032   0.000002   0.000003
   86  H  4 YY   -0.000004  -0.000004  -0.000025   0.000001  -0.000002
   87  H  4 ZZ   -0.000005  -0.000019   0.000057  -0.000003  -0.000001
   88  H  4 XY   -0.000000   0.000000  -0.000002  -0.000038  -0.000000
   89  H  4 XZ    0.000000  -0.000001   0.000000  -0.000000   0.000023
   90  H  4 YZ   -0.000000   0.000000   0.000000   0.000001  -0.000000

                      6          7          8          9         10
                    0.0000     0.0000     0.0000     0.0000     0.0000
                     A          A          A          A          A   
    1  P  1  S    0.001012   0.000000  -0.000000   0.000011   0.012039
    2  P  1  S    0.002648   0.000000  -0.000000   0.000004   0.112472
    3  P  1  S    0.547712   0.000000  -0.000000  -0.002210   0.574003
    4  P  1  S    0.057336   0.000000  -0.000000  -0.000271   0.093416
    5  P  1  S    0.219827   0.000000  -0.000000  -0.003332   0.416493
    6  P  1  X    0.000000  -0.036482   0.005387   0.000000   0.000000
    7  P  1  Y    0.000000  -0.005387  -0.036482  -0.000000  -0.000000
    8  P  1  Z   -0.000623  -0.000000   0.000000   0.001477   0.001254
    9  P  1  X   -0.000000   0.372030  -0.054930   0.000000  -0.000000
   10  P  1  Y    0.000000   0.054930   0.372030  -0.000000  -0.000000
   11  P  1  Z    0.000269   0.000000  -0.000000   0.598326   0.004627
   12  P  1  X    0.000000   0.114826  -0.016954  -0.000000  -0.000000
   13  P  1  Y   -0.000000   0.016954   0.114826   0.000000   0.000000
   14  P  1  Z    0.000119  -0.000000   0.000000   0.162437   0.000335
   15  P  1  X   -0.000000   0.106267  -0.015690   0.000000  -0.000000
   16  P  1  Y    0.000000   0.015690   0.106267  -0.000000  -0.000000
   17  P  1  Z   -0.000336   0.000000  -0.000000   0.364608   0.005264
   18  P  1 XX    0.011886   0.043747  -0.006459  -0.000730  -0.092190
   19  P  1 YY    0.011886  -0.043747   0.006459  -0.000730  -0.092190
   20  P  1 ZZ   -0.023771   0.000000   0.000000   0.001459   0.184381
   21  P  1 XY   -0.000000  -0.007458  -0.050514   0.000000   0.000000
   22  P  1 XZ    0.000000   0.000663  -0.000098   0.000000   0.000000
   23  P  1 YZ    0.000000   0.000098   0.000663  -0.000000  -0.000000
   24  P  1 XX    0.005651   0.026966  -0.003982  -0.001231  -0.094731
   25  P  1 YY    0.005651  -0.026966   0.003982  -0.001231  -0.094731
   26  P  1 ZZ   -0.011302   0.000000   0.000000   0.002462   0.189462
   27  P  1 XY   -0.000000  -0.004597  -0.031138   0.000000   0.000000
   28  P  1 XZ   -0.000000   0.000245  -0.000036   0.000000   0.000000
   29  P  1 YZ    0.000000   0.000036   0.000245  -0.000000   0.000000
   30  P  1 XXX   0.011753   0.008296  -0.001225  -0.000060  -0.063129
   31  P  1 YYY  -0.000000   0.001225   0.008296  -0.000000  -0.000000
   32  P  1 ZZZ  -0.000093  -0.000000   0.000000  -0.011555   0.003479
   33  P  1 XXY   0.000000   0.000548   0.003710  -0.000000   0.000000
   34  P  1 XXZ   0.000062   0.000370  -0.000055   0.007751  -0.002334
   35  P  1 YYX  -0.015769   0.003710  -0.000548   0.000081   0.084696
   36  P  1 YYZ   0.000062  -0.000370   0.000055   0.007751  -0.002334
   37  P  1 ZZX  -0.000000  -0.014840   0.002191  -0.000000  -0.000000
   38  P  1 ZZY  -0.000000  -0.002191  -0.014840   0.000000   0.000000
   39  P  1 XYZ  -0.000000  -0.000063  -0.000427   0.000000  -0.000000
   40  P  1 XX    0.002067   0.008429  -0.001244  -0.000068  -0.010162
   41  P  1 YY    0.002067  -0.008429   0.001244  -0.000068  -0.010162
   42  P  1 ZZ   -0.004133  -0.000000   0.000000   0.000136   0.020324
   43  P  1 XY    0.000000  -0.001437  -0.009732   0.000000   0.000000
   44  P  1 XZ    0.000000   0.000122  -0.000018  -0.000000  -0.000000
   45  P  1 YZ    0.000000   0.000018   0.000122  -0.000000   0.000000
   46  H  2  S    0.080473  -0.062561   0.158002   0.000371  -0.193320
   47  H  2  S    0.115783  -0.105562   0.266606   0.001044  -0.366882
   48  H  2  S    0.003817  -0.019693   0.049736   0.000913  -0.053771
   49  H  2  X    0.003955  -0.000931   0.006995   0.000006  -0.006658
   50  H  2  Y   -0.006851   0.005283  -0.010662  -0.000010   0.011532
   51  H  2  Z   -0.000044   0.000029  -0.000073   0.005075  -0.000141
   52  H  2  X    0.008039   0.000069   0.014347  -0.000048  -0.022234
   53  H  2  Y   -0.013923   0.011359  -0.020305   0.000083   0.038510
   54  H  2  Z   -0.000049   0.000005  -0.000014   0.024169  -0.001185
   55  H  2 XX    0.000041   0.001437  -0.000045   0.000011  -0.001249
   56  H  2 YY    0.001940  -0.002429   0.002552   0.000020  -0.004889
   57  H  2 ZZ   -0.001982   0.000993  -0.002507  -0.000032   0.006138
   58  H  2 XY   -0.001899   0.000595  -0.003892  -0.000009   0.003639
   59  H  2 XZ   -0.000008   0.000012  -0.000018   0.001333  -0.000122
   60  H  2 YZ    0.000014  -0.000011   0.000035  -0.002310   0.000212
   61  H  3  S    0.080473  -0.105554  -0.133180   0.000371  -0.193320
   62  H  3  S    0.115783  -0.178107  -0.224723   0.001044  -0.366882
   63  H  3  S    0.003817  -0.033226  -0.041923   0.000913  -0.053771
   64  H  3  X    0.003955  -0.002913  -0.006427   0.000006  -0.006658
   65  H  3  Y    0.006851  -0.008139  -0.008680   0.000010  -0.011532
   66  H  3  Z   -0.000044   0.000049   0.000062   0.005075  -0.000141
   67  H  3  X    0.008039  -0.004080  -0.013755  -0.000048  -0.022234
   68  H  3  Y    0.013923  -0.016743  -0.016156  -0.000083  -0.038510
   69  H  3  Z   -0.000049   0.000009   0.000011   0.024169  -0.001185
   70  H  3 XX    0.000041   0.001388  -0.000372   0.000011  -0.001249
   71  H  3 YY    0.001940  -0.003063  -0.001741   0.000020  -0.004889
   72  H  3 ZZ   -0.001982   0.001675   0.002113  -0.000032   0.006138
   73  H  3 XY    0.001899  -0.001694  -0.003554   0.000009  -0.003639
   74  H  3 XZ   -0.000008   0.000017   0.000014   0.001333  -0.000122
   75  H  3 YZ   -0.000014   0.000021   0.000031   0.002310  -0.000212
   76  H  4  S    0.080473   0.168114  -0.024822   0.000371  -0.193320
   77  H  4  S    0.115783   0.283669  -0.041884   0.001044  -0.366882
   78  H  4  S    0.003817   0.052919  -0.007814   0.000913  -0.053771
   79  H  4  X   -0.007911  -0.013546   0.002000  -0.000011   0.013316
   80  H  4  Y    0.000000   0.000288   0.001952   0.000000   0.000000
   81  H  4  Z   -0.000044  -0.000078   0.000011   0.005075  -0.000141
   82  H  4  X   -0.016077  -0.026343   0.003890   0.000096   0.044468
   83  H  4  Y   -0.000000   0.000902   0.006106  -0.000000  -0.000000
   84  H  4  Z   -0.000049  -0.000014   0.000002   0.024169  -0.001185
   85  H  4 XX    0.002890   0.005130  -0.000757   0.000025  -0.006709
   86  H  4 YY   -0.000908  -0.002462   0.000364   0.000007   0.000570
   87  H  4 ZZ   -0.001982  -0.002667   0.000394  -0.000032   0.006138
   88  H  4 XY    0.000000  -0.000257  -0.001740   0.000000   0.000000
   89  H  4 XZ    0.000016   0.000042  -0.000006  -0.002667   0.000244
   90  H  4 YZ    0.000000   0.000001   0.000005   0.000000  -0.000000

                     11         12         13         14         15
                    0.0000     0.0000    -0.0188     0.0443     0.0443
                     A          A          A          A          A   
    1  P  1  S    0.000000  -0.000000   0.016695  -0.000000  -0.000000
    2  P  1  S    0.000000  -0.000000   0.123517  -0.000000  -0.000000
    3  P  1  S    0.000000  -0.000000   0.402508  -0.000000  -0.000000
    4  P  1  S    0.000000   0.000000   0.012868   0.000000  -0.000000
    5  P  1  S    0.000000  -0.000000   1.667320   0.000000  -0.000000
    6  P  1  X    0.164712  -0.007189  -0.000000   0.007177  -0.145400
    7  P  1  Y    0.007189   0.164712  -0.000000   0.145400   0.007177
    8  P  1  Z   -0.000000   0.000000   0.000741   0.000000   0.000000
    9  P  1  X    0.863890  -0.037704  -0.000000   0.028622  -0.579833
   10  P  1  Y    0.037704   0.863890  -0.000000   0.579833   0.028622
   11  P  1  Z   -0.000000   0.000000   0.004796   0.000000   0.000000
   12  P  1  X    0.142975  -0.006240  -0.000000   0.001709  -0.034613
   13  P  1  Y    0.006240   0.142975  -0.000000   0.034613   0.001709
   14  P  1  Z    0.000000  -0.000000   0.000829  -0.000000  -0.000000
   15  P  1  X    0.342097  -0.014930  -0.000000   0.041809  -0.846963
   16  P  1  Y    0.014930   0.342097  -0.000000   0.846963   0.041809
   17  P  1  Z    0.000000  -0.000000   0.008170  -0.000000   0.000000
   18  P  1 XX   -0.140414   0.006128   0.026988   0.002263  -0.045851
   19  P  1 YY    0.140414  -0.006128   0.026988  -0.002263   0.045851
   20  P  1 ZZ   -0.000000  -0.000000  -0.053976   0.000000   0.000000
   21  P  1 XY    0.007076   0.162136  -0.000000  -0.052944  -0.002613
   22  P  1 XZ   -0.017227   0.000752  -0.000000   0.000185  -0.003746
   23  P  1 YZ   -0.000752  -0.017227  -0.000000   0.003746   0.000185
   24  P  1 XX   -0.036987   0.001614   0.140428   0.013134  -0.266078
   25  P  1 YY    0.036987  -0.001614   0.140428  -0.013134   0.266078
   26  P  1 ZZ   -0.000000  -0.000000  -0.280857   0.000000   0.000000
   27  P  1 XY    0.001864   0.042709  -0.000000  -0.307241  -0.015166
   28  P  1 XZ   -0.020284   0.000885  -0.000000   0.000915  -0.018527
   29  P  1 YZ   -0.000885  -0.020284   0.000000   0.018527   0.000915
   30  P  1 XXX  -0.020167   0.000880   0.015786   0.000718  -0.014551
   31  P  1 YYY  -0.000880  -0.020167   0.000000   0.014551   0.000718
   32  P  1 ZZZ   0.000000  -0.000000  -0.000651   0.000000  -0.000000
   33  P  1 XXY  -0.000394  -0.009019  -0.000000   0.006507   0.000321
   34  P  1 XXZ  -0.000652   0.000028   0.000437   0.000032  -0.000652
   35  P  1 YYX  -0.009019   0.000394  -0.021179   0.000321  -0.006507
   36  P  1 YYZ   0.000652  -0.000028   0.000437  -0.000032   0.000652
   37  P  1 ZZX   0.036075  -0.001574   0.000000  -0.001285   0.026029
   38  P  1 ZZY   0.001574   0.036075  -0.000000  -0.026029  -0.001285
   39  P  1 XYZ   0.000033   0.000753  -0.000000  -0.000753  -0.000037
   40  P  1 XX   -0.016178   0.000706   0.007402   0.000485  -0.009826
   41  P  1 YY    0.016178  -0.000706   0.007402  -0.000485   0.009826
   42  P  1 ZZ   -0.000000   0.000000  -0.014804   0.000000   0.000000
   43  P  1 XY    0.000815   0.018681  -0.000000  -0.011346  -0.000560
   44  P  1 XZ   -0.001623   0.000071  -0.000000   0.000054  -0.001091
   45  P  1 YZ   -0.000071  -0.001623  -0.000000   0.001091   0.000054
   46  H  2  S    0.122555  -0.235415   0.010445   0.015486   0.009990
   47  H  2  S    0.301733  -0.579599   0.214992   0.225627   0.145552
   48  H  2  S    0.020734  -0.039829  -1.197460  -1.809884  -1.167553
   49  H  2  X    0.017740  -0.007780   0.009022   0.011007   0.005658
   50  H  2  Y   -0.005852   0.026424  -0.015626  -0.017548  -0.012153
   51  H  2  Z    0.000469  -0.000901  -0.000113  -0.000144  -0.000093
   52  H  2  X    0.076130  -0.048641  -0.034869  -0.055668  -0.033988
   53  H  2  Y   -0.039544   0.132308   0.060395   0.094397   0.062005
   54  H  2  Z    0.001810  -0.003476   0.000504   0.002817   0.001817
   55  H  2 XX    0.005382   0.005343  -0.000132   0.002293  -0.000163
   56  H  2 YY   -0.000273  -0.015157  -0.001637  -0.006443  -0.002514
   57  H  2 ZZ   -0.005109   0.009813   0.001769   0.004151   0.002678
   58  H  2 XY   -0.011473   0.011584   0.001505   0.006741   0.005443
   59  H  2 XZ   -0.000227  -0.000657   0.000033   0.000028   0.000021
   60  H  2 YZ   -0.000640   0.000599  -0.000057  -0.000051  -0.000031
   61  H  3  S    0.142598   0.223843   0.010445  -0.016395   0.008417
   62  H  3  S    0.351081   0.551108   0.214992  -0.238865   0.122623
   63  H  3  S    0.024126   0.037871  -1.197460   1.916073  -0.983629
   64  H  3  X    0.018350   0.006205   0.009022  -0.011511   0.004547
   65  H  3  Y    0.008132   0.025814   0.015626  -0.018659   0.010366
   66  H  3  Z    0.000546   0.000857  -0.000113   0.000153  -0.000078
   67  H  3  X    0.080078   0.041824  -0.034869   0.058745  -0.028341
   68  H  3  Y    0.050921   0.128360  -0.060395   0.100044  -0.052407
   69  H  3  Z    0.002106   0.003305   0.000504  -0.002982   0.001531
   70  H  3 XX    0.004896  -0.005792  -0.000132  -0.002265  -0.000388
   71  H  3 YY    0.001048   0.015123  -0.001637   0.006660  -0.001867
   72  H  3 ZZ   -0.005944  -0.009331   0.001769  -0.004394   0.002256
   73  H  3 XY    0.012438   0.010540  -0.001505   0.007244  -0.004753
   74  H  3 XZ   -0.000169   0.000674   0.000033  -0.000030   0.000018
   75  H  3 YZ    0.000690   0.000541   0.000057  -0.000054   0.000026
   76  H  4  S   -0.265153   0.011572   0.010445   0.000909  -0.018407
   77  H  4  S   -0.652814   0.028491   0.214992   0.013238  -0.268175
   78  H  4  S   -0.044860   0.001958  -1.197460  -0.106189   2.151182
   79  H  4  X    0.030156  -0.001316  -0.018044  -0.001215   0.024604
   80  H  4  Y    0.000611   0.014008  -0.000000   0.001398   0.000069
   81  H  4  Z   -0.001015   0.000044  -0.000113  -0.000008   0.000171
   82  H  4  X    0.156449  -0.006828   0.069738   0.006429  -0.130249
   83  H  4  Y    0.002269   0.051989   0.000000  -0.001864  -0.000092
   84  H  4  Z   -0.003915   0.000171   0.000504   0.000165  -0.003348
   85  H  4 XX   -0.021084   0.000920  -0.002389  -0.000547   0.011072
   86  H  4 YY    0.010031  -0.000438   0.000620   0.000303  -0.006138
   87  H  4 ZZ    0.011053  -0.000482   0.001769   0.000244  -0.004933
   88  H  4 XY   -0.000421  -0.009646  -0.000000  -0.001838  -0.000091
   89  H  4 XZ    0.000954  -0.000042  -0.000066  -0.000003   0.000069
   90  H  4 YZ   -0.000025  -0.000582  -0.000000  -0.000003  -0.000000

                     16         17         18         19         20
                    0.1340     0.1340     0.1759     0.2061     0.2061
                     A          A          A          A          A   
    1  P  1  S    0.000000  -0.000000   0.000158  -0.000000   0.000000
    2  P  1  S    0.000000  -0.000000   0.001209  -0.000000   0.000000
    3  P  1  S    0.000000  -0.000000   0.003700  -0.000000   0.000000
    4  P  1  S   -0.000000   0.000000   0.000245  -0.000000   0.000000
    5  P  1  S   -0.000000  -0.000000   0.008040   0.000000  -0.000000
    6  P  1  X   -0.000491  -0.012260   0.000000  -0.078254   0.017325
    7  P  1  Y   -0.012260   0.000491  -0.000000  -0.017325  -0.078254
    8  P  1  Z    0.000000   0.000000  -0.326644  -0.000000  -0.000000
    9  P  1  X   -0.001723  -0.043006   0.000000  -0.497143   0.110065
   10  P  1  Y   -0.043006   0.001723   0.000000  -0.110065  -0.497143
   11  P  1  Z    0.000000   0.000000  -1.187570  -0.000000  -0.000000
   12  P  1  X   -0.000070  -0.001743   0.000000  -0.077119   0.017074
   13  P  1  Y   -0.001743   0.000070   0.000000  -0.017074  -0.077119
   14  P  1  Z    0.000000   0.000000  -0.031147   0.000000  -0.000000
   15  P  1  X    0.008649   0.215947  -0.000000   3.496449  -0.774098
   16  P  1  Y    0.215947  -0.008649  -0.000000   0.774098   3.496449
   17  P  1  Z   -0.000000  -0.000000   1.398682  -0.000000   0.000000
   18  P  1 XX   -0.000205  -0.005130   0.000578   0.040394  -0.008943
   19  P  1 YY    0.000205   0.005130   0.000578  -0.040394   0.008943
   20  P  1 ZZ    0.000000   0.000000  -0.001157  -0.000000   0.000000
   21  P  1 XY    0.005924  -0.000237   0.000000  -0.010326  -0.046642
   22  P  1 XZ    0.005028   0.125522   0.000000  -0.006860   0.001519
   23  P  1 YZ    0.125522  -0.005028   0.000000  -0.001519  -0.006860
   24  P  1 XX    0.000269   0.006723   0.001404   0.702935  -0.155627
   25  P  1 YY   -0.000269  -0.006723   0.001404  -0.702935   0.155627
   26  P  1 ZZ   -0.000000   0.000000  -0.002807  -0.000000   0.000000
   27  P  1 XY   -0.007764   0.000311   0.000000  -0.179702  -0.811679
   28  P  1 XZ    0.032110   0.801695   0.000000  -0.041668   0.009225
   29  P  1 YZ    0.801695  -0.032110   0.000000  -0.009225  -0.041668
   30  P  1 XXX   0.000106   0.002639  -0.000036   0.062226  -0.013777
   31  P  1 YYY   0.002639  -0.000106  -0.000000   0.013777   0.062226
   32  P  1 ZZZ   0.000000   0.000000  -0.003951   0.000000  -0.000000
   33  P  1 XXY   0.001180  -0.000047  -0.000000   0.006161   0.027828
   34  P  1 XXZ   0.000182   0.004550   0.002651   0.002479  -0.000549
   35  P  1 YYX   0.000047   0.001180   0.000049   0.027828  -0.006161
   36  P  1 YYZ  -0.000182  -0.004550   0.002651  -0.002479   0.000549
   37  P  1 ZZX  -0.000189  -0.004721   0.000000  -0.111313   0.024644
   38  P  1 ZZY  -0.004721   0.000189   0.000000  -0.024644  -0.111313
   39  P  1 XYZ  -0.005254   0.000210   0.000000  -0.000634  -0.002862
   40  P  1 XX   -0.000059  -0.001483   0.000113   0.007433  -0.001646
   41  P  1 YY    0.000059   0.001483   0.000113  -0.007433   0.001646
   42  P  1 ZZ    0.000000  -0.000000  -0.000225   0.000000   0.000000
   43  P  1 XY    0.001712  -0.000069   0.000000  -0.001900  -0.008582
   44  P  1 XZ    0.001949   0.048669   0.000000  -0.003025   0.000670
   45  P  1 YZ    0.048669  -0.001949   0.000000  -0.000670  -0.003025
   46  H  2  S    0.000069  -0.000044   0.000121  -0.018810   0.059599
   47  H  2  S   -0.031475   0.019893  -0.000619   0.164177  -0.520187
   48  H  2  S   -0.108298   0.068446  -0.005722   0.813625  -2.577923
   49  H  2  X    0.000366   0.000104   0.000040  -0.003267   0.008281
   50  H  2  Y   -0.000284   0.000373  -0.000070   0.004287  -0.014777
   51  H  2  Z    0.000423  -0.000267   0.005376   0.000020  -0.000063
   52  H  2  X   -0.001896   0.008381  -0.000251   0.092679  -0.166515
   53  H  2  Y    0.010776  -0.002664   0.000434  -0.076255   0.315010
   54  H  2  Z    0.104618  -0.066121  -0.045542   0.001933  -0.006126
   55  H  2 XX    0.000086   0.000063  -0.000008   0.002842   0.002961
   56  H  2 YY   -0.000116  -0.000045   0.000051  -0.001006  -0.008778
   57  H  2 ZZ    0.000029  -0.000018  -0.000043  -0.001836   0.005817
   58  H  2 XY    0.000060  -0.000117  -0.000060  -0.005310   0.008848
   59  H  2 XZ   -0.001703   0.002315   0.000033  -0.000138   0.000223
   60  H  2 YZ    0.004241  -0.001965  -0.000058   0.000097  -0.000431
   61  H  3  S   -0.000073  -0.000038   0.000121  -0.042209  -0.046089
   62  H  3  S    0.032965   0.017312  -0.000619   0.368406   0.402275
   63  H  3  S    0.113425   0.059566  -0.005722   1.825735   1.993581
   64  H  3  X   -0.000357   0.000133   0.000040  -0.006457  -0.006129
   65  H  3  Y   -0.000313  -0.000349   0.000070  -0.010123  -0.011587
   66  H  3  Z   -0.000443  -0.000232   0.005376   0.000045   0.000049
   67  H  3  X    0.002561   0.008203  -0.000251   0.154305   0.111834
   68  H  3  Y    0.010955   0.001793  -0.000434   0.202095   0.253384
   69  H  3  Z   -0.109571  -0.057542  -0.045542   0.004338   0.004737
   70  H  3 XX   -0.000081   0.000070  -0.000008   0.001326  -0.003884
   71  H  3 YY    0.000112  -0.000054   0.000051   0.002793   0.008382
   72  H  3 ZZ   -0.000030  -0.000016  -0.000043  -0.004120  -0.004498
   73  H  3 XY    0.000069   0.000111   0.000060   0.008549   0.005780
   74  H  3 XZ    0.001882   0.002171   0.000033  -0.000219  -0.000144
   75  H  3 YZ    0.004385   0.001620   0.000058  -0.000269  -0.000349
   76  H  4  S    0.000003   0.000082   0.000121   0.061019  -0.013509
   77  H  4  S   -0.001490  -0.037204  -0.000619  -0.532584   0.117912
   78  H  4  S   -0.005127  -0.128012  -0.005722  -2.639359   0.584342
   79  H  4  X   -0.000020  -0.000507  -0.000081  -0.017342   0.003839
   80  H  4  Y    0.000327  -0.000013   0.000000  -0.000156  -0.000702
   81  H  4  Z    0.000020   0.000499   0.005376  -0.000065   0.000014
   82  H  4  X    0.000487   0.012152   0.000502   0.364549  -0.080710
   83  H  4  Y    0.007005  -0.000281  -0.000000   0.009551   0.043139
   84  H  4  Z    0.004953   0.123662  -0.045542  -0.006272   0.001389
   85  H  4 XX   -0.000005  -0.000130   0.000081  -0.012777   0.002829
   86  H  4 YY    0.000004   0.000096  -0.000038   0.006821  -0.001510
   87  H  4 ZZ    0.000001   0.000034  -0.000043   0.005955  -0.001318
   88  H  4 XY   -0.000133   0.000005   0.000000  -0.001038  -0.004688
   89  H  4 XZ    0.000214   0.005348  -0.000067  -0.000496   0.000110
   90  H  4 YZ    0.001208  -0.000048   0.000000  -0.000016  -0.000073

                     21         22         23         24         25
                    0.2912     0.3827     0.5062     0.5062     0.5395
                     A          A          A          A          A   
    1  P  1  S   -0.080862  -0.004760   0.000000   0.000000   0.000000
    2  P  1  S   -0.605043  -0.044562   0.000000   0.000000   0.000000
    3  P  1  S   -1.299989  -0.041462   0.000000   0.000000   0.000000
    4  P  1  S   -0.454078  -0.260802  -0.000000   0.000000   0.000000
    5  P  1  S    6.415076   2.863912   0.000000  -0.000000  -0.000000
    6  P  1  X   -0.000000  -0.000000   0.033636  -0.234230   0.000000
    7  P  1  Y    0.000000   0.000000  -0.234230  -0.033636   0.000000
    8  P  1  Z    0.003944   0.004759  -0.000000   0.000000   0.000000
    9  P  1  X   -0.000000  -0.000000   0.112548  -0.783750   0.000000
   10  P  1  Y    0.000000   0.000000  -0.783750  -0.112548   0.000000
   11  P  1  Z    0.006219   0.015420  -0.000000   0.000000   0.000000
   12  P  1  X    0.000000   0.000000   0.003119  -0.021721   0.000000
   13  P  1  Y   -0.000000  -0.000000  -0.021721  -0.003119  -0.000000
   14  P  1  Z   -0.002208   0.000058   0.000000   0.000000   0.000000
   15  P  1  X   -0.000000   0.000000   0.155928  -1.085840   0.000000
   16  P  1  Y    0.000000   0.000000  -1.085840  -0.155928   0.000000
   17  P  1  Z    0.025004   0.012634  -0.000000   0.000000   0.000000
   18  P  1 XX    0.033688   0.057451   0.012907  -0.089879   0.000000
   19  P  1 YY    0.033688   0.057451  -0.012907   0.089879  -0.000000
   20  P  1 ZZ   -0.067377  -0.114902  -0.000000  -0.000000   0.000000
   21  P  1 XY   -0.000000  -0.000000   0.103783   0.014903  -0.000000
   22  P  1 XZ   -0.000000  -0.000000   0.000216  -0.001502   0.000000
   23  P  1 YZ   -0.000000   0.000000  -0.001502  -0.000216   0.000000
   24  P  1 XX    0.266437   0.729944   0.165953  -1.155652   0.000000
   25  P  1 YY    0.266437   0.729944  -0.165953   1.155652  -0.000000
   26  P  1 ZZ   -0.532874  -1.459887  -0.000000   0.000000   0.000000
   27  P  1 XY   -0.000000  -0.000000   1.334432   0.191627  -0.000000
   28  P  1 XZ    0.000000  -0.000000   0.004117  -0.028670   0.000000
   29  P  1 YZ    0.000000   0.000000  -0.028670  -0.004117  -0.000000
   30  P  1 XXX   0.261220   0.132393  -0.000910   0.006337  -0.000000
   31  P  1 YYY   0.000000  -0.000000   0.006337   0.000910   0.058380
   32  P  1 ZZZ  -0.004511  -0.002998   0.000000   0.000000   0.000000
[...]

      Det      Coef        Coefp    Occupancy (Ignoring core)
      ---      ----        ----    --------- --------- -----
       36    0.948216    0.948216  22+2000
       16    0.118139   -0.118139  222000+
       71    0.113950   -0.113950  2+22000
      142   -0.112826   -0.112826  22+0200
       39    0.084089    0.084089  2-+2+00
       73   -0.084089    0.084089  2+-2+00
       52   -0.076298    0.076298  220200+
      108    0.057666    0.057666  +2-2+00
      249   -0.057046    0.057046  20+2200
      123   -0.054329    0.054329  +-2200+
      112    0.054329    0.054329  +2-20+0
      463   -0.052264    0.052264  20+2020
       88   -0.045066    0.045066  202200+
      456    0.043512    0.043512  2++20-0
       77   -0.037372    0.037372  2+-20+0
      460    0.035500    0.035500  -++2+-0
       40   -0.031224    0.031224  -2+2+00
      876    0.030345    0.030345  ++2200-
      491   -0.030345    0.030345  +2+20-0
      288    0.028540    0.028540  +-+2-+0
       38   -0.027882    0.027882  2202+00
       74    0.027882   -0.027882  2022+00
      499   -0.027708    0.027708  02+2020
      859   -0.027706    0.027706  02+2002
      494   -0.027436    0.027436  +-+2+-0
      285   -0.027092    0.027092  02+2200
      823   -0.026637    0.026637  20+2002
      281   -0.026442    0.026442  +2+2-00
      254   -0.024875    0.024875  -++2-+0
       44   -0.023984    0.023984  -2+20+0
       89    0.023984    0.023984  -+2200+
      297   -0.023421    0.023421  +202-0+
      459    0.023386   -0.023386  20+2+-0
      808   -0.023386    0.023386  2+02+0-
      253   -0.022823   -0.022823  20+2-+0
      262    0.022823    0.022823  2+02-0+

 State #    3  Energy =    -342.181011492

      Det      Coef        Coefp    Occupancy (Ignoring core)
      ---      ----        ----    --------- --------- -----
       71    0.948216   -0.948216  2+22000
        6   -0.118139    0.118139  22200+0
       36   -0.113950   -0.113950  22+2000
      177   -0.112826    0.112826  2+20200
       74   -0.084089    0.084089  2022+00
       38    0.084089   -0.084089  2202+00
       78    0.076298   -0.076298  20220+0
      109    0.057666   -0.057666  +-22+00
      248   -0.057046    0.057046  2+02200
      113   -0.054329    0.054329  +-220+0
      122   -0.054329   -0.054329  +2-200+
      822   -0.052264    0.052264  2+02002
       42    0.045066   -0.045066  22020+0
      806    0.043512    0.043512  2++200-
       53   -0.037372   -0.037372  2-+200+
      810    0.035500    0.035500  -++2+0-
       75   -0.031224   -0.031224  -+22+00
      526    0.030345    0.030345  ++220-0
      841    0.030345   -0.030345  +2+200-
      332    0.028540   -0.028540  ++-2-0+
       73   -0.027882    0.027882  2+-2+00
       39    0.027882    0.027882  2-+2+00
      894   -0.027708   -0.027708  0+22002
      534   -0.027706   -0.027706  0+22020
      878   -0.027436   -0.027436  ++-2+0-
      320   -0.027092   -0.027092  0+22200
      462   -0.026637    0.026637  2+02020
      316   -0.026442   -0.026442  ++22-00
      264   -0.024875    0.024875  -++2-0+
       79    0.023984    0.023984  -+220+0
       54    0.023984   -0.023984  -2+200+
      323    0.023421   -0.023421  +022-+0
      809   -0.023386    0.023386  20+2+0-
      458   -0.023386    0.023386  2+02+-0
      252    0.022823    0.022823  2+02-+0
      263    0.022823    0.022823  20+2-0+

 ---------------------------------------
      - DIABATIC STATES IN CMO -        
 ---------------------------------------

 State #    1  Energy =    -342.419370458

      Det      Coef        Coefp    Occupancy (Ignoring core)
      ---      ----        ----    --------- --------- -----
        1    0.977747   -0.977747  222+000
      107   -0.076169    0.076169  +22-+00
      143   -0.052517   -0.052517  220+200
      179   -0.052517   -0.052517  202+200
        5    0.049887    0.049887  -22++00
      393   -0.047374   -0.047374  202+020
      717   -0.047374   -0.047374  220+002
      357   -0.034263   -0.034263  220+020
      753   -0.034263   -0.034263  202+002
        8    0.031638   -0.031638  2-2+0+0
       17    0.031638    0.031638  22-+00+
      215   -0.030860   -0.030860  022+200
       76   -0.026695   -0.026695  2+2-0+0
       51   -0.026695    0.026695  22+-00+
      211    0.026282    0.026282  +22+-00
      389   -0.025760   -0.025760  202++-0
      704    0.025760   -0.025760  2-+++0-
      353    0.025760    0.025760  220++-0
      738   -0.025760   -0.025760  2+-++0-
       29   -0.025602   -0.025602  2--+0++
      218   -0.023899    0.023899  +-2+-+0
      227   -0.023899   -0.023899  +2-+-0+
      789   -0.023565   -0.023565  022+002
      429   -0.023565   -0.023565  022+020
      192    0.023488   -0.023488  2+-+-0+
      147   -0.023488    0.023488  220+-+0
      158   -0.023488   -0.023488  2-++-0+
      183    0.023488   -0.023488  202+-+0
     1051   -0.020886   -0.020886  2+++0--
      705   -0.020594   -0.020594  -2+++0-
      390   -0.020594    0.020594  -+2++-0
      773    0.020292   -0.020292  +2-++0-
      424    0.020292    0.020292  +-2++-0

 State #    2  Energy =    -342.181011492

      Det      Coef        Coefp    Occupancy (Ignoring core)
      ---      ----        ----    --------- --------- -----
       36    0.882132    0.882132  22+2000
       71   -0.366317    0.366317  2+22000
       16    0.116619   -0.116619  222000+
      142   -0.105055   -0.105055  22+0200
       52   -0.069181    0.069181  220200+
       39    0.067409    0.067409  2-+2+00
       73   -0.067409    0.067409  2+-2+00
       74   -0.057498    0.057498  2022+00
       38    0.057498   -0.057498  2202+00
      123   -0.055013    0.055013  +-2200+
      112   -0.055013   -0.055013  +2-20+0
      108    0.053655    0.053655  +2-2+00
      249   -0.053064    0.053064  20+2200
       88   -0.050570    0.050570  202200+
      463   -0.046379    0.046379  20+2020
      177    0.043625   -0.043625  2+20200
      456   -0.042979   -0.042979  2++20-0
      460   -0.035038   -0.035038  -++2+-0
       77    0.030795   -0.030795  2+-20+0
      876    0.030720    0.030720  ++2200-
      491    0.030720   -0.030720  +2+20-0
       40   -0.029087    0.029087  -2+2+00
      823   -0.027022    0.027022  20+2002
      499   -0.025766    0.025766  02+2020
      859   -0.025765    0.025765  02+2002
      285   -0.025212    0.025212  02+2200
      281   -0.024569    0.024569  +2+2-00
      254    0.024555   -0.024555  -++2-+0
       89    0.024293    0.024293  -+2200+
       44    0.024293   -0.024293  -2+20+0
      462    0.023713   -0.023713  2+02020
      459   -0.023679    0.023679  20+2+-0
      808   -0.023679    0.023679  2+02+0-
      253    0.023115    0.023115  20+2-+0
      262    0.023115    0.023115  2+02-0+
       42   -0.022841    0.022841  22020+0
      288   -0.022624   -0.022624  +-+2-+0
      494    0.022554   -0.022554  +-+2+-0
      109   -0.022281    0.022281  +-22+00
      248    0.022035   -0.022035  2+02200

 State #    3  Energy =    -342.181011492

      Det      Coef        Coefp    Occupancy (Ignoring core)
      ---      ----        ----    --------- --------- -----
       71    0.882132   -0.882132  2+22000
       36    0.366317    0.366317  22+2000
        6    0.116619   -0.116619  22200+0
      177   -0.105055    0.105055  2+20200
       78   -0.069181    0.069181  20220+0
       74   -0.067409    0.067409  2022+00
       38    0.067409   -0.067409  2202+00
       39   -0.057498   -0.057498  2-+2+00
       73    0.057498   -0.057498  2+-2+00
      113    0.055013   -0.055013  +-220+0
      122   -0.055013   -0.055013  +2-200+
      109    0.053655   -0.053655  +-22+00
      248   -0.053064    0.053064  2+02200
       42   -0.050570    0.050570  22020+0
      822   -0.046379    0.046379  2+02002
      142   -0.043625   -0.043625  22+0200
      806    0.042979    0.042979  2++200-
      810    0.035038    0.035038  -++2+0-
       53   -0.030795   -0.030795  2-+200+
      526   -0.030720   -0.030720  ++220-0
      841    0.030720   -0.030720  +2+200-
       75   -0.029087   -0.029087  -+22+00
      462   -0.027022    0.027022  2+02020
      894   -0.025766   -0.025766  0+22002
      534   -0.025765   -0.025765  0+22020
      320   -0.025212   -0.025212  0+22200
      316   -0.024569   -0.024569  ++22-00
      264   -0.024555    0.024555  -++2-0+
       79   -0.024293   -0.024293  -+220+0
       54    0.024293   -0.024293  -2+200+
      823   -0.023713    0.023713  20+2002
      809   -0.023679    0.023679  20+2+0-
      458    0.023679   -0.023679  2+02+-0
      252   -0.023115   -0.023115  2+02-+0
      263    0.023115    0.023115  20+2-0+
       88    0.022841   -0.022841  202200+
      332    0.022624   -0.022624  ++-2-0+
      878   -0.022554   -0.022554  ++-2+0-
      108    0.022281    0.022281  +2-2+00
      249   -0.022035    0.022035  20+2200

 ---------------------------------------
    -DIABATIC STATES IN PROTOTYPES-     
 ---------------------------------------

     STATE:    1
 Group Ref#    Coefficients
     1    1    0.998950
     2    2   -0.000001
     3    3   -0.000002

WEIGHT OF LISTED PROTOTYPES:   99.79%

     STATE:    2
 Group Ref#    Coefficients
     1    1   -0.000001
     2    2    0.997301
     3    3   -0.000000

WEIGHT OF LISTED PROTOTYPES:   99.46%

     STATE:    3
 Group Ref#    Coefficients
     1    1   -0.000002
     2    2   -0.000000
     3    3    0.997301

WEIGHT OF LISTED PROTOTYPES:   99.46%

     DIRECT MAX. DIABATIZATION FINISHED    
 CPU     0: STEP CPU TIME=     0.28 TOTAL CPU TIME=        164.8 (      2.7 MIN)
 TOTAL WALL CLOCK TIME=        195.4 SECONDS, CPU UTILIZATION IS    84.32%

DIABATS FOR SPIN-ORBIT CALCULATION ARE READY

TRANSITION DIPOLES BETWEEN ADIABATS (in A.U.):

STATE PAIR      X         Y         Z
    1    1  0.000000 -0.000000  0.037865
    2    1 -0.001102 -0.007396 -0.000000
    2    2  0.404546  0.123303  0.019149
    3    1  0.007396 -0.001102 -0.000000
    3    2  0.123303 -0.404546 -0.000000
    3    3 -0.404546 -0.123303  0.019149


TRANSITION DIPOLES BETWEEN DIABATS (in A.U.):

STATE PAIR      X         Y         Z
    1    1  0.000000  0.000000  0.037865
    2    1  0.000202 -0.007476  0.000000
    2    2  0.422304 -0.022818  0.019149
    3    1 -0.007475 -0.000202  0.000000
    3    2  0.022818  0.422304  0.000000
    3    3 -0.422304  0.022818  0.019149

TRANSITION DIPOLES BETWEEN DIRECT MAX. DIABATS (in A.U.):

STATE PAIR      X         Y         Z
    1    1  0.000000  0.000000  0.037865
    2    1  0.000202 -0.007476  0.000000
    2    2  0.422304 -0.022818  0.019149
    3    1 -0.007475 -0.000202  0.000000
    3    2  0.022818  0.422304  0.000000
    3    3 -0.422304  0.022818  0.019149
 No $TRANST Group Found.
 Quit without doing spin-orbit coupling
 ..... DONE WITH MP2 ENERGY .....
 CPU     0: STEP CPU TIME=     0.00 TOTAL CPU TIME=        164.8 (      2.7 MIN)
 TOTAL WALL CLOCK TIME=        195.4 SECONDS, CPU UTILIZATION IS    84.32%
            100000000  WORDS OF DYNAMIC MEMORY USED
 EXECUTION OF GAMESS TERMINATED NORMALLY Sat Nov 25 23:45:47 2023
 DDI: 4351152 bytes (4.1 MB / 0 MWords) used by master data server.

 ----------------------------------------
 CPU timing information for all processes
 ========================================
 0: 163.815 + 0.963 = 164.778
 1: 162.42 + 0.740 = 162.783
 ----------------------------------------
Note: The following floating-point exceptions are signalling: IEEE_DENORMAL
Note: The following floating-point exceptions are signalling: IEEE_DENORMAL
 ddikick.x: exited gracefully.
unset echo
----- accounting info -----
Files used on the master node io001 were:
-rw-r--r-- 1 bjb2chen nooijen  134262 Nov 25 23:42 /home/bjb2chen/gmsscr//ph3_cct_gmcpt_D3h_3st_diab_mode1_+0.05x2.F05
-rw-r--r-- 1 bjb2chen nooijen 2366136 Nov 25 23:45 /home/bjb2chen/gmsscr//ph3_cct_gmcpt_D3h_3st_diab_mode1_+0.05x2.F09
-rw-r--r-- 1 bjb2chen nooijen 2880256 Nov 25 23:45 /home/bjb2chen/gmsscr//ph3_cct_gmcpt_D3h_3st_diab_mode1_+0.05x2.F09.001
-rw-r--r-- 1 bjb2chen nooijen 2715760 Nov 25 23:45 /home/bjb2chen/gmsscr//ph3_cct_gmcpt_D3h_3st_diab_mode1_+0.05x2.F10
-rw-r--r-- 1 bjb2chen nooijen 1077600 Nov 25 23:45 /home/bjb2chen/gmsscr//ph3_cct_gmcpt_D3h_3st_diab_mode1_+0.05x2.F13
-rw-r--r-- 1 bjb2chen nooijen 1077600 Nov 25 23:45 /home/bjb2chen/gmsscr//ph3_cct_gmcpt_D3h_3st_diab_mode1_+0.05x2.F13.001
-rw-r--r-- 1 bjb2chen nooijen  180648 Nov 25 23:45 /home/bjb2chen/gmsscr//ph3_cct_gmcpt_D3h_3st_diab_mode1_+0.05x2.F15
-rw-r--r-- 1 bjb2chen nooijen       0 Nov 25 23:42 /home/bjb2chen/gmsscr//ph3_cct_gmcpt_D3h_3st_diab_mode1_+0.05x2.F16
-rw-r--r-- 1 bjb2chen nooijen    9808 Nov 25 23:45 /home/bjb2chen/gmsscr//ph3_cct_gmcpt_D3h_3st_diab_mode1_+0.05x2.F70
-rw-r--r-- 1 bjb2chen nooijen    9808 Nov 25 23:45 /home/bjb2chen/gmsscr//ph3_cct_gmcpt_D3h_3st_diab_mode1_+0.05x2.F70.001
-rw-r--r-- 1 bjb2chen nooijen    9808 Nov 25 23:45 /home/bjb2chen/gmsscr//ph3_cct_gmcpt_D3h_3st_diab_mode1_+0.05x2.F71
-rw-r--r-- 1 bjb2chen nooijen    9808 Nov 25 23:45 /home/bjb2chen/gmsscr//ph3_cct_gmcpt_D3h_3st_diab_mode1_+0.05x2.F71.001
-rw-r--r-- 1 bjb2chen nooijen   19608 Nov 25 23:45 /home/bjb2chen/gmsscr//ph3_cct_gmcpt_D3h_3st_diab_mode1_+0.05x2.F72
-rw-r--r-- 1 bjb2chen nooijen   19608 Nov 25 23:45 /home/bjb2chen/gmsscr//ph3_cct_gmcpt_D3h_3st_diab_mode1_+0.05x2.F72.001
-rw-r--r-- 1 bjb2chen nooijen   19608 Nov 25 23:45 /home/bjb2chen/gmsscr//ph3_cct_gmcpt_D3h_3st_diab_mode1_+0.05x2.F73
-rw-r--r-- 1 bjb2chen nooijen   19608 Nov 25 23:45 /home/bjb2chen/gmsscr//ph3_cct_gmcpt_D3h_3st_diab_mode1_+0.05x2.F73.001
-rw-r--r-- 1 bjb2chen nooijen  961208 Nov 25 23:45 /home/bjb2chen/gmsscr//ph3_cct_gmcpt_D3h_3st_diab_mode1_+0.05x2.F74
-rw-r--r-- 1 bjb2chen nooijen  959640 Nov 25 23:45 /home/bjb2chen/gmsscr//ph3_cct_gmcpt_D3h_3st_diab_mode1_+0.05x2.F74.001
-rw-r--r-- 1 bjb2chen nooijen       0 Nov 25 23:42 /home/bjb2chen/gmsscr//ph3_cct_gmcpt_D3h_3st_diab_mode1_+0.05x2.F75
-rw-r--r-- 1 bjb2chen nooijen       0 Nov 25 23:42 /home/bjb2chen/gmsscr//ph3_cct_gmcpt_D3h_3st_diab_mode1_+0.05x2.F75.001
-rw-r--r-- 1 bjb2chen nooijen   58848 Nov 25 23:45 /home/bjb2chen/gmsscr//ph3_cct_gmcpt_D3h_3st_diab_mode1_+0.05x2.F76
-rw-r--r-- 1 bjb2chen nooijen   58848 Nov 25 23:45 /home/bjb2chen/gmsscr//ph3_cct_gmcpt_D3h_3st_diab_mode1_+0.05x2.F76.001
-rw-r--r-- 1 bjb2chen nooijen       0 Nov 25 23:42 /home/bjb2chen/gmsscr//ph3_cct_gmcpt_D3h_3st_diab_mode1_+0.05x2.F77
-rw-r--r-- 1 bjb2chen nooijen       0 Nov 25 23:42 /home/bjb2chen/gmsscr//ph3_cct_gmcpt_D3h_3st_diab_mode1_+0.05x2.F77.001
-rw-r--r-- 1 bjb2chen nooijen    5128 Nov 25 23:45 /home/bjb2chen/gmsscr//ph3_cct_gmcpt_D3h_3st_diab_mode1_+0.05x2.F78
-rw-r--r-- 1 bjb2chen nooijen    5128 Nov 25 23:45 /home/bjb2chen/gmsscr//ph3_cct_gmcpt_D3h_3st_diab_mode1_+0.05x2.F78.001
-rw-r--r-- 1 bjb2chen nooijen   39208 Nov 25 23:45 /home/bjb2chen/gmsscr//ph3_cct_gmcpt_D3h_3st_diab_mode1_+0.05x2.F79
-rw-r--r-- 1 bjb2chen nooijen   39208 Nov 25 23:45 /home/bjb2chen/gmsscr//ph3_cct_gmcpt_D3h_3st_diab_mode1_+0.05x2.F79.001
-rw-r--r-- 1 bjb2chen nooijen     104 Nov 25 23:45 /home/bjb2chen/gmsscr//ph3_cct_gmcpt_D3h_3st_diab_mode1_+0.05x2.F80
-rw-r--r-- 1 bjb2chen nooijen     104 Nov 25 23:45 /home/bjb2chen/gmsscr//ph3_cct_gmcpt_D3h_3st_diab_mode1_+0.05x2.F80.001
-rw-r--r-- 1 bjb2chen nooijen  102416 Nov 25 23:45 /home/bjb2chen/gmsscr//ph3_cct_gmcpt_D3h_3st_diab_mode1_+0.05x2.F81
-rw-r--r-- 1 bjb2chen nooijen  102416 Nov 25 23:45 /home/bjb2chen/gmsscr//ph3_cct_gmcpt_D3h_3st_diab_mode1_+0.05x2.F81.001
-rw-r--r-- 1 bjb2chen nooijen     136 Nov 25 23:45 /home/bjb2chen/gmsscr//ph3_cct_gmcpt_D3h_3st_diab_mode1_+0.05x2.F82
-rw-r--r-- 1 bjb2chen nooijen     136 Nov 25 23:45 /home/bjb2chen/gmsscr//ph3_cct_gmcpt_D3h_3st_diab_mode1_+0.05x2.F82.001
-rw-r--r-- 1 bjb2chen nooijen   19216 Nov 25 23:45 /home/bjb2chen/gmsscr//ph3_cct_gmcpt_D3h_3st_diab_mode1_+0.05x2.F83
-rw-r--r-- 1 bjb2chen nooijen   19216 Nov 25 23:45 /home/bjb2chen/gmsscr//ph3_cct_gmcpt_D3h_3st_diab_mode1_+0.05x2.F83.001
-rw-r--r-- 1 bjb2chen nooijen  154896 Nov 25 23:45 /home/bjb2chen/gmsscr//ph3_cct_gmcpt_D3h_3st_diab_mode1_+0.05x2.F84
-rw-r--r-- 1 bjb2chen nooijen  154896 Nov 25 23:45 /home/bjb2chen/gmsscr//ph3_cct_gmcpt_D3h_3st_diab_mode1_+0.05x2.F84.001
-rw-r--r-- 1 bjb2chen nooijen 1638536 Nov 25 23:45 /home/bjb2chen/gmsscr//ph3_cct_gmcpt_D3h_3st_diab_mode1_+0.05x2.F85
-rw-r--r-- 1 bjb2chen nooijen 1638536 Nov 25 23:45 /home/bjb2chen/gmsscr//ph3_cct_gmcpt_D3h_3st_diab_mode1_+0.05x2.F85.001
-rw-r--r-- 1 bjb2chen nooijen 7822456 Nov 25 23:45 /home/bjb2chen/gmsscr//ph3_cct_gmcpt_D3h_3st_diab_mode1_+0.05x2.F86
-rw-r--r-- 1 bjb2chen nooijen 7646616 Nov 25 23:45 /home/bjb2chen/gmsscr//ph3_cct_gmcpt_D3h_3st_diab_mode1_+0.05x2.F86.001
-rw-r--r-- 1 bjb2chen nooijen     656 Nov 25 23:45 /home/bjb2chen/gmsscr//ph3_cct_gmcpt_D3h_3st_diab_mode1_+0.05x2.F87
-rw-r--r-- 1 bjb2chen nooijen     656 Nov 25 23:45 /home/bjb2chen/gmsscr//ph3_cct_gmcpt_D3h_3st_diab_mode1_+0.05x2.F87.001
-rw-r--r-- 1 bjb2chen nooijen   28496 Nov 25 23:45 /home/bjb2chen/gmsscr//ph3_cct_gmcpt_D3h_3st_diab_mode1_+0.05x2.F88
-rw-r--r-- 1 bjb2chen nooijen   28496 Nov 25 23:45 /home/bjb2chen/gmsscr//ph3_cct_gmcpt_D3h_3st_diab_mode1_+0.05x2.F88.001
-rw-r--r-- 1 bjb2chen nooijen     648 Nov 25 23:45 /home/bjb2chen/gmsscr//ph3_cct_gmcpt_D3h_3st_diab_mode1_+0.05x2.F89
-rw-r--r-- 1 bjb2chen nooijen     648 Nov 25 23:45 /home/bjb2chen/gmsscr//ph3_cct_gmcpt_D3h_3st_diab_mode1_+0.05x2.F89.001
-rw-r--r-- 1 bjb2chen nooijen       0 Nov 25 23:42 /home/bjb2chen/gmsscr//ph3_cct_gmcpt_D3h_3st_diab_mode1_+0.05x2.F90
-rw-r--r-- 1 bjb2chen nooijen       0 Nov 25 23:42 /home/bjb2chen/gmsscr//ph3_cct_gmcpt_D3h_3st_diab_mode1_+0.05x2.F90.001
-rw-r--r-- 1 bjb2chen nooijen   13760 Nov 25 23:45 /home/bjb2chen/gmsscr//ph3_cct_gmcpt_D3h_3st_diab_mode1_+0.05x2.F91
-rw-r--r-- 1 bjb2chen nooijen   13760 Nov 25 23:45 /home/bjb2chen/gmsscr//ph3_cct_gmcpt_D3h_3st_diab_mode1_+0.05x2.F91.001
-rw-r--r-- 1 bjb2chen nooijen   22776 Nov 25 23:45 /home/bjb2chen/gmsscr//ph3_cct_gmcpt_D3h_3st_diab_mode1_+0.05x2.F92
-rw-r--r-- 1 bjb2chen nooijen   22776 Nov 25 23:45 /home/bjb2chen/gmsscr//ph3_cct_gmcpt_D3h_3st_diab_mode1_+0.05x2.F92.001
-rw-r--r-- 1 bjb2chen nooijen   23168 Nov 25 23:45 /home/bjb2chen/gmsscr//ph3_cct_gmcpt_D3h_3st_diab_mode1_+0.05x2.F93
-rw-r--r-- 1 bjb2chen nooijen   23168 Nov 25 23:45 /home/bjb2chen/gmsscr//ph3_cct_gmcpt_D3h_3st_diab_mode1_+0.05x2.F93.001
-rw-r--r-- 1 bjb2chen nooijen   22776 Nov 25 23:45 /home/bjb2chen/gmsscr//ph3_cct_gmcpt_D3h_3st_diab_mode1_+0.05x2.F94
-rw-r--r-- 1 bjb2chen nooijen   22776 Nov 25 23:45 /home/bjb2chen/gmsscr//ph3_cct_gmcpt_D3h_3st_diab_mode1_+0.05x2.F94.001
-rw-r--r-- 1 bjb2chen nooijen   13760 Nov 25 23:45 /home/bjb2chen/gmsscr//ph3_cct_gmcpt_D3h_3st_diab_mode1_+0.05x2.F95
-rw-r--r-- 1 bjb2chen nooijen   13760 Nov 25 23:45 /home/bjb2chen/gmsscr//ph3_cct_gmcpt_D3h_3st_diab_mode1_+0.05x2.F95.001
-rw-r--r-- 1 bjb2chen nooijen   29440 Nov 25 23:45 /home/bjb2chen/gmsscr//ph3_cct_gmcpt_D3h_3st_diab_mode1_+0.05x2.F96
-rw-r--r-- 1 bjb2chen nooijen   29440 Nov 25 23:45 /home/bjb2chen/gmsscr//ph3_cct_gmcpt_D3h_3st_diab_mode1_+0.05x2.F96.001
-rw-r--r-- 1 bjb2chen nooijen    1184 Nov 25 23:45 /home/bjb2chen/gmsscr//ph3_cct_gmcpt_D3h_3st_diab_mode1_+0.05x2.F97
-rw-r--r-- 1 bjb2chen nooijen    1184 Nov 25 23:45 /home/bjb2chen/gmsscr//ph3_cct_gmcpt_D3h_3st_diab_mode1_+0.05x2.F97.001
-rw-r--r-- 1 bjb2chen nooijen    9808 Nov 25 23:45 /home/bjb2chen/gmsscr//ph3_cct_gmcpt_D3h_3st_diab_mode1_+0.05x2.F98
-rw-r--r-- 1 bjb2chen nooijen    9808 Nov 25 23:45 /home/bjb2chen/gmsscr//ph3_cct_gmcpt_D3h_3st_diab_mode1_+0.05x2.F98.001
-rw-r--r-- 1 bjb2chen nooijen   30264 Nov 25 23:45 /home/bjb2chen/gmsscr//ph3_cct_gmcpt_D3h_3st_diab_mode1_+0.05x2.F99
-rw-r--r-- 1 bjb2chen nooijen   30264 Nov 25 23:45 /home/bjb2chen/gmsscr//ph3_cct_gmcpt_D3h_3st_diab_mode1_+0.05x2.F99.001
ls: No match.
ls: No match.
ls: No match.
Sat 25 Nov 2023 11:45:50 PM EST
0.277u 0.042s 3:18.84 0.1%	0+0k 264+472io 0pf+0w
