----- GAMESS execution script 'rungms' -----
This job is running on host io003
under operating system Linux at Sat 25 Nov 2023 11:42:31 PM EST
Available scratch disk space (Kbyte units) at beginning of the job is
Filesystem             1K-blocks       Used Available Use% Mounted on
helmholtz.nlogn:/home 6391504896 5219979264 849386496  87% /home
GAMESS temporary binary files will be written to /home/bjb2chen/gmsscr/
GAMESS supplementary output files will be written to /home/bjb2chen/gamess/vibronics/Toby_automate/ph3/python
Copying input file ph3_cct_gmcpt_D3h_3st_diab_mode11_-0.05x2.inp to your run's scratch directory...
cp ph3_cct_gmcpt_D3h_3st_diab_mode11_-0.05x2.inp /home/bjb2chen/gmsscr//ph3_cct_gmcpt_D3h_3st_diab_mode11_-0.05x2.F05
unset echo
 
Assuming a single but multicore node.
 
/home/bjb2chen/gamess/ddikick.x /home/bjb2chen/gamess/gamess.00.x ph3_cct_gmcpt_D3h_3st_diab_mode11_-0.05x2 -ddi 1 2 io003:cpus=2 -scr /home/bjb2chen/gmsscr/

 Distributed Data Interface kickoff program.
 Initiating 2 compute processes on 1 nodes to run the following command:
 /home/bjb2chen/gamess/gamess.00.x ph3_cct_gmcpt_D3h_3st_diab_mode11_-0.05x2 

          ******************************************************
          *         GAMESS VERSION = 02 AUG 2018 (R2)         *
          *             FROM IOWA STATE UNIVERSITY             *
          * M.W.SCHMIDT, K.K.BALDRIDGE, J.A.BOATZ, S.T.ELBERT, *
          *   M.S.GORDON, J.H.JENSEN, S.KOSEKI, N.MATSUNAGA,   *
          *          K.A.NGUYEN, S.J.SU, T.L.WINDUS,           *
          *       TOGETHER WITH M.DUPUIS, J.A.MONTGOMERY       *
          *         J.COMPUT.CHEM.  14, 1347-1363(1993)        *
          **************** 64 BIT LINUX VERSION ****************

  SINCE 1993, STUDENTS AND POSTDOCS WORKING AT IOWA STATE UNIVERSITY
  AND ALSO IN THEIR VARIOUS JOBS AFTER LEAVING ISU HAVE MADE IMPORTANT
  CONTRIBUTIONS TO THE CODE:
     IVANA ADAMOVIC, CHRISTINE AIKENS, YURI ALEXEEV, POOJA ARORA,
     ANDREY ASADCHEV, ROB BELL, PRADIPTA BANDYOPADHYAY, JONATHAN BENTZ,
     BRETT BODE, KURT BRORSEN, CALEB CARLIN, GALINA CHABAN, WEI CHEN,
     CHEOL HO CHOI, PAUL DAY, ALBERT DEFUSCO, NUWAN DESILVA, TIM DUDLEY,
     DMITRI FEDOROV, ALEX FINDLATER, GRAHAM FLETCHER, MARK FREITAG,
     KURT GLAESEMANN, ANASTASIA GUININA,
     DAN KEMP, GRANT MERRILL, NORIYUKI MINEZAWA, JONATHAN MULLIN,
     TAKESHI NAGATA, SEAN NEDD, HEATHER NETZLOFF, BOSILJKA NJEGIC, RYAN OLSON,
     MIKE PAK, BUU PHAM,
     SPENCER PRUITT, LUKE ROSKOP, JIM SHOEMAKER, LYUDMILA SLIPCHENKO,
     TONY SMITH, SAROM SOK LEANG, JIE SONG, TETSUYA TAKETSUGU, SIMON WEBB,
     PENG XU, SOOHAENG YOO, FEDERICO ZAHARIEV

  ADDITIONAL CODE HAS BEEN PROVIDED BY COLLABORATORS IN OTHER GROUPS:
     IOWA STATE UNIVERSITY:
          JOE IVANIC, AARON WEST, LAIMUTIS BYTAUTAS, KLAUS RUEDENBERG
     UNIVERSITY OF TOKYO: KIMIHIKO HIRAO, TAKAHITO NAKAJIMA,
          TAKAO TSUNEDA, MUNEAKI KAMIYA, SUSUMU YANAGISAWA,
          KIYOSHI YAGI, MAHITO CHIBA, SEIKEN TOKURA, NAOAKI KAWAKAMI
     UNIVERSITY OF AARHUS: FRANK JENSEN
     UNIVERSITY OF IOWA: VISVALDAS KAIRYS, HUI LI
     NATIONAL INST. OF STANDARDS AND TECHNOLOGY: WALT STEVENS, DAVID GARMER
     UNIVERSITY OF PISA: BENEDETTA MENNUCCI, JACOPO TOMASI
     UNIVERSITY OF MEMPHIS: HENRY KURTZ, PRAKASHAN KORAMBATH
     UNIVERSITY OF ALBERTA: TOBY ZENG, MARIUSZ KLOBUKOWSKI
     UNIVERSITY OF NEW ENGLAND: MARK SPACKMAN
     MIE UNIVERSITY: HIROAKI UMEDA
     NAT. INST. OF ADVANCED INDUSTRIAL SCIENCE AND TECHNOLOGY: KAZUO KITAURA
     MICHIGAN STATE UNIVERSITY:
          KAROL KOWALSKI, MARTA WLOCH, JEFFREY GOUR, JESSE LUTZ,
          WEI LI, JUN SHEN, J. EMILIANO DEUSTUA, PIOTR PIECUCH
     UNIVERSITY OF MINNESOTA:
          YINAN SHU
     UNIVERSITY OF SILESIA: MONIKA MUSIAL, STANISLAW KUCHARSKI
     FACULTES UNIVERSITAIRES NOTRE-DAME DE LA PAIX:
          OLIVIER QUINET, BENOIT CHAMPAGNE
     UNIVERSITY OF CALIFORNIA - SANTA BARBARA: BERNARD KIRTMAN
     INSTITUTE FOR MOLECULAR SCIENCE:
          KAZUYA ISHIMURA, MICHIO KATOUDA, AND SHIGERU NAGASE
     UNIVERSITY OF NOTRE DAME: ANNA POMOGAEVA, DAN CHIPMAN
     KYUSHU UNIVERSITY:
          HARUYUKI NAKANO,
          FENG LONG GU, JACEK KORCHOWIEC, MARCIN MAKOWSKI, AND YURIKO AOKI,
          HIROTOSHI MORI AND EISAKU MIYOSHI
     PENNSYLVANIA STATE UNIVERSITY:
          TZVETELIN IORDANOV, CHET SWALINA, JONATHAN SKONE,
          SHARON HAMMES-SCHIFFER
     WASEDA UNIVERSITY:
          MASATO KOBAYASHI, TOMOKO AKAMA, TSUGUKI TOUMA,
          TAKESHI YOSHIKAWA, YASUHIRO IKABATA, JUNJI SEINO,
          YUYA NAKAJIMA, HIROMI NAKAI
     NANJING UNIVERSITY: SHUHUA LI
     UNIVERSITY OF NEBRASKA:
          PEIFENG SU, DEJUN SI, NANDUN THELLAMUREGE, YALI WANG, HUI LI
     UNIVERSITY OF ZURICH: ROBERTO PEVERATI, KIM BALDRIDGE
     N. COPERNICUS UNIVERSITY AND JACKSON STATE UNIVERSITY:
          MARIA BARYSZ
     UNIVERSITY OF COPENHAGEN: Jimmy Kromann, CASPER STEINMANN
     TOKYO INSTITUTE OF TECHNOLOGY: HIROYA NAKATA
     NAGOYA UNIVERSITY: YOSHIO NISHIMOTO, STEPHAN IRLE
     MOSCOW STATE UNIVERSITY: VLADIMIR MIRONOV


 PARALLEL VERSION RUNNING ON        2 PROCESSORS IN        1 NODES.

 EXECUTION OF GAMESS BEGUN Sat Nov 25 23:42:31 2023

            ECHO OF THE FIRST FEW INPUT CARDS -
 INPUT CARD> !Step 2: single point gmcpt calculation averaging 3 states                     
 INPUT CARD> !        for PH3+ at PH3 structure.                                            
 INPUT CARD> $system kdiag=3 mwords=100 memddi=1000 parall=.t. $end                         
 INPUT CARD> $contrl runtyp=energy ispher=1 $end                                            
 INPUT CARD> $contrl icut=9 itol=20 inttyp=rysquad qmttol=1.0d-05 nosym=1 $end              
 INPUT CARD> $scf    npunch=2 conv=1.0d-06 dirscf=.t.      $end                             
 INPUT CARD> $contrl scftyp=mcscf  mult=2 maxit=200 icharg=1 mplevl=2 $end                  
 INPUT CARD> $guess  guess=moread norb=81 purify=.t. $end                                   
 INPUT CARD> $basis  gbasis=cct $end                                                        
 INPUT CARD> $mcscf  cistep=gmcci fullnr=.t. finci=mos                                      
 INPUT CARD>         acurcy=1.d-6 maxit=100 $end                                            
 INPUT CARD> $trans  dirtrf=.t. $end                                                        
 INPUT CARD> $mrmp   mrpt=gmcpt rdvecs=.f. $end                                             
 INPUT CARD> $gmcpt  nmofzc=1 nmodoc=4 nmoact=7 nelact=7 stsym(1)=A                         
 INPUT CARD>         reftyp=ormas nspace=1 mstart(1)=6 mine(1)=7 maxe(1)=7                  
 INPUT CARD>         kstate(1)=1,1,1                                                        
 INPUT CARD>         wstate(1)=1,1,1                                                        
 INPUT CARD>         iwgt=0 thrwgt=-1.0 krot=.f. kszdoe=.f. knospn=.f.                      
 INPUT CARD>         thrde=-1.0 edshft=0.02 $end                                            
 INPUT CARD> --- Semi-canonical MOs --- generated at Wed Oct 25 14:28:45 2023               
 INPUT CARD> $VEC                                                                           
 INPUT CARD> 1  1 1.00014026E+00 2.12288233E-04 2.35259310E-04-9.69987525E-04-1.56061240E-04
 INPUT CARD> 1  2 2.24704850E-11 1.08104557E-11 0.00000000E+00 5.27654619E-11 2.51315613E-11
 INPUT CARD> 1  3 0.00000000E+00 0.00000000E+00 0.00000000E+00 0.00000000E+00 4.84975230E-11
 INPUT CARD> 1  4 0.00000000E+00 0.00000000E+00 5.97478244E-06 5.97478789E-06-1.19495703E-05
 INPUT CARD> 1  5 0.00000000E+00 0.00000000E+00 0.00000000E+00 1.39699393E-05 1.39699024E-05
 INPUT CARD> 1  6-2.79398417E-05-1.35074126E-11 0.00000000E+00 0.00000000E+00 1.67531508E-05
 INPUT CARD> 1  7 0.00000000E+00 0.00000000E+00 0.00000000E+00 0.00000000E+00-2.24766870E-05
 INPUT CARD> 1  8 0.00000000E+00-2.30057367E-11 0.00000000E+00 0.00000000E+00-1.16832778E-06
 INPUT CARD> 1  9-1.16830452E-06 2.33663231E-06 0.00000000E+00 0.00000000E+00 0.00000000E+00
 INPUT CARD> 1 10 5.17768380E-06-4.27232609E-05 3.09734201E-05 1.40215208E-06-2.42859932E-06
 INPUT CARD> 1 11 0.00000000E+00-1.09877526E-05 1.90313097E-05 0.00000000E+00-9.67969422E-07
 INPUT CARD> 1 12 5.86741647E-06-4.89944705E-06-6.83538926E-06 0.00000000E+00 0.00000000E+00
 INPUT CARD> 1 13 5.17767961E-06-4.27232159E-05 3.09734322E-05 1.40215234E-06 2.42859905E-06
 INPUT CARD> 1 14 0.00000000E+00-1.09877418E-05-1.90312875E-05 0.00000000E+00-9.67970307E-07
 INPUT CARD> 1 15 5.86741940E-06-4.89944909E-06 6.83539284E-06 0.00000000E+00 0.00000000E+00
 INPUT CARD> 1 16 5.17766201E-06-4.27232844E-05 3.09734099E-05-2.80427679E-06 0.00000000E+00
 INPUT CARD> 1 17 0.00000000E+00 2.19754740E-05 0.00000000E+00 0.00000000E+00 9.28508813E-06
 INPUT CARD> 1 18-4.38566624E-06-4.89942190E-06 0.00000000E+00 0.00000000E+00 0.00000000E+00
 INPUT CARD> 2  1-5.33920981E-04 9.53778939E-01-4.19196922E-03 6.30276435E-02 2.61399638E-03
 INPUT CARD> 2  2 6.28974787E-11 9.96812470E-11-0.00000000E+00 1.02891712E-10 2.05126344E-10
 INPUT CARD> 2  3-0.00000000E+00-0.00000000E+00-2.38713249E-11-0.00000000E+00 6.64911093E-11
 INPUT CARD> 2  4 6.27034786E-11-0.00000000E+00 9.65793100E-05 9.65794243E-05-1.93158734E-04
 INPUT CARD> 2  5-2.69954090E-11-0.00000000E+00-0.00000000E+00-1.78396631E-04-1.78396545E-04
 INPUT CARD> 2  6 3.56793176E-04-1.04925850E-10-0.00000000E+00-0.00000000E+00 1.01826168E-04
 INPUT CARD> 2  7 2.20823880E-11-0.00000000E+00-0.00000000E+00-0.00000000E+00-1.36614181E-04
 INPUT CARD> 2  8-0.00000000E+00 4.29651361E-11-3.02789776E-11-0.00000000E+00 2.38139809E-04
 INPUT CARD> 2  9 2.38139912E-04-4.76279721E-04-0.00000000E+00-0.00000000E+00-0.00000000E+00
 INPUT CARD> 2 10-1.82868827E-04 1.39177203E-04-5.45492220E-04-2.22000393E-05 3.84515667E-05
 INPUT CARD> 2 11-0.00000000E+00 8.78319684E-05-1.52129428E-04-0.00000000E+00 2.62487215E-06
  100000000 WORDS OF MEMORY AVAILABLE

     BASIS OPTIONS
     -------------
     GBASIS=CCT          IGAUSS=       0      POLAR=NONE    
     NDFUNC=       0     NFFUNC=       0     DIFFSP=       F
     NPFUNC=       0      DIFFS=       F     BASNAM=        


     RUN TITLE
     ---------
  PH3+ 3 states calculation at PH3 structure.                                    

 THE POINT GROUP OF THE MOLECULE IS C1      
 THE ORDER OF THE PRINCIPAL AXIS IS     0

 ATOM      ATOMIC                      COORDINATES (BOHR)
           CHARGE         X                   Y                   Z
 P          15.0     0.0008094427        0.0000000000        0.0000000000
 H           1.0    -1.3015004024        2.2543943637        0.0000000000
 H           1.0    -1.3015004026       -2.2543943641        0.0000000000
 H           1.0     2.5781235908        0.0000000000        0.0000000000

          INTERNUCLEAR DISTANCES (ANGS.)
          ------------------------------

                1 P          2 H          3 H          4 H     

   1 P       0.0000000    1.3777224 *  1.3777224 *  1.3638560 *
   2 H       1.3777224 *  0.0000000    2.3859484 *  2.3744541 *
   3 H       1.3777224 *  2.3859484 *  0.0000000    2.3744541 *
   4 H       1.3638560 *  2.3744541 *  2.3744541 *  0.0000000  

  * ... LESS THAN  3.000


     ATOMIC BASIS SET
     ----------------
 THE CONTRACTED PRIMITIVE FUNCTIONS HAVE BEEN UNNORMALIZED
 THE CONTRACTED BASIS FUNCTIONS ARE NOW NORMALIZED TO UNITY

  SHELL TYPE  PRIMITIVE        EXPONENT          CONTRACTION COEFFICIENT(S)

 P         

      1   S       1        312400.0000000    0.000057689641
      1   S       2         46800.0000000    0.000448246591
      1   S       3         10650.0000000    0.002349131061
      1   S       4          3018.0000000    0.009781571802
      1   S       5           986.8000000    0.034142936511
      1   S       6           357.4000000    0.100192955985
      1   S       7           139.6000000    0.234346168617
      1   S       8            57.6300000    0.382391849918
      1   S       9            24.6000000    0.318052941833
      1   S      10            10.1200000    0.070770999093
      1   S      11             4.2830000   -0.001817789630
      1   S      12             1.8050000    0.002161561737
      1   S      13             0.2782000    0.000432249354

      2   S      14        312400.0000000   -0.000016380204
      2   S      15         46800.0000000   -0.000127233535
      2   S      16         10650.0000000   -0.000668625166
      2   S      17          3018.0000000   -0.002795303744
      2   S      18           986.8000000   -0.009928227435
      2   S      19           357.4000000   -0.030244566456
      2   S      20           139.6000000   -0.077884705328
      2   S      21            57.6300000   -0.156724571545
      2   S      22            24.6000000   -0.198042753651
      2   S      23            10.1200000    0.037971251521
      2   S      24             4.2830000    0.552751544147
      2   S      25             1.8050000    0.542611452452
      2   S      26             0.2782000   -0.009675942874

      3   S      27        312400.0000000    0.000006865735
      3   S      28         46800.0000000    0.000053281983
      3   S      29         10650.0000000    0.000280421002
      3   S      30          3018.0000000    0.001170789768
      3   S      31           986.8000000    0.004173591138
      3   S      32           357.4000000    0.012720496749
      3   S      33           139.6000000    0.033152766352
      3   S      34            57.6300000    0.067671246836
      3   S      35            24.6000000    0.089831018862
      3   S      36            10.1200000   -0.020305232360
      3   S      37             4.2830000   -0.313280408979
      3   S      38             1.8050000   -0.563687905527
      3   S      39             0.2782000    1.117494073734

      4   S      40             0.6158000    1.000000000000

      5   S      41             0.1055000    1.000000000000

      6   P      42           504.9000000    0.002433660431
      6   P      43           119.4000000    0.019305559477
      6   P      44            37.9600000    0.088473106893
      6   P      45            13.9500000    0.254701981099
      6   P      46             5.4570000    0.440199242653
      6   P      47             2.1770000    0.383632006272
      6   P      48             0.2877000   -0.003946337074

      7   P      49           504.9000000   -0.000954298933
      7   P      50           119.4000000   -0.007664025747
      7   P      51            37.9600000   -0.035465925259
      7   P      52            13.9500000   -0.106164716437
      7   P      53             5.4570000   -0.187210586037
      7   P      54             2.1770000   -0.181495819791
      7   P      55             0.2877000    0.991672644618

      8   P      56             0.8010000    1.000000000000

      9   P      57             0.0971400    1.000000000000

     10   D      58             0.6480000    1.000000000000

     11   D      59             0.2180000    1.000000000000

     12   F      60             0.4520000    1.000000000000

     13   D      61             3.1200000    1.000000000000

 H         

     14   S      62            33.8700000    0.025494863235
     14   S      63             5.0950000    0.190362765893
     14   S      64             1.1590000    0.852162022245

     15   S      65             0.3258000    1.000000000000

     16   S      66             0.1027000    1.000000000000

     17   P      67             1.4070000    1.000000000000

     18   P      68             0.3880000    1.000000000000

     19   D      69             1.0570000    1.000000000000

 H         

     20   S      70            33.8700000    0.025494863235
     20   S      71             5.0950000    0.190362765893
     20   S      72             1.1590000    0.852162022245

     21   S      73             0.3258000    1.000000000000

     22   S      74             0.1027000    1.000000000000

     23   P      75             1.4070000    1.000000000000

     24   P      76             0.3880000    1.000000000000

     25   D      77             1.0570000    1.000000000000

 H         

     26   S      78            33.8700000    0.025494863235
     26   S      79             5.0950000    0.190362765893
     26   S      80             1.1590000    0.852162022245

     27   S      81             0.3258000    1.000000000000

     28   S      82             0.1027000    1.000000000000

     29   P      83             1.4070000    1.000000000000

     30   P      84             0.3880000    1.000000000000

     31   D      85             1.0570000    1.000000000000

 TOTAL NUMBER OF BASIS SET SHELLS             =   31
 NUMBER OF CARTESIAN GAUSSIAN BASIS FUNCTIONS =   90
 NOTE: THIS RUN WILL RESTRICT THE MO VARIATION SPACE TO SPHERICAL HARMONICS.
 THE NUMBER OF ORBITALS KEPT IN THE VARIATIONAL SPACE WILL BE PRINTED LATER.
 NUMBER OF ELECTRONS                          =   17
 CHARGE OF MOLECULE                           =    1
 SPIN MULTIPLICITY                            =    2
 NUMBER OF OCCUPIED ORBITALS (ALPHA)          =    9
 NUMBER OF OCCUPIED ORBITALS (BETA )          =    8
 TOTAL NUMBER OF ATOMS                        =    4
 THE NUCLEAR REPULSION ENERGY IS       18.0103978728

     $CONTRL OPTIONS
     ---------------
 SCFTYP=MCSCF        RUNTYP=ENERGY       EXETYP=RUN     
 MPLEVL=       2     CITYP =NONE         CCTYP =NONE         VBTYP =NONE    
 DFTTYP=NONE         TDDFT =NONE    
 MULT  =       2     ICHARG=       1     NZVAR =       0     COORD =UNIQUE  
 PP    =NONE         RELWFN=NONE         LOCAL =NONE         NUMGRD=       F
 ISPHER=       1     NOSYM =       1     MAXIT =     200     UNITS =ANGS    
 PLTORB=       F     MOLPLT=       F     AIMPAC=       F     FRIEND=        
 NPRINT=       7     IREST =       0     GEOM  =INPUT   
 NORMF =       0     NORMP =       0     ITOL  =      20     ICUT  =       9
 INTTYP=RYSQUAD      GRDTYP=BEST         QMTTOL= 1.0E-05

     $SYSTEM OPTIONS
     ---------------
  REPLICATED MEMORY=   100000000 WORDS (ON EVERY NODE).
 DISTRIBUTED MEMDDI=        1000 MILLION WORDS IN AGGREGATE,
 MEMDDI DISTRIBUTED OVER   2 PROCESSORS IS   500000000 WORDS/PROCESSOR.
 TOTAL MEMORY REQUESTED ON EACH PROCESSOR=   600000000 WORDS.
 TIMLIM=      525600.00 MINUTES, OR     365.0 DAYS.
 PARALL= T  BALTYP=  DLB     KDIAG=    3  COREFL= F
 MXSEQ2=     300 MXSEQ3=     150  mem10=         0

          ----------------
          PROPERTIES INPUT
          ----------------

     MOMENTS            FIELD           POTENTIAL          DENSITY
 IEMOM =       1   IEFLD =       0   IEPOT =       0   IEDEN =       0
 WHERE =COMASS     WHERE =NUCLEI     WHERE =NUCLEI     WHERE =NUCLEI  
 OUTPUT=BOTH       OUTPUT=BOTH       OUTPUT=BOTH       OUTPUT=BOTH    
 IEMINT=       0   IEFINT=       0                     IEDINT=       0
                                                       MORB  =       0

     -------------------------------
     INTEGRAL TRANSFORMATION OPTIONS
     -------------------------------
     NWORD  =            0
     CUTOFF = 1.0E-09     MPTRAN =       0
     DIRTRF =       T     AOINTS =DUP     

          ----------------------
          MCSCF INPUT PARAMETERS
          ----------------------
 CONVERGER SELECTION: FOCAS = F  SOSCF = F  FULLNR = T  QUD = F  JACOBI = F
 SECULAR EQUATION METHOD CISTEP = GMCCI   
 --- GENERAL INPUT OPTIONS:
 MAXIT =     100  MICIT =       1  ACURCY= 1.000E-06
 DAMP  =   0.000  CANONC=       T  ENGTOL= 1.000E-10
 EKT   =       F  NPUNCH=       2  NWORD =         0
 REGENERATE CI AFTER CONVERGENCE = NONE    
 DIABATIZATION AFTER CONVERGENCE =        F
 --- INPUT FOR FULLNR CONVERGER:
 METHOD=DM2       FORS  =       F  DROPC =       T
 LINSER=       F  FCORE =       F  NORB  =      90

          ----------------------
          INTEGRAL INPUT OPTIONS
          ----------------------
 NOPK  =       1 NORDER=       0 SCHWRZ=       T

 ------------------------------------------
 MULTIREFERENCE PERTURBATION THEORY CONTROL
 ------------------------------------------
 MRPT=GMCPT    READ CONVERGED MCSCF VECTORS= F


     ------------------------------------------
     THE POINT GROUP IS C1 , NAXIS= 1, ORDER= 1
     ------------------------------------------

 -- VARIATIONAL SPACE WILL BE RESTRICTED TO PURE SPHERICAL HARMONICS ONLY --
 AFTER EXCLUDING CONTAMINANT COMBINATIONS FROM THE CARTESIAN GAUSSIAN BASIS
 SET, THE NUMBER OF SPHERICAL HARMONICS KEPT IN THE VARIATION SPACE IS   81

     DIMENSIONS OF THE SYMMETRY SUBSPACES ARE
 A   =   81

 ..... DONE SETTING UP THE RUN .....
 CPU     0: STEP CPU TIME=     0.17 TOTAL CPU TIME=          0.2 (      0.0 MIN)
 TOTAL WALL CLOCK TIME=          0.4 SECONDS, CPU UTILIZATION IS    43.59%

          ********************
          1 ELECTRON INTEGRALS
          ********************
 TIME TO DO   DIPOLE INTEGRALS=      0.00
 ...... END OF ONE-ELECTRON INTEGRALS ......
 CPU     0: STEP CPU TIME=     0.01 TOTAL CPU TIME=          0.2 (      0.0 MIN)
 TOTAL WALL CLOCK TIME=          0.4 SECONDS, CPU UTILIZATION IS    45.00%

          -------------
          GUESS OPTIONS
          -------------
          GUESS =MOREAD            NORB  =      81          NORDER=       0
          MIX   =       F          PRTMO =       F          PUNMO =       F
          TOLZ  = 1.0E-08          TOLE  = 1.0E-05
          SYMDEN=       F          PURIFY=       T

 INITIAL GUESS ORBITALS GENERATED BY MOREAD   ROUTINE.

 STATISTICS FOR GENERATION OF SYMMETRY ORBITAL -Q- MATRIX
 NUMBER OF CARTESIAN ATOMIC ORBITALS=         90
 NUMBER OF SPHERICAL CONTAMINANTS DROPPED=     9
 NUMBER OF LINEARLY DEPENDENT MOS DROPPED=     0
 TOTAL NUMBER OF MOS IN VARIATION SPACE=      81
 ORBITAL PURIFICATION WILL OCCUR

 SYMMETRIES FOR INITIAL GUESS ORBITALS FOLLOW.   BOTH SET(S).
     9 ORBITALS ARE OCCUPIED (    5 CORE ORBITALS).
     1=A        2=A        3=A        4=A        5=A        6=A        7=A   
     8=A        9=A       10=A       11=A       12=A       13=A       14=A   
    15=A       16=A       17=A       18=A       19=A       20=A       21=A   
    22=A       23=A       24=A       25=A       26=A       27=A       28=A   
    29=A       30=A       31=A       32=A       33=A       34=A       35=A   
    36=A       37=A       38=A       39=A       40=A       41=A       42=A   
    43=A       44=A       45=A       46=A       47=A       48=A       49=A   
    50=A       51=A       52=A       53=A       54=A       55=A       56=A   
    57=A       58=A       59=A       60=A       61=A       62=A       63=A   
    64=A       65=A       66=A       67=A       68=A       69=A       70=A   
    71=A       72=A       73=A       74=A       75=A       76=A       77=A   
    78=A       79=A       80=A       81=A   
 ...... END OF INITIAL ORBITAL SELECTION ......
 CPU     0: STEP CPU TIME=     0.08 TOTAL CPU TIME=          0.3 (      0.0 MIN)
 TOTAL WALL CLOCK TIME=          0.5 SECONDS, CPU UTILIZATION IS    50.98%

                    ----------------------
                    AO INTEGRAL TECHNOLOGY
                    ----------------------
     S,P,L SHELL ROTATED AXIS INTEGRALS, REPROGRAMMED BY
        KAZUYA ISHIMURA (IMS) AND JOSE SIERRA (SYNSTAR).
     S,P,D,L SHELL ROTATED AXIS INTEGRALS PROGRAMMED BY
        KAZUYA ISHIMURA (INSTITUTE FOR MOLECULAR SCIENCE).
     S,P,D,F,G SHELL TO TOTAL QUARTET ANGULAR MOMENTUM SUM 5,
        ERIC PROGRAM BY GRAHAM FLETCHER (ELORET AND NASA ADVANCED
        SUPERCOMPUTING DIVISION, AMES RESEARCH CENTER).
     S,P,D,F,G,L SHELL GENERAL RYS QUADRATURE PROGRAMMED BY
        MICHEL DUPUIS (PACIFIC NORTHWEST NATIONAL LABORATORY).

          --------------------
          2 ELECTRON INTEGRALS
          --------------------

 DIRECT SCF METHOD SKIPS INTEGRAL STORAGE ON DISK.
 DIRECT TRANSFORMATION SKIPS AO INTEGRAL STORAGE ON DISK.
  ...... END OF TWO-ELECTRON INTEGRALS .....
 STEP CPU TIME =     0.02 TOTAL CPU TIME =          0.3 (      0.0 MIN)
 TOTAL WALL CLOCK TIME=          0.5 SECONDS, CPU UTILIZATION IS    51.85%
 DDI: Creating Array [0] - 8100 x 78 = 631800 words.
 DDI: Creating Array [1] - 69 x 936 = 64584 words.
 DDI: Creating Array [2] - 78 x 78 = 6084 words.
 DDI: Creating Array [3] - 4095 x 78 = 319410 words.

          -----------------
          MCSCF CALCULATION
          -----------------

 ----- NUCLEAR ENERGY ----- =        18.0103978728

     -------------------------------------------------
     GMC-PT/GMC-QDPT or general MCSCF input parameters
     -------------------------------------------------
 # of frozen core orbs. =         1 ->         0
 # of doubly occ. orbs. =         4
 # of active      orbs. =         7
 # of virtual     orbs. =        69
 # of active electrons  =         7
 # of states in CI      =         3
 Highest state in CI    =         3
 kstate =  1 1 1
 avecoe =  0.333 0.333 0.333
 State symmetry           = A           
 Assigned symmetry number = 1

 <<<Act. MO sym.: 1111111

 <<<Division of 1-ext.:  0 0
 <<<Division of 2-ext.:  0 1

 *** Reference space

 Reference type: ORMAS (= Occupation restricted multiple active space)
 # of orbitals          =  7
 # of minimum electrons =  7
 # of maximum electrons =  7
 State symmetry    =    1 (input)
 2*Sz              =    1 (input)
 Spin multiplicity =    2 (input)
 Dimension of reference space =      1225  (from      3432 walks)

 Dimension of reference space =      1225  (from      1225 walks)

 <<<Ionized spaces for Ref-CI:
      0:         1225 /   -1-0:         1960 /  0-1-0:         2891

 EVALUATING EXCHANGE INTEGRALS FOR DIRECT INTEGRAL TRANSFORMATION
 SCHWARZ INEQUALITY OVERHEAD:      4095 INTEGRALS, T=        0.02

     --------------------------------------------
     PARTIAL TWO ELECTRON INTEGRAL TRANSFORMATION
     --------------------------------------------

 NUMBER OF CORE MOLECULAR ORBITALS     =    5
 NUMBER OF OCCUPIED MOLECULAR ORBITALS =   12
 TOTAL NUMBER OF MOLECULAR ORBITALS    =   81
 TOTAL NUMBER OF ATOMIC ORBITALS       =   90
 THRESHOLD FOR KEEPING TRANSFORMED 2E- INTEGRALS = 1.000E-09

 -------------------------------     ------------------------------
 DISTRIBUTED DATA TRANSFORMATION     PROGRAM WRITTEN BY G. FLETCHER
 -------------------------------     ------------------------------

 THE DISTRIBUTED MEMORY REQUIRED FOR THIS STEP IS MEMDDI=         2 MWORDS
 CREATING DISTRIBUTED STORAGE FOR [VIR OCC|VIR OCC] INTEGRALS
 CREATING DISTRIBUTED STORAGE FOR [VIR OCC|OCC OCC] INTEGRALS
 CREATING DISTRIBUTED STORAGE FOR [OCC OCC|OCC OCC] INTEGRALS
 CREATING DISTRIBUTED STORAGE FOR [VIR VIR|OCC OCC] INTEGRALS
 FOR    2 PROCESSORS, THE REPLICATED MEMORY NEEDED IS      340708 WORDS.
 SCHWARZ INEQUALITY OVERHEAD:      4095 INTEGRALS, T=        0.01

      DIRECT 4-INDEX TRANSFORMATION 
      SCHWARZ INEQUALITY TEST SKIPPED        168 INTEGRAL BLOCKS
 ----- FROZEN CORE ENERGY =      -345.9221386387
 ... END OF INTEGRAL TRANSFORMATION ...
 CPU     0: STEP CPU TIME=     2.59 TOTAL CPU TIME=          2.9 (      0.0 MIN)
 TOTAL WALL CLOCK TIME=          3.2 SECONDS, CPU UTILIZATION IS    89.41%

     --------------------------------     -----------------------------
     MCHF NEWTON-RAPHSON OPTIMIZATION     CODE WRITTEN BY MICHEL DUPUIS
     --------------------------------     -----------------------------
     PARALLEL VERSION WRITTEN BY G. FLETCHER (ELORET)
     NASA ADVANCED SUPERCOMPUTING DIVISION, AMES RESEARCH CENTER

 NUMBER OF INDEPENDENT ORBITAL ROTATION PARAMETERS =   512
 ..... DONE SOLVING NEWTON-RAPHSON EQUATIONS .....
 CPU     0: STEP CPU TIME=     0.30 TOTAL CPU TIME=          3.2 (      0.1 MIN)
 TOTAL WALL CLOCK TIME=          3.8 SECONDS, CPU UTILIZATION IS    83.20%
 ..... DONE WITH NTN-RPH ORBITAL ROTATIONS ..... 
 CPU     0: STEP CPU TIME=     0.00 TOTAL CPU TIME=          3.2 (      0.1 MIN)
 TOTAL WALL CLOCK TIME=          3.8 SECONDS, CPU UTILIZATION IS    83.20%
 MAXIMUM MEMORY USED BY NTN-RPH CODE WAS    135813 WORDS.

 ITER     TOTAL ENERGY      DEL(E)  LAGRANGIAN ASYMMETRY   SQCDF  MICIT   DAMP
   1     -342.038820088 -0.038820088  0.001766   47    6 5.829E-05  1   0.0000
   2     -342.038832256 -0.000012168  0.000268   16    9 2.281E-05  1   0.0000
   3     -342.038834194 -0.000001938  0.000247   16    9 1.562E-05  1   0.0000
   4     -342.038835482 -0.000001287  0.000207   16    9 1.095E-05  1   0.0000
   5     -342.038836371 -0.000000889  0.000173   16    9 7.646E-06  1   0.0000
   6     -342.038836990 -0.000000619  0.000145   16    9 5.344E-06  1   0.0000
   7     -342.038837424 -0.000000434  0.000121   16    9 3.747E-06  1   0.0000
   8     -342.038837729 -0.000000305  0.000102   16    9 2.638E-06  1   0.0000
   9     -342.038837945 -0.000000216  0.000086   16    9 1.864E-06  1   0.0000
  10     -342.038838097 -0.000000153  0.000073   16    9 1.322E-06  1   0.0000
  11     -342.038838206 -0.000000109  0.000062   16    9 9.407E-07  1   0.0000
  12     -342.038838284 -0.000000078  0.000052   16    9 6.711E-07  1   0.0000
  13     -342.038838339 -0.000000055  0.000044   16    9 4.800E-07  1   0.0000
  14     -342.038838379 -0.000000040  0.000037   16    9 3.440E-07  1   0.0000
  15     -342.038838407 -0.000000029  0.000032   16    9 2.470E-07  1   0.0000
  16     -342.038838428 -0.000000021  0.000027   16    9 1.774E-07  1   0.0000
  17     -342.038838443 -0.000000015  0.000023   16    9 1.279E-07  1   0.0000
  18     -342.038838453 -0.000000011  0.000019   16    9 9.226E-08  1   0.0000
  19     -342.038838461 -0.000000008  0.000017   16    9 6.659E-08  1   0.0000
  20     -342.038838467 -0.000000006  0.000014   16    9 4.810E-08  1   0.0000
  21     -342.038838471 -0.000000004  0.000012   16    9 3.477E-08  1   0.0000
  22     -342.038838474 -0.000000003  0.000010   16    9 2.515E-08  1   0.0000
  23     -342.038838476 -0.000000002  0.000009   16    9 1.820E-08  1   0.0000
  24     -342.038838477 -0.000000002  0.000007   16    9 1.310E-08  1   0.0000
  25     -342.038838478 -0.000000001  0.000006   16    9 9.535E-09  1   0.0000
  26     -342.038838479 -0.000000001  0.000005   16    9 6.921E-09  1   0.0000
  27     -342.038838480 -0.000000001  0.000005   16    9 5.019E-09  1   0.0000
  28     -342.038838480 -0.000000000  0.000004   16    9 3.640E-09  1   0.0000
  29     -342.038838481 -0.000000000  0.000003   16    9 2.639E-09  1   0.0000
  30     -342.038838481 -0.000000000  0.000003   16    9 1.914E-09  1   0.0000
  31     -342.038838481 -0.000000000  0.000002   16    9 1.388E-09  1   0.0000
  32     -342.038838481 -0.000000000  0.000002   16    9 1.007E-09  1   0.0000
  33     -342.038838481 -0.000000000  0.000002   16    9 7.307E-10  1   0.0000

          ----------------
          ENERGY CONVERGED
          ----------------

 FINAL MCSCF ENERGY IS     -342.0388384811 AFTER  33 ITERATIONS

 -MCCI- BASED ON OPTIMIZED ORBITALS
 ----------------------------------

 PLEASE NOTE: IF THE ACTIVE ORBITALS ARE CANONICALIZED BELOW,
 THE FOLLOWING CI EXPANSION COEFFICIENTS AND THE DENSITY DO NOT
 CORRESPOND TO THE PRINTED ORBITALS.  THE PRINTED EXPANSIONS MATCH
 THE ORBITALS USED DURING THE LAST ITERATION.  IF YOU WISH TO SEE
 CI EXPANSIONS BASED ON THE CANONICAL (OR NATURAL) ORBITALS, YOU
 MUST RUN A CI CALCULATION WITH THAT ORBITAL CHOICE READ IN $VEC.

 Averaged energy =    -342.038838481

 State #    1  Energy =    -342.207381332  S =  0.500

      Det      Coef    Occupancy (Ignoring core)
      ---      ----    --------- --------- -----
        1   -0.977729  11110001110000
      107    0.076355  11101000111000
      143   -0.053054  11011001100100
      179   -0.051997  10111001010100
      393   -0.054985  10110101010010
      717   -0.055761  11010011100001

 State #    2  Energy =    -341.955822528  S =  0.500

      Det      Coef    Occupancy (Ignoring core)
      ---      ----    --------- --------- -----
       16    0.121311  11100011110000
       36   -0.944649  11110001101000
       39   -0.082907  10111001101000
       52   -0.075211  11010011101000
       71    0.139343  11110001011000
       73   -0.085428  11011001011000
      108   -0.057933  11011000111000
      112    0.053979  11010100111000
      123   -0.054860  10110010111000
      142    0.114112  11101001100100
      249   -0.056540  10111001001100
      463   -0.051799  10110101001010

 State #    3  Energy =    -341.953311583  S =  0.500

      Det      Coef    Occupancy (Ignoring core)
      ---      ----    --------- --------- -----
        2   -0.055917  11101001110000
        6    0.118509  11100101110000
       36    0.139058  11110001101000
       38    0.089049  11011001101000
       71    0.942722  11110001011000
       74   -0.081734  10111001011000
       78   -0.075040  10110101011000
      109    0.056824  10111000111000
      113    0.054819  10110100111000
      122    0.054769  11010010111000
      177   -0.112751  11101001010100
      248   -0.056971  11011001001100
      822   -0.052390  11010011001001

 DENSITY MATRIX OVER ACTIVE MO-S

             1           2           3           4           5

    1    1.9767296
    2    0.0077687   1.6465047
    3   -0.0011459  -0.0003887   1.6439269
    4    0.0000000  -0.0000000  -0.0000000   1.6251861
    5    0.0044581  -0.0035250   0.0005200  -0.0000000   0.0556975
    6   -0.0008278   0.0027391  -0.0002416   0.0000000  -0.0035500
    7    0.0000363   0.0004151   0.0036396   0.0000000   0.0001559

             6           7

    6    0.0255289
    7    0.0000395   0.0264263

 FORMING THE "STANDARD FOCK OPERATOR" IN DIRECT AO INTEGRAL MODE...
 ONLY THE    5 CORE AND   69 VIRTUAL ORBITALS WILL BE CANONICALIZED

          ----------------------
          MCSCF NATURAL ORBITALS
          ----------------------

                      1          2          3          4          5
                  -80.2667    -7.8144    -5.7093    -5.7093    -5.7081
                     A          A          A          A          A   
    1  P  1  S    1.000140  -0.000534   0.000005   0.000000   0.000000
    2  P  1  S    0.000212   0.953780   0.000141   0.000000   0.000000
    3  P  1  S    0.000235  -0.004190  -0.000161   0.000000   0.000000
    4  P  1  S   -0.000970   0.063026  -0.000068   0.000000   0.000000
    5  P  1  S   -0.000156   0.002614  -0.000077   0.000000   0.000000
    6  P  1  X   -0.000003  -0.000112   0.958010   0.000001   0.000000
    7  P  1  Y   -0.000000   0.000000  -0.000001   0.958052   0.000000
    8  P  1  Z   -0.000000   0.000000   0.000000   0.000000   0.961340
    9  P  1  X   -0.000002  -0.000012  -0.003407  -0.000000   0.000000
   10  P  1  Y   -0.000000  -0.000000   0.000000  -0.003322   0.000000
   11  P  1  Z   -0.000000   0.000000   0.000000   0.000000  -0.000075
   12  P  1  X    0.000001  -0.000052   0.079392   0.000000   0.000000
   13  P  1  Y   -0.000000   0.000000  -0.000000   0.079406   0.000000
   14  P  1  Z   -0.000000   0.000000   0.000000   0.000000   0.075524
   15  P  1  X   -0.000001  -0.000004   0.001224   0.000000   0.000000
   16  P  1  Y   -0.000000  -0.000000  -0.000000   0.001227   0.000000
   17  P  1  Z   -0.000000   0.000000   0.000000   0.000000   0.001291
   18  P  1 XX    0.000006   0.000086   0.000237   0.000000   0.000000
   19  P  1 YY    0.000006   0.000106  -0.000251  -0.000000   0.000000
   20  P  1 ZZ   -0.000012  -0.000192   0.000014  -0.000000   0.000000
   21  P  1 XY   -0.000000  -0.000000   0.000000  -0.000309   0.000000
   22  P  1 XZ   -0.000000   0.000000   0.000000   0.000000  -0.000006
   23  P  1 YZ   -0.000000   0.000000   0.000000   0.000000  -0.000000
   24  P  1 XX    0.000013  -0.000177  -0.001485  -0.000000   0.000000
   25  P  1 YY    0.000015  -0.000180   0.001486   0.000000   0.000000
   26  P  1 ZZ   -0.000028   0.000356  -0.000002  -0.000000   0.000000
   27  P  1 XY   -0.000000   0.000000  -0.000000   0.001687   0.000000
   28  P  1 XZ   -0.000000   0.000000   0.000000   0.000000  -0.000004
   29  P  1 YZ   -0.000000   0.000000   0.000000   0.000000   0.000000
   30  P  1 XXX   0.000016   0.000102  -0.000047   0.000000   0.000000
   31  P  1 YYY  -0.000000  -0.000000   0.000000  -0.000045   0.000000
   32  P  1 ZZZ  -0.000000   0.000000   0.000000   0.000000  -0.000253
   33  P  1 XXY  -0.000000   0.000000  -0.000000  -0.000018   0.000000
   34  P  1 XXZ  -0.000000   0.000000   0.000000   0.000000   0.000171
   35  P  1 YYX  -0.000023  -0.000136  -0.000022  -0.000000   0.000000
   36  P  1 YYZ  -0.000000   0.000000   0.000000   0.000000   0.000169
   37  P  1 ZZX   0.000001  -0.000002   0.000086   0.000000   0.000000
   38  P  1 ZZY  -0.000000   0.000000  -0.000000   0.000078   0.000000
   39  P  1 XYZ  -0.000000   0.000000   0.000000   0.000000  -0.000000
   40  P  1 XX   -0.000001   0.000229  -0.000315  -0.000000   0.000000
   41  P  1 YY   -0.000001   0.000244   0.000288   0.000000   0.000000
   42  P  1 ZZ    0.000002  -0.000474   0.000027  -0.000000   0.000000
   43  P  1 XY   -0.000000   0.000000  -0.000000   0.000284   0.000000
   44  P  1 XZ   -0.000000   0.000000   0.000000   0.000000  -0.000022
   45  P  1 YZ   -0.000000   0.000000   0.000000   0.000000   0.000000
   46  H  2  S    0.000005  -0.000177  -0.000313   0.000503   0.000000
   47  H  2  S   -0.000044   0.000141  -0.001797   0.003002   0.000000
   48  H  2  S    0.000031  -0.000541   0.000176  -0.000303   0.000000
   49  H  2  X    0.000001  -0.000023   0.000088   0.000031   0.000000
   50  H  2  Y   -0.000002   0.000040   0.000034   0.000053   0.000000
   51  H  2  Z   -0.000000   0.000000   0.000000   0.000000   0.000041
   52  H  2  X   -0.000011   0.000087  -0.000423   0.000595   0.000000
   53  H  2  Y    0.000019  -0.000150   0.000610  -0.001096   0.000000
   54  H  2  Z   -0.000000   0.000000   0.000000   0.000000   0.000116
   55  H  2 XX   -0.000001   0.000003   0.000038  -0.000007   0.000000
   56  H  2 YY    0.000006   0.000013  -0.000007  -0.000047   0.000000
   57  H  2 ZZ   -0.000005  -0.000016  -0.000030   0.000055   0.000000
   58  H  2 XY   -0.000007  -0.000010  -0.000020   0.000002   0.000000
   59  H  2 XZ   -0.000000   0.000000   0.000000   0.000000  -0.000011
   60  H  2 YZ   -0.000000   0.000000   0.000000   0.000000   0.000020
   61  H  3  S    0.000005  -0.000177  -0.000313  -0.000503   0.000000
   62  H  3  S   -0.000044   0.000141  -0.001797  -0.003002   0.000000
   63  H  3  S    0.000031  -0.000541   0.000176   0.000303   0.000000
   64  H  3  X    0.000001  -0.000023   0.000088  -0.000031   0.000000
   65  H  3  Y    0.000002  -0.000040  -0.000034   0.000053   0.000000
   66  H  3  Z   -0.000000   0.000000   0.000000   0.000000   0.000041
   67  H  3  X   -0.000011   0.000087  -0.000423  -0.000595   0.000000
   68  H  3  Y   -0.000019   0.000150  -0.000610  -0.001096   0.000000
   69  H  3  Z   -0.000000   0.000000   0.000000   0.000000   0.000116
   70  H  3 XX   -0.000001   0.000003   0.000038   0.000007   0.000000
   71  H  3 YY    0.000006   0.000013  -0.000007   0.000047   0.000000
   72  H  3 ZZ   -0.000005  -0.000016  -0.000030  -0.000055   0.000000
   73  H  3 XY    0.000007   0.000010   0.000020   0.000002   0.000000
   74  H  3 XZ   -0.000000   0.000000   0.000000   0.000000  -0.000011
   75  H  3 YZ   -0.000000   0.000000   0.000000   0.000000  -0.000020
   76  H  4  S    0.000005  -0.000192   0.000592   0.000000   0.000000
   77  H  4  S   -0.000041   0.000143   0.003597   0.000000   0.000000
   78  H  4  S    0.000032  -0.000554  -0.000347  -0.000000   0.000000
   79  H  4  X   -0.000003   0.000039   0.000023  -0.000000   0.000000
   80  H  4  Y   -0.000000  -0.000000  -0.000000   0.000109   0.000000
   81  H  4  Z   -0.000000   0.000000   0.000000   0.000000   0.000042
   82  H  4  X    0.000021  -0.000183  -0.001481  -0.000000   0.000000
   83  H  4  Y    0.000000  -0.000000   0.000000  -0.000064   0.000000
   84  H  4  Z   -0.000000   0.000000   0.000000   0.000000   0.000122
   85  H  4 XX    0.000010   0.000037  -0.000009   0.000000   0.000000
   86  H  4 YY   -0.000005  -0.000011  -0.000037  -0.000000   0.000000
   87  H  4 ZZ   -0.000005  -0.000026   0.000045   0.000000   0.000000
   88  H  4 XY    0.000000   0.000000   0.000000  -0.000038   0.000000
   89  H  4 XZ   -0.000000   0.000000   0.000000   0.000000   0.000023
   90  H  4 YZ   -0.000000   0.000000   0.000000   0.000000  -0.000000

                      6          7          8          9         10
                    1.9769     1.6464     1.6439     1.6252     0.0561
                     A          A          A          A          A   
    1  P  1  S    0.001039  -0.000096   0.000000   0.000000   0.011642
    2  P  1  S    0.002894  -0.000503  -0.000000   0.000000   0.109226
    3  P  1  S    0.548925  -0.013103  -0.000000   0.000000   0.563665
    4  P  1  S    0.057559  -0.001065  -0.000000   0.000000   0.091768
    5  P  1  S    0.220626  -0.007888  -0.000000   0.000000   0.417894
    6  P  1  X   -0.001135  -0.036932  -0.000000   0.000000  -0.015824
    7  P  1  Y   -0.000000   0.000000  -0.036155   0.000000   0.000000
    8  P  1  Z   -0.000000  -0.000000  -0.000000   0.001494   0.000000
    9  P  1  X    0.008863   0.377931   0.000000   0.000000  -0.091880
   10  P  1  Y   -0.000000  -0.000000   0.377535   0.000000   0.000000
   11  P  1  Z   -0.000000  -0.000000  -0.000000   0.598451   0.000000
   12  P  1  X    0.003154   0.116654   0.000000   0.000000  -0.015308
   13  P  1  Y   -0.000000  -0.000000   0.116028   0.000000   0.000000
   14  P  1  Z   -0.000000  -0.000000  -0.000000   0.162452   0.000000
   15  P  1  X    0.002210   0.107793   0.000000   0.000000  -0.051159
   16  P  1  Y   -0.000000  -0.000000   0.108442   0.000000   0.000000
   17  P  1  Z   -0.000000  -0.000000  -0.000000   0.364504   0.000000
   18  P  1 XX    0.012884   0.044471   0.000000   0.000000  -0.077036
   19  P  1 YY    0.010480  -0.043863  -0.000000   0.000000  -0.106851
   20  P  1 ZZ   -0.023364  -0.000608  -0.000000   0.000000   0.183887
   21  P  1 XY    0.000000   0.000000  -0.050481   0.000000   0.000000
   22  P  1 XZ   -0.000000  -0.000000  -0.000000  -0.001105   0.000000
   23  P  1 YZ   -0.000000  -0.000000  -0.000000   0.000000   0.000000
   24  P  1 XX    0.005998   0.027939   0.000000   0.000000  -0.088737
   25  P  1 YY    0.004903  -0.026660  -0.000000   0.000000  -0.103285
   26  P  1 ZZ   -0.010901  -0.001279  -0.000000   0.000000   0.192022
   27  P  1 XY    0.000000   0.000000  -0.031254   0.000000  -0.000000
   28  P  1 XZ   -0.000000  -0.000000  -0.000000  -0.002442   0.000000
   29  P  1 YZ   -0.000000  -0.000000  -0.000000   0.000000   0.000000
   30  P  1 XXX   0.011890   0.008192   0.000000   0.000000  -0.056477
   31  P  1 YYY  -0.000000  -0.000000   0.008362   0.000000   0.000000
   32  P  1 ZZZ  -0.000000  -0.000000  -0.000000  -0.011527   0.000000
   33  P  1 XXY  -0.000000  -0.000000   0.003663   0.000000   0.000000
   34  P  1 XXZ  -0.000000  -0.000000  -0.000000   0.007623   0.000000
   35  P  1 YYX  -0.015437   0.003989   0.000000   0.000000   0.085525
   36  P  1 YYZ  -0.000000  -0.000000  -0.000000   0.007841   0.000000
   37  P  1 ZZX  -0.000514  -0.014980  -0.000000   0.000000  -0.009753
   38  P  1 ZZY   0.000000   0.000000  -0.014882   0.000000  -0.000000
   39  P  1 XYZ  -0.000000  -0.000000  -0.000000   0.000000   0.000000
   40  P  1 XX    0.002311   0.008614   0.000000   0.000000  -0.008025
   41  P  1 YY    0.001781  -0.008503  -0.000000   0.000000  -0.012593
   42  P  1 ZZ   -0.004092  -0.000111  -0.000000   0.000000   0.020618
   43  P  1 XY    0.000000   0.000000  -0.009715   0.000000   0.000000
   44  P  1 XZ   -0.000000  -0.000000  -0.000000  -0.000153   0.000000
   45  P  1 YZ   -0.000000  -0.000000  -0.000000   0.000000   0.000000
   46  H  2  S    0.077647  -0.086378   0.146275   0.000000  -0.203020
   47  H  2  S    0.111607  -0.145777   0.247796   0.000000  -0.400437
   48  H  2  S    0.003211  -0.026469   0.046684   0.000000  -0.064142
   49  H  2  X    0.003853  -0.002004   0.006699   0.000000  -0.007790
   50  H  2  Y   -0.006614   0.006900  -0.009655   0.000000   0.011348
   51  H  2  Z   -0.000000  -0.000000  -0.000000   0.005037   0.000000
   52  H  2  X    0.007958  -0.002134   0.014149   0.000000  -0.028385
   53  H  2  Y   -0.013526   0.014625  -0.018381   0.000000   0.040544
   54  H  2  Z   -0.000000  -0.000000  -0.000000   0.024096   0.000000
   55  H  2 XX    0.000070   0.001433   0.000156   0.000000  -0.001699
   56  H  2 YY    0.001853  -0.002830   0.002169   0.000000  -0.004641
   57  H  2 ZZ   -0.001923   0.001396  -0.002325   0.000000   0.006340
   58  H  2 XY   -0.001850   0.001197  -0.003711   0.000000   0.004299
   59  H  2 XZ   -0.000000  -0.000000  -0.000000   0.001328   0.000000
   60  H  2 YZ   -0.000000  -0.000000  -0.000000  -0.002291   0.000000
   61  H  3  S    0.077647  -0.086378  -0.146275   0.000000  -0.203020
   62  H  3  S    0.111607  -0.145777  -0.247796   0.000000  -0.400437
   63  H  3  S    0.003211  -0.026469  -0.046684   0.000000  -0.064142
   64  H  3  X    0.003853  -0.002004  -0.006699   0.000000  -0.007790
   65  H  3  Y    0.006614  -0.006900  -0.009655   0.000000  -0.011348
   66  H  3  Z   -0.000000  -0.000000  -0.000000   0.005037   0.000000
   67  H  3  X    0.007958  -0.002134  -0.014149   0.000000  -0.028385
   68  H  3  Y    0.013526  -0.014625  -0.018381   0.000000  -0.040544
   69  H  3  Z   -0.000000  -0.000000  -0.000000   0.024096   0.000000
   70  H  3 XX    0.000070   0.001433  -0.000156   0.000000  -0.001699
   71  H  3 YY    0.001853  -0.002830  -0.002169   0.000000  -0.004641
   72  H  3 ZZ   -0.001923   0.001396   0.002325   0.000000   0.006340
   73  H  3 XY    0.001850  -0.001197  -0.003711   0.000000  -0.004299
   74  H  3 XZ   -0.000000  -0.000000  -0.000000   0.001328   0.000000
   75  H  3 YZ   -0.000000  -0.000000  -0.000000   0.002291   0.000000
   76  H  4  S    0.084723   0.168375   0.000000   0.000000  -0.164171
   77  H  4  S    0.121416   0.281173   0.000000   0.000000  -0.287920
   78  H  4  S    0.004665   0.052871   0.000000   0.000000  -0.040586
   79  H  4  X   -0.008325  -0.013613  -0.000000   0.000000   0.010916
   80  H  4  Y    0.000000  -0.000000   0.002057   0.000000   0.000000
   81  H  4  Z   -0.000000  -0.000000  -0.000000   0.005160   0.000000
   82  H  4  X   -0.016473  -0.025329  -0.000000   0.000000   0.029490
   83  H  4  Y   -0.000000  -0.000000   0.006280   0.000000  -0.000000
   84  H  4  Z   -0.000000  -0.000000  -0.000000   0.024271   0.000000
   85  H  4 XX    0.003028   0.005054   0.000000   0.000000  -0.004886
   86  H  4 YY   -0.000974  -0.002461  -0.000000   0.000000  -0.000096
   87  H  4 ZZ   -0.002054  -0.002594  -0.000000   0.000000   0.004982
   88  H  4 XY   -0.000000   0.000000  -0.001824   0.000000   0.000000
   89  H  4 XZ   -0.000000  -0.000000  -0.000000  -0.002713   0.000000
   90  H  4 YZ   -0.000000  -0.000000  -0.000000  -0.000000   0.000000

                     11         12
                    0.0264     0.0251
                     A          A   
    1  P  1  S   -0.000000   0.002733
    2  P  1  S   -0.000000   0.024487
    3  P  1  S   -0.000000   0.094086
    4  P  1  S   -0.000000   0.018146
    5  P  1  S   -0.000000   0.033371
    6  P  1  X   -0.000000   0.166847
    7  P  1  Y    0.162035   0.000000
    8  P  1  Z   -0.000000  -0.000000
    9  P  1  X   -0.000001   0.864551
   10  P  1  Y    0.857994   0.000001
   11  P  1  Z   -0.000000  -0.000000
   12  P  1  X   -0.000000   0.142391
   13  P  1  Y    0.142650   0.000000
   14  P  1  Z   -0.000000  -0.000000
   15  P  1  X   -0.000000   0.340452
   16  P  1  Y    0.342178   0.000000
   17  P  1  Z   -0.000000  -0.000000
   18  P  1 XX    0.000000  -0.145892
   19  P  1 YY   -0.000000   0.132914
   20  P  1 ZZ   -0.000000   0.012977
   21  P  1 XY    0.163486   0.000000
   22  P  1 XZ   -0.000000  -0.000000
   23  P  1 YZ   -0.000000  -0.000000
   24  P  1 XX    0.000000  -0.035904
   25  P  1 YY   -0.000000   0.034992
   26  P  1 ZZ    0.000000   0.000912
   27  P  1 XY    0.045216   0.000000
   28  P  1 XZ   -0.000000  -0.000000
   29  P  1 YZ   -0.000000  -0.000000
   30  P  1 XXX   0.000000  -0.031180
   31  P  1 YYY  -0.019758  -0.000000
   32  P  1 ZZZ  -0.000000  -0.000000
   33  P  1 XXY  -0.009986  -0.000000
   34  P  1 XXZ  -0.000000  -0.000000
   35  P  1 YYX  -0.000000   0.007486
   36  P  1 YYZ  -0.000000  -0.000000
   37  P  1 ZZX  -0.000000   0.034347
   38  P  1 ZZY   0.036494   0.000000
   39  P  1 XYZ  -0.000000  -0.000000
   40  P  1 XX    0.000000  -0.016228
   41  P  1 YY   -0.000000   0.015839
   42  P  1 ZZ   -0.000000   0.000389
   43  P  1 XY    0.018849   0.000000
   44  P  1 XZ   -0.000000  -0.000000
   45  P  1 YZ   -0.000000  -0.000000
   46  H  2  S   -0.227553   0.099872
   47  H  2  S   -0.562834   0.273932
   48  H  2  S   -0.041087   0.024972
   49  H  2  X   -0.006669   0.016402
   50  H  2  Y    0.025485  -0.004283
   51  H  2  Z   -0.000000  -0.000000
   52  H  2  X   -0.044199   0.072782
   53  H  2  Y    0.128479  -0.036576
   54  H  2  Z   -0.000000  -0.000000
   55  H  2 XX    0.005541   0.004881
   56  H  2 YY   -0.014981  -0.000839
   57  H  2 ZZ    0.009440  -0.004042
   58  H  2 XY    0.010717  -0.010935
   59  H  2 XZ   -0.000000  -0.000000
   60  H  2 YZ   -0.000000  -0.000000
   61  H  3  S    0.227553   0.099873
   62  H  3  S    0.562834   0.273933
   63  H  3  S    0.041087   0.024972
   64  H  3  X    0.006669   0.016402
   65  H  3  Y    0.025485   0.004283
   66  H  3  Z   -0.000000  -0.000000
   67  H  3  X    0.044199   0.072782
   68  H  3  Y    0.128479   0.036576
   69  H  3  Z   -0.000000  -0.000000
   70  H  3 XX   -0.005541   0.004881
   71  H  3 YY    0.014981  -0.000839
   72  H  3 ZZ   -0.009440  -0.004042
   73  H  3 XY    0.010717   0.010936
   74  H  3 XZ   -0.000000  -0.000000
   75  H  3 YZ   -0.000000  -0.000000
   76  H  4  S    0.000000  -0.301173
   77  H  4  S    0.000000  -0.706706
   78  H  4  S   -0.000000  -0.039625
   79  H  4  X   -0.000000   0.034401
   80  H  4  Y    0.014230   0.000000
   81  H  4  Z   -0.000000  -0.000000
   82  H  4  X   -0.000000   0.168853
   83  H  4  Y    0.052638   0.000000
   84  H  4  Z   -0.000000  -0.000000
   85  H  4 XX    0.000000  -0.023261
   86  H  4 YY   -0.000000   0.010640
   87  H  4 ZZ   -0.000000   0.012621
   88  H  4 XY   -0.009696  -0.000000
   89  H  4 XZ   -0.000000  -0.000000
   90  H  4 YZ   -0.000000  -0.000000

          ------------------------
          MCSCF OPTIMIZED ORBITALS
          ------------------------

                      1          2          3          4          5
                  -80.2667    -7.8144    -5.7093    -5.7093    -5.7081
                     A          A          A          A          A   
    1  P  1  S    1.000140  -0.000534   0.000005   0.000000   0.000000
    2  P  1  S    0.000212   0.953780   0.000141   0.000000   0.000000
    3  P  1  S    0.000235  -0.004190  -0.000161   0.000000   0.000000
    4  P  1  S   -0.000970   0.063026  -0.000068   0.000000   0.000000
    5  P  1  S   -0.000156   0.002614  -0.000077   0.000000   0.000000
    6  P  1  X   -0.000003  -0.000112   0.958010   0.000001   0.000000
    7  P  1  Y   -0.000000   0.000000  -0.000001   0.958052   0.000000
    8  P  1  Z   -0.000000   0.000000   0.000000   0.000000   0.961340
    9  P  1  X   -0.000002  -0.000012  -0.003407  -0.000000   0.000000
   10  P  1  Y   -0.000000  -0.000000   0.000000  -0.003322   0.000000
   11  P  1  Z   -0.000000   0.000000   0.000000   0.000000  -0.000075
   12  P  1  X    0.000001  -0.000052   0.079392   0.000000   0.000000
   13  P  1  Y   -0.000000   0.000000  -0.000000   0.079406   0.000000
   14  P  1  Z   -0.000000   0.000000   0.000000   0.000000   0.075524
   15  P  1  X   -0.000001  -0.000004   0.001224   0.000000   0.000000
   16  P  1  Y   -0.000000  -0.000000  -0.000000   0.001227   0.000000
   17  P  1  Z   -0.000000   0.000000   0.000000   0.000000   0.001291
   18  P  1 XX    0.000006   0.000086   0.000237   0.000000   0.000000
   19  P  1 YY    0.000006   0.000106  -0.000251  -0.000000   0.000000
   20  P  1 ZZ   -0.000012  -0.000192   0.000014  -0.000000   0.000000
   21  P  1 XY   -0.000000  -0.000000   0.000000  -0.000309   0.000000
   22  P  1 XZ   -0.000000   0.000000   0.000000   0.000000  -0.000006
   23  P  1 YZ   -0.000000   0.000000   0.000000   0.000000  -0.000000
   24  P  1 XX    0.000013  -0.000177  -0.001485  -0.000000   0.000000
   25  P  1 YY    0.000015  -0.000180   0.001486   0.000000   0.000000
   26  P  1 ZZ   -0.000028   0.000356  -0.000002  -0.000000   0.000000
   27  P  1 XY   -0.000000   0.000000  -0.000000   0.001687   0.000000
   28  P  1 XZ   -0.000000   0.000000   0.000000   0.000000  -0.000004
   29  P  1 YZ   -0.000000   0.000000   0.000000   0.000000   0.000000
   30  P  1 XXX   0.000016   0.000102  -0.000047   0.000000   0.000000
   31  P  1 YYY  -0.000000  -0.000000   0.000000  -0.000045   0.000000
   32  P  1 ZZZ  -0.000000   0.000000   0.000000   0.000000  -0.000253
   33  P  1 XXY  -0.000000   0.000000  -0.000000  -0.000018   0.000000
   34  P  1 XXZ  -0.000000   0.000000   0.000000   0.000000   0.000171
   35  P  1 YYX  -0.000023  -0.000136  -0.000022  -0.000000   0.000000
   36  P  1 YYZ  -0.000000   0.000000   0.000000   0.000000   0.000169
   37  P  1 ZZX   0.000001  -0.000002   0.000086   0.000000   0.000000
   38  P  1 ZZY  -0.000000   0.000000  -0.000000   0.000078   0.000000
   39  P  1 XYZ  -0.000000   0.000000   0.000000   0.000000  -0.000000
   40  P  1 XX   -0.000001   0.000229  -0.000315  -0.000000   0.000000
   41  P  1 YY   -0.000001   0.000244   0.000288   0.000000   0.000000
   42  P  1 ZZ    0.000002  -0.000474   0.000027  -0.000000   0.000000
   43  P  1 XY   -0.000000   0.000000  -0.000000   0.000284   0.000000
   44  P  1 XZ   -0.000000   0.000000   0.000000   0.000000  -0.000022
   45  P  1 YZ   -0.000000   0.000000   0.000000   0.000000   0.000000
   46  H  2  S    0.000005  -0.000177  -0.000313   0.000503   0.000000
   47  H  2  S   -0.000044   0.000141  -0.001797   0.003002   0.000000
   48  H  2  S    0.000031  -0.000541   0.000176  -0.000303   0.000000
   49  H  2  X    0.000001  -0.000023   0.000088   0.000031   0.000000
   50  H  2  Y   -0.000002   0.000040   0.000034   0.000053   0.000000
   51  H  2  Z   -0.000000   0.000000   0.000000   0.000000   0.000041
   52  H  2  X   -0.000011   0.000087  -0.000423   0.000595   0.000000
   53  H  2  Y    0.000019  -0.000150   0.000610  -0.001096   0.000000
   54  H  2  Z   -0.000000   0.000000   0.000000   0.000000   0.000116
   55  H  2 XX   -0.000001   0.000003   0.000038  -0.000007   0.000000
   56  H  2 YY    0.000006   0.000013  -0.000007  -0.000047   0.000000
   57  H  2 ZZ   -0.000005  -0.000016  -0.000030   0.000055   0.000000
   58  H  2 XY   -0.000007  -0.000010  -0.000020   0.000002   0.000000
   59  H  2 XZ   -0.000000   0.000000   0.000000   0.000000  -0.000011
   60  H  2 YZ   -0.000000   0.000000   0.000000   0.000000   0.000020
   61  H  3  S    0.000005  -0.000177  -0.000313  -0.000503   0.000000
   62  H  3  S   -0.000044   0.000141  -0.001797  -0.003002   0.000000
   63  H  3  S    0.000031  -0.000541   0.000176   0.000303   0.000000
   64  H  3  X    0.000001  -0.000023   0.000088  -0.000031   0.000000
   65  H  3  Y    0.000002  -0.000040  -0.000034   0.000053   0.000000
   66  H  3  Z   -0.000000   0.000000   0.000000   0.000000   0.000041
   67  H  3  X   -0.000011   0.000087  -0.000423  -0.000595   0.000000
   68  H  3  Y   -0.000019   0.000150  -0.000610  -0.001096   0.000000
   69  H  3  Z   -0.000000   0.000000   0.000000   0.000000   0.000116
   70  H  3 XX   -0.000001   0.000003   0.000038   0.000007   0.000000
   71  H  3 YY    0.000006   0.000013  -0.000007   0.000047   0.000000
   72  H  3 ZZ   -0.000005  -0.000016  -0.000030  -0.000055   0.000000
   73  H  3 XY    0.000007   0.000010   0.000020   0.000002   0.000000
   74  H  3 XZ   -0.000000   0.000000   0.000000   0.000000  -0.000011
   75  H  3 YZ   -0.000000   0.000000   0.000000   0.000000  -0.000020
   76  H  4  S    0.000005  -0.000192   0.000592   0.000000   0.000000
   77  H  4  S   -0.000041   0.000143   0.003597   0.000000   0.000000
   78  H  4  S    0.000032  -0.000554  -0.000347  -0.000000   0.000000
   79  H  4  X   -0.000003   0.000039   0.000023  -0.000000   0.000000
   80  H  4  Y   -0.000000  -0.000000  -0.000000   0.000109   0.000000
   81  H  4  Z   -0.000000   0.000000   0.000000   0.000000   0.000042
   82  H  4  X    0.000021  -0.000183  -0.001481  -0.000000   0.000000
   83  H  4  Y    0.000000  -0.000000   0.000000  -0.000064   0.000000
   84  H  4  Z   -0.000000   0.000000   0.000000   0.000000   0.000122
   85  H  4 XX    0.000010   0.000037  -0.000009   0.000000   0.000000
   86  H  4 YY   -0.000005  -0.000011  -0.000037  -0.000000   0.000000
   87  H  4 ZZ   -0.000005  -0.000026   0.000045   0.000000   0.000000
   88  H  4 XY    0.000000   0.000000   0.000000  -0.000038   0.000000
   89  H  4 XZ   -0.000000   0.000000   0.000000   0.000000   0.000023
   90  H  4 YZ   -0.000000   0.000000   0.000000   0.000000  -0.000000

                      6          7          8          9         10
                    0.0000     0.0000     0.0000     0.0000     0.0000
                     A          A          A          A          A   
    1  P  1  S    0.001014  -0.000047   0.000007   0.000000   0.011882
    2  P  1  S    0.002651  -0.000201   0.000030   0.000000   0.111327
    3  P  1  S    0.547762   0.001156  -0.000170   0.000000   0.572028
    4  P  1  S    0.057354   0.000493  -0.000073   0.000000   0.093380
    5  P  1  S    0.219767  -0.001661   0.000245   0.000000   0.419474
    6  P  1  X   -0.000194  -0.036827   0.005432   0.000000   0.003587
    7  P  1  Y   -0.000000  -0.005330  -0.036132   0.000000   0.000000
    8  P  1  Z    0.000000   0.000000   0.000000   0.001494   0.000000
    9  P  1  X    0.000251   0.372541  -0.054953   0.000000   0.007485
   10  P  1  Y   -0.000000   0.054809   0.371569   0.000000   0.000000
   11  P  1  Z    0.000000   0.000000   0.000000   0.598451   0.000000
   12  P  1  X    0.000445   0.115208  -0.016994   0.000000   0.000936
   13  P  1  Y   -0.000000   0.016885   0.114466   0.000000  -0.000000
   14  P  1  Z    0.000000   0.000000   0.000000   0.162452   0.000000
   15  P  1  X   -0.000171   0.106056  -0.015644   0.000000  -0.011838
   16  P  1  Y   -0.000000   0.015712   0.106514   0.000000  -0.000000
   17  P  1  Z    0.000000   0.000000   0.000000   0.364504   0.000000
   18  P  1 XX    0.011983   0.044306  -0.006535   0.000000  -0.093404
   19  P  1 YY    0.011792  -0.043581   0.006428   0.000000  -0.090701
   20  P  1 ZZ   -0.023776  -0.000725   0.000107   0.000000   0.184105
   21  P  1 XY    0.000000  -0.007421  -0.050306   0.000000  -0.000000
   22  P  1 XZ    0.000000   0.000000   0.000000  -0.001105   0.000000
   23  P  1 YZ    0.000000   0.000000   0.000000   0.000000   0.000000
   24  P  1 XX    0.005538   0.027610  -0.004073   0.000000  -0.092333
   25  P  1 YY    0.005784  -0.026550   0.003916   0.000000  -0.098492
   26  P  1 ZZ   -0.011322  -0.001060   0.000156   0.000000   0.190825
   27  P  1 XY    0.000000  -0.004576  -0.031021   0.000000   0.000000
   28  P  1 XZ    0.000000   0.000000   0.000000  -0.002442   0.000000
   29  P  1 YZ    0.000000   0.000000   0.000000   0.000000   0.000000
   30  P  1 XXX   0.011820   0.008290  -0.001223   0.000000  -0.059685
   31  P  1 YYY   0.000000   0.001227   0.008317   0.000000  -0.000000
   32  P  1 ZZZ   0.000000   0.000000   0.000000  -0.011527   0.000000
   33  P  1 XXY  -0.000000   0.000538   0.003647   0.000000   0.000000
   34  P  1 XXZ   0.000000   0.000000   0.000000   0.007623   0.000000
   35  P  1 YYX  -0.015729   0.003778  -0.000557   0.000000   0.085773
   36  P  1 YYZ   0.000000   0.000000   0.000000   0.007841   0.000000
   37  P  1 ZZX  -0.000130  -0.014900   0.002198   0.000000  -0.005698
   38  P  1 ZZY   0.000000  -0.002184  -0.014804   0.000000   0.000000
   39  P  1 XYZ   0.000000   0.000000   0.000000   0.000000   0.000000
   40  P  1 XX    0.002122   0.008578  -0.001265   0.000000  -0.009856
   41  P  1 YY    0.002014  -0.008421   0.001242   0.000000  -0.010660
   42  P  1 ZZ   -0.004137  -0.000157   0.000023   0.000000   0.020517
   43  P  1 XY    0.000000  -0.001424  -0.009654   0.000000  -0.000000
   44  P  1 XZ    0.000000   0.000000   0.000000  -0.000153   0.000000
   45  P  1 YZ    0.000000   0.000000   0.000000   0.000000   0.000000
   46  H  2  S    0.080171  -0.062815   0.157645   0.000000  -0.189784
   47  H  2  S    0.116027  -0.106561   0.267484   0.000000  -0.365618
   48  H  2  S    0.003994  -0.019466   0.050155   0.000000  -0.060769
   49  H  2  X    0.003921  -0.000954   0.006927   0.000000  -0.005835
   50  H  2  Y   -0.006804   0.005285  -0.010597   0.000000   0.010748
   51  H  2  Z    0.000000   0.000000   0.000000   0.005037   0.000000
   52  H  2  X    0.008085  -0.000015   0.014406   0.000000  -0.019787
   53  H  2  Y   -0.013971   0.011571  -0.020581   0.000000   0.035996
   54  H  2  Z    0.000000   0.000000   0.000000   0.024096   0.000000
   55  H  2 XX    0.000041   0.001429  -0.000065   0.000000  -0.001129
   56  H  2 YY    0.001930  -0.002444   0.002587   0.000000  -0.004696
   57  H  2 ZZ   -0.001971   0.001014  -0.002521   0.000000   0.005825
   58  H  2 XY   -0.001890   0.000622  -0.003867   0.000000   0.003004
   59  H  2 XZ    0.000000   0.000000   0.000000   0.001328   0.000000
   60  H  2 YZ    0.000000   0.000000   0.000000  -0.002291   0.000000
   61  H  3  S    0.080171  -0.105657  -0.132794   0.000000  -0.189784
   62  H  3  S    0.116027  -0.179254  -0.225324   0.000000  -0.365618
   63  H  3  S    0.003994  -0.033119  -0.042398   0.000000  -0.060769
   64  H  3  X    0.003921  -0.002913  -0.006357   0.000000  -0.005835
   65  H  3  Y    0.006804  -0.008119  -0.008620   0.000000  -0.010748
   66  H  3  Z    0.000000   0.000000   0.000000   0.005037   0.000000
   67  H  3  X    0.008085  -0.004174  -0.013788   0.000000  -0.019787
   68  H  3  Y    0.013971  -0.017021  -0.016364   0.000000  -0.035996
   69  H  3  Z    0.000000   0.000000   0.000000   0.024096   0.000000
   70  H  3 XX    0.000041   0.001387  -0.000350   0.000000  -0.001129
   71  H  3 YY    0.001930  -0.003086  -0.001771   0.000000  -0.004696
   72  H  3 ZZ   -0.001971   0.001699   0.002121   0.000000   0.005825
   73  H  3 XY    0.001890  -0.001712  -0.003523   0.000000  -0.003004
   74  H  3 XZ    0.000000   0.000000   0.000000   0.001328   0.000000
   75  H  3 YZ    0.000000   0.000000   0.000000   0.002291   0.000000
   76  H  4  S    0.081042   0.168545  -0.024862   0.000000  -0.197971
   77  H  4  S    0.115274   0.281242  -0.041485   0.000000  -0.367795
   78  H  4  S    0.003499   0.052358  -0.007723   0.000000  -0.044992
   79  H  4  X   -0.008019  -0.013681   0.002018   0.000000   0.014819
   80  H  4  Y    0.000000   0.000295   0.002003   0.000000   0.000000
   81  H  4  Z    0.000000   0.000000   0.000000   0.005160   0.000000
   82  H  4  X   -0.015910  -0.025606   0.003777   0.000000   0.048768
   83  H  4  Y    0.000000   0.000899   0.006095   0.000000  -0.000000
   84  H  4  Z    0.000000   0.000000   0.000000   0.024271   0.000000
   85  H  4 XX    0.002915   0.005091  -0.000751   0.000000  -0.007538
   86  H  4 YY   -0.000913  -0.002472   0.000365   0.000000   0.001134
   87  H  4 ZZ   -0.002002  -0.002619   0.000386   0.000000   0.006404
   88  H  4 XY   -0.000000  -0.000263  -0.001783   0.000000   0.000000
   89  H  4 XZ    0.000000   0.000000   0.000000  -0.002713   0.000000
   90  H  4 YZ    0.000000   0.000000   0.000000  -0.000000   0.000000

                     11         12         13         14         15
                    0.0000     0.0000    -0.0185     0.0443     0.0445
                     A          A          A          A          A   
    1  P  1  S    0.001372  -0.000060   0.016773   0.000307  -0.000000
    2  P  1  S    0.011727  -0.000515   0.124051   0.002031  -0.000000
    3  P  1  S    0.028255  -0.001240   0.402990   0.004433  -0.000000
    4  P  1  S    0.007421  -0.000326   0.012959  -0.000348   0.000000
    5  P  1  S   -0.015081   0.000662   1.664581  -0.021604   0.000000
    6  P  1  X    0.167335  -0.007346   0.000676  -0.146657   0.000000
    7  P  1  Y    0.007103   0.161797   0.000000  -0.000000  -0.145020
    8  P  1  Z    0.000000   0.000000   0.000000  -0.000000   0.000000
    9  P  1  X    0.869184  -0.038160   0.004507  -0.583509   0.000001
   10  P  1  Y    0.037670   0.858021  -0.000000  -0.000001  -0.578813
   11  P  1  Z    0.000000   0.000000   0.000000  -0.000000   0.000000
   12  P  1  X    0.143266  -0.006290   0.001186  -0.035102   0.000000
   13  P  1  Y    0.006268   0.142775  -0.000000  -0.000000  -0.034152
   14  P  1  Z    0.000000   0.000000   0.000000  -0.000000   0.000000
   15  P  1  X    0.343931  -0.015100   0.033137  -0.857063   0.000001
   16  P  1  Y    0.015019   0.342094  -0.000000  -0.000001  -0.832425
   17  P  1  Z    0.000000   0.000000   0.000000  -0.000000   0.000000
   18  P  1 XX   -0.135843   0.005964   0.026921  -0.045103   0.000000
   19  P  1 YY    0.144121  -0.006327   0.027191   0.046623  -0.000000
   20  P  1 ZZ   -0.008278   0.000363  -0.054112  -0.001520   0.000000
   21  P  1 XY    0.007166   0.163214  -0.000000   0.000000   0.053473
   22  P  1 XZ    0.000000   0.000000   0.000000  -0.000000   0.000000
   23  P  1 YZ    0.000000   0.000000   0.000000  -0.000000   0.000000
   24  P  1 XX   -0.025372   0.001114   0.142793  -0.260794   0.000000
   25  P  1 YY    0.046565  -0.002044   0.138711   0.270586  -0.000000
   26  P  1 ZZ   -0.021193   0.000930  -0.281504  -0.009792   0.000000
   27  P  1 XY    0.001980   0.045102   0.000000   0.000000   0.309086
   28  P  1 XZ    0.000000   0.000000   0.000000  -0.000000   0.000000
   29  P  1 YZ    0.000000   0.000000   0.000000  -0.000000   0.000000
   30  P  1 XXX  -0.024433   0.001073   0.015716  -0.014973   0.000000
   31  P  1 YYY  -0.000866  -0.019720  -0.000000  -0.000000  -0.014508
   32  P  1 ZZZ   0.000000   0.000000   0.000000  -0.000000   0.000000
   33  P  1 XXY  -0.000438  -0.009968  -0.000000  -0.000000  -0.006340
   34  P  1 XXZ   0.000000   0.000000   0.000000  -0.000000   0.000000
   35  P  1 YYX  -0.002402   0.000105  -0.021076  -0.006128   0.000000
   36  P  1 YYZ   0.000000   0.000000   0.000000  -0.000000   0.000000
   37  P  1 ZZX   0.035183  -0.001545  -0.000010   0.026216  -0.000000
   38  P  1 ZZY   0.001599   0.036425   0.000000   0.000000   0.025805
   39  P  1 XYZ   0.000000   0.000000   0.000000  -0.000000   0.000000
   40  P  1 XX   -0.015167   0.000666   0.007387  -0.009405   0.000000
   41  P  1 YY    0.017152  -0.000753   0.007474   0.010047  -0.000000
   42  P  1 ZZ   -0.001986   0.000087  -0.014861  -0.000642   0.000000
   43  P  1 XY    0.000826   0.018809  -0.000000   0.000000   0.011585
   44  P  1 XZ    0.000000   0.000000   0.000000  -0.000000   0.000000
   45  P  1 YZ    0.000000   0.000000   0.000000  -0.000000   0.000000
   46  H  2  S    0.112334  -0.232371   0.010503   0.009233  -0.015948
   47  H  2  S    0.292980  -0.575675   0.217130   0.138455  -0.237247
   48  H  2  S    0.030320  -0.042351  -1.174071  -1.084557   1.851744
   49  H  2  X    0.016877  -0.007401   0.008978   0.005158  -0.011224
   50  H  2  Y   -0.004425   0.025682  -0.015403  -0.011444   0.018077
   51  H  2  Z    0.000000   0.000000   0.000000  -0.000000   0.000000
   52  H  2  X    0.073551  -0.047439  -0.034036  -0.031307   0.056841
   53  H  2  Y   -0.035300   0.130111   0.059530   0.057457  -0.095665
   54  H  2  Z    0.000000   0.000000   0.000000  -0.000000   0.000000
   55  H  2 XX    0.005285   0.005315  -0.000107  -0.000274  -0.002265
   56  H  2 YY   -0.000961  -0.014948  -0.001640  -0.002193   0.006539
   57  H  2 ZZ   -0.004324   0.009634   0.001747   0.002467  -0.004273
   58  H  2 XY   -0.010875   0.011196   0.001470   0.005147  -0.007002
   59  H  2 XZ    0.000000   0.000000   0.000000  -0.000000   0.000000
   60  H  2 YZ    0.000000   0.000000   0.000000  -0.000000   0.000000
   61  H  3  S    0.132266   0.221633   0.010503   0.009233   0.015948
   62  H  3  S    0.342303   0.547784   0.217130   0.138455   0.237247
   63  H  3  S    0.033915   0.039531  -1.174071  -1.084561  -1.851742
   64  H  3  X    0.017460   0.005894   0.008978   0.005158   0.011224
   65  H  3  Y    0.006659   0.025195   0.015403   0.011444   0.018077
   66  H  3  Z    0.000000   0.000000   0.000000  -0.000000   0.000000
   67  H  3  X    0.077425   0.040810  -0.034036  -0.031307  -0.056841
   68  H  3  Y    0.046567   0.126516  -0.059530  -0.057457  -0.095665
   69  H  3  Z    0.000000   0.000000   0.000000  -0.000000   0.000000
   70  H  3 XX    0.004799  -0.005757  -0.000107  -0.000274   0.002265
   71  H  3 YY    0.000353   0.014975  -0.001640  -0.002193  -0.006539
   72  H  3 ZZ   -0.005152  -0.009218   0.001747   0.002467   0.004273
   73  H  3 XY    0.011814   0.010200  -0.001470  -0.005147  -0.007002
   74  H  3 XZ    0.000000   0.000000   0.000000  -0.000000   0.000000
   75  H  3 YZ    0.000000   0.000000   0.000000  -0.000000   0.000000
   76  H  4  S   -0.279730   0.012281   0.010697  -0.018599   0.000000
   77  H  4  S   -0.667752   0.029316   0.212464  -0.257546   0.000000
   78  H  4  S   -0.034564   0.001517  -1.242372   2.163762  -0.000003
   79  H  4  X    0.032863  -0.001443  -0.018487   0.024556  -0.000000
   80  H  4  Y    0.000624   0.014221  -0.000000  -0.000000  -0.001303
   81  H  4  Z    0.000000   0.000000   0.000000  -0.000000   0.000000
   82  H  4  X    0.164136  -0.007206   0.072189  -0.133105   0.000000
   83  H  4  Y    0.002309   0.052602  -0.000000   0.000000   0.001770
   84  H  4  Z    0.000000   0.000000   0.000000  -0.000000   0.000000
   85  H  4 XX   -0.022514   0.000988  -0.002429   0.011099  -0.000000
   86  H  4 YY    0.010566  -0.000464   0.000625  -0.006134   0.000000
   87  H  4 ZZ    0.011948  -0.000525   0.001803  -0.004965   0.000000
   88  H  4 XY   -0.000425  -0.009691  -0.000000   0.000000   0.001812
   89  H  4 XZ    0.000000   0.000000   0.000000  -0.000000   0.000000
   90  H  4 YZ    0.000000   0.000000   0.000000  -0.000000   0.000000

                     16         17         18         19         20
                    0.1344     0.1346     0.1759     0.2058     0.2058
                     A          A          A          A          A   
    1  P  1  S    0.000000   0.000000  -0.000000  -0.000000  -0.001208
    2  P  1  S    0.000000   0.000000  -0.000000  -0.000000  -0.009057
    3  P  1  S    0.000000   0.000000  -0.000000  -0.000000  -0.022035
    4  P  1  S    0.000000   0.000000  -0.000000  -0.000000  -0.004618
    5  P  1  S    0.000000   0.000000  -0.000000   0.000003   0.126764
    6  P  1  X    0.000000   0.000000  -0.000000  -0.000002  -0.076423
    7  P  1  Y    0.000000   0.000000  -0.000000  -0.084545   0.000002
    8  P  1  Z    0.000000  -0.000116  -0.326639  -0.000000   0.000000
    9  P  1  X    0.000000   0.000000  -0.000000  -0.000011  -0.500225
   10  P  1  Y    0.000000   0.000000  -0.000000  -0.519576   0.000011
   11  P  1  Z    0.000000   0.001622  -1.187512  -0.000000   0.000000
   12  P  1  X    0.000000   0.000000  -0.000000  -0.000002  -0.078803
   13  P  1  Y    0.000000   0.000000  -0.000000  -0.078952   0.000002
   14  P  1  Z    0.000000   0.000456  -0.031129  -0.000000   0.000000
   15  P  1  X    0.000000   0.000000  -0.000000   0.000079   3.600208
   16  P  1  Y    0.000000   0.000000  -0.000000   3.576241  -0.000078
   17  P  1  Z    0.000000   0.001881   1.398660  -0.000000   0.000000
   18  P  1 XX    0.000000   0.000000  -0.000000   0.000001   0.042410
   19  P  1 YY    0.000000   0.000000  -0.000000  -0.000001  -0.042464
   20  P  1 ZZ    0.000000   0.000000  -0.000000   0.000000   0.000054
   21  P  1 XY    0.000000   0.000000  -0.000000  -0.045789   0.000001
   22  P  1 XZ    0.000000   0.126134   0.000204  -0.000000   0.000000
   23  P  1 YZ    0.125880  -0.000000  -0.000000  -0.000000   0.000000
   24  P  1 XX    0.000000   0.000000  -0.000000   0.000016   0.718647
   25  P  1 YY    0.000000   0.000000  -0.000000  -0.000016  -0.729462
   26  P  1 ZZ    0.000000   0.000000  -0.000000   0.000000   0.010815
   27  P  1 XY    0.000000   0.000000  -0.000000  -0.824614   0.000018
   28  P  1 XZ    0.000000   0.805654   0.001257  -0.000000   0.000000
   29  P  1 YZ    0.804026  -0.000000   0.000000  -0.000000   0.000000
   30  P  1 XXX   0.000000   0.000000  -0.000000   0.000001   0.068252
   31  P  1 YYY   0.000000   0.000000  -0.000000   0.063552  -0.000001
   32  P  1 ZZZ  -0.000000  -0.000174  -0.003979  -0.000000   0.000000
   33  P  1 XXY   0.000000   0.000000  -0.000000   0.028156  -0.000001
   34  P  1 XXZ   0.000000   0.004637   0.002802  -0.000000   0.000000
   35  P  1 YYX   0.000000   0.000000  -0.000000   0.000001   0.023240
   36  P  1 YYZ  -0.000000  -0.004403   0.002537  -0.000000   0.000000
   37  P  1 ZZX   0.000000   0.000000  -0.000000  -0.000003  -0.114809
   38  P  1 ZZY   0.000000   0.000000  -0.000000  -0.113420   0.000002
   39  P  1 XYZ  -0.005115   0.000000  -0.000000  -0.000000   0.000000
   40  P  1 XX    0.000000   0.000000  -0.000000   0.000000   0.007069
   41  P  1 YY    0.000000   0.000000  -0.000000  -0.000000  -0.008114
   42  P  1 ZZ    0.000000   0.000000  -0.000000   0.000000   0.001045
   43  P  1 XY    0.000000   0.000000  -0.000000  -0.008573   0.000000
   44  P  1 XZ    0.000000   0.048917   0.000040  -0.000000   0.000000
   45  P  1 YZ    0.048837  -0.000000  -0.000000  -0.000000   0.000000
   46  H  2  S    0.000000   0.000000  -0.000000   0.053835  -0.029585
   47  H  2  S    0.000000   0.000000  -0.000000  -0.463528   0.275702
   48  H  2  S    0.000000   0.000000  -0.000000  -2.333797   1.324621
   49  H  2  X    0.000000   0.000000  -0.000000   0.007494  -0.005014
   50  H  2  Y    0.000000   0.000000  -0.000000  -0.013720   0.007399
   51  H  2  Z    0.000276  -0.000166   0.005330  -0.000000   0.000000
   52  H  2  X    0.000000   0.000000  -0.000000  -0.141561   0.124732
   53  H  2  Y    0.000000   0.000000  -0.000000   0.290356  -0.138426
   54  H  2  Z    0.108676  -0.062512  -0.044939  -0.000000   0.000000
   55  H  2 XX    0.000000   0.000000  -0.000000   0.003495   0.002088
   56  H  2 YY    0.000000   0.000000  -0.000000  -0.008681   0.000704
   57  H  2 ZZ    0.000000   0.000000  -0.000000   0.005187  -0.002792
   58  H  2 XY    0.000000   0.000000  -0.000000   0.007410  -0.006862
   59  H  2 XZ   -0.001798   0.002310   0.000007  -0.000000   0.000000
   60  H  2 YZ    0.004332  -0.001800  -0.000001  -0.000000   0.000000
   61  H  3  S    0.000000   0.000000  -0.000000  -0.053836  -0.029583
   62  H  3  S    0.000000   0.000000  -0.000000   0.463540   0.275682
   63  H  3  S    0.000000   0.000000  -0.000000   2.333855   1.324518
   64  H  3  X    0.000000   0.000000  -0.000000  -0.007494  -0.005014
   65  H  3  Y    0.000000   0.000000  -0.000000  -0.013720  -0.007398
   66  H  3  Z   -0.000276  -0.000166   0.005330  -0.000000   0.000000
   67  H  3  X    0.000000   0.000000  -0.000000   0.141567   0.124726
   68  H  3  Y    0.000000   0.000000  -0.000000   0.290362   0.138413
   69  H  3  Z   -0.108676  -0.062512  -0.044939  -0.000000   0.000000
   70  H  3 XX    0.000000   0.000000  -0.000000  -0.003495   0.002089
   71  H  3 YY    0.000000   0.000000  -0.000000   0.008681   0.000703
   72  H  3 ZZ    0.000000   0.000000  -0.000000  -0.005187  -0.002792
   73  H  3 XY    0.000000   0.000000  -0.000000   0.007411   0.006861
   74  H  3 XZ    0.001798   0.002310   0.000007  -0.000000   0.000000
   75  H  3 YZ    0.004332   0.001800   0.000001  -0.000000   0.000000
   76  H  4  S    0.000000   0.000000  -0.000000   0.000001   0.064265
   77  H  4  S    0.000000   0.000000  -0.000000  -0.000012  -0.561709
   78  H  4  S    0.000000   0.000000  -0.000000  -0.000060  -2.756907
   79  H  4  X    0.000000   0.000000  -0.000000  -0.000000  -0.017323
   80  H  4  Y    0.000000   0.000000  -0.000000  -0.000618   0.000000
   81  H  4  Z    0.000000   0.000849   0.005483  -0.000000   0.000000
   82  H  4  X    0.000000   0.000000  -0.000000   0.000008   0.380246
   83  H  4  Y    0.000000   0.000000  -0.000000   0.043892  -0.000001
   84  H  4  Z    0.000000   0.121449  -0.046800  -0.000000   0.000000
   85  H  4 XX    0.000000   0.000000  -0.000000  -0.000000  -0.013666
   86  H  4 YY    0.000000   0.000000  -0.000000   0.000000   0.007147
   87  H  4 ZZ    0.000000   0.000000  -0.000000   0.000000   0.006519
   88  H  4 XY    0.000000   0.000000  -0.000000  -0.004856   0.000000
   89  H  4 XZ    0.000000   0.005369  -0.000198  -0.000000   0.000000
   90  H  4 YZ    0.001118  -0.000000  -0.000000  -0.000000   0.000000

                     21         22         23         24         25
                    0.2913     0.3825     0.5045     0.5079     0.5396
                     A          A          A          A          A   
    1  P  1  S   -0.080772  -0.004701   0.000000  -0.001573   0.000000
    2  P  1  S   -0.604403  -0.044098   0.000000  -0.011550   0.000000
    3  P  1  S   -1.299055  -0.040462   0.000000  -0.021763   0.000000
    4  P  1  S   -0.454027  -0.260456  -0.000000  -0.000874  -0.000000
    5  P  1  S    6.415596   2.864709   0.000000  -0.020261   0.000000
    6  P  1  X    0.015265   0.017834   0.000000  -0.245631  -0.000000
    7  P  1  Y    0.000000  -0.000000   0.227803   0.000000  -0.008707
    8  P  1  Z    0.000000  -0.000000  -0.000000  -0.000000  -0.000000
    9  P  1  X    0.047770   0.030010   0.000000  -0.814277  -0.000000
   10  P  1  Y    0.000000  -0.000000   0.769462   0.000000  -0.027630
   11  P  1  Z    0.000000  -0.000000  -0.000000  -0.000000  -0.000000
   12  P  1  X    0.002939  -0.005537   0.000000  -0.020985   0.000000
   13  P  1  Y   -0.000000   0.000000   0.022879   0.000000  -0.000495
   14  P  1  Z    0.000000  -0.000000  -0.000000  -0.000000  -0.000000
   15  P  1  X   -0.055633   0.077750   0.000000  -1.105301  -0.000000
   16  P  1  Y    0.000000  -0.000000   1.088606   0.000000  -0.012949
   17  P  1  Z    0.000000  -0.000000  -0.000000  -0.000000  -0.000000
   18  P  1 XX    0.036174   0.062547   0.000000  -0.089821  -0.000000
   19  P  1 YY    0.031398   0.052410  -0.000000   0.090760   0.000000
   20  P  1 ZZ   -0.067572  -0.114957  -0.000000  -0.000939  -0.000000
   21  P  1 XY   -0.000000   0.000000  -0.105468  -0.000000   0.003429
   22  P  1 XZ    0.000000  -0.000000  -0.000000  -0.000000  -0.000000
   23  P  1 YZ    0.000000  -0.000000  -0.000000  -0.000000  -0.000000
   24  P  1 XX    0.260848   0.772949   0.000000  -1.178679  -0.000000
   25  P  1 YY    0.273368   0.686294  -0.000000   1.173310   0.000000
   26  P  1 ZZ   -0.534216  -1.459244  -0.000000   0.005369  -0.000000
   27  P  1 XY   -0.000000   0.000000  -1.338686  -0.000000   0.029826
   28  P  1 XZ    0.000000  -0.000000  -0.000000  -0.000000  -0.000000
   29  P  1 YZ    0.000000  -0.000000  -0.000000  -0.000000  -0.000000
   30  P  1 XXX   0.261371   0.135268   0.000000   0.005862   0.000000
   31  P  1 YYY   0.000000  -0.000000  -0.005130   0.000000   0.058360
   32  P  1 ZZZ   0.000000  -0.000000  -0.000000  -0.000000  -0.000000
   33  P  1 XXY   0.000000  -0.000000  -0.005551   0.000000  -0.078386
   34  P  1 XXZ   0.000000  -0.000000  -0.000000  -0.000000  -0.000000
   35  P  1 YYX  -0.350446  -0.176220  -0.000000   0.002553  -0.000000
   36  P  1 YYZ   0.000000  -0.000000  -0.000000  -0.000000  -0.000000
   37  P  1 ZZX  -0.000221  -0.005260  -0.000000  -0.010417   0.000000
   38  P  1 ZZY  -0.000000   0.000000   0.012434  -0.000000   0.000088
   39  P  1 XYZ   0.000000  -0.000000  -0.000000  -0.000000  -0.000000
   40  P  1 XX   -0.007489   0.020020   0.000000  -0.035918   0.000000
[...]
      184   -0.022162   -0.022162  -+2+-+0
     1051    0.020972    0.020972  2+++0--

 State #    2  Energy =    -342.182021441

      Det      Coef        Coefp    Occupancy (Ignoring core)
      ---      ----        ----    --------- --------- -----
       36    0.947953    0.947953  22+2000
       16    0.121407   -0.121407  222000+
      142   -0.114417   -0.114417  22+0200
       71    0.113950   -0.113950  2+22000
       73   -0.084466    0.084466  2+-2+00
       39    0.082615    0.082615  2-+2+00
       52   -0.075639    0.075639  220200+
      108    0.058042    0.058042  +2-2+00
      249   -0.056872    0.056872  20+2200
      123   -0.054636    0.054636  +-2200+
      112    0.053940    0.053940  +2-20+0
      463   -0.051714    0.051714  20+2020
       88   -0.045365    0.045365  202200+
      456    0.042245    0.042245  2++20-0
       77   -0.036915    0.036915  2+-20+0
      460    0.035306    0.035306  -++2+-0
      491   -0.032345    0.032345  +2+20-0
       40   -0.031636    0.031636  -2+2+00
      876    0.030404    0.030404  ++2200-
      288    0.028435    0.028435  +-+2-+0
       38   -0.027829    0.027829  2202+00
      859   -0.027827    0.027827  02+2002
       74    0.027635   -0.027635  2022+00
      499   -0.027558    0.027558  02+2020
      494   -0.027374    0.027374  +-+2+-0
      285   -0.027041    0.027041  02+2200
      823   -0.026752    0.026752  20+2002
      281   -0.026406    0.026406  +2+2-00
      254   -0.024702    0.024702  -++2-+0
       89    0.024232    0.024232  -+2200+
      297   -0.023606    0.023606  +202-0+
      459    0.023493   -0.023493  20+2+-0
      808   -0.023460    0.023460  2+02+0-
      262    0.023301    0.023301  2+02-0+
      253   -0.022688   -0.022688  20+2-+0
       44   -0.021595    0.021595  -2+20+0
      843    0.020014    0.020014  +202+0-

 State #    3  Energy =    -342.180129966

      Det      Coef        Coefp    Occupancy (Ignoring core)
      ---      ----        ----    --------- --------- -----
       71    0.946176   -0.946176  2+22000
        6   -0.118826    0.118826  22200+0
       36   -0.113638   -0.113638  22+2000
      177   -0.113148    0.113148  2+20200
       38    0.088137   -0.088137  2202+00
       74   -0.080970    0.080970  2022+00
       78    0.074730   -0.074730  20220+0
      109    0.057143   -0.057143  +-22+00
      248   -0.057051    0.057051  2+02200
        2   -0.055533    0.055533  2220+00
      122   -0.054447   -0.054447  +2-200+
      113   -0.054214    0.054214  +-220+0
      822   -0.052525    0.052525  2+02002
       42    0.046827   -0.046827  22020+0
      806    0.044805    0.044805  2++200-
       53   -0.039904   -0.039904  2-+200+
      810    0.035660    0.035660  -++2+0-
       75   -0.031082   -0.031082  -+22+00
      841    0.030014   -0.030014  +2+200-
      526    0.028553    0.028553  ++220-0
       73   -0.028033    0.028033  2+-2+00
       39    0.027983    0.027983  2-+2+00
      332    0.027837   -0.027837  ++-2-0+
      894   -0.027728   -0.027728  0+22002
      534   -0.027608   -0.027608  0+22020
      878   -0.027048   -0.027048  ++-2+0-
      320   -0.026967   -0.026967  0+22200
      462   -0.026781    0.026781  2+02020
      316   -0.026061   -0.026061  ++22-00
       79    0.025661    0.025661  -+220+0
      264   -0.024968    0.024968  -++2-0+
       54    0.024433   -0.024433  -2+200+
      323    0.023932   -0.023932  +022-+0
      106   -0.023759   -0.023759  +222000
      809   -0.023615    0.023615  20+2+0-
      458   -0.022911    0.022911  2+02+-0
      263    0.022697    0.022697  20+2-0+
      252    0.022526    0.022526  2+02-+0
      529   -0.020076   -0.020076  +022+-0

 ---------------------------------------
      - DIABATIC STATES IN CMO -        
 ---------------------------------------

 State #    1  Energy =    -342.419312656

      Det      Coef        Coefp    Occupancy (Ignoring core)
      ---      ----        ----    --------- --------- -----
        1    0.977735   -0.977735  222+000
      107   -0.076025    0.076025  +22-+00
      393   -0.061402   -0.061402  202+020
      143   -0.058948   -0.058948  220+200
      717   -0.056087   -0.056087  220+002
        5    0.049715    0.049715  -22++00
      179   -0.045919   -0.045919  202+200
       17    0.038161    0.038161  22-+00+
        8    0.035654   -0.035654  2-2+0+0
      738   -0.033515   -0.033515  2+-++0-
       51   -0.031728    0.031728  22+-00+
      704    0.030769   -0.030769  2-+++0-
       76   -0.030713   -0.030713  2+2-0+0
      158   -0.030681   -0.030681  2-++-0+
      215   -0.030674   -0.030674  022+200
      389   -0.028339   -0.028339  202++-0
      192    0.028163   -0.028163  2+-+-0+
      218   -0.027829    0.027829  +-2+-+0
      227   -0.027391   -0.027391  +2-+-0+
      211    0.026310    0.026310  +22+-00
      353    0.026046    0.026046  220++-0
      753   -0.026033   -0.026033  202+002
      183    0.025630   -0.025630  202+-+0
       29   -0.025500   -0.025500  2--+0++
      390   -0.024203    0.024203  -+2++-0
      789   -0.023705   -0.023705  022+002
      429   -0.023642   -0.023642  022+020
      424    0.023538    0.023538  +-2++-0
      147   -0.023505    0.023505  220+-+0
      705   -0.023343   -0.023343  -2+++0-
      773    0.023122   -0.023122  +2-++0-
      368    0.023036    0.023036  2-++0-+
      742    0.022920    0.022920  2+-+0+-
      184    0.022249    0.022249  -+2+-+0
      159    0.021556   -0.021556  -2++-0+
     1051   -0.020844   -0.020844  2+++0--
      357   -0.020027   -0.020027  220+020

 State #    2  Energy =    -342.182021441

      Det      Coef        Coefp    Occupancy (Ignoring core)
      ---      ----        ----    --------- --------- -----
       36    0.954412    0.954412  22+2000
       16    0.121409   -0.121409  222000+
      142   -0.116815   -0.116815  22+0200
       73   -0.093248    0.093248  2+-2+00
       39    0.086948    0.086948  2-+2+00
       52   -0.075908    0.075908  220200+
      108    0.063355    0.063355  +2-2+00
      463   -0.057378    0.057378  20+2020
      123   -0.055373    0.055373  +-2200+
      249   -0.051979    0.051979  20+2200
      112   -0.047947   -0.047947  +2-20+0
       88   -0.045861    0.045861  202200+
      456   -0.042000   -0.042000  2++20-0
      460   -0.035288   -0.035288  -++2+-0
       40   -0.033528    0.033528  -2+2+00
      876    0.031130    0.031130  ++2200-
      281   -0.029827    0.029827  +2+2-00
      288   -0.028686   -0.028686  +-+2-+0
      859   -0.028121    0.028121  02+2002
      285   -0.027996    0.027996  02+2200
       77    0.027511   -0.027511  2+-20+0
      494    0.027385   -0.027385  +-+2+-0
      491    0.027040   -0.027040  +2+20-0
      499   -0.026872    0.026872  02+2020
      823   -0.026871    0.026871  20+2002
      808   -0.026224    0.026224  2+02+0-
       71   -0.025742    0.025742  2+22000
      254    0.024662   -0.024662  -++2-+0
      262    0.024632    0.024632  2+02-0+
       89    0.024244    0.024244  -+2200+
      297   -0.023473    0.023473  +202-0+
      459   -0.023344    0.023344  20+2+-0
      253    0.022648    0.022648  20+2-+0
       44    0.020907   -0.020907  -2+20+0

 State #    3  Energy =    -342.180129966

      Det      Coef        Coefp    Occupancy (Ignoring core)
      ---      ----        ----    --------- --------- -----
       71    0.952848   -0.952848  2+22000
      177   -0.112251    0.112251  2+20200
        6    0.111706   -0.111706  22200+0
       38    0.097260   -0.097260  2202+00
       78   -0.083300    0.083300  20220+0
       74   -0.074953    0.074953  2022+00
        2   -0.068720    0.068720  2220+00
      113    0.062622   -0.062622  +-220+0
      248   -0.062356    0.062356  2+02200
      122   -0.055777   -0.055777  +2-200+
      822   -0.052794    0.052794  2+02002
      109    0.051682   -0.051682  +-22+00
      806    0.044549    0.044549  2++200-
       53   -0.040647   -0.040647  2-+200+
       42   -0.035700    0.035700  22020+0
      810    0.034498    0.034498  -++2+0-
      526   -0.034411   -0.034411  ++220-0
      841    0.031195   -0.031195  +2+200-
       75   -0.029171   -0.029171  -+22+00
      534   -0.029005   -0.029005  0+22020
       79   -0.028211   -0.028211  -+220+0
      894   -0.027936   -0.027936  0+22002
      332    0.027365   -0.027365  ++-2-0+
      878   -0.026467   -0.026467  ++-2+0-
      320   -0.025971   -0.025971  0+22200
       36    0.025784    0.025784  22+2000
      263    0.025553    0.025553  20+2-0+
      809   -0.025229    0.025229  20+2+0-
       54    0.024583   -0.024583  -2+200+
      264   -0.023821    0.023821  -++2-0+
      323   -0.023707    0.023707  +022-+0
      316   -0.022511   -0.022511  ++22-00
      462   -0.022191    0.022191  2+02020

 ---------------------------------------
    -DIABATIC STATES IN PROTOTYPES-     
 ---------------------------------------

     STATE:    1
 Group Ref#    Coefficients
     1    1    0.998995
     2    2   -0.000000
     3    3    0.000000

WEIGHT OF LISTED PROTOTYPES:   99.80%

     STATE:    2
 Group Ref#    Coefficients
     1    1   -0.000000
     2    2    0.997412
     3    3    0.000054

WEIGHT OF LISTED PROTOTYPES:   99.48%

     STATE:    3
 Group Ref#    Coefficients
     1    1   -0.000000
     2    2    0.000054
     3    3    0.995569

WEIGHT OF LISTED PROTOTYPES:   99.12%

     DIRECT MAX. DIABATIZATION FINISHED    
 CPU     0: STEP CPU TIME=     0.24 TOTAL CPU TIME=         75.0 (      1.3 MIN)
 TOTAL WALL CLOCK TIME=        104.9 SECONDS, CPU UTILIZATION IS    71.50%

DIABATS FOR SPIN-ORBIT CALCULATION ARE READY

TRANSITION DIPOLES BETWEEN ADIABATS (in A.U.):

STATE PAIR      X         Y         Z
    1    1 -0.015063  0.000000 -0.000000
    2    1 -0.000000  0.000000  0.000000
    2    2  0.401555  0.000000 -0.000000
    3    1  0.000000  0.000000  0.021347
    3    2  0.000000 -0.442484  0.000000
    3    3 -0.401305 -0.000000  0.000000


TRANSITION DIPOLES BETWEEN DIABATS (in A.U.):

STATE PAIR      X         Y         Z
    1    1 -0.015063  0.000000 -0.000000
    2    1 -0.000000  0.000000  0.000576
    2    2  0.400969 -0.023890  0.000000
    3    1 -0.000000 -0.000000 -0.021339
    3    2  0.021674  0.441838 -0.000000
    3    3 -0.400719  0.023890  0.000000

TRANSITION DIPOLES BETWEEN DIRECT MAX. DIABATS (in A.U.):

STATE PAIR      X         Y         Z
    1    1 -0.015063  0.000000 -0.000000
    2    1 -0.000000  0.000000  0.000576
    2    2  0.400969 -0.023890  0.000000
    3    1 -0.000000 -0.000000 -0.021339
    3    2  0.021674  0.441838 -0.000000
    3    3 -0.400719  0.023890  0.000000
 No $TRANST Group Found.
 Quit without doing spin-orbit coupling
 ..... DONE WITH MP2 ENERGY .....
 CPU     0: STEP CPU TIME=     0.00 TOTAL CPU TIME=         75.0 (      1.3 MIN)
 TOTAL WALL CLOCK TIME=        104.9 SECONDS, CPU UTILIZATION IS    71.50%
            100000000  WORDS OF DYNAMIC MEMORY USED
 EXECUTION OF GAMESS TERMINATED NORMALLY Sat Nov 25 23:44:16 2023
 DDI: 4351152 bytes (4.1 MB / 0 MWords) used by master data server.
Note: The following floating-point exceptions are signalling: IEEE_DENORMAL

 ----------------------------------------
 CPU timing information for all processes
 ========================================
 0: 74.519 + 0.530 = 75.50
 1: 73.976 + 0.309 = 74.285
 ----------------------------------------
Note: The following floating-point exceptions are signalling: IEEE_DENORMAL
 ddikick.x: exited gracefully.
unset echo
----- accounting info -----
Files used on the master node io003 were:
-rw-r--r-- 1 bjb2chen nooijen  134243 Nov 25 23:42 /home/bjb2chen/gmsscr//ph3_cct_gmcpt_D3h_3st_diab_mode11_-0.05x2.F05
-rw-r--r-- 1 bjb2chen nooijen 1106024 Nov 25 23:44 /home/bjb2chen/gmsscr//ph3_cct_gmcpt_D3h_3st_diab_mode11_-0.05x2.F09
-rw-r--r-- 1 bjb2chen nooijen 1260112 Nov 25 23:44 /home/bjb2chen/gmsscr//ph3_cct_gmcpt_D3h_3st_diab_mode11_-0.05x2.F09.001
-rw-r--r-- 1 bjb2chen nooijen 2715760 Nov 25 23:44 /home/bjb2chen/gmsscr//ph3_cct_gmcpt_D3h_3st_diab_mode11_-0.05x2.F10
-rw-r--r-- 1 bjb2chen nooijen  611552 Nov 25 23:44 /home/bjb2chen/gmsscr//ph3_cct_gmcpt_D3h_3st_diab_mode11_-0.05x2.F13
-rw-r--r-- 1 bjb2chen nooijen  611552 Nov 25 23:44 /home/bjb2chen/gmsscr//ph3_cct_gmcpt_D3h_3st_diab_mode11_-0.05x2.F13.001
-rw-r--r-- 1 bjb2chen nooijen  180648 Nov 25 23:44 /home/bjb2chen/gmsscr//ph3_cct_gmcpt_D3h_3st_diab_mode11_-0.05x2.F15
-rw-r--r-- 1 bjb2chen nooijen       0 Nov 25 23:42 /home/bjb2chen/gmsscr//ph3_cct_gmcpt_D3h_3st_diab_mode11_-0.05x2.F16
-rw-r--r-- 1 bjb2chen nooijen    9808 Nov 25 23:44 /home/bjb2chen/gmsscr//ph3_cct_gmcpt_D3h_3st_diab_mode11_-0.05x2.F70
-rw-r--r-- 1 bjb2chen nooijen    9808 Nov 25 23:44 /home/bjb2chen/gmsscr//ph3_cct_gmcpt_D3h_3st_diab_mode11_-0.05x2.F70.001
-rw-r--r-- 1 bjb2chen nooijen    9808 Nov 25 23:44 /home/bjb2chen/gmsscr//ph3_cct_gmcpt_D3h_3st_diab_mode11_-0.05x2.F71
-rw-r--r-- 1 bjb2chen nooijen    9808 Nov 25 23:44 /home/bjb2chen/gmsscr//ph3_cct_gmcpt_D3h_3st_diab_mode11_-0.05x2.F71.001
-rw-r--r-- 1 bjb2chen nooijen   19608 Nov 25 23:44 /home/bjb2chen/gmsscr//ph3_cct_gmcpt_D3h_3st_diab_mode11_-0.05x2.F72
-rw-r--r-- 1 bjb2chen nooijen   19608 Nov 25 23:44 /home/bjb2chen/gmsscr//ph3_cct_gmcpt_D3h_3st_diab_mode11_-0.05x2.F72.001
-rw-r--r-- 1 bjb2chen nooijen   19608 Nov 25 23:44 /home/bjb2chen/gmsscr//ph3_cct_gmcpt_D3h_3st_diab_mode11_-0.05x2.F73
-rw-r--r-- 1 bjb2chen nooijen   19608 Nov 25 23:44 /home/bjb2chen/gmsscr//ph3_cct_gmcpt_D3h_3st_diab_mode11_-0.05x2.F73.001
-rw-r--r-- 1 bjb2chen nooijen  961208 Nov 25 23:44 /home/bjb2chen/gmsscr//ph3_cct_gmcpt_D3h_3st_diab_mode11_-0.05x2.F74
-rw-r--r-- 1 bjb2chen nooijen  959640 Nov 25 23:44 /home/bjb2chen/gmsscr//ph3_cct_gmcpt_D3h_3st_diab_mode11_-0.05x2.F74.001
-rw-r--r-- 1 bjb2chen nooijen       0 Nov 25 23:42 /home/bjb2chen/gmsscr//ph3_cct_gmcpt_D3h_3st_diab_mode11_-0.05x2.F75
-rw-r--r-- 1 bjb2chen nooijen       0 Nov 25 23:42 /home/bjb2chen/gmsscr//ph3_cct_gmcpt_D3h_3st_diab_mode11_-0.05x2.F75.001
-rw-r--r-- 1 bjb2chen nooijen   58848 Nov 25 23:44 /home/bjb2chen/gmsscr//ph3_cct_gmcpt_D3h_3st_diab_mode11_-0.05x2.F76
-rw-r--r-- 1 bjb2chen nooijen   58848 Nov 25 23:44 /home/bjb2chen/gmsscr//ph3_cct_gmcpt_D3h_3st_diab_mode11_-0.05x2.F76.001
-rw-r--r-- 1 bjb2chen nooijen       0 Nov 25 23:42 /home/bjb2chen/gmsscr//ph3_cct_gmcpt_D3h_3st_diab_mode11_-0.05x2.F77
-rw-r--r-- 1 bjb2chen nooijen       0 Nov 25 23:42 /home/bjb2chen/gmsscr//ph3_cct_gmcpt_D3h_3st_diab_mode11_-0.05x2.F77.001
-rw-r--r-- 1 bjb2chen nooijen    5128 Nov 25 23:44 /home/bjb2chen/gmsscr//ph3_cct_gmcpt_D3h_3st_diab_mode11_-0.05x2.F78
-rw-r--r-- 1 bjb2chen nooijen    5128 Nov 25 23:44 /home/bjb2chen/gmsscr//ph3_cct_gmcpt_D3h_3st_diab_mode11_-0.05x2.F78.001
-rw-r--r-- 1 bjb2chen nooijen   39208 Nov 25 23:44 /home/bjb2chen/gmsscr//ph3_cct_gmcpt_D3h_3st_diab_mode11_-0.05x2.F79
-rw-r--r-- 1 bjb2chen nooijen   39208 Nov 25 23:44 /home/bjb2chen/gmsscr//ph3_cct_gmcpt_D3h_3st_diab_mode11_-0.05x2.F79.001
-rw-r--r-- 1 bjb2chen nooijen     104 Nov 25 23:44 /home/bjb2chen/gmsscr//ph3_cct_gmcpt_D3h_3st_diab_mode11_-0.05x2.F80
-rw-r--r-- 1 bjb2chen nooijen     104 Nov 25 23:44 /home/bjb2chen/gmsscr//ph3_cct_gmcpt_D3h_3st_diab_mode11_-0.05x2.F80.001
-rw-r--r-- 1 bjb2chen nooijen  102416 Nov 25 23:44 /home/bjb2chen/gmsscr//ph3_cct_gmcpt_D3h_3st_diab_mode11_-0.05x2.F81
-rw-r--r-- 1 bjb2chen nooijen  102416 Nov 25 23:44 /home/bjb2chen/gmsscr//ph3_cct_gmcpt_D3h_3st_diab_mode11_-0.05x2.F81.001
-rw-r--r-- 1 bjb2chen nooijen     136 Nov 25 23:44 /home/bjb2chen/gmsscr//ph3_cct_gmcpt_D3h_3st_diab_mode11_-0.05x2.F82
-rw-r--r-- 1 bjb2chen nooijen     136 Nov 25 23:44 /home/bjb2chen/gmsscr//ph3_cct_gmcpt_D3h_3st_diab_mode11_-0.05x2.F82.001
-rw-r--r-- 1 bjb2chen nooijen   19216 Nov 25 23:44 /home/bjb2chen/gmsscr//ph3_cct_gmcpt_D3h_3st_diab_mode11_-0.05x2.F83
-rw-r--r-- 1 bjb2chen nooijen   19216 Nov 25 23:44 /home/bjb2chen/gmsscr//ph3_cct_gmcpt_D3h_3st_diab_mode11_-0.05x2.F83.001
-rw-r--r-- 1 bjb2chen nooijen  154896 Nov 25 23:44 /home/bjb2chen/gmsscr//ph3_cct_gmcpt_D3h_3st_diab_mode11_-0.05x2.F84
-rw-r--r-- 1 bjb2chen nooijen  154896 Nov 25 23:44 /home/bjb2chen/gmsscr//ph3_cct_gmcpt_D3h_3st_diab_mode11_-0.05x2.F84.001
-rw-r--r-- 1 bjb2chen nooijen  849288 Nov 25 23:44 /home/bjb2chen/gmsscr//ph3_cct_gmcpt_D3h_3st_diab_mode11_-0.05x2.F85
-rw-r--r-- 1 bjb2chen nooijen  849288 Nov 25 23:44 /home/bjb2chen/gmsscr//ph3_cct_gmcpt_D3h_3st_diab_mode11_-0.05x2.F85.001
-rw-r--r-- 1 bjb2chen nooijen 3349592 Nov 25 23:44 /home/bjb2chen/gmsscr//ph3_cct_gmcpt_D3h_3st_diab_mode11_-0.05x2.F86
-rw-r--r-- 1 bjb2chen nooijen 3020664 Nov 25 23:44 /home/bjb2chen/gmsscr//ph3_cct_gmcpt_D3h_3st_diab_mode11_-0.05x2.F86.001
-rw-r--r-- 1 bjb2chen nooijen     656 Nov 25 23:44 /home/bjb2chen/gmsscr//ph3_cct_gmcpt_D3h_3st_diab_mode11_-0.05x2.F87
-rw-r--r-- 1 bjb2chen nooijen     656 Nov 25 23:44 /home/bjb2chen/gmsscr//ph3_cct_gmcpt_D3h_3st_diab_mode11_-0.05x2.F87.001
-rw-r--r-- 1 bjb2chen nooijen   17040 Nov 25 23:44 /home/bjb2chen/gmsscr//ph3_cct_gmcpt_D3h_3st_diab_mode11_-0.05x2.F88
-rw-r--r-- 1 bjb2chen nooijen   17040 Nov 25 23:44 /home/bjb2chen/gmsscr//ph3_cct_gmcpt_D3h_3st_diab_mode11_-0.05x2.F88.001
-rw-r--r-- 1 bjb2chen nooijen     648 Nov 25 23:44 /home/bjb2chen/gmsscr//ph3_cct_gmcpt_D3h_3st_diab_mode11_-0.05x2.F89
-rw-r--r-- 1 bjb2chen nooijen     648 Nov 25 23:44 /home/bjb2chen/gmsscr//ph3_cct_gmcpt_D3h_3st_diab_mode11_-0.05x2.F89.001
-rw-r--r-- 1 bjb2chen nooijen       0 Nov 25 23:42 /home/bjb2chen/gmsscr//ph3_cct_gmcpt_D3h_3st_diab_mode11_-0.05x2.F90
-rw-r--r-- 1 bjb2chen nooijen       0 Nov 25 23:42 /home/bjb2chen/gmsscr//ph3_cct_gmcpt_D3h_3st_diab_mode11_-0.05x2.F90.001
-rw-r--r-- 1 bjb2chen nooijen   13760 Nov 25 23:44 /home/bjb2chen/gmsscr//ph3_cct_gmcpt_D3h_3st_diab_mode11_-0.05x2.F91
-rw-r--r-- 1 bjb2chen nooijen   13760 Nov 25 23:44 /home/bjb2chen/gmsscr//ph3_cct_gmcpt_D3h_3st_diab_mode11_-0.05x2.F91.001
-rw-r--r-- 1 bjb2chen nooijen   22776 Nov 25 23:44 /home/bjb2chen/gmsscr//ph3_cct_gmcpt_D3h_3st_diab_mode11_-0.05x2.F92
-rw-r--r-- 1 bjb2chen nooijen   22776 Nov 25 23:44 /home/bjb2chen/gmsscr//ph3_cct_gmcpt_D3h_3st_diab_mode11_-0.05x2.F92.001
-rw-r--r-- 1 bjb2chen nooijen   23168 Nov 25 23:44 /home/bjb2chen/gmsscr//ph3_cct_gmcpt_D3h_3st_diab_mode11_-0.05x2.F93
-rw-r--r-- 1 bjb2chen nooijen   23168 Nov 25 23:44 /home/bjb2chen/gmsscr//ph3_cct_gmcpt_D3h_3st_diab_mode11_-0.05x2.F93.001
-rw-r--r-- 1 bjb2chen nooijen   22776 Nov 25 23:44 /home/bjb2chen/gmsscr//ph3_cct_gmcpt_D3h_3st_diab_mode11_-0.05x2.F94
-rw-r--r-- 1 bjb2chen nooijen   22776 Nov 25 23:44 /home/bjb2chen/gmsscr//ph3_cct_gmcpt_D3h_3st_diab_mode11_-0.05x2.F94.001
-rw-r--r-- 1 bjb2chen nooijen   13760 Nov 25 23:44 /home/bjb2chen/gmsscr//ph3_cct_gmcpt_D3h_3st_diab_mode11_-0.05x2.F95
-rw-r--r-- 1 bjb2chen nooijen   13760 Nov 25 23:44 /home/bjb2chen/gmsscr//ph3_cct_gmcpt_D3h_3st_diab_mode11_-0.05x2.F95.001
-rw-r--r-- 1 bjb2chen nooijen   29440 Nov 25 23:44 /home/bjb2chen/gmsscr//ph3_cct_gmcpt_D3h_3st_diab_mode11_-0.05x2.F96
-rw-r--r-- 1 bjb2chen nooijen   29440 Nov 25 23:44 /home/bjb2chen/gmsscr//ph3_cct_gmcpt_D3h_3st_diab_mode11_-0.05x2.F96.001
-rw-r--r-- 1 bjb2chen nooijen    1184 Nov 25 23:44 /home/bjb2chen/gmsscr//ph3_cct_gmcpt_D3h_3st_diab_mode11_-0.05x2.F97
-rw-r--r-- 1 bjb2chen nooijen    1184 Nov 25 23:44 /home/bjb2chen/gmsscr//ph3_cct_gmcpt_D3h_3st_diab_mode11_-0.05x2.F97.001
-rw-r--r-- 1 bjb2chen nooijen    9808 Nov 25 23:44 /home/bjb2chen/gmsscr//ph3_cct_gmcpt_D3h_3st_diab_mode11_-0.05x2.F98
-rw-r--r-- 1 bjb2chen nooijen    9808 Nov 25 23:44 /home/bjb2chen/gmsscr//ph3_cct_gmcpt_D3h_3st_diab_mode11_-0.05x2.F98.001
-rw-r--r-- 1 bjb2chen nooijen   30264 Nov 25 23:44 /home/bjb2chen/gmsscr//ph3_cct_gmcpt_D3h_3st_diab_mode11_-0.05x2.F99
-rw-r--r-- 1 bjb2chen nooijen   30264 Nov 25 23:44 /home/bjb2chen/gmsscr//ph3_cct_gmcpt_D3h_3st_diab_mode11_-0.05x2.F99.001
ls: No match.
ls: No match.
ls: No match.
Sat 25 Nov 2023 11:44:19 PM EST
0.327u 0.065s 1:48.49 0.3%	0+0k 264+472io 0pf+0w
