----- GAMESS execution script 'rungms' -----
This job is running on host io002
under operating system Linux at Sat 25 Nov 2023 11:42:31 PM EST
Available scratch disk space (Kbyte units) at beginning of the job is
Filesystem             1K-blocks       Used Available Use% Mounted on
helmholtz.nlogn:/home 6391504896 5219978240 849387520  87% /home
GAMESS temporary binary files will be written to /home/bjb2chen/gmsscr/
GAMESS supplementary output files will be written to /home/bjb2chen/gamess/vibronics/Toby_automate/ph3/python
Copying input file ph3_cct_gmcpt_D3h_3st_diab_mode3_-0.05_mode1_-0.05.inp to your run's scratch directory...
cp ph3_cct_gmcpt_D3h_3st_diab_mode3_-0.05_mode1_-0.05.inp /home/bjb2chen/gmsscr//ph3_cct_gmcpt_D3h_3st_diab_mode3_-0.05_mode1_-0.05.F05
unset echo
 
Assuming a single but multicore node.
 
/home/bjb2chen/gamess/ddikick.x /home/bjb2chen/gamess/gamess.00.x ph3_cct_gmcpt_D3h_3st_diab_mode3_-0.05_mode1_-0.05 -ddi 1 2 io002:cpus=2 -scr /home/bjb2chen/gmsscr/

 Distributed Data Interface kickoff program.
 Initiating 2 compute processes on 1 nodes to run the following command:
 /home/bjb2chen/gamess/gamess.00.x ph3_cct_gmcpt_D3h_3st_diab_mode3_-0.05_mode1_-0.05 

          ******************************************************
          *         GAMESS VERSION = 02 AUG 2018 (R2)         *
          *             FROM IOWA STATE UNIVERSITY             *
          * M.W.SCHMIDT, K.K.BALDRIDGE, J.A.BOATZ, S.T.ELBERT, *
          *   M.S.GORDON, J.H.JENSEN, S.KOSEKI, N.MATSUNAGA,   *
          *          K.A.NGUYEN, S.J.SU, T.L.WINDUS,           *
          *       TOGETHER WITH M.DUPUIS, J.A.MONTGOMERY       *
          *         J.COMPUT.CHEM.  14, 1347-1363(1993)        *
          **************** 64 BIT LINUX VERSION ****************

  SINCE 1993, STUDENTS AND POSTDOCS WORKING AT IOWA STATE UNIVERSITY
  AND ALSO IN THEIR VARIOUS JOBS AFTER LEAVING ISU HAVE MADE IMPORTANT
  CONTRIBUTIONS TO THE CODE:
     IVANA ADAMOVIC, CHRISTINE AIKENS, YURI ALEXEEV, POOJA ARORA,
     ANDREY ASADCHEV, ROB BELL, PRADIPTA BANDYOPADHYAY, JONATHAN BENTZ,
     BRETT BODE, KURT BRORSEN, CALEB CARLIN, GALINA CHABAN, WEI CHEN,
     CHEOL HO CHOI, PAUL DAY, ALBERT DEFUSCO, NUWAN DESILVA, TIM DUDLEY,
     DMITRI FEDOROV, ALEX FINDLATER, GRAHAM FLETCHER, MARK FREITAG,
     KURT GLAESEMANN, ANASTASIA GUININA,
     DAN KEMP, GRANT MERRILL, NORIYUKI MINEZAWA, JONATHAN MULLIN,
     TAKESHI NAGATA, SEAN NEDD, HEATHER NETZLOFF, BOSILJKA NJEGIC, RYAN OLSON,
     MIKE PAK, BUU PHAM,
     SPENCER PRUITT, LUKE ROSKOP, JIM SHOEMAKER, LYUDMILA SLIPCHENKO,
     TONY SMITH, SAROM SOK LEANG, JIE SONG, TETSUYA TAKETSUGU, SIMON WEBB,
     PENG XU, SOOHAENG YOO, FEDERICO ZAHARIEV

  ADDITIONAL CODE HAS BEEN PROVIDED BY COLLABORATORS IN OTHER GROUPS:
     IOWA STATE UNIVERSITY:
          JOE IVANIC, AARON WEST, LAIMUTIS BYTAUTAS, KLAUS RUEDENBERG
     UNIVERSITY OF TOKYO: KIMIHIKO HIRAO, TAKAHITO NAKAJIMA,
          TAKAO TSUNEDA, MUNEAKI KAMIYA, SUSUMU YANAGISAWA,
          KIYOSHI YAGI, MAHITO CHIBA, SEIKEN TOKURA, NAOAKI KAWAKAMI
     UNIVERSITY OF AARHUS: FRANK JENSEN
     UNIVERSITY OF IOWA: VISVALDAS KAIRYS, HUI LI
     NATIONAL INST. OF STANDARDS AND TECHNOLOGY: WALT STEVENS, DAVID GARMER
     UNIVERSITY OF PISA: BENEDETTA MENNUCCI, JACOPO TOMASI
     UNIVERSITY OF MEMPHIS: HENRY KURTZ, PRAKASHAN KORAMBATH
     UNIVERSITY OF ALBERTA: TOBY ZENG, MARIUSZ KLOBUKOWSKI
     UNIVERSITY OF NEW ENGLAND: MARK SPACKMAN
     MIE UNIVERSITY: HIROAKI UMEDA
     NAT. INST. OF ADVANCED INDUSTRIAL SCIENCE AND TECHNOLOGY: KAZUO KITAURA
     MICHIGAN STATE UNIVERSITY:
          KAROL KOWALSKI, MARTA WLOCH, JEFFREY GOUR, JESSE LUTZ,
          WEI LI, JUN SHEN, J. EMILIANO DEUSTUA, PIOTR PIECUCH
     UNIVERSITY OF MINNESOTA:
          YINAN SHU
     UNIVERSITY OF SILESIA: MONIKA MUSIAL, STANISLAW KUCHARSKI
     FACULTES UNIVERSITAIRES NOTRE-DAME DE LA PAIX:
          OLIVIER QUINET, BENOIT CHAMPAGNE
     UNIVERSITY OF CALIFORNIA - SANTA BARBARA: BERNARD KIRTMAN
     INSTITUTE FOR MOLECULAR SCIENCE:
          KAZUYA ISHIMURA, MICHIO KATOUDA, AND SHIGERU NAGASE
     UNIVERSITY OF NOTRE DAME: ANNA POMOGAEVA, DAN CHIPMAN
     KYUSHU UNIVERSITY:
          HARUYUKI NAKANO,
          FENG LONG GU, JACEK KORCHOWIEC, MARCIN MAKOWSKI, AND YURIKO AOKI,
          HIROTOSHI MORI AND EISAKU MIYOSHI
     PENNSYLVANIA STATE UNIVERSITY:
          TZVETELIN IORDANOV, CHET SWALINA, JONATHAN SKONE,
          SHARON HAMMES-SCHIFFER
     WASEDA UNIVERSITY:
          MASATO KOBAYASHI, TOMOKO AKAMA, TSUGUKI TOUMA,
          TAKESHI YOSHIKAWA, YASUHIRO IKABATA, JUNJI SEINO,
          YUYA NAKAJIMA, HIROMI NAKAI
     NANJING UNIVERSITY: SHUHUA LI
     UNIVERSITY OF NEBRASKA:
          PEIFENG SU, DEJUN SI, NANDUN THELLAMUREGE, YALI WANG, HUI LI
     UNIVERSITY OF ZURICH: ROBERTO PEVERATI, KIM BALDRIDGE
     N. COPERNICUS UNIVERSITY AND JACKSON STATE UNIVERSITY:
          MARIA BARYSZ
     UNIVERSITY OF COPENHAGEN: Jimmy Kromann, CASPER STEINMANN
     TOKYO INSTITUTE OF TECHNOLOGY: HIROYA NAKATA
     NAGOYA UNIVERSITY: YOSHIO NISHIMOTO, STEPHAN IRLE
     MOSCOW STATE UNIVERSITY: VLADIMIR MIRONOV


 PARALLEL VERSION RUNNING ON        2 PROCESSORS IN        1 NODES.

 EXECUTION OF GAMESS BEGUN Sat Nov 25 23:42:31 2023

            ECHO OF THE FIRST FEW INPUT CARDS -
 INPUT CARD> !Step 2: single point gmcpt calculation averaging 3 states                     
 INPUT CARD> !        for PH3+ at PH3 structure.                                            
 INPUT CARD> $system kdiag=3 mwords=100 memddi=1000 parall=.t. $end                         
 INPUT CARD> $contrl runtyp=energy ispher=1 $end                                            
 INPUT CARD> $contrl icut=9 itol=20 inttyp=rysquad qmttol=1.0d-05 nosym=1 $end              
 INPUT CARD> $scf    npunch=2 conv=1.0d-06 dirscf=.t.      $end                             
 INPUT CARD> $contrl scftyp=mcscf  mult=2 maxit=200 icharg=1 mplevl=2 $end                  
 INPUT CARD> $guess  guess=moread norb=81 purify=.t. $end                                   
 INPUT CARD> $basis  gbasis=cct $end                                                        
 INPUT CARD> $mcscf  cistep=gmcci fullnr=.t. finci=mos                                      
 INPUT CARD>         acurcy=1.d-6 maxit=100 $end                                            
 INPUT CARD> $trans  dirtrf=.t. $end                                                        
 INPUT CARD> $mrmp   mrpt=gmcpt rdvecs=.f. $end                                             
 INPUT CARD> $gmcpt  nmofzc=1 nmodoc=4 nmoact=7 nelact=7 stsym(1)=A                         
 INPUT CARD>         reftyp=ormas nspace=1 mstart(1)=6 mine(1)=7 maxe(1)=7                  
 INPUT CARD>         kstate(1)=1,1,1                                                        
 INPUT CARD>         wstate(1)=1,1,1                                                        
 INPUT CARD>         iwgt=0 thrwgt=-1.0 krot=.f. kszdoe=.f. knospn=.f.                      
 INPUT CARD>         thrde=-1.0 edshft=0.02 $end                                            
 INPUT CARD> --- Semi-canonical MOs --- generated at Wed Oct 25 14:28:45 2023               
 INPUT CARD> $VEC                                                                           
 INPUT CARD> 1  1 1.00014026E+00 2.12288233E-04 2.35259310E-04-9.69987525E-04-1.56061240E-04
 INPUT CARD> 1  2 2.24704850E-11 1.08104557E-11 0.00000000E+00 5.27654619E-11 2.51315613E-11
 INPUT CARD> 1  3 0.00000000E+00 0.00000000E+00 0.00000000E+00 0.00000000E+00 4.84975230E-11
 INPUT CARD> 1  4 0.00000000E+00 0.00000000E+00 5.97478244E-06 5.97478789E-06-1.19495703E-05
 INPUT CARD> 1  5 0.00000000E+00 0.00000000E+00 0.00000000E+00 1.39699393E-05 1.39699024E-05
 INPUT CARD> 1  6-2.79398417E-05-1.35074126E-11 0.00000000E+00 0.00000000E+00 1.67531508E-05
 INPUT CARD> 1  7 0.00000000E+00 0.00000000E+00 0.00000000E+00 0.00000000E+00-2.24766870E-05
 INPUT CARD> 1  8 0.00000000E+00-2.30057367E-11 0.00000000E+00 0.00000000E+00-1.16832778E-06
 INPUT CARD> 1  9-1.16830452E-06 2.33663231E-06 0.00000000E+00 0.00000000E+00 0.00000000E+00
 INPUT CARD> 1 10 5.17768380E-06-4.27232609E-05 3.09734201E-05 1.40215208E-06-2.42859932E-06
 INPUT CARD> 1 11 0.00000000E+00-1.09877526E-05 1.90313097E-05 0.00000000E+00-9.67969422E-07
 INPUT CARD> 1 12 5.86741647E-06-4.89944705E-06-6.83538926E-06 0.00000000E+00 0.00000000E+00
 INPUT CARD> 1 13 5.17767961E-06-4.27232159E-05 3.09734322E-05 1.40215234E-06 2.42859905E-06
 INPUT CARD> 1 14 0.00000000E+00-1.09877418E-05-1.90312875E-05 0.00000000E+00-9.67970307E-07
 INPUT CARD> 1 15 5.86741940E-06-4.89944909E-06 6.83539284E-06 0.00000000E+00 0.00000000E+00
 INPUT CARD> 1 16 5.17766201E-06-4.27232844E-05 3.09734099E-05-2.80427679E-06 0.00000000E+00
 INPUT CARD> 1 17 0.00000000E+00 2.19754740E-05 0.00000000E+00 0.00000000E+00 9.28508813E-06
 INPUT CARD> 1 18-4.38566624E-06-4.89942190E-06 0.00000000E+00 0.00000000E+00 0.00000000E+00
 INPUT CARD> 2  1-5.33920981E-04 9.53778939E-01-4.19196922E-03 6.30276435E-02 2.61399638E-03
 INPUT CARD> 2  2 6.28974787E-11 9.96812470E-11-0.00000000E+00 1.02891712E-10 2.05126344E-10
 INPUT CARD> 2  3-0.00000000E+00-0.00000000E+00-2.38713249E-11-0.00000000E+00 6.64911093E-11
 INPUT CARD> 2  4 6.27034786E-11-0.00000000E+00 9.65793100E-05 9.65794243E-05-1.93158734E-04
 INPUT CARD> 2  5-2.69954090E-11-0.00000000E+00-0.00000000E+00-1.78396631E-04-1.78396545E-04
 INPUT CARD> 2  6 3.56793176E-04-1.04925850E-10-0.00000000E+00-0.00000000E+00 1.01826168E-04
 INPUT CARD> 2  7 2.20823880E-11-0.00000000E+00-0.00000000E+00-0.00000000E+00-1.36614181E-04
 INPUT CARD> 2  8-0.00000000E+00 4.29651361E-11-3.02789776E-11-0.00000000E+00 2.38139809E-04
 INPUT CARD> 2  9 2.38139912E-04-4.76279721E-04-0.00000000E+00-0.00000000E+00-0.00000000E+00
 INPUT CARD> 2 10-1.82868827E-04 1.39177203E-04-5.45492220E-04-2.22000393E-05 3.84515667E-05
 INPUT CARD> 2 11-0.00000000E+00 8.78319684E-05-1.52129428E-04-0.00000000E+00 2.62487215E-06
  100000000 WORDS OF MEMORY AVAILABLE

     BASIS OPTIONS
     -------------
     GBASIS=CCT          IGAUSS=       0      POLAR=NONE    
     NDFUNC=       0     NFFUNC=       0     DIFFSP=       F
     NPFUNC=       0      DIFFS=       F     BASNAM=        


     RUN TITLE
     ---------
  PH3+ 3 states calculation at PH3 structure.                                    

 THE POINT GROUP OF THE MOLECULE IS C1      
 THE ORDER OF THE PRINCIPAL AXIS IS     0

 ATOM      ATOMIC                      COORDINATES (BOHR)
           CHARGE         X                   Y                   Z
 P          15.0    -0.6653367823        0.0000000388       -0.0023333546
 H           1.0    -1.9627007268        2.2471441112       -0.0122794510
 H           1.0    -1.9627007268       -2.2471440724       -0.0122784423
 H           1.0     1.9294448757        0.0000000388       -0.0123033862

          INTERNUCLEAR DISTANCES (ANGS.)
          ------------------------------

                1 P          2 H          3 H          4 H     

   1 P       0.0000000    1.3731011 *  1.3731011 *  1.3731096 *
   2 H       1.3731011 *  0.0000000    2.3782751 *  2.3782649 *
   3 H       1.3731011 *  2.3782751 *  0.0000000    2.3782649 *
   4 H       1.3731096 *  2.3782649 *  2.3782649 *  0.0000000  

  * ... LESS THAN  3.000


     ATOMIC BASIS SET
     ----------------
 THE CONTRACTED PRIMITIVE FUNCTIONS HAVE BEEN UNNORMALIZED
 THE CONTRACTED BASIS FUNCTIONS ARE NOW NORMALIZED TO UNITY

  SHELL TYPE  PRIMITIVE        EXPONENT          CONTRACTION COEFFICIENT(S)

 P         

      1   S       1        312400.0000000    0.000057689641
      1   S       2         46800.0000000    0.000448246591
      1   S       3         10650.0000000    0.002349131061
      1   S       4          3018.0000000    0.009781571802
      1   S       5           986.8000000    0.034142936511
      1   S       6           357.4000000    0.100192955985
      1   S       7           139.6000000    0.234346168617
      1   S       8            57.6300000    0.382391849918
      1   S       9            24.6000000    0.318052941833
      1   S      10            10.1200000    0.070770999093
      1   S      11             4.2830000   -0.001817789630
      1   S      12             1.8050000    0.002161561737
      1   S      13             0.2782000    0.000432249354

      2   S      14        312400.0000000   -0.000016380204
      2   S      15         46800.0000000   -0.000127233535
      2   S      16         10650.0000000   -0.000668625166
      2   S      17          3018.0000000   -0.002795303744
      2   S      18           986.8000000   -0.009928227435
      2   S      19           357.4000000   -0.030244566456
      2   S      20           139.6000000   -0.077884705328
      2   S      21            57.6300000   -0.156724571545
      2   S      22            24.6000000   -0.198042753651
      2   S      23            10.1200000    0.037971251521
      2   S      24             4.2830000    0.552751544147
      2   S      25             1.8050000    0.542611452452
      2   S      26             0.2782000   -0.009675942874

      3   S      27        312400.0000000    0.000006865735
      3   S      28         46800.0000000    0.000053281983
      3   S      29         10650.0000000    0.000280421002
      3   S      30          3018.0000000    0.001170789768
      3   S      31           986.8000000    0.004173591138
      3   S      32           357.4000000    0.012720496749
      3   S      33           139.6000000    0.033152766352
      3   S      34            57.6300000    0.067671246836
      3   S      35            24.6000000    0.089831018862
      3   S      36            10.1200000   -0.020305232360
      3   S      37             4.2830000   -0.313280408979
      3   S      38             1.8050000   -0.563687905527
      3   S      39             0.2782000    1.117494073734

      4   S      40             0.6158000    1.000000000000

      5   S      41             0.1055000    1.000000000000

      6   P      42           504.9000000    0.002433660431
      6   P      43           119.4000000    0.019305559477
      6   P      44            37.9600000    0.088473106893
      6   P      45            13.9500000    0.254701981099
      6   P      46             5.4570000    0.440199242653
      6   P      47             2.1770000    0.383632006272
      6   P      48             0.2877000   -0.003946337074

      7   P      49           504.9000000   -0.000954298933
      7   P      50           119.4000000   -0.007664025747
      7   P      51            37.9600000   -0.035465925259
      7   P      52            13.9500000   -0.106164716437
      7   P      53             5.4570000   -0.187210586037
      7   P      54             2.1770000   -0.181495819791
      7   P      55             0.2877000    0.991672644618

      8   P      56             0.8010000    1.000000000000

      9   P      57             0.0971400    1.000000000000

     10   D      58             0.6480000    1.000000000000

     11   D      59             0.2180000    1.000000000000

     12   F      60             0.4520000    1.000000000000

     13   D      61             3.1200000    1.000000000000

 H         

     14   S      62            33.8700000    0.025494863235
     14   S      63             5.0950000    0.190362765893
     14   S      64             1.1590000    0.852162022245

     15   S      65             0.3258000    1.000000000000

     16   S      66             0.1027000    1.000000000000

     17   P      67             1.4070000    1.000000000000

     18   P      68             0.3880000    1.000000000000

     19   D      69             1.0570000    1.000000000000

 H         

     20   S      70            33.8700000    0.025494863235
     20   S      71             5.0950000    0.190362765893
     20   S      72             1.1590000    0.852162022245

     21   S      73             0.3258000    1.000000000000

     22   S      74             0.1027000    1.000000000000

     23   P      75             1.4070000    1.000000000000

     24   P      76             0.3880000    1.000000000000

     25   D      77             1.0570000    1.000000000000

 H         

     26   S      78            33.8700000    0.025494863235
     26   S      79             5.0950000    0.190362765893
     26   S      80             1.1590000    0.852162022245

     27   S      81             0.3258000    1.000000000000

     28   S      82             0.1027000    1.000000000000

     29   P      83             1.4070000    1.000000000000

     30   P      84             0.3880000    1.000000000000

     31   D      85             1.0570000    1.000000000000

 TOTAL NUMBER OF BASIS SET SHELLS             =   31
 NUMBER OF CARTESIAN GAUSSIAN BASIS FUNCTIONS =   90
 NOTE: THIS RUN WILL RESTRICT THE MO VARIATION SPACE TO SPHERICAL HARMONICS.
 THE NUMBER OF ORBITALS KEPT IN THE VARIATIONAL SPACE WILL BE PRINTED LATER.
 NUMBER OF ELECTRONS                          =   17
 CHARGE OF MOLECULE                           =    1
 SPIN MULTIPLICITY                            =    2
 NUMBER OF OCCUPIED ORBITALS (ALPHA)          =    9
 NUMBER OF OCCUPIED ORBITALS (BETA )          =    8
 TOTAL NUMBER OF ATOMS                        =    4
 THE NUCLEAR REPULSION ENERGY IS       18.0099583594

     $CONTRL OPTIONS
     ---------------
 SCFTYP=MCSCF        RUNTYP=ENERGY       EXETYP=RUN     
 MPLEVL=       2     CITYP =NONE         CCTYP =NONE         VBTYP =NONE    
 DFTTYP=NONE         TDDFT =NONE    
 MULT  =       2     ICHARG=       1     NZVAR =       0     COORD =UNIQUE  
 PP    =NONE         RELWFN=NONE         LOCAL =NONE         NUMGRD=       F
 ISPHER=       1     NOSYM =       1     MAXIT =     200     UNITS =ANGS    
 PLTORB=       F     MOLPLT=       F     AIMPAC=       F     FRIEND=        
 NPRINT=       7     IREST =       0     GEOM  =INPUT   
 NORMF =       0     NORMP =       0     ITOL  =      20     ICUT  =       9
 INTTYP=RYSQUAD      GRDTYP=BEST         QMTTOL= 1.0E-05

     $SYSTEM OPTIONS
     ---------------
  REPLICATED MEMORY=   100000000 WORDS (ON EVERY NODE).
 DISTRIBUTED MEMDDI=        1000 MILLION WORDS IN AGGREGATE,
 MEMDDI DISTRIBUTED OVER   2 PROCESSORS IS   500000000 WORDS/PROCESSOR.
 TOTAL MEMORY REQUESTED ON EACH PROCESSOR=   600000000 WORDS.
 TIMLIM=      525600.00 MINUTES, OR     365.0 DAYS.
 PARALL= T  BALTYP=  DLB     KDIAG=    3  COREFL= F
 MXSEQ2=     300 MXSEQ3=     150  mem10=         0

          ----------------
          PROPERTIES INPUT
          ----------------

     MOMENTS            FIELD           POTENTIAL          DENSITY
 IEMOM =       1   IEFLD =       0   IEPOT =       0   IEDEN =       0
 WHERE =COMASS     WHERE =NUCLEI     WHERE =NUCLEI     WHERE =NUCLEI  
 OUTPUT=BOTH       OUTPUT=BOTH       OUTPUT=BOTH       OUTPUT=BOTH    
 IEMINT=       0   IEFINT=       0                     IEDINT=       0
                                                       MORB  =       0

     -------------------------------
     INTEGRAL TRANSFORMATION OPTIONS
     -------------------------------
     NWORD  =            0
     CUTOFF = 1.0E-09     MPTRAN =       0
     DIRTRF =       T     AOINTS =DUP     

          ----------------------
          MCSCF INPUT PARAMETERS
          ----------------------
 CONVERGER SELECTION: FOCAS = F  SOSCF = F  FULLNR = T  QUD = F  JACOBI = F
 SECULAR EQUATION METHOD CISTEP = GMCCI   
 --- GENERAL INPUT OPTIONS:
 MAXIT =     100  MICIT =       1  ACURCY= 1.000E-06
 DAMP  =   0.000  CANONC=       T  ENGTOL= 1.000E-10
 EKT   =       F  NPUNCH=       2  NWORD =         0
 REGENERATE CI AFTER CONVERGENCE = NONE    
 DIABATIZATION AFTER CONVERGENCE =        F
 --- INPUT FOR FULLNR CONVERGER:
 METHOD=DM2       FORS  =       F  DROPC =       T
 LINSER=       F  FCORE =       F  NORB  =      90

          ----------------------
          INTEGRAL INPUT OPTIONS
          ----------------------
 NOPK  =       1 NORDER=       0 SCHWRZ=       T

 ------------------------------------------
 MULTIREFERENCE PERTURBATION THEORY CONTROL
 ------------------------------------------
 MRPT=GMCPT    READ CONVERGED MCSCF VECTORS= F


     ------------------------------------------
     THE POINT GROUP IS C1 , NAXIS= 1, ORDER= 1
     ------------------------------------------

 -- VARIATIONAL SPACE WILL BE RESTRICTED TO PURE SPHERICAL HARMONICS ONLY --
 AFTER EXCLUDING CONTAMINANT COMBINATIONS FROM THE CARTESIAN GAUSSIAN BASIS
 SET, THE NUMBER OF SPHERICAL HARMONICS KEPT IN THE VARIATION SPACE IS   81

     DIMENSIONS OF THE SYMMETRY SUBSPACES ARE
 A   =   81

 ..... DONE SETTING UP THE RUN .....
 CPU     0: STEP CPU TIME=     0.13 TOTAL CPU TIME=          0.1 (      0.0 MIN)
 TOTAL WALL CLOCK TIME=          0.4 SECONDS, CPU UTILIZATION IS    35.14%

          ********************
          1 ELECTRON INTEGRALS
          ********************
 TIME TO DO   DIPOLE INTEGRALS=      0.01
 ...... END OF ONE-ELECTRON INTEGRALS ......
 CPU     0: STEP CPU TIME=     0.01 TOTAL CPU TIME=          0.1 (      0.0 MIN)
 TOTAL WALL CLOCK TIME=          0.4 SECONDS, CPU UTILIZATION IS    36.84%

          -------------
          GUESS OPTIONS
          -------------
          GUESS =MOREAD            NORB  =      81          NORDER=       0
          MIX   =       F          PRTMO =       F          PUNMO =       F
          TOLZ  = 1.0E-08          TOLE  = 1.0E-05
          SYMDEN=       F          PURIFY=       T

 INITIAL GUESS ORBITALS GENERATED BY MOREAD   ROUTINE.

 STATISTICS FOR GENERATION OF SYMMETRY ORBITAL -Q- MATRIX
 NUMBER OF CARTESIAN ATOMIC ORBITALS=         90
 NUMBER OF SPHERICAL CONTAMINANTS DROPPED=     9
 NUMBER OF LINEARLY DEPENDENT MOS DROPPED=     0
 TOTAL NUMBER OF MOS IN VARIATION SPACE=      81
 ORBITAL PURIFICATION WILL OCCUR

 SYMMETRIES FOR INITIAL GUESS ORBITALS FOLLOW.   BOTH SET(S).
     9 ORBITALS ARE OCCUPIED (    5 CORE ORBITALS).
     1=A        2=A        3=A        4=A        5=A        6=A        7=A   
     8=A        9=A       10=A       11=A       12=A       13=A       14=A   
    15=A       16=A       17=A       18=A       19=A       20=A       21=A   
    22=A       23=A       24=A       25=A       26=A       27=A       28=A   
    29=A       30=A       31=A       32=A       33=A       34=A       35=A   
    36=A       37=A       38=A       39=A       40=A       41=A       42=A   
    43=A       44=A       45=A       46=A       47=A       48=A       49=A   
    50=A       51=A       52=A       53=A       54=A       55=A       56=A   
    57=A       58=A       59=A       60=A       61=A       62=A       63=A   
    64=A       65=A       66=A       67=A       68=A       69=A       70=A   
    71=A       72=A       73=A       74=A       75=A       76=A       77=A   
    78=A       79=A       80=A       81=A   
 ...... END OF INITIAL ORBITAL SELECTION ......
 CPU     0: STEP CPU TIME=     0.09 TOTAL CPU TIME=          0.2 (      0.0 MIN)
 TOTAL WALL CLOCK TIME=          0.5 SECONDS, CPU UTILIZATION IS    44.23%

                    ----------------------
                    AO INTEGRAL TECHNOLOGY
                    ----------------------
     S,P,L SHELL ROTATED AXIS INTEGRALS, REPROGRAMMED BY
        KAZUYA ISHIMURA (IMS) AND JOSE SIERRA (SYNSTAR).
     S,P,D,L SHELL ROTATED AXIS INTEGRALS PROGRAMMED BY
        KAZUYA ISHIMURA (INSTITUTE FOR MOLECULAR SCIENCE).
     S,P,D,F,G SHELL TO TOTAL QUARTET ANGULAR MOMENTUM SUM 5,
        ERIC PROGRAM BY GRAHAM FLETCHER (ELORET AND NASA ADVANCED
        SUPERCOMPUTING DIVISION, AMES RESEARCH CENTER).
     S,P,D,F,G,L SHELL GENERAL RYS QUADRATURE PROGRAMMED BY
        MICHEL DUPUIS (PACIFIC NORTHWEST NATIONAL LABORATORY).

          --------------------
          2 ELECTRON INTEGRALS
          --------------------

 DIRECT SCF METHOD SKIPS INTEGRAL STORAGE ON DISK.
 DIRECT TRANSFORMATION SKIPS AO INTEGRAL STORAGE ON DISK.
  ...... END OF TWO-ELECTRON INTEGRALS .....
 STEP CPU TIME =     0.02 TOTAL CPU TIME =          0.2 (      0.0 MIN)
 TOTAL WALL CLOCK TIME=          0.5 SECONDS, CPU UTILIZATION IS    46.30%
 DDI: Creating Array [0] - 8100 x 78 = 631800 words.
 DDI: Creating Array [1] - 69 x 936 = 64584 words.
 DDI: Creating Array [2] - 78 x 78 = 6084 words.
 DDI: Creating Array [3] - 4095 x 78 = 319410 words.

          -----------------
          MCSCF CALCULATION
          -----------------

 ----- NUCLEAR ENERGY ----- =        18.0099583594

     -------------------------------------------------
     GMC-PT/GMC-QDPT or general MCSCF input parameters
     -------------------------------------------------
 # of frozen core orbs. =         1 ->         0
 # of doubly occ. orbs. =         4
 # of active      orbs. =         7
 # of virtual     orbs. =        69
 # of active electrons  =         7
 # of states in CI      =         3
 Highest state in CI    =         3
 kstate =  1 1 1
 avecoe =  0.333 0.333 0.333
 State symmetry           = A           
 Assigned symmetry number = 1

 <<<Act. MO sym.: 1111111

 <<<Division of 1-ext.:  0 0
 <<<Division of 2-ext.:  0 1

 *** Reference space

 Reference type: ORMAS (= Occupation restricted multiple active space)
 # of orbitals          =  7
 # of minimum electrons =  7
 # of maximum electrons =  7
 State symmetry    =    1 (input)
 2*Sz              =    1 (input)
 Spin multiplicity =    2 (input)
 Dimension of reference space =      1225  (from      3432 walks)

 Dimension of reference space =      1225  (from      1225 walks)

 <<<Ionized spaces for Ref-CI:
      0:         1225 /   -1-0:         1960 /  0-1-0:         2891

 EVALUATING EXCHANGE INTEGRALS FOR DIRECT INTEGRAL TRANSFORMATION
 SCHWARZ INEQUALITY OVERHEAD:      4095 INTEGRALS, T=        0.02

     --------------------------------------------
     PARTIAL TWO ELECTRON INTEGRAL TRANSFORMATION
     --------------------------------------------

 NUMBER OF CORE MOLECULAR ORBITALS     =    5
 NUMBER OF OCCUPIED MOLECULAR ORBITALS =   12
 TOTAL NUMBER OF MOLECULAR ORBITALS    =   81
 TOTAL NUMBER OF ATOMIC ORBITALS       =   90
 THRESHOLD FOR KEEPING TRANSFORMED 2E- INTEGRALS = 1.000E-09

 -------------------------------     ------------------------------
 DISTRIBUTED DATA TRANSFORMATION     PROGRAM WRITTEN BY G. FLETCHER
 -------------------------------     ------------------------------

 THE DISTRIBUTED MEMORY REQUIRED FOR THIS STEP IS MEMDDI=         2 MWORDS
 CREATING DISTRIBUTED STORAGE FOR [VIR OCC|VIR OCC] INTEGRALS
 CREATING DISTRIBUTED STORAGE FOR [VIR OCC|OCC OCC] INTEGRALS
 CREATING DISTRIBUTED STORAGE FOR [OCC OCC|OCC OCC] INTEGRALS
 CREATING DISTRIBUTED STORAGE FOR [VIR VIR|OCC OCC] INTEGRALS
 FOR    2 PROCESSORS, THE REPLICATED MEMORY NEEDED IS      340708 WORDS.
 SCHWARZ INEQUALITY OVERHEAD:      4095 INTEGRALS, T=        0.01

      DIRECT 4-INDEX TRANSFORMATION 
      SCHWARZ INEQUALITY TEST SKIPPED        168 INTEGRAL BLOCKS
 ----- FROZEN CORE ENERGY =      -345.9218446378
 ... END OF INTEGRAL TRANSFORMATION ...
 CPU     0: STEP CPU TIME=     3.24 TOTAL CPU TIME=          3.5 (      0.1 MIN)
 TOTAL WALL CLOCK TIME=          3.8 SECONDS, CPU UTILIZATION IS    91.12%

     --------------------------------     -----------------------------
     MCHF NEWTON-RAPHSON OPTIMIZATION     CODE WRITTEN BY MICHEL DUPUIS
     --------------------------------     -----------------------------
     PARALLEL VERSION WRITTEN BY G. FLETCHER (ELORET)
     NASA ADVANCED SUPERCOMPUTING DIVISION, AMES RESEARCH CENTER

 NUMBER OF INDEPENDENT ORBITAL ROTATION PARAMETERS =   739
 ..... DONE SOLVING NEWTON-RAPHSON EQUATIONS .....
 CPU     0: STEP CPU TIME=     0.60 TOTAL CPU TIME=          4.1 (      0.1 MIN)
 TOTAL WALL CLOCK TIME=          4.9 SECONDS, CPU UTILIZATION IS    82.79%
 ..... DONE WITH NTN-RPH ORBITAL ROTATIONS ..... 
 CPU     0: STEP CPU TIME=     0.00 TOTAL CPU TIME=          4.1 (      0.1 MIN)
 TOTAL WALL CLOCK TIME=          4.9 SECONDS, CPU UTILIZATION IS    82.79%
 MAXIMUM MEMORY USED BY NTN-RPH CODE WAS    135813 WORDS.

 ITER     TOTAL ENERGY      DEL(E)  LAGRANGIAN ASYMMETRY   SQCDF  MICIT   DAMP
   1     -342.038886363 -0.038886363  0.001049   22    9 8.805E-06  1   0.0000
   2     -342.038890630 -0.000004267  0.000170   31    9 7.112E-06  1   0.0000
   3     -342.038890986 -0.000000356  0.000060   22    9 5.481E-06  1   0.0000
   4     -342.038891201 -0.000000215  0.000039   22    9 4.355E-06  1   0.0000
   5     -342.038891367 -0.000000166  0.000031   22    9 3.485E-06  1   0.0000
   6     -342.038891499 -0.000000132  0.000026   22    9 2.793E-06  1   0.0000
   7     -342.038891605 -0.000000106  0.000023   22    9 2.239E-06  1   0.0000
   8     -342.038891690 -0.000000085  0.000020   22    9 1.795E-06  1   0.0000
   9     -342.038891759 -0.000000068  0.000018   22    9 1.440E-06  1   0.0000
  10     -342.038891813 -0.000000055  0.000016   22    9 1.154E-06  1   0.0000
  11     -342.038891857 -0.000000044  0.000015   22    9 9.257E-07  1   0.0000
  12     -342.038891892 -0.000000035  0.000013   22    9 7.423E-07  1   0.0000
  13     -342.038891921 -0.000000028  0.000012   22    9 5.952E-07  1   0.0000
  14     -342.038891943 -0.000000023  0.000010   22    9 4.773E-07  1   0.0000
  15     -342.038891961 -0.000000018  0.000009   22    9 3.827E-07  1   0.0000
  16     -342.038891976 -0.000000015  0.000008   22    9 3.069E-07  1   0.0000
  17     -342.038891988 -0.000000012  0.000008   22    9 2.461E-07  1   0.0000
  18     -342.038891997 -0.000000009  0.000007   22    9 1.973E-07  1   0.0000
  19     -342.038892004 -0.000000008  0.000006   22    9 1.583E-07  1   0.0000
  20     -342.038892010 -0.000000006  0.000005   22    9 1.268E-07  1   0.0000
  21     -342.038892015 -0.000000005  0.000005   22    9 1.018E-07  1   0.0000
  22     -342.038892019 -0.000000004  0.000004   22    9 8.161E-08  1   0.0000
  23     -342.038892022 -0.000000003  0.000004   22    9 6.545E-08  1   0.0000
  24     -342.038892025 -0.000000002  0.000003   22    9 5.248E-08  1   0.0000
  25     -342.038892027 -0.000000002  0.000003   22    9 4.209E-08  1   0.0000
  26     -342.038892028 -0.000000002  0.000003   22    9 3.375E-08  1   0.0000
  27     -342.038892030 -0.000000001  0.000002   22    9 2.706E-08  1   0.0000
  28     -342.038892031 -0.000000001  0.000002   22    9 2.170E-08  1   0.0000
  29     -342.038892031 -0.000000001  0.000002   22    9 1.740E-08  1   0.0000
  30     -342.038892032 -0.000000001  0.000002   22    9 1.396E-08  1   0.0000
  31     -342.038892033 -0.000000001  0.000002   22    9 1.119E-08  1   0.0000
  32     -342.038892033 -0.000000000  0.000001   22    9 8.976E-09  1   0.0000
  33     -342.038892033 -0.000000000  0.000001   22    9 7.197E-09  1   0.0000
  34     -342.038892034 -0.000000000  0.000001   22    9 5.772E-09  1   0.0000
  35     -342.038892034 -0.000000000  0.000001   22    9 4.611E-09  1   0.0000
  36     -342.038892034 -0.000000000  0.000001   22    9 3.709E-09  1   0.0000

          --------------------
          LAGRANGIAN CONVERGED
          --------------------

 FINAL MCSCF ENERGY IS     -342.0388920340 AFTER  36 ITERATIONS

 -MCCI- BASED ON OPTIMIZED ORBITALS
 ----------------------------------

 PLEASE NOTE: IF THE ACTIVE ORBITALS ARE CANONICALIZED BELOW,
 THE FOLLOWING CI EXPANSION COEFFICIENTS AND THE DENSITY DO NOT
 CORRESPOND TO THE PRINTED ORBITALS.  THE PRINTED EXPANSIONS MATCH
 THE ORBITALS USED DURING THE LAST ITERATION.  IF YOU WISH TO SEE
 CI EXPANSIONS BASED ON THE CANONICAL (OR NATURAL) ORBITALS, YOU
 MUST RUN A CI CALCULATION WITH THAT ORBITAL CHOICE READ IN $VEC.

 Averaged energy =    -342.038892034

 State #    1  Energy =    -342.207478380  S =  0.500

      Det      Coef    Occupancy (Ignoring core)
      ---      ----    --------- --------- -----
        1   -0.977736  11110001110000
      107    0.076223  11101000111000
      143   -0.052529  11011001100100
      179   -0.052529  10111001010100
      393   -0.055348  10110101010010
      717   -0.055347  11010011100001

 State #    2  Energy =    -341.954600522  S =  0.500

      Det      Coef    Occupancy (Ignoring core)
      ---      ----    --------- --------- -----
        6    0.118158  11100101110000
       36    0.139181  11110001101000
       38    0.084838  11011001101000
       71    0.944962  11110001011000
       74   -0.084840  10111001011000
       78   -0.076161  10110101011000
      109    0.057488  10111000111000
      113    0.054708  10110100111000
      122    0.054707  11010010111000
      177   -0.112649  11101001010100
      248   -0.056854  11011001001100
      822   -0.052187  11010011001001

 State #    3  Energy =    -341.954597200  S =  0.500

      Det      Coef    Occupancy (Ignoring core)
      ---      ----    --------- --------- -----
       16   -0.118154  11100011110000
       36    0.944963  11110001101000
       39    0.084840  10111001101000
       52    0.076159  11010011101000
       71   -0.139181  11110001011000
       73    0.084840  11011001011000
      108    0.057489  11011000111000
      112   -0.054708  11010100111000
      123    0.054708  10110010111000
      142   -0.112649  11101001100100
      249    0.056854  10111001001100
      463    0.052188  10110101001010

 DENSITY MATRIX OVER ACTIVE MO-S

             1           2           3           4           5

    1    1.9768645
    2   -0.0000016   1.6444382
    3    0.0000002   0.0000001   1.6444387
    4   -0.0005558  -0.0000001   0.0000000   1.6282713
    5    0.0045125  -0.0000003   0.0000000   0.0054375   0.0543613
    6    0.0000022   0.0030556  -0.0003157   0.0000044   0.0000002
    7   -0.0000001   0.0003159   0.0030564  -0.0000000  -0.0000000

             6           7

    6    0.0258135
    7   -0.0000000   0.0258126

 FORMING THE "STANDARD FOCK OPERATOR" IN DIRECT AO INTEGRAL MODE...
 ONLY THE    5 CORE AND   69 VIRTUAL ORBITALS WILL BE CANONICALIZED

          ----------------------
          MCSCF NATURAL ORBITALS
          ----------------------

                      1          2          3          4          5
                  -80.2666    -7.8143    -5.7093    -5.7093    -5.7080
                     A          A          A          A          A   
    1  P  1  S    1.000140  -0.000534  -0.000000   0.000000   0.000013
    2  P  1  S    0.000212   0.953779  -0.000000   0.000000   0.000214
    3  P  1  S    0.000235  -0.004192  -0.000000   0.000000  -0.000041
    4  P  1  S   -0.000970   0.063027  -0.000000  -0.000000  -0.000072
    5  P  1  S   -0.000156   0.002614  -0.000000   0.000000  -0.000043
    6  P  1  X    0.000000  -0.000000  -0.001094   0.958027   0.000006
    7  P  1  Y    0.000000  -0.000000   0.958027   0.001094   0.000000
    8  P  1  Z   -0.000002  -0.000119  -0.000000  -0.000006   0.961345
    9  P  1  X    0.000000   0.000000   0.000004  -0.003366  -0.000000
   10  P  1  Y    0.000000  -0.000000  -0.003366  -0.000004  -0.000000
   11  P  1  Z   -0.000001   0.000018   0.000000   0.000000  -0.000074
   12  P  1  X   -0.000000  -0.000000  -0.000091   0.079405   0.000001
   13  P  1  Y   -0.000000  -0.000000   0.079405   0.000091   0.000000
   14  P  1  Z    0.000001  -0.000043  -0.000000  -0.000001   0.075514
   15  P  1  X   -0.000000   0.000000  -0.000001   0.001226   0.000000
   16  P  1  Y   -0.000000  -0.000000   0.001226   0.000001   0.000000
   17  P  1  Z    0.000000  -0.000010  -0.000000  -0.000000   0.001289
   18  P  1 XX    0.000006   0.000097  -0.000000   0.000256   0.000007
   19  P  1 YY    0.000006   0.000097   0.000000  -0.000256   0.000007
   20  P  1 ZZ   -0.000012  -0.000193   0.000000   0.000000  -0.000013
   21  P  1 XY   -0.000000   0.000000  -0.000296  -0.000000  -0.000000
   22  P  1 XZ   -0.000000  -0.000000   0.000000  -0.000015  -0.000000
   23  P  1 YZ   -0.000000  -0.000000  -0.000015  -0.000000  -0.000000
   24  P  1 XX    0.000014  -0.000178   0.000002  -0.001474  -0.000001
   25  P  1 YY    0.000014  -0.000178  -0.000002   0.001474  -0.000001
   26  P  1 ZZ   -0.000028   0.000357   0.000000  -0.000000   0.000001
   27  P  1 XY   -0.000000   0.000000   0.001702   0.000002   0.000000
   28  P  1 XZ   -0.000000   0.000000  -0.000000   0.000020   0.000000
   29  P  1 YZ   -0.000000   0.000000   0.000020   0.000000   0.000000
   30  P  1 XXX   0.000017   0.000102   0.000000  -0.000046   0.000002
   31  P  1 YYY  -0.000000  -0.000000  -0.000046  -0.000000  -0.000000
   32  P  1 ZZZ   0.000000  -0.000001  -0.000000  -0.000000  -0.000255
   33  P  1 XXY  -0.000000   0.000000  -0.000020  -0.000000   0.000000
   34  P  1 XXZ  -0.000000   0.000000  -0.000000   0.000003   0.000171
   35  P  1 YYX  -0.000022  -0.000137   0.000000  -0.000020  -0.000002
   36  P  1 YYZ  -0.000000   0.000000   0.000000  -0.000003   0.000171
   37  P  1 ZZX  -0.000000  -0.000000  -0.000000   0.000082  -0.000000
   38  P  1 ZZY  -0.000000  -0.000000   0.000082   0.000000  -0.000000
   39  P  1 XYZ  -0.000000  -0.000000  -0.000004  -0.000000   0.000000
   40  P  1 XX   -0.000001   0.000238   0.000000  -0.000274   0.000016
   41  P  1 YY   -0.000001   0.000238  -0.000000   0.000274   0.000016
   42  P  1 ZZ    0.000002  -0.000476   0.000000   0.000000  -0.000031
   43  P  1 XY   -0.000000   0.000000   0.000316   0.000000  -0.000000
   44  P  1 XZ    0.000000  -0.000000   0.000000  -0.000027  -0.000000
   45  P  1 YZ   -0.000000  -0.000000  -0.000027  -0.000000  -0.000000
   46  H  2  S    0.000005  -0.000183   0.000513  -0.000295  -0.000015
   47  H  2  S   -0.000043   0.000139   0.003060  -0.001762  -0.000034
   48  H  2  S    0.000031  -0.000545  -0.000302   0.000174   0.000002
   49  H  2  X    0.000001  -0.000022   0.000033   0.000088  -0.000001
   50  H  2  Y   -0.000002   0.000038   0.000050   0.000033   0.000002
   51  H  2  Z    0.000000  -0.000001   0.000000  -0.000000   0.000041
   52  H  2  X   -0.000011   0.000088   0.000603  -0.000415  -0.000006
   53  H  2  Y    0.000019  -0.000152  -0.001113   0.000601   0.000010
   54  H  2  Z   -0.000000  -0.000000   0.000003  -0.000002   0.000118
   55  H  2 XX   -0.000001   0.000003  -0.000009   0.000038   0.000000
   56  H  2 YY    0.000006   0.000017  -0.000040  -0.000009  -0.000001
   57  H  2 ZZ   -0.000005  -0.000019   0.000049  -0.000028   0.000001
   58  H  2 XY   -0.000007  -0.000014  -0.000006  -0.000018   0.000001
   59  H  2 XZ    0.000000  -0.000000  -0.000000  -0.000000  -0.000011
   60  H  2 YZ   -0.000000   0.000000  -0.000000  -0.000000   0.000020
   61  H  3  S    0.000005  -0.000183  -0.000512  -0.000297  -0.000015
   62  H  3  S   -0.000043   0.000139  -0.003056  -0.001769  -0.000034
   63  H  3  S    0.000031  -0.000545   0.000302   0.000175   0.000002
   64  H  3  X    0.000001  -0.000022  -0.000033   0.000088  -0.000001
   65  H  3  Y    0.000002  -0.000038   0.000050  -0.000033  -0.000002
   66  H  3  Z    0.000000  -0.000001  -0.000000  -0.000000   0.000041
   67  H  3  X   -0.000011   0.000088  -0.000602  -0.000417  -0.000006
   68  H  3  Y   -0.000019   0.000152  -0.001111  -0.000604  -0.000010
   69  H  3  Z   -0.000000  -0.000000  -0.000003  -0.000002   0.000118
   70  H  3 XX   -0.000001   0.000003   0.000009   0.000038   0.000000
   71  H  3 YY    0.000006   0.000017   0.000040  -0.000009  -0.000001
   72  H  3 ZZ   -0.000005  -0.000019  -0.000049  -0.000029   0.000001
   73  H  3 XY    0.000007   0.000014  -0.000007   0.000018  -0.000001
   74  H  3 XZ    0.000000  -0.000000   0.000000  -0.000000  -0.000011
   75  H  3 YZ    0.000000  -0.000000  -0.000000   0.000000  -0.000020
   76  H  4  S    0.000005  -0.000183  -0.000001   0.000592  -0.000015
   77  H  4  S   -0.000043   0.000139  -0.000004   0.003531  -0.000034
   78  H  4  S    0.000031  -0.000545   0.000000  -0.000349   0.000002
   79  H  4  X   -0.000003   0.000044  -0.000000   0.000031   0.000002
   80  H  4  Y   -0.000000  -0.000000   0.000108   0.000000   0.000000
   81  H  4  Z    0.000000  -0.000001  -0.000000   0.000000   0.000041
   82  H  4  X    0.000022  -0.000176   0.000002  -0.001460   0.000012
   83  H  4  Y   -0.000000  -0.000000  -0.000068  -0.000000  -0.000000
   84  H  4  Z   -0.000000  -0.000000  -0.000000   0.000004   0.000118
   85  H  4 XX    0.000009   0.000024   0.000000  -0.000032  -0.000002
   86  H  4 YY   -0.000004  -0.000004   0.000000  -0.000025   0.000001
   87  H  4 ZZ   -0.000005  -0.000019  -0.000000   0.000057   0.000001
   88  H  4 XY   -0.000000   0.000000  -0.000038  -0.000000   0.000000
   89  H  4 XZ   -0.000000   0.000001   0.000000  -0.000000   0.000023
   90  H  4 YZ   -0.000000  -0.000000  -0.000000  -0.000000  -0.000000

                      6          7          8          9         10
                    1.9769     1.6444     1.6444     1.6283     0.0543
                     A          A          A          A          A   
    1  P  1  S    0.001040   0.000000   0.000000   0.000037   0.012036
    2  P  1  S    0.002906  -0.000000   0.000000   0.000390   0.112463
    3  P  1  S    0.549053  -0.000000   0.000002   0.003936   0.572678
    4  P  1  S    0.057554  -0.000000   0.000000   0.000548   0.093271
    5  P  1  S    0.220799  -0.000000   0.000002   0.003446   0.415937
    6  P  1  X    0.000000   0.000027  -0.036575  -0.000000   0.000001
    7  P  1  Y    0.000000  -0.036576  -0.000027  -0.000000   0.000000
    8  P  1  Z    0.000305   0.000000   0.000000   0.001463  -0.000632
    9  P  1  X   -0.000001  -0.000283   0.377679   0.000006   0.000009
   10  P  1  Y   -0.000000   0.377679   0.000283   0.000000   0.000000
   11  P  1  Z   -0.001073  -0.000000  -0.000006   0.598297  -0.004386
   12  P  1  X   -0.000001  -0.000087   0.116342   0.000002   0.000002
   13  P  1  Y   -0.000000   0.116343   0.000087   0.000000   0.000000
   14  P  1  Z   -0.000313  -0.000000  -0.000002   0.162441  -0.000734
   15  P  1  X   -0.000000  -0.000081   0.108069   0.000003   0.000005
   16  P  1  Y    0.000000   0.108068   0.000081   0.000000   0.000000
   17  P  1  Z   -0.000406  -0.000000  -0.000003   0.364624  -0.003873
   18  P  1 XX    0.011670  -0.000033   0.043948   0.000064  -0.092235
   19  P  1 YY    0.011671   0.000033  -0.043948   0.000063  -0.092237
   20  P  1 ZZ   -0.023341   0.000000   0.000000  -0.000127   0.184472
   21  P  1 XY   -0.000000  -0.050746  -0.000038  -0.000000   0.000000
   22  P  1 XZ   -0.000000   0.000000  -0.000321  -0.000000   0.000002
   23  P  1 YZ   -0.000000  -0.000321  -0.000000   0.000000   0.000000
   24  P  1 XX    0.005429  -0.000020   0.027162   0.000295  -0.094748
   25  P  1 YY    0.005429   0.000020  -0.027162   0.000295  -0.094748
   26  P  1 ZZ   -0.010858   0.000000  -0.000000  -0.000589   0.189496
   27  P  1 XY   -0.000000  -0.031363  -0.000023   0.000000  -0.000000
   28  P  1 XZ   -0.000000   0.000000  -0.000108   0.000000   0.000002
   29  P  1 YZ   -0.000000  -0.000108  -0.000000   0.000000   0.000000
   30  P  1 XXX   0.011602  -0.000006   0.008355  -0.000169  -0.063207
   31  P  1 YYY  -0.000000   0.008355   0.000006   0.000000   0.000000
   32  P  1 ZZZ   0.000061   0.000000   0.000000  -0.011566  -0.001688
   33  P  1 XXY   0.000000   0.003736   0.000003   0.000000   0.000000
   34  P  1 XXZ  -0.000041   0.000000  -0.000186   0.007759   0.001133
   35  P  1 YYX  -0.015566  -0.000003   0.003736   0.000228   0.084801
   36  P  1 YYZ  -0.000041  -0.000000   0.000186   0.007759   0.001132
   37  P  1 ZZX   0.000000   0.000011  -0.014945  -0.000000   0.000000
   38  P  1 ZZY  -0.000000  -0.014945  -0.000011  -0.000000  -0.000000
   39  P  1 XYZ   0.000000   0.000214   0.000000  -0.000000  -0.000000
   40  P  1 XX    0.002043  -0.000006   0.008488   0.000002  -0.010169
   41  P  1 YY    0.002043   0.000006  -0.008488   0.000002  -0.010169
   42  P  1 ZZ   -0.004087  -0.000000   0.000000  -0.000004   0.020339
   43  P  1 XY   -0.000000  -0.009801  -0.000007  -0.000000  -0.000000
   44  P  1 XZ   -0.000000   0.000000  -0.000061  -0.000000   0.000000
   45  P  1 YZ   -0.000000  -0.000060  -0.000000   0.000000   0.000000
   46  H  2  S    0.080022   0.146808  -0.084613  -0.000729  -0.193496
   47  H  2  S    0.114921   0.247378  -0.142576  -0.001610  -0.367091
   48  H  2  S    0.003691   0.046257  -0.026661  -0.000636  -0.053778
   49  H  2  X    0.003940   0.006773  -0.001904  -0.000020  -0.006665
   50  H  2  Y   -0.006824  -0.009734   0.006764   0.000034   0.011545
   51  H  2  Z    0.000014   0.000035  -0.000020   0.005077   0.000052
   52  H  2  X    0.007986   0.014121  -0.001870  -0.000040  -0.022240
   53  H  2  Y   -0.013832  -0.018196   0.014106   0.000070   0.038522
   54  H  2  Z   -0.000011   0.000010  -0.000006   0.024180   0.000503
   55  H  2 XX    0.000039   0.000175   0.001438  -0.000010  -0.001248
   56  H  2 YY    0.001929   0.002144  -0.002774  -0.000024  -0.004889
   57  H  2 ZZ   -0.001967  -0.002319   0.001336   0.000034   0.006136
   58  H  2 XY   -0.001890  -0.003744   0.001132   0.000014   0.003641
   59  H  2 XZ    0.000002   0.000009  -0.000007   0.001335   0.000056
   60  H  2 YZ   -0.000004  -0.000017   0.000009  -0.002312  -0.000097
   61  H  3  S    0.080022  -0.146681  -0.084832  -0.000729  -0.193496
   62  H  3  S    0.114921  -0.247164  -0.142946  -0.001610  -0.367091
   63  H  3  S    0.003691  -0.046217  -0.026730  -0.000636  -0.053778
   64  H  3  X    0.003940  -0.006770  -0.001914  -0.000020  -0.006665
   65  H  3  Y    0.006824  -0.009723  -0.006779  -0.000034  -0.011545
   66  H  3  Z    0.000014  -0.000035  -0.000020   0.005077   0.000052
   67  H  3  X    0.007986  -0.014118  -0.001891  -0.000040  -0.022240
   68  H  3  Y    0.013832  -0.018175  -0.014134  -0.000070  -0.038522
   69  H  3  Z   -0.000011  -0.000010  -0.000006   0.024180   0.000503
   70  H  3 XX    0.000039  -0.000177   0.001437  -0.000010  -0.001248
   71  H  3 YY    0.001929  -0.002140  -0.002777  -0.000024  -0.004889
   72  H  3 ZZ   -0.001967   0.002317   0.001340   0.000034   0.006136
   73  H  3 XY    0.001890  -0.003742  -0.001138  -0.000014  -0.003641
   74  H  3 XZ    0.000002  -0.000009  -0.000007   0.001335   0.000056
   75  H  3 YZ    0.000004  -0.000017  -0.000009   0.002312   0.000097
   76  H  4  S    0.080020  -0.000127   0.169446  -0.000728  -0.193498
   77  H  4  S    0.114918  -0.000214   0.285526  -0.001608  -0.367100
   78  H  4  S    0.003691  -0.000040   0.053391  -0.000636  -0.053781
   79  H  4  X   -0.007880   0.000010  -0.013638   0.000039   0.013331
   80  H  4  Y    0.000000   0.002000   0.000001   0.000000   0.000000
   81  H  4  Z    0.000015  -0.000000   0.000041   0.005077   0.000051
   82  H  4  X   -0.015972   0.000020  -0.026338   0.000081   0.044483
   83  H  4  Y    0.000000   0.006272   0.000005   0.000000   0.000000
   84  H  4  Z   -0.000011  -0.000000   0.000012   0.024180   0.000503
   85  H  4 XX    0.002874  -0.000004   0.005147  -0.000031  -0.006709
   86  H  4 YY   -0.000906   0.000002  -0.002471  -0.000003   0.000573
   87  H  4 ZZ   -0.001967   0.000002  -0.002676   0.000034   0.006136
   88  H  4 XY    0.000000  -0.001777  -0.000001  -0.000000  -0.000000
   89  H  4 XZ   -0.000004   0.000000  -0.000023  -0.002670  -0.000111
   90  H  4 YZ   -0.000000  -0.000002  -0.000000   0.000000   0.000000

                     11         12
                    0.0258     0.0258
                     A          A   
    1  P  1  S   -0.000000  -0.000000
    2  P  1  S   -0.000003  -0.000000
    3  P  1  S   -0.000007  -0.000000
    4  P  1  S   -0.000001  -0.000000
    5  P  1  S   -0.000001   0.000000
    6  P  1  X    0.165029   0.000061
    7  P  1  Y   -0.000061   0.165035
    8  P  1  Z   -0.000001  -0.000000
    9  P  1  X    0.864217   0.000317
   10  P  1  Y   -0.000317   0.864228
   11  P  1  Z   -0.000005  -0.000000
   12  P  1  X    0.142857   0.000052
   13  P  1  Y   -0.000052   0.142856
   14  P  1  Z   -0.000001  -0.000000
   15  P  1  X    0.342343   0.000126
   16  P  1  Y   -0.000126   0.342347
   17  P  1  Z   -0.000002  -0.000000
   18  P  1 XX   -0.140999  -0.000052
   19  P  1 YY    0.141001   0.000052
   20  P  1 ZZ   -0.000001  -0.000000
   21  P  1 XY   -0.000060   0.162815
   22  P  1 XZ    0.008539   0.000003
   23  P  1 YZ   -0.000003   0.008541
   24  P  1 XX   -0.037383  -0.000014
   25  P  1 YY    0.037384   0.000014
   26  P  1 ZZ   -0.000000   0.000000
   27  P  1 XY   -0.000016   0.043170
   28  P  1 XZ    0.010041   0.000004
   29  P  1 YZ   -0.000004   0.010045
   30  P  1 XXX  -0.020114  -0.000007
   31  P  1 YYY   0.000007  -0.020115
   32  P  1 ZZZ  -0.000000  -0.000000
   33  P  1 XXY   0.000003  -0.008994
   34  P  1 XXZ   0.000322   0.000000
   35  P  1 YYX  -0.008996  -0.000003
   36  P  1 YYZ  -0.000321  -0.000000
   37  P  1 ZZX   0.035981   0.000013
   38  P  1 ZZY  -0.000013   0.035981
   39  P  1 XYZ   0.000000  -0.000371
   40  P  1 XX   -0.016242  -0.000006
   41  P  1 YY    0.016242   0.000006
   42  P  1 ZZ   -0.000000  -0.000000
   43  P  1 XY   -0.000007   0.018755
   44  P  1 XZ    0.000805   0.000000
   45  P  1 YZ   -0.000000   0.000805
   46  H  2  S    0.133007  -0.230179
   47  H  2  S    0.327276  -0.566383
   48  H  2  S    0.022462  -0.038876
   49  H  2  X    0.018111  -0.007001
   50  H  2  Y   -0.007018   0.026198
   51  H  2  Z   -0.000251   0.000435
   52  H  2  X    0.078355  -0.045246
   53  H  2  Y   -0.045324   0.130606
   54  H  2  Z   -0.000969   0.001677
   55  H  2 XX    0.005163   0.005599
   56  H  2 YY    0.000373  -0.015180
   57  H  2 ZZ   -0.005536   0.009581
   58  H  2 XY   -0.011999   0.011076
   59  H  2 XZ    0.000100   0.000330
   60  H  2 YZ    0.000330  -0.000281
   61  H  3  S    0.132838   0.230277
   62  H  3  S    0.326861   0.566623
   63  H  3  S    0.022434   0.038893
   64  H  3  X    0.018105   0.007014
   65  H  3  Y    0.006999   0.026203
   66  H  3  Z   -0.000251  -0.000435
   67  H  3  X    0.078322   0.045303
   68  H  3  Y    0.045228   0.130639
   69  H  3  Z   -0.000968  -0.001678
   70  H  3 XX    0.005167  -0.005595
   71  H  3 YY    0.000362   0.015180
   72  H  3 ZZ   -0.005529  -0.009585
   73  H  3 XY    0.011991   0.011085
   74  H  3 XZ    0.000100  -0.000330
   75  H  3 YZ   -0.000330  -0.000281
   76  H  4  S   -0.265839  -0.000098
   77  H  4  S   -0.654133  -0.000240
   78  H  4  S   -0.044899  -0.000017
   79  H  4  X    0.030246   0.000011
   80  H  4  Y   -0.000005   0.014062
   81  H  4  Z    0.000502   0.000000
   82  H  4  X    0.156758   0.000058
   83  H  4  Y   -0.000019   0.052199
   84  H  4  Z    0.001935   0.000001
   85  H  4 XX   -0.021126  -0.000008
   86  H  4 YY    0.010061   0.000004
   87  H  4 ZZ    0.011065   0.000004
   88  H  4 XY    0.000004  -0.009695
   89  H  4 XZ   -0.000471  -0.000000
   90  H  4 YZ   -0.000000   0.000291

          ------------------------
          MCSCF OPTIMIZED ORBITALS
          ------------------------

                      1          2          3          4          5
                  -80.2666    -7.8143    -5.7093    -5.7093    -5.7080
                     A          A          A          A          A   
    1  P  1  S    1.000140  -0.000534  -0.000000   0.000000   0.000013
    2  P  1  S    0.000212   0.953779  -0.000000   0.000000   0.000214
    3  P  1  S    0.000235  -0.004192  -0.000000   0.000000  -0.000041
    4  P  1  S   -0.000970   0.063027  -0.000000  -0.000000  -0.000072
    5  P  1  S   -0.000156   0.002614  -0.000000   0.000000  -0.000043
    6  P  1  X    0.000000  -0.000000  -0.001094   0.958027   0.000006
    7  P  1  Y    0.000000  -0.000000   0.958027   0.001094   0.000000
    8  P  1  Z   -0.000002  -0.000119  -0.000000  -0.000006   0.961345
    9  P  1  X    0.000000   0.000000   0.000004  -0.003366  -0.000000
   10  P  1  Y    0.000000  -0.000000  -0.003366  -0.000004  -0.000000
   11  P  1  Z   -0.000001   0.000018   0.000000   0.000000  -0.000074
   12  P  1  X   -0.000000  -0.000000  -0.000091   0.079405   0.000001
   13  P  1  Y   -0.000000  -0.000000   0.079405   0.000091   0.000000
   14  P  1  Z    0.000001  -0.000043  -0.000000  -0.000001   0.075514
   15  P  1  X   -0.000000   0.000000  -0.000001   0.001226   0.000000
   16  P  1  Y   -0.000000  -0.000000   0.001226   0.000001   0.000000
   17  P  1  Z    0.000000  -0.000010  -0.000000  -0.000000   0.001289
   18  P  1 XX    0.000006   0.000097  -0.000000   0.000256   0.000007
   19  P  1 YY    0.000006   0.000097   0.000000  -0.000256   0.000007
   20  P  1 ZZ   -0.000012  -0.000193   0.000000   0.000000  -0.000013
   21  P  1 XY   -0.000000   0.000000  -0.000296  -0.000000  -0.000000
   22  P  1 XZ   -0.000000  -0.000000   0.000000  -0.000015  -0.000000
   23  P  1 YZ   -0.000000  -0.000000  -0.000015  -0.000000  -0.000000
   24  P  1 XX    0.000014  -0.000178   0.000002  -0.001474  -0.000001
   25  P  1 YY    0.000014  -0.000178  -0.000002   0.001474  -0.000001
   26  P  1 ZZ   -0.000028   0.000357   0.000000  -0.000000   0.000001
   27  P  1 XY   -0.000000   0.000000   0.001702   0.000002   0.000000
   28  P  1 XZ   -0.000000   0.000000  -0.000000   0.000020   0.000000
   29  P  1 YZ   -0.000000   0.000000   0.000020   0.000000   0.000000
   30  P  1 XXX   0.000017   0.000102   0.000000  -0.000046   0.000002
   31  P  1 YYY  -0.000000  -0.000000  -0.000046  -0.000000  -0.000000
   32  P  1 ZZZ   0.000000  -0.000001  -0.000000  -0.000000  -0.000255
   33  P  1 XXY  -0.000000   0.000000  -0.000020  -0.000000   0.000000
   34  P  1 XXZ  -0.000000   0.000000  -0.000000   0.000003   0.000171
   35  P  1 YYX  -0.000022  -0.000137   0.000000  -0.000020  -0.000002
   36  P  1 YYZ  -0.000000   0.000000   0.000000  -0.000003   0.000171
   37  P  1 ZZX  -0.000000  -0.000000  -0.000000   0.000082  -0.000000
   38  P  1 ZZY  -0.000000  -0.000000   0.000082   0.000000  -0.000000
   39  P  1 XYZ  -0.000000  -0.000000  -0.000004  -0.000000   0.000000
   40  P  1 XX   -0.000001   0.000238   0.000000  -0.000274   0.000016
   41  P  1 YY   -0.000001   0.000238  -0.000000   0.000274   0.000016
   42  P  1 ZZ    0.000002  -0.000476   0.000000   0.000000  -0.000031
   43  P  1 XY   -0.000000   0.000000   0.000316   0.000000  -0.000000
   44  P  1 XZ    0.000000  -0.000000   0.000000  -0.000027  -0.000000
   45  P  1 YZ   -0.000000  -0.000000  -0.000027  -0.000000  -0.000000
   46  H  2  S    0.000005  -0.000183   0.000513  -0.000295  -0.000015
   47  H  2  S   -0.000043   0.000139   0.003060  -0.001762  -0.000034
   48  H  2  S    0.000031  -0.000545  -0.000302   0.000174   0.000002
   49  H  2  X    0.000001  -0.000022   0.000033   0.000088  -0.000001
   50  H  2  Y   -0.000002   0.000038   0.000050   0.000033   0.000002
   51  H  2  Z    0.000000  -0.000001   0.000000  -0.000000   0.000041
   52  H  2  X   -0.000011   0.000088   0.000603  -0.000415  -0.000006
   53  H  2  Y    0.000019  -0.000152  -0.001113   0.000601   0.000010
   54  H  2  Z   -0.000000  -0.000000   0.000003  -0.000002   0.000118
   55  H  2 XX   -0.000001   0.000003  -0.000009   0.000038   0.000000
   56  H  2 YY    0.000006   0.000017  -0.000040  -0.000009  -0.000001
   57  H  2 ZZ   -0.000005  -0.000019   0.000049  -0.000028   0.000001
   58  H  2 XY   -0.000007  -0.000014  -0.000006  -0.000018   0.000001
   59  H  2 XZ    0.000000  -0.000000  -0.000000  -0.000000  -0.000011
   60  H  2 YZ   -0.000000   0.000000  -0.000000  -0.000000   0.000020
   61  H  3  S    0.000005  -0.000183  -0.000512  -0.000297  -0.000015
   62  H  3  S   -0.000043   0.000139  -0.003056  -0.001769  -0.000034
   63  H  3  S    0.000031  -0.000545   0.000302   0.000175   0.000002
   64  H  3  X    0.000001  -0.000022  -0.000033   0.000088  -0.000001
   65  H  3  Y    0.000002  -0.000038   0.000050  -0.000033  -0.000002
   66  H  3  Z    0.000000  -0.000001  -0.000000  -0.000000   0.000041
   67  H  3  X   -0.000011   0.000088  -0.000602  -0.000417  -0.000006
   68  H  3  Y   -0.000019   0.000152  -0.001111  -0.000604  -0.000010
   69  H  3  Z   -0.000000  -0.000000  -0.000003  -0.000002   0.000118
   70  H  3 XX   -0.000001   0.000003   0.000009   0.000038   0.000000
   71  H  3 YY    0.000006   0.000017   0.000040  -0.000009  -0.000001
   72  H  3 ZZ   -0.000005  -0.000019  -0.000049  -0.000029   0.000001
   73  H  3 XY    0.000007   0.000014  -0.000007   0.000018  -0.000001
   74  H  3 XZ    0.000000  -0.000000   0.000000  -0.000000  -0.000011
   75  H  3 YZ    0.000000  -0.000000  -0.000000   0.000000  -0.000020
   76  H  4  S    0.000005  -0.000183  -0.000001   0.000592  -0.000015
   77  H  4  S   -0.000043   0.000139  -0.000004   0.003531  -0.000034
   78  H  4  S    0.000031  -0.000545   0.000000  -0.000349   0.000002
   79  H  4  X   -0.000003   0.000044  -0.000000   0.000031   0.000002
   80  H  4  Y   -0.000000  -0.000000   0.000108   0.000000   0.000000
   81  H  4  Z    0.000000  -0.000001  -0.000000   0.000000   0.000041
   82  H  4  X    0.000022  -0.000176   0.000002  -0.001460   0.000012
   83  H  4  Y   -0.000000  -0.000000  -0.000068  -0.000000  -0.000000
   84  H  4  Z   -0.000000  -0.000000  -0.000000   0.000004   0.000118
   85  H  4 XX    0.000009   0.000024   0.000000  -0.000032  -0.000002
   86  H  4 YY   -0.000004  -0.000004   0.000000  -0.000025   0.000001
   87  H  4 ZZ   -0.000005  -0.000019  -0.000000   0.000057   0.000001
   88  H  4 XY   -0.000000   0.000000  -0.000038  -0.000000   0.000000
   89  H  4 XZ   -0.000000   0.000001   0.000000  -0.000000   0.000023
   90  H  4 YZ   -0.000000  -0.000000  -0.000000  -0.000000  -0.000000

                      6          7          8          9         10
                    0.0000     0.0000     0.0000     0.0000     0.0000
                     A          A          A          A          A   
    1  P  1  S    0.001012   0.000000  -0.000000  -0.000006   0.012039
    2  P  1  S    0.002642   0.000000  -0.000000  -0.000003   0.112470
    3  P  1  S    0.547712  -0.000001   0.000000   0.001102   0.573973
    4  P  1  S    0.057336  -0.000000   0.000000   0.000136   0.093407
    5  P  1  S    0.219827   0.000001  -0.000000   0.001665   0.416462
    6  P  1  X   -0.000000  -0.036492   0.005388  -0.000000  -0.000000
    7  P  1  Y    0.000000  -0.005388  -0.036494  -0.000000   0.000000
    8  P  1  Z    0.000309   0.000000  -0.000000   0.001465  -0.000626
    9  P  1  X   -0.000000   0.372005  -0.054926   0.000000   0.000002
   10  P  1  Y    0.000000   0.054926   0.372005   0.000000   0.000000
   11  P  1  Z   -0.000135  -0.000000   0.000000   0.598309  -0.002319
   12  P  1  X   -0.000000   0.114826  -0.016954   0.000000   0.000001
   13  P  1  Y    0.000000   0.016954   0.114827   0.000000   0.000000
   14  P  1  Z   -0.000060  -0.000000   0.000000   0.162443  -0.000173
   15  P  1  X    0.000000   0.106267  -0.015690   0.000001   0.000002
   16  P  1  Y    0.000000   0.015690   0.106266   0.000000   0.000000
   17  P  1  Z    0.000168   0.000000  -0.000000   0.364635  -0.002612
   18  P  1 XX    0.011887   0.043741  -0.006458   0.000364  -0.092205
   19  P  1 YY    0.011888  -0.043741   0.006458   0.000364  -0.092210
   20  P  1 ZZ   -0.023774   0.000000  -0.000000  -0.000728   0.184415
   21  P  1 XY   -0.000000  -0.007457  -0.050507  -0.000000  -0.000000
   22  P  1 XZ   -0.000000  -0.000334   0.000049  -0.000000   0.000002
   23  P  1 YZ   -0.000000  -0.000049  -0.000333  -0.000000   0.000000
   24  P  1 XX    0.005652   0.026940  -0.003978   0.000613  -0.094733
   25  P  1 YY    0.005652  -0.026940   0.003978   0.000614  -0.094734
   26  P  1 ZZ   -0.011304   0.000000  -0.000000  -0.001227   0.189467
   27  P  1 XY   -0.000000  -0.004593  -0.031108   0.000000  -0.000000
   28  P  1 XZ   -0.000000  -0.000126   0.000019   0.000000   0.000002
   29  P  1 YZ   -0.000000  -0.000019  -0.000125   0.000000   0.000000
   30  P  1 XXX   0.011751   0.008303  -0.001226   0.000031  -0.063180
   31  P  1 YYY  -0.000000   0.001226   0.008303   0.000000   0.000000
   32  P  1 ZZZ   0.000047   0.000000  -0.000000  -0.011560  -0.001728
   33  P  1 XXY   0.000000   0.000548   0.003713   0.000000   0.000000
   34  P  1 XXZ  -0.000032  -0.000185   0.000027   0.007755   0.001159
   35  P  1 YYX  -0.015765   0.003713  -0.000548  -0.000041   0.084764
   36  P  1 YYZ  -0.000031   0.000184  -0.000027   0.007755   0.001159
   37  P  1 ZZX  -0.000000  -0.014852   0.002193  -0.000000   0.000000
   38  P  1 ZZY  -0.000000  -0.002193  -0.014853  -0.000000  -0.000000
   39  P  1 XYZ   0.000000   0.000031   0.000213   0.000000  -0.000000
   40  P  1 XX    0.002067   0.008428  -0.001244   0.000034  -0.010164
   41  P  1 YY    0.002067  -0.008428   0.001244   0.000034  -0.010165
   42  P  1 ZZ   -0.004134   0.000000  -0.000000  -0.000068   0.020329
   43  P  1 XY   -0.000000  -0.001437  -0.009732  -0.000000  -0.000000
   44  P  1 XZ   -0.000000  -0.000061   0.000009  -0.000000   0.000000
   45  P  1 YZ   -0.000000  -0.000009  -0.000061   0.000000   0.000000
   46  H  2  S    0.080474  -0.062566   0.158015  -0.000185  -0.193310
   47  H  2  S    0.115779  -0.105570   0.266626  -0.000520  -0.366826
   48  H  2  S    0.003816  -0.019687   0.049720  -0.000456  -0.053772
   49  H  2  X    0.003955  -0.000932   0.006996  -0.000003  -0.006656
   50  H  2  Y   -0.006851   0.005284  -0.010664   0.000005   0.011529
   51  H  2  Z    0.000022  -0.000015   0.000037   0.005077   0.000069
   52  H  2  X    0.008038   0.000068   0.014350   0.000024  -0.022222
   53  H  2  Y   -0.013922   0.011361  -0.020311  -0.000041   0.038490
   54  H  2  Z    0.000025  -0.000003   0.000008   0.024178   0.000587
   55  H  2 XX    0.000042   0.001436  -0.000045  -0.000006  -0.001248
   56  H  2 YY    0.001940  -0.002429   0.002553  -0.000010  -0.004884
   57  H  2 ZZ   -0.001982   0.000993  -0.002508   0.000016   0.006132
   58  H  2 XY   -0.001899   0.000595  -0.003893   0.000005   0.003637
   59  H  2 XZ    0.000004  -0.000006   0.000009   0.001335   0.000060
   60  H  2 YZ   -0.000007   0.000006  -0.000018  -0.002312  -0.000105
   61  H  3  S    0.080474  -0.105562  -0.133191  -0.000185  -0.193310
   62  H  3  S    0.115779  -0.178120  -0.224739  -0.000520  -0.366826
   63  H  3  S    0.003816  -0.033216  -0.041909  -0.000456  -0.053772
   64  H  3  X    0.003955  -0.002914  -0.006428  -0.000003  -0.006656
   65  H  3  Y    0.006851  -0.008140  -0.008682  -0.000005  -0.011529
   66  H  3  Z    0.000022  -0.000025  -0.000031   0.005077   0.000069
   67  H  3  X    0.008038  -0.004082  -0.013757   0.000024  -0.022222
   68  H  3  Y    0.013922  -0.016746  -0.016161   0.000041  -0.038490
   69  H  3  Z    0.000025  -0.000005  -0.000006   0.024178   0.000587
   70  H  3 XX    0.000042   0.001388  -0.000372  -0.000006  -0.001248
   71  H  3 YY    0.001940  -0.003064  -0.001742  -0.000010  -0.004884
   72  H  3 ZZ   -0.001982   0.001675   0.002114   0.000016   0.006132
   73  H  3 XY    0.001899  -0.001695  -0.003555  -0.000005  -0.003637
   74  H  3 XZ    0.000004  -0.000008  -0.000007   0.001335   0.000060
   75  H  3 YZ    0.000007  -0.000011  -0.000015   0.002312   0.000105
   76  H  4  S    0.080474   0.168127  -0.024824  -0.000185  -0.193309
   77  H  4  S    0.115779   0.283691  -0.041887  -0.000519  -0.366828
   78  H  4  S    0.003816   0.052903  -0.007811  -0.000456  -0.053774
   79  H  4  X   -0.007911  -0.013548   0.002000   0.000006   0.013312
   80  H  4  Y    0.000000   0.000288   0.001952  -0.000000   0.000000
   81  H  4  Z    0.000022   0.000039  -0.000006   0.005077   0.000069
   82  H  4  X   -0.016076  -0.026350   0.003891  -0.000048   0.044444
   83  H  4  Y    0.000000   0.000902   0.006106  -0.000000   0.000000
   84  H  4  Z    0.000025   0.000009  -0.000001   0.024178   0.000586
   85  H  4 XX    0.002890   0.005132  -0.000758  -0.000013  -0.006703
   86  H  4 YY   -0.000908  -0.002463   0.000364  -0.000003   0.000571
   87  H  4 ZZ   -0.001982  -0.002669   0.000394   0.000016   0.006132
   88  H  4 XY    0.000000  -0.000257  -0.001740   0.000000  -0.000000
   89  H  4 XZ   -0.000008  -0.000021   0.000003  -0.002669  -0.000121
   90  H  4 YZ   -0.000000  -0.000000  -0.000002   0.000000   0.000000

                     11         12         13         14         15
                    0.0000     0.0000    -0.0188     0.0443     0.0443
                     A          A          A          A          A   
    1  P  1  S   -0.000000   0.000000   0.016697   0.000000   0.000000
    2  P  1  S   -0.000002   0.000000   0.123530   0.000000   0.000002
    3  P  1  S   -0.000002   0.000000   0.402543   0.000000   0.000003
    4  P  1  S   -0.000001   0.000000   0.012880   0.000000   0.000001
    5  P  1  S    0.000003   0.000000   1.667338  -0.000000   0.000006
    6  P  1  X    0.164802  -0.007192  -0.000000   0.000009  -0.145653
    7  P  1  Y    0.007193   0.164808   0.000000   0.145653   0.000009
    8  P  1  Z   -0.000001   0.000000  -0.000369  -0.000000   0.000001
    9  P  1  X    0.864109  -0.037713  -0.000002   0.000036  -0.580745
   10  P  1  Y    0.037713   0.864121   0.000000   0.580747   0.000036
   11  P  1  Z   -0.000004   0.000000  -0.002390  -0.000000   0.000004
   12  P  1  X    0.142941  -0.006238  -0.000001   0.000002  -0.034653
   13  P  1  Y    0.006238   0.142941  -0.000000   0.034654   0.000002
   14  P  1  Z   -0.000001   0.000000  -0.000414  -0.000000   0.000000
   15  P  1  X    0.342222  -0.014935   0.000002   0.000053  -0.847412
   16  P  1  Y    0.014936   0.342226  -0.000000   0.847454   0.000053
   17  P  1  Z   -0.000001   0.000000  -0.004093  -0.000000   0.000005
   18  P  1 XX   -0.140782   0.006144   0.026990   0.000003  -0.045978
   19  P  1 YY    0.140782  -0.006144   0.026991  -0.000003   0.045978
   20  P  1 ZZ   -0.000000  -0.000000  -0.053981   0.000000   0.000000
   21  P  1 XY    0.007095   0.162564   0.000000  -0.053090  -0.000003
   22  P  1 XZ    0.008530  -0.000372  -0.000001  -0.000000   0.001858
   23  P  1 YZ    0.000372   0.008532  -0.000000  -0.001858  -0.000000
   24  P  1 XX   -0.037297   0.001628   0.140425   0.000017  -0.266633
   25  P  1 YY    0.037296  -0.001628   0.140428  -0.000017   0.266630
   26  P  1 ZZ    0.000001  -0.000000  -0.280853   0.000000   0.000003
   27  P  1 XY    0.001880   0.043070   0.000000  -0.307878  -0.000019
   28  P  1 XZ    0.010031  -0.000438  -0.000003  -0.000001   0.009181
   29  P  1 YZ    0.000438   0.010036  -0.000000  -0.009181  -0.000001
   30  P  1 XXX  -0.020079   0.000876   0.015783   0.000001  -0.014570
   31  P  1 YYY  -0.000876  -0.020080  -0.000000   0.014570   0.000001
   32  P  1 ZZZ  -0.000001  -0.000000   0.000325   0.000000  -0.000000
   33  P  1 XXY  -0.000392  -0.008978   0.000000   0.006516   0.000000
   34  P  1 XXZ   0.000321  -0.000014  -0.000218  -0.000000   0.000326
   35  P  1 YYX  -0.008980   0.000392  -0.021175   0.000000  -0.006516
   36  P  1 YYZ  -0.000320   0.000014  -0.000218   0.000000  -0.000326
   37  P  1 ZZX   0.035919  -0.001568  -0.000000  -0.000002   0.026063
   38  P  1 ZZY   0.001568   0.035919   0.000000  -0.026064  -0.000002
   39  P  1 XYZ  -0.000016  -0.000370   0.000000   0.000376   0.000000
   40  P  1 XX   -0.016210   0.000707   0.007402   0.000001  -0.009856
   41  P  1 YY    0.016210  -0.000707   0.007403  -0.000001   0.009856
   42  P  1 ZZ    0.000000  -0.000000  -0.014805   0.000000   0.000000
   43  P  1 XY    0.000817   0.018718   0.000000  -0.011381  -0.000001
   44  P  1 XZ    0.000804  -0.000035  -0.000000  -0.000000   0.000540
   45  P  1 YZ    0.000035   0.000804  -0.000000  -0.000540  -0.000000
   46  H  2  S    0.122608  -0.235519   0.010445   0.015975   0.009224
   47  H  2  S    0.301803  -0.579743   0.214980   0.232564   0.134291
   48  H  2  S    0.020684  -0.039736  -1.197470  -1.865029  -1.076916
   49  H  2  X    0.017782  -0.007778   0.009022   0.011271   0.005113
   50  H  2  Y   -0.005847   0.026462  -0.015627  -0.018127  -0.011273
   51  H  2  Z   -0.000232   0.000445   0.000056   0.000074   0.000043
   52  H  2  X    0.076288  -0.048620  -0.034868  -0.057302  -0.031173
   53  H  2  Y   -0.039512   0.132436   0.060392   0.097338   0.057310
   54  H  2  Z   -0.000894   0.001718  -0.000251  -0.001439  -0.000831
   55  H  2 XX    0.005407   0.005367  -0.000133   0.002282  -0.000276
   56  H  2 YY   -0.000299  -0.015177  -0.001637  -0.006561  -0.002195
   57  H  2 ZZ   -0.005107   0.009811   0.001769   0.004279   0.002471
   58  H  2 XY   -0.011498   0.011586   0.001504   0.007002   0.005106
   59  H  2 XZ    0.000114   0.000325  -0.000016  -0.000014  -0.000010
   60  H  2 YZ    0.000317  -0.000295   0.000028   0.000027   0.000014
   61  H  3  S    0.142660   0.223942   0.010445  -0.015976   0.009222
   62  H  3  S    0.351163   0.551245   0.214980  -0.232581   0.134262
   63  H  3  S    0.024067   0.037783  -1.197470   1.865163  -1.076682
   64  H  3  X    0.018392   0.006199   0.009022  -0.011272   0.005112
   65  H  3  Y    0.008130   0.025852   0.015627  -0.018129   0.011270
   66  H  3  Z   -0.000270  -0.000424   0.000056  -0.000074   0.000043
   67  H  3  X    0.080233   0.041789  -0.034868   0.057306  -0.031166
   68  H  3  Y    0.050900   0.128490  -0.060392   0.097345  -0.057298
   69  H  3  Z   -0.001041  -0.001634  -0.000251   0.001439  -0.000830
   70  H  3 XX    0.004919  -0.005817  -0.000133  -0.002282  -0.000276
   71  H  3 YY    0.001024   0.015146  -0.001637   0.006561  -0.002194
   72  H  3 ZZ   -0.005943  -0.009329   0.001769  -0.004279   0.002470
   73  H  3 XY    0.012464   0.010540  -0.001504   0.007003  -0.005105
   74  H  3 XZ    0.000085  -0.000334  -0.000016   0.000014  -0.000010
   75  H  3 YZ   -0.000342  -0.000267  -0.000028   0.000027  -0.000014
   76  H  4  S   -0.265266   0.011577   0.010445   0.000001  -0.018447
   77  H  4  S   -0.652971   0.028498   0.214982   0.000017  -0.268564
   78  H  4  S   -0.044755   0.001953  -1.197455  -0.000135   2.153600
   79  H  4  X    0.030191  -0.001318  -0.018044  -0.000002   0.024635
   80  H  4  Y    0.000613   0.014053  -0.000000   0.001395   0.000000
   81  H  4  Z    0.000501  -0.000022   0.000056   0.000000  -0.000086
   82  H  4  X    0.156559  -0.006833   0.069734   0.000008  -0.130423
   83  H  4  Y    0.002277   0.052161  -0.000000  -0.001916  -0.000000
   84  H  4  Z    0.001933  -0.000084  -0.000251  -0.000000   0.001662
   85  H  4 XX   -0.021096   0.000921  -0.002389  -0.000001   0.011088
   86  H  4 YY    0.010047  -0.000438   0.000619   0.000000  -0.006146
   87  H  4 ZZ    0.011050  -0.000482   0.001769   0.000000  -0.004941
   88  H  4 XY   -0.000423  -0.009689   0.000000  -0.001840  -0.000000
   89  H  4 XZ   -0.000471   0.000021   0.000033   0.000000  -0.000035
   90  H  4 YZ    0.000013   0.000290   0.000000   0.000002   0.000000

                     16         17         18         19         20
                    0.1344     0.1344     0.1759     0.2058     0.2058
                     A          A          A          A          A   
    1  P  1  S   -0.000000  -0.000000  -0.000078   0.000000   0.000000
    2  P  1  S   -0.000000  -0.000000  -0.000599   0.000001   0.000000
    3  P  1  S   -0.000000  -0.000000  -0.001842   0.000005   0.000000
    4  P  1  S   -0.000000  -0.000000  -0.000121   0.000003   0.000000
    5  P  1  S    0.000000   0.000002  -0.004050  -0.000072  -0.000000
    6  P  1  X    0.000006   0.006087  -0.000002  -0.080609  -0.000012
    7  P  1  Y    0.006090  -0.000006  -0.000000   0.000012  -0.080608
    8  P  1  Z    0.000000  -0.000001  -0.326644   0.000000   0.000000
    9  P  1  X    0.000021   0.021395  -0.000007  -0.510394  -0.000078
   10  P  1  Y    0.021406  -0.000020  -0.000000   0.000078  -0.510392
   11  P  1  Z   -0.000000  -0.000004  -1.187587   0.000003   0.000000
   12  P  1  X    0.000001   0.000880  -0.000000  -0.078928  -0.000012
   13  P  1  Y    0.000880  -0.000001  -0.000000   0.000012  -0.078927
   14  P  1  Z   -0.000000  -0.000000  -0.031153   0.000000   0.000000
   15  P  1  X   -0.000104  -0.107664   0.000008   3.586331   0.000549
   16  P  1  Y   -0.107716   0.000103   0.000000  -0.000549   3.586400
   17  P  1  Z    0.000000   0.000005   1.398628  -0.000022  -0.000001
   18  P  1 XX    0.000002   0.002542  -0.000288   0.041111   0.000006
   19  P  1 YY   -0.000002  -0.002541  -0.000288  -0.041113  -0.000006
   20  P  1 ZZ   -0.000000  -0.000001   0.000576   0.000002  -0.000000
   21  P  1 XY   -0.002934   0.000003  -0.000000   0.000007  -0.047473
   22  P  1 XZ    0.000121   0.125907  -0.000000   0.003504   0.000001
   23  P  1 YZ    0.125907  -0.000121   0.000000  -0.000001   0.003506
   24  P  1 XX   -0.000003  -0.003394  -0.000698   0.719215   0.000110
   25  P  1 YY    0.000004   0.003403  -0.000698  -0.719226  -0.000110
   26  P  1 ZZ   -0.000000  -0.000009   0.001397   0.000011  -0.000000
   27  P  1 XY    0.003938  -0.000004   0.000000   0.000127  -0.830474
   28  P  1 XZ    0.000771   0.804152  -0.000003   0.021224   0.000004
   29  P  1 YZ    0.804151  -0.000771   0.000000  -0.000003   0.021247
   30  P  1 XXX  -0.000001  -0.001317   0.000017   0.063768   0.000010
   31  P  1 YYY  -0.001318   0.000001  -0.000000  -0.000010   0.063773
   32  P  1 ZZZ  -0.000000   0.000000  -0.003949   0.000002   0.000000
   33  P  1 XXY  -0.000589   0.000001   0.000000  -0.000004   0.028516
   34  P  1 XXZ   0.000004   0.004482   0.002649  -0.001272  -0.000000
   35  P  1 YYX  -0.000001  -0.000589  -0.000023   0.028522   0.000004
   36  P  1 YYZ  -0.000004  -0.004482   0.002649   0.001270   0.000000
   37  P  1 ZZX   0.000002   0.002356  -0.000000  -0.114075  -0.000017
   38  P  1 ZZY   0.002357  -0.000002   0.000000   0.000017  -0.114076
   39  P  1 XYZ  -0.005176   0.000005  -0.000000  -0.000000   0.001465
   40  P  1 XX    0.000001   0.000737  -0.000056   0.007536   0.000001
   41  P  1 YY   -0.000001  -0.000737  -0.000056  -0.007536  -0.000001
   42  P  1 ZZ   -0.000000  -0.000001   0.000112   0.000000  -0.000000
   43  P  1 XY   -0.000851   0.000001  -0.000000   0.000001  -0.008702
   44  P  1 XZ    0.000047   0.048833  -0.000000   0.001544   0.000000
   45  P  1 YZ    0.048833  -0.000047   0.000000  -0.000000   0.001544
   46  H  2  S   -0.000046   0.000027  -0.000060  -0.031215   0.054047
   47  H  2  S    0.016036  -0.009275   0.000316   0.273301  -0.473180
   48  H  2  S    0.055402  -0.032042   0.002864   1.353268  -2.343122
   49  H  2  X   -0.000181  -0.000058  -0.000020  -0.004973   0.007383
   50  H  2  Y    0.000151  -0.000181   0.000035   0.007386  -0.013497
   51  H  2  Z    0.000431  -0.000250   0.005377  -0.000017   0.000029
   52  H  2  X    0.001120  -0.004141   0.000125   0.126704  -0.142382
   53  H  2  Y   -0.005437   0.001128  -0.000218  -0.142455   0.291097
   54  H  2  Z    0.107387  -0.062137  -0.045545  -0.001599   0.002771
   55  H  2 XX   -0.000042  -0.000033   0.000004   0.002129   0.003500
   56  H  2 YY    0.000058   0.000023  -0.000026   0.000918  -0.008776
   57  H  2 ZZ   -0.000016   0.000009   0.000021  -0.003047   0.005276
   58  H  2 XY   -0.000034   0.000057   0.000030  -0.007089   0.007482
   59  H  2 XZ   -0.001797   0.002253   0.000034   0.000091  -0.000093
   60  H  2 YZ    0.004327  -0.001803  -0.000059  -0.000093   0.000199
   61  H  3  S    0.000047   0.000027  -0.000060  -0.031198  -0.054056
   62  H  3  S   -0.016054  -0.009244   0.000316   0.273156   0.473264
   63  H  3  S   -0.055463  -0.031936   0.002864   1.352550   2.343537
   64  H  3  X    0.000181  -0.000058  -0.000020  -0.004970  -0.007384
   65  H  3  Y    0.000151   0.000181  -0.000035  -0.007382  -0.013499
   66  H  3  Z   -0.000432  -0.000249   0.005377  -0.000017  -0.000029
   67  H  3  X   -0.001128  -0.004139   0.000125   0.126661   0.142421
   68  H  3  Y   -0.005439  -0.001118   0.000218   0.142366   0.291141
   69  H  3  Z   -0.107506  -0.061931  -0.045545  -0.001599  -0.002771
   70  H  3 XX    0.000042  -0.000033   0.000004   0.002130  -0.003500
   71  H  3 YY   -0.000058   0.000024  -0.000026   0.000915   0.008777
   72  H  3 ZZ    0.000016   0.000009   0.000021  -0.003045  -0.005277
   73  H  3 XY   -0.000034  -0.000057  -0.000030   0.007087   0.007484
   74  H  3 XZ    0.001801   0.002250   0.000034   0.000091   0.000093
   75  H  3 YZ    0.004331   0.001795   0.000059   0.000093   0.000199
   76  H  4  S   -0.000000  -0.000054  -0.000060   0.062412   0.000010
   77  H  4  S    0.000018   0.018518   0.000316  -0.546416  -0.000084
   78  H  4  S    0.000062   0.063978   0.002864  -2.705774  -0.000414
   79  H  4  X    0.000000   0.000255   0.000040  -0.017761  -0.000003
   80  H  4  Y   -0.000162   0.000000   0.000000   0.000000  -0.000708
   81  H  4  Z    0.000000   0.000498   0.005376   0.000034   0.000000
   82  H  4  X   -0.000006  -0.006083  -0.000252   0.373331   0.000057
   83  H  4  Y   -0.003492   0.000003  -0.000000  -0.000007   0.044462
   84  H  4  Z    0.000119   0.124070  -0.045544   0.003194   0.000000
   85  H  4 XX    0.000000   0.000067  -0.000040  -0.013071  -0.000002
   86  H  4 YY   -0.000000  -0.000049   0.000019   0.006978   0.000001
   87  H  4 ZZ   -0.000000  -0.000018   0.000021   0.006092   0.000001
   88  H  4 XY    0.000066  -0.000000   0.000000   0.000001  -0.004793
   89  H  4 XZ    0.000005   0.005368  -0.000068   0.000253   0.000000
   90  H  4 YZ    0.001213  -0.000001   0.000000  -0.000000   0.000037

                     21         22         23         24         25
                    0.2912     0.3827     0.5063     0.5063     0.5395
                     A          A          A          A          A   
    1  P  1  S   -0.080851  -0.004727   0.000000   0.000002   0.000000
    2  P  1  S   -0.604967  -0.044318   0.000000   0.000013   0.000000
    3  P  1  S   -1.299878  -0.040976   0.000000   0.000025   0.000000
    4  P  1  S   -0.454122  -0.260710  -0.000000  -0.000001  -0.000000
    5  P  1  S    6.415866   2.862676   0.000000   0.000008   0.000000
    6  P  1  X   -0.000011  -0.000004   0.000114  -0.236658   0.000000
    7  P  1  Y    0.000000   0.000000   0.236660   0.000114  -0.000020
    8  P  1  Z   -0.001976  -0.002378  -0.000000   0.000001  -0.000000
    9  P  1  X   -0.000031  -0.000008   0.000381  -0.791968   0.000000
   10  P  1  Y    0.000000   0.000000   0.791975   0.000381  -0.000079
   11  P  1  Z   -0.003123  -0.007704  -0.000000   0.000005  -0.000000
   12  P  1  X   -0.000001   0.000000   0.000011  -0.021975  -0.000000
   13  P  1  Y   -0.000000   0.000000   0.021975   0.000011  -0.000007
   14  P  1  Z    0.001103  -0.000028  -0.000000   0.000000   0.000000
   15  P  1  X    0.000028   0.000034   0.000527  -1.096769  -0.000000
   16  P  1  Y    0.000000  -0.000000   1.096794   0.000527  -0.000156
   17  P  1  Z   -0.012494  -0.006318  -0.000000   0.000007   0.000000
   18  P  1 XX    0.033712   0.057449   0.000044  -0.090775   0.000000
   19  P  1 YY    0.033720   0.057449  -0.000044   0.090775  -0.000000
   20  P  1 ZZ   -0.067432  -0.114898  -0.000000  -0.000000   0.000000
   21  P  1 XY   -0.000000   0.000000  -0.104816  -0.000050   0.000014
   22  P  1 XZ   -0.000001  -0.000001  -0.000000   0.000762   0.000000
   23  P  1 YZ   -0.000000  -0.000000  -0.000760  -0.000000   0.000000
   24  P  1 XX    0.266621   0.729984   0.000561  -1.167507  -0.000000
   25  P  1 YY    0.266675   0.729974  -0.000561   1.167528   0.000000
   26  P  1 ZZ   -0.533296  -1.459958  -0.000000  -0.000021  -0.000000
   27  P  1 XY   -0.000000   0.000000  -1.348113  -0.000648   0.000172
   28  P  1 XZ   -0.000006  -0.000016  -0.000007   0.014438   0.000000
   29  P  1 YZ   -0.000000  -0.000001  -0.014424  -0.000007   0.000002
   30  P  1 XXX   0.261281   0.132362  -0.000003   0.006393   0.000000
   31  P  1 YYY   0.000000  -0.000000  -0.006382  -0.000003   0.058435
   32  P  1 ZZZ   0.002255   0.001499  -0.000000   0.000000   0.000000
   33  P  1 XXY   0.000000   0.000000  -0.002871  -0.000001  -0.078392
   34  P  1 XXZ  -0.001515  -0.001006  -0.000000   0.000332   0.000000
   35  P  1 YYX  -0.350546  -0.177583  -0.000001   0.002857  -0.000000
   36  P  1 YYZ  -0.001511  -0.001004   0.000000  -0.000333  -0.000000
[...]
      108    0.057693    0.057693  +2-2+00
      249   -0.057057    0.057057  20+2200
      112    0.054407    0.054407  +2-20+0
      123   -0.054407    0.054407  +-2200+
      463   -0.052303    0.052303  20+2020
       88   -0.045098    0.045098  202200+
      456    0.043608    0.043608  2++20-0
       77   -0.037409    0.037409  2+-20+0
      460    0.035530    0.035530  -++2+-0
       40   -0.031288    0.031288  -2+2+00
      876    0.030387    0.030387  ++2200-
      491   -0.030384    0.030384  +2+20-0
      288    0.028559    0.028559  +-+2-+0
       74    0.027894   -0.027894  2022+00
       38   -0.027894    0.027894  2202+00
      499   -0.027737    0.027737  02+2020
      859   -0.027719    0.027719  02+2002
      494   -0.027462    0.027462  +-+2+-0
      285   -0.027096    0.027096  02+2200
      823   -0.026707    0.026707  20+2002
      281   -0.026405    0.026405  +2+2-00
      254   -0.024897    0.024897  -++2-+0
       44   -0.024023    0.024023  -2+20+0
       89    0.024020    0.024020  -+2200+
      297   -0.023429    0.023429  +202-0+
      459    0.023401   -0.023401  20+2+-0
      808   -0.023401    0.023401  2+02+0-
      253   -0.022836   -0.022836  20+2-+0
      262    0.022836    0.022836  2+02-0+

 State #    3  Energy =    -342.180991092

      Det      Coef        Coefp    Occupancy (Ignoring core)
      ---      ----        ----    --------- --------- -----
       71    0.948316   -0.948316  2+22000
        6   -0.118250    0.118250  22200+0
       36   -0.113961   -0.113961  22+2000
      177   -0.113034    0.113034  2+20200
       74   -0.084128    0.084128  2022+00
       38    0.084124   -0.084124  2202+00
       78    0.076310   -0.076310  20220+0
      109    0.057692   -0.057692  +-22+00
      248   -0.057057    0.057057  2+02200
      113   -0.054407    0.054407  +-220+0
      122   -0.054407   -0.054407  +2-200+
      822   -0.052301    0.052301  2+02002
       42    0.045098   -0.045098  22020+0
      806    0.043608    0.043608  2++200-
       53   -0.037408   -0.037408  2-+200+
      810    0.035530    0.035530  -++2+0-
       75   -0.031287   -0.031287  -+22+00
      526    0.030390    0.030390  ++220-0
      841    0.030387   -0.030387  +2+200-
      332    0.028559   -0.028559  ++-2-0+
       73   -0.027895    0.027895  2+-2+00
       39    0.027894    0.027894  2-+2+00
      894   -0.027736   -0.027736  0+22002
      534   -0.027719   -0.027719  0+22020
      878   -0.027462   -0.027462  ++-2+0-
      320   -0.027095   -0.027095  0+22200
      462   -0.026707    0.026707  2+02020
      316   -0.026404   -0.026404  ++22-00
      264   -0.024897    0.024897  -++2-0+
       54    0.024020   -0.024020  -2+200+
       79    0.024017    0.024017  -+220+0
      323    0.023429   -0.023429  +022-+0
      458   -0.023401    0.023401  2+02+-0
      809   -0.023401    0.023401  20+2+0-
      252    0.022836    0.022836  2+02-+0
      263    0.022836    0.022836  20+2-0+

 ---------------------------------------
      - DIABATIC STATES IN CMO -        
 ---------------------------------------

 State #    1  Energy =    -342.419372650

      Det      Coef        Coefp    Occupancy (Ignoring core)
      ---      ----        ----    --------- --------- -----
        1    0.977740   -0.977740  222+000
      107   -0.076218    0.076218  +22-+00
      393   -0.055661   -0.055661  202+020
      717   -0.055659   -0.055659  220+002
      143   -0.052527   -0.052527  220+200
      179   -0.052526   -0.052526  202+200
        5    0.049925    0.049925  -22++00
        8    0.037241   -0.037241  2-2+0+0
       17    0.037239    0.037239  22-+00+
       76   -0.031449   -0.031449  2+2-0+0
       51   -0.031449    0.031449  22+-00+
      215   -0.030863   -0.030863  022+200
      389   -0.030117   -0.030117  202++-0
      738   -0.030117   -0.030117  2+-++0-
      353    0.030117    0.030117  220++-0
      704    0.030116   -0.030116  2-+++0-
      218   -0.028158    0.028158  +-2+-+0
      227   -0.028158   -0.028158  +2-+-0+
      183    0.027455   -0.027455  202+-+0
      158   -0.027454   -0.027454  2-++-0+
      147   -0.027454    0.027454  220+-+0
      192    0.027454   -0.027454  2+-+-0+
      742    0.026470    0.026470  2+-+0+-
      368    0.026470    0.026470  2-++0-+
      211    0.026294    0.026294  +22+-00
      753   -0.026054   -0.026054  202+002
      357   -0.026054   -0.026054  220+020
       29   -0.025692   -0.025692  2--+0++
      390   -0.024263    0.024263  -+2++-0
      705   -0.024263   -0.024263  -2+++0-
      424    0.023908    0.023908  +-2++-0
      773    0.023907   -0.023907  +2-++0-
      429   -0.023579   -0.023579  022+020
      789   -0.023579   -0.023579  022+002
      184    0.022423    0.022423  -+2+-+0
      159    0.022422   -0.022422  -2++-0+
     1051   -0.020980   -0.020980  2+++0--

 State #    2  Energy =    -342.180987836

      Det      Coef        Coefp    Occupancy (Ignoring core)
      ---      ----        ----    --------- --------- -----
       36    0.954834    0.954834  22+2000
       16    0.118225   -0.118225  222000+
      142   -0.113836   -0.113836  22+0200
       73   -0.088598    0.088598  2+-2+00
       39    0.088598    0.088598  2-+2+00
       52   -0.076676    0.076676  220200+
      108    0.058092    0.058092  +2-2+00
      249   -0.057447    0.057447  20+2200
      123   -0.055696    0.055696  +-2200+
      112   -0.055696   -0.055696  +2-20+0
      463   -0.052618    0.052618  20+2020
       88   -0.044695    0.044695  202200+
      456   -0.043607   -0.043607  2++20-0
       77    0.037793   -0.037793  2+-20+0
      460   -0.035523   -0.035523  -++2+-0
       40   -0.031511    0.031511  -2+2+00
      491    0.031105   -0.031105  +2+20-0
      876    0.031105    0.031105  ++2200-
      288   -0.028910   -0.028910  +-+2-+0
      499   -0.027924    0.027924  02+2020
      859   -0.027907    0.027907  02+2002
      494    0.027750   -0.027750  +-+2+-0
      285   -0.027284    0.027284  02+2200
      823   -0.026935    0.026935  20+2002
      281   -0.026581    0.026581  +2+2-00
       71   -0.025390    0.025390  2+22000
      254    0.024893   -0.024893  -++2-+0
       89    0.024591    0.024591  -+2200+
       44    0.024591   -0.024591  -2+20+0
      459   -0.023955    0.023955  20+2+-0
      808   -0.023955    0.023955  2+02+0-
      297   -0.023781    0.023781  +202-0+
      253    0.023379    0.023379  20+2-+0
      262    0.023378    0.023378  2+02-0+
      843    0.020178    0.020178  +202+0-

 State #    3  Energy =    -342.180991092

      Det      Coef        Coefp    Occupancy (Ignoring core)
      ---      ----        ----    --------- --------- -----
       71    0.954834   -0.954834  2+22000
        6    0.118229   -0.118229  22200+0
      177   -0.113836    0.113836  2+20200
       74   -0.088598    0.088598  2022+00
       38    0.088597   -0.088597  2202+00
       78   -0.076679    0.076679  20220+0
      109    0.058090   -0.058090  +-22+00
      248   -0.057448    0.057448  2+02200
      113    0.055696   -0.055696  +-220+0
      122   -0.055695   -0.055695  +2-200+
      822   -0.052616    0.052616  2+02002
       42   -0.044695    0.044695  22020+0
      806    0.043606    0.043606  2++200-
       53   -0.037793   -0.037793  2-+200+
      810    0.035522    0.035522  -++2+0-
       75   -0.031510   -0.031510  -+22+00
      526   -0.031105   -0.031105  ++220-0
      841    0.031104   -0.031104  +2+200-
      332    0.028909   -0.028909  ++-2-0+
      894   -0.027924   -0.027924  0+22002
      534   -0.027907   -0.027907  0+22020
      878   -0.027749   -0.027749  ++-2+0-
      320   -0.027284   -0.027284  0+22200
      462   -0.026935    0.026935  2+02020
      316   -0.026580   -0.026580  ++22-00
       36    0.025390    0.025390  22+2000
      264   -0.024892    0.024892  -++2-0+
       79   -0.024591   -0.024591  -+220+0
       54    0.024591   -0.024591  -2+200+
      458    0.023955   -0.023955  2+02+-0
      809   -0.023955    0.023955  20+2+0-
      323   -0.023781    0.023781  +022-+0
      263    0.023378    0.023378  20+2-0+
      252   -0.023378   -0.023378  2+02-+0
      529    0.020178    0.020178  +022+-0

 ---------------------------------------
    -DIABATIC STATES IN PROTOTYPES-     
 ---------------------------------------

     STATE:    1
 Group Ref#    Coefficients
     1    1    0.998998
     2    2    0.000000
     3    3    0.000001

WEIGHT OF LISTED PROTOTYPES:   99.80%

     STATE:    2
 Group Ref#    Coefficients
     1    1    0.000000
     2    2    0.997475
     3    3   -0.000000

WEIGHT OF LISTED PROTOTYPES:   99.50%

     STATE:    3
 Group Ref#    Coefficients
     1    1    0.000001
     2    2   -0.000000
     3    3    0.997475

WEIGHT OF LISTED PROTOTYPES:   99.50%

     DIRECT MAX. DIABATIZATION FINISHED    
 CPU     0: STEP CPU TIME=     0.41 TOTAL CPU TIME=        141.7 (      2.4 MIN)
 TOTAL WALL CLOCK TIME=        208.2 SECONDS, CPU UTILIZATION IS    68.07%

DIABATS FOR SPIN-ORBIT CALCULATION ARE READY

TRANSITION DIPOLES BETWEEN ADIABATS (in A.U.):

STATE PAIR      X         Y         Z
    1    1  0.000040 -0.000000 -0.018954
    2    1  0.003717  0.000003 -0.000002
    2    2 -0.422760  0.000738 -0.009569
    3    1 -0.000003  0.003717  0.000000
    3    2  0.000738  0.422785 -0.000000
    3    3  0.422824 -0.000738 -0.009575


TRANSITION DIPOLES BETWEEN DIABATS (in A.U.):

STATE PAIR      X         Y         Z
    1    1  0.000040 -0.000000 -0.018954
    2    1 -0.000100  0.003714  0.000000
    2    2  0.422209 -0.022812 -0.009575
    3    1  0.003717  0.000100 -0.000002
    3    2  0.022812  0.422170 -0.000000
    3    3 -0.422145  0.022812 -0.009569

TRANSITION DIPOLES BETWEEN DIRECT MAX. DIABATS (in A.U.):

STATE PAIR      X         Y         Z
    1    1  0.000040 -0.000000 -0.018954
    2    1 -0.000100  0.003714  0.000000
    2    2  0.422209 -0.022812 -0.009575
    3    1  0.003717  0.000100 -0.000002
    3    2  0.022812  0.422170 -0.000000
    3    3 -0.422145  0.022812 -0.009569
 No $TRANST Group Found.
 Quit without doing spin-orbit coupling
 ..... DONE WITH MP2 ENERGY .....
 CPU     0: STEP CPU TIME=     0.01 TOTAL CPU TIME=        141.8 (      2.4 MIN)
 TOTAL WALL CLOCK TIME=        208.2 SECONDS, CPU UTILIZATION IS    68.07%
            100000000  WORDS OF DYNAMIC MEMORY USED
 EXECUTION OF GAMESS TERMINATED NORMALLY Sat Nov 25 23:46:00 2023
 DDI: 4351152 bytes (4.1 MB / 0 MWords) used by master data server.
Note: The following floating-point exceptions are signalling: IEEE_DENORMAL

 ----------------------------------------
 CPU timing information for all processes
 ========================================
 0: 140.836 + 0.923 = 141.760
 1: 139.521 + 0.780 = 140.302
 ----------------------------------------
Note: The following floating-point exceptions are signalling: IEEE_DENORMAL
 ddikick.x: exited gracefully.
unset echo
----- accounting info -----
Files used on the master node io002 were:
-rw-r--r-- 1 bjb2chen nooijen  134352 Nov 25 23:42 /home/bjb2chen/gmsscr//ph3_cct_gmcpt_D3h_3st_diab_mode3_-0.05_mode1_-0.05.F05
-rw-r--r-- 1 bjb2chen nooijen 2546152 Nov 25 23:45 /home/bjb2chen/gmsscr//ph3_cct_gmcpt_D3h_3st_diab_mode3_-0.05_mode1_-0.05.F09
-rw-r--r-- 1 bjb2chen nooijen 3060272 Nov 25 23:45 /home/bjb2chen/gmsscr//ph3_cct_gmcpt_D3h_3st_diab_mode3_-0.05_mode1_-0.05.F09.001
-rw-r--r-- 1 bjb2chen nooijen 2715760 Nov 25 23:46 /home/bjb2chen/gmsscr//ph3_cct_gmcpt_D3h_3st_diab_mode3_-0.05_mode1_-0.05.F10
-rw-r--r-- 1 bjb2chen nooijen 1098248 Nov 25 23:45 /home/bjb2chen/gmsscr//ph3_cct_gmcpt_D3h_3st_diab_mode3_-0.05_mode1_-0.05.F13
-rw-r--r-- 1 bjb2chen nooijen 1098248 Nov 25 23:45 /home/bjb2chen/gmsscr//ph3_cct_gmcpt_D3h_3st_diab_mode3_-0.05_mode1_-0.05.F13.001
-rw-r--r-- 1 bjb2chen nooijen  180648 Nov 25 23:46 /home/bjb2chen/gmsscr//ph3_cct_gmcpt_D3h_3st_diab_mode3_-0.05_mode1_-0.05.F15
-rw-r--r-- 1 bjb2chen nooijen       0 Nov 25 23:42 /home/bjb2chen/gmsscr//ph3_cct_gmcpt_D3h_3st_diab_mode3_-0.05_mode1_-0.05.F16
-rw-r--r-- 1 bjb2chen nooijen    9808 Nov 25 23:45 /home/bjb2chen/gmsscr//ph3_cct_gmcpt_D3h_3st_diab_mode3_-0.05_mode1_-0.05.F70
-rw-r--r-- 1 bjb2chen nooijen    9808 Nov 25 23:45 /home/bjb2chen/gmsscr//ph3_cct_gmcpt_D3h_3st_diab_mode3_-0.05_mode1_-0.05.F70.001
-rw-r--r-- 1 bjb2chen nooijen    9808 Nov 25 23:45 /home/bjb2chen/gmsscr//ph3_cct_gmcpt_D3h_3st_diab_mode3_-0.05_mode1_-0.05.F71
-rw-r--r-- 1 bjb2chen nooijen    9808 Nov 25 23:45 /home/bjb2chen/gmsscr//ph3_cct_gmcpt_D3h_3st_diab_mode3_-0.05_mode1_-0.05.F71.001
-rw-r--r-- 1 bjb2chen nooijen   19608 Nov 25 23:45 /home/bjb2chen/gmsscr//ph3_cct_gmcpt_D3h_3st_diab_mode3_-0.05_mode1_-0.05.F72
-rw-r--r-- 1 bjb2chen nooijen   19608 Nov 25 23:45 /home/bjb2chen/gmsscr//ph3_cct_gmcpt_D3h_3st_diab_mode3_-0.05_mode1_-0.05.F72.001
-rw-r--r-- 1 bjb2chen nooijen   19608 Nov 25 23:45 /home/bjb2chen/gmsscr//ph3_cct_gmcpt_D3h_3st_diab_mode3_-0.05_mode1_-0.05.F73
-rw-r--r-- 1 bjb2chen nooijen   19608 Nov 25 23:45 /home/bjb2chen/gmsscr//ph3_cct_gmcpt_D3h_3st_diab_mode3_-0.05_mode1_-0.05.F73.001
-rw-r--r-- 1 bjb2chen nooijen  961208 Nov 25 23:45 /home/bjb2chen/gmsscr//ph3_cct_gmcpt_D3h_3st_diab_mode3_-0.05_mode1_-0.05.F74
-rw-r--r-- 1 bjb2chen nooijen  959640 Nov 25 23:45 /home/bjb2chen/gmsscr//ph3_cct_gmcpt_D3h_3st_diab_mode3_-0.05_mode1_-0.05.F74.001
-rw-r--r-- 1 bjb2chen nooijen       0 Nov 25 23:42 /home/bjb2chen/gmsscr//ph3_cct_gmcpt_D3h_3st_diab_mode3_-0.05_mode1_-0.05.F75
-rw-r--r-- 1 bjb2chen nooijen       0 Nov 25 23:42 /home/bjb2chen/gmsscr//ph3_cct_gmcpt_D3h_3st_diab_mode3_-0.05_mode1_-0.05.F75.001
-rw-r--r-- 1 bjb2chen nooijen   58848 Nov 25 23:45 /home/bjb2chen/gmsscr//ph3_cct_gmcpt_D3h_3st_diab_mode3_-0.05_mode1_-0.05.F76
-rw-r--r-- 1 bjb2chen nooijen   58848 Nov 25 23:45 /home/bjb2chen/gmsscr//ph3_cct_gmcpt_D3h_3st_diab_mode3_-0.05_mode1_-0.05.F76.001
-rw-r--r-- 1 bjb2chen nooijen       0 Nov 25 23:42 /home/bjb2chen/gmsscr//ph3_cct_gmcpt_D3h_3st_diab_mode3_-0.05_mode1_-0.05.F77
-rw-r--r-- 1 bjb2chen nooijen       0 Nov 25 23:42 /home/bjb2chen/gmsscr//ph3_cct_gmcpt_D3h_3st_diab_mode3_-0.05_mode1_-0.05.F77.001
-rw-r--r-- 1 bjb2chen nooijen    5128 Nov 25 23:45 /home/bjb2chen/gmsscr//ph3_cct_gmcpt_D3h_3st_diab_mode3_-0.05_mode1_-0.05.F78
-rw-r--r-- 1 bjb2chen nooijen    5128 Nov 25 23:45 /home/bjb2chen/gmsscr//ph3_cct_gmcpt_D3h_3st_diab_mode3_-0.05_mode1_-0.05.F78.001
-rw-r--r-- 1 bjb2chen nooijen   39208 Nov 25 23:45 /home/bjb2chen/gmsscr//ph3_cct_gmcpt_D3h_3st_diab_mode3_-0.05_mode1_-0.05.F79
-rw-r--r-- 1 bjb2chen nooijen   39208 Nov 25 23:45 /home/bjb2chen/gmsscr//ph3_cct_gmcpt_D3h_3st_diab_mode3_-0.05_mode1_-0.05.F79.001
-rw-r--r-- 1 bjb2chen nooijen     104 Nov 25 23:45 /home/bjb2chen/gmsscr//ph3_cct_gmcpt_D3h_3st_diab_mode3_-0.05_mode1_-0.05.F80
-rw-r--r-- 1 bjb2chen nooijen     104 Nov 25 23:45 /home/bjb2chen/gmsscr//ph3_cct_gmcpt_D3h_3st_diab_mode3_-0.05_mode1_-0.05.F80.001
-rw-r--r-- 1 bjb2chen nooijen  102416 Nov 25 23:45 /home/bjb2chen/gmsscr//ph3_cct_gmcpt_D3h_3st_diab_mode3_-0.05_mode1_-0.05.F81
-rw-r--r-- 1 bjb2chen nooijen  102416 Nov 25 23:45 /home/bjb2chen/gmsscr//ph3_cct_gmcpt_D3h_3st_diab_mode3_-0.05_mode1_-0.05.F81.001
-rw-r--r-- 1 bjb2chen nooijen     136 Nov 25 23:45 /home/bjb2chen/gmsscr//ph3_cct_gmcpt_D3h_3st_diab_mode3_-0.05_mode1_-0.05.F82
-rw-r--r-- 1 bjb2chen nooijen     136 Nov 25 23:45 /home/bjb2chen/gmsscr//ph3_cct_gmcpt_D3h_3st_diab_mode3_-0.05_mode1_-0.05.F82.001
-rw-r--r-- 1 bjb2chen nooijen   19216 Nov 25 23:45 /home/bjb2chen/gmsscr//ph3_cct_gmcpt_D3h_3st_diab_mode3_-0.05_mode1_-0.05.F83
-rw-r--r-- 1 bjb2chen nooijen   19216 Nov 25 23:45 /home/bjb2chen/gmsscr//ph3_cct_gmcpt_D3h_3st_diab_mode3_-0.05_mode1_-0.05.F83.001
-rw-r--r-- 1 bjb2chen nooijen  154896 Nov 25 23:45 /home/bjb2chen/gmsscr//ph3_cct_gmcpt_D3h_3st_diab_mode3_-0.05_mode1_-0.05.F84
-rw-r--r-- 1 bjb2chen nooijen  154896 Nov 25 23:45 /home/bjb2chen/gmsscr//ph3_cct_gmcpt_D3h_3st_diab_mode3_-0.05_mode1_-0.05.F84.001
-rw-r--r-- 1 bjb2chen nooijen 1796360 Nov 25 23:45 /home/bjb2chen/gmsscr//ph3_cct_gmcpt_D3h_3st_diab_mode3_-0.05_mode1_-0.05.F85
-rw-r--r-- 1 bjb2chen nooijen 1796360 Nov 25 23:45 /home/bjb2chen/gmsscr//ph3_cct_gmcpt_D3h_3st_diab_mode3_-0.05_mode1_-0.05.F85.001
-rw-r--r-- 1 bjb2chen nooijen 8257912 Nov 25 23:45 /home/bjb2chen/gmsscr//ph3_cct_gmcpt_D3h_3st_diab_mode3_-0.05_mode1_-0.05.F86
-rw-r--r-- 1 bjb2chen nooijen 7937432 Nov 25 23:45 /home/bjb2chen/gmsscr//ph3_cct_gmcpt_D3h_3st_diab_mode3_-0.05_mode1_-0.05.F86.001
-rw-r--r-- 1 bjb2chen nooijen     656 Nov 25 23:46 /home/bjb2chen/gmsscr//ph3_cct_gmcpt_D3h_3st_diab_mode3_-0.05_mode1_-0.05.F87
-rw-r--r-- 1 bjb2chen nooijen     656 Nov 25 23:46 /home/bjb2chen/gmsscr//ph3_cct_gmcpt_D3h_3st_diab_mode3_-0.05_mode1_-0.05.F87.001
-rw-r--r-- 1 bjb2chen nooijen   17232 Nov 25 23:46 /home/bjb2chen/gmsscr//ph3_cct_gmcpt_D3h_3st_diab_mode3_-0.05_mode1_-0.05.F88
-rw-r--r-- 1 bjb2chen nooijen   17232 Nov 25 23:46 /home/bjb2chen/gmsscr//ph3_cct_gmcpt_D3h_3st_diab_mode3_-0.05_mode1_-0.05.F88.001
-rw-r--r-- 1 bjb2chen nooijen     648 Nov 25 23:45 /home/bjb2chen/gmsscr//ph3_cct_gmcpt_D3h_3st_diab_mode3_-0.05_mode1_-0.05.F89
-rw-r--r-- 1 bjb2chen nooijen     648 Nov 25 23:45 /home/bjb2chen/gmsscr//ph3_cct_gmcpt_D3h_3st_diab_mode3_-0.05_mode1_-0.05.F89.001
-rw-r--r-- 1 bjb2chen nooijen       0 Nov 25 23:42 /home/bjb2chen/gmsscr//ph3_cct_gmcpt_D3h_3st_diab_mode3_-0.05_mode1_-0.05.F90
-rw-r--r-- 1 bjb2chen nooijen       0 Nov 25 23:42 /home/bjb2chen/gmsscr//ph3_cct_gmcpt_D3h_3st_diab_mode3_-0.05_mode1_-0.05.F90.001
-rw-r--r-- 1 bjb2chen nooijen   13760 Nov 25 23:46 /home/bjb2chen/gmsscr//ph3_cct_gmcpt_D3h_3st_diab_mode3_-0.05_mode1_-0.05.F91
-rw-r--r-- 1 bjb2chen nooijen   13760 Nov 25 23:46 /home/bjb2chen/gmsscr//ph3_cct_gmcpt_D3h_3st_diab_mode3_-0.05_mode1_-0.05.F91.001
-rw-r--r-- 1 bjb2chen nooijen   22776 Nov 25 23:45 /home/bjb2chen/gmsscr//ph3_cct_gmcpt_D3h_3st_diab_mode3_-0.05_mode1_-0.05.F92
-rw-r--r-- 1 bjb2chen nooijen   22776 Nov 25 23:45 /home/bjb2chen/gmsscr//ph3_cct_gmcpt_D3h_3st_diab_mode3_-0.05_mode1_-0.05.F92.001
-rw-r--r-- 1 bjb2chen nooijen   23168 Nov 25 23:45 /home/bjb2chen/gmsscr//ph3_cct_gmcpt_D3h_3st_diab_mode3_-0.05_mode1_-0.05.F93
-rw-r--r-- 1 bjb2chen nooijen   23168 Nov 25 23:45 /home/bjb2chen/gmsscr//ph3_cct_gmcpt_D3h_3st_diab_mode3_-0.05_mode1_-0.05.F93.001
-rw-r--r-- 1 bjb2chen nooijen   22776 Nov 25 23:45 /home/bjb2chen/gmsscr//ph3_cct_gmcpt_D3h_3st_diab_mode3_-0.05_mode1_-0.05.F94
-rw-r--r-- 1 bjb2chen nooijen   22776 Nov 25 23:45 /home/bjb2chen/gmsscr//ph3_cct_gmcpt_D3h_3st_diab_mode3_-0.05_mode1_-0.05.F94.001
-rw-r--r-- 1 bjb2chen nooijen   13760 Nov 25 23:45 /home/bjb2chen/gmsscr//ph3_cct_gmcpt_D3h_3st_diab_mode3_-0.05_mode1_-0.05.F95
-rw-r--r-- 1 bjb2chen nooijen   13760 Nov 25 23:45 /home/bjb2chen/gmsscr//ph3_cct_gmcpt_D3h_3st_diab_mode3_-0.05_mode1_-0.05.F95.001
-rw-r--r-- 1 bjb2chen nooijen   29440 Nov 25 23:46 /home/bjb2chen/gmsscr//ph3_cct_gmcpt_D3h_3st_diab_mode3_-0.05_mode1_-0.05.F96
-rw-r--r-- 1 bjb2chen nooijen   29440 Nov 25 23:46 /home/bjb2chen/gmsscr//ph3_cct_gmcpt_D3h_3st_diab_mode3_-0.05_mode1_-0.05.F96.001
-rw-r--r-- 1 bjb2chen nooijen    1184 Nov 25 23:45 /home/bjb2chen/gmsscr//ph3_cct_gmcpt_D3h_3st_diab_mode3_-0.05_mode1_-0.05.F97
-rw-r--r-- 1 bjb2chen nooijen    1184 Nov 25 23:45 /home/bjb2chen/gmsscr//ph3_cct_gmcpt_D3h_3st_diab_mode3_-0.05_mode1_-0.05.F97.001
-rw-r--r-- 1 bjb2chen nooijen    9808 Nov 25 23:45 /home/bjb2chen/gmsscr//ph3_cct_gmcpt_D3h_3st_diab_mode3_-0.05_mode1_-0.05.F98
-rw-r--r-- 1 bjb2chen nooijen    9808 Nov 25 23:45 /home/bjb2chen/gmsscr//ph3_cct_gmcpt_D3h_3st_diab_mode3_-0.05_mode1_-0.05.F98.001
-rw-r--r-- 1 bjb2chen nooijen   30264 Nov 25 23:45 /home/bjb2chen/gmsscr//ph3_cct_gmcpt_D3h_3st_diab_mode3_-0.05_mode1_-0.05.F99
-rw-r--r-- 1 bjb2chen nooijen   30264 Nov 25 23:45 /home/bjb2chen/gmsscr//ph3_cct_gmcpt_D3h_3st_diab_mode3_-0.05_mode1_-0.05.F99.001
ls: No match.
ls: No match.
ls: No match.
Sat 25 Nov 2023 11:46:03 PM EST
0.301u 0.049s 3:31.74 0.1%	0+0k 264+472io 0pf+0w
