----- GAMESS execution script 'rungms' -----
This job is running on host io002
under operating system Linux at Sat 25 Nov 2023 11:42:31 PM EST
Available scratch disk space (Kbyte units) at beginning of the job is
Filesystem             1K-blocks       Used Available Use% Mounted on
helmholtz.nlogn:/home 6391504896 5219978240 849387520  87% /home
GAMESS temporary binary files will be written to /home/bjb2chen/gmsscr/
GAMESS supplementary output files will be written to /home/bjb2chen/gamess/vibronics/Toby_automate/ph3/python
Copying input file ph3_cct_gmcpt_D3h_3st_diab_mode3_-0.05x2.inp to your run's scratch directory...
cp ph3_cct_gmcpt_D3h_3st_diab_mode3_-0.05x2.inp /home/bjb2chen/gmsscr//ph3_cct_gmcpt_D3h_3st_diab_mode3_-0.05x2.F05
unset echo
 
Assuming a single but multicore node.
 
/home/bjb2chen/gamess/ddikick.x /home/bjb2chen/gamess/gamess.00.x ph3_cct_gmcpt_D3h_3st_diab_mode3_-0.05x2 -ddi 1 2 io002:cpus=2 -scr /home/bjb2chen/gmsscr/

 Distributed Data Interface kickoff program.
 Initiating 2 compute processes on 1 nodes to run the following command:
 /home/bjb2chen/gamess/gamess.00.x ph3_cct_gmcpt_D3h_3st_diab_mode3_-0.05x2 

          ******************************************************
          *         GAMESS VERSION = 02 AUG 2018 (R2)         *
          *             FROM IOWA STATE UNIVERSITY             *
          * M.W.SCHMIDT, K.K.BALDRIDGE, J.A.BOATZ, S.T.ELBERT, *
          *   M.S.GORDON, J.H.JENSEN, S.KOSEKI, N.MATSUNAGA,   *
          *          K.A.NGUYEN, S.J.SU, T.L.WINDUS,           *
          *       TOGETHER WITH M.DUPUIS, J.A.MONTGOMERY       *
          *         J.COMPUT.CHEM.  14, 1347-1363(1993)        *
          **************** 64 BIT LINUX VERSION ****************

  SINCE 1993, STUDENTS AND POSTDOCS WORKING AT IOWA STATE UNIVERSITY
  AND ALSO IN THEIR VARIOUS JOBS AFTER LEAVING ISU HAVE MADE IMPORTANT
  CONTRIBUTIONS TO THE CODE:
     IVANA ADAMOVIC, CHRISTINE AIKENS, YURI ALEXEEV, POOJA ARORA,
     ANDREY ASADCHEV, ROB BELL, PRADIPTA BANDYOPADHYAY, JONATHAN BENTZ,
     BRETT BODE, KURT BRORSEN, CALEB CARLIN, GALINA CHABAN, WEI CHEN,
     CHEOL HO CHOI, PAUL DAY, ALBERT DEFUSCO, NUWAN DESILVA, TIM DUDLEY,
     DMITRI FEDOROV, ALEX FINDLATER, GRAHAM FLETCHER, MARK FREITAG,
     KURT GLAESEMANN, ANASTASIA GUININA,
     DAN KEMP, GRANT MERRILL, NORIYUKI MINEZAWA, JONATHAN MULLIN,
     TAKESHI NAGATA, SEAN NEDD, HEATHER NETZLOFF, BOSILJKA NJEGIC, RYAN OLSON,
     MIKE PAK, BUU PHAM,
     SPENCER PRUITT, LUKE ROSKOP, JIM SHOEMAKER, LYUDMILA SLIPCHENKO,
     TONY SMITH, SAROM SOK LEANG, JIE SONG, TETSUYA TAKETSUGU, SIMON WEBB,
     PENG XU, SOOHAENG YOO, FEDERICO ZAHARIEV

  ADDITIONAL CODE HAS BEEN PROVIDED BY COLLABORATORS IN OTHER GROUPS:
     IOWA STATE UNIVERSITY:
          JOE IVANIC, AARON WEST, LAIMUTIS BYTAUTAS, KLAUS RUEDENBERG
     UNIVERSITY OF TOKYO: KIMIHIKO HIRAO, TAKAHITO NAKAJIMA,
          TAKAO TSUNEDA, MUNEAKI KAMIYA, SUSUMU YANAGISAWA,
          KIYOSHI YAGI, MAHITO CHIBA, SEIKEN TOKURA, NAOAKI KAWAKAMI
     UNIVERSITY OF AARHUS: FRANK JENSEN
     UNIVERSITY OF IOWA: VISVALDAS KAIRYS, HUI LI
     NATIONAL INST. OF STANDARDS AND TECHNOLOGY: WALT STEVENS, DAVID GARMER
     UNIVERSITY OF PISA: BENEDETTA MENNUCCI, JACOPO TOMASI
     UNIVERSITY OF MEMPHIS: HENRY KURTZ, PRAKASHAN KORAMBATH
     UNIVERSITY OF ALBERTA: TOBY ZENG, MARIUSZ KLOBUKOWSKI
     UNIVERSITY OF NEW ENGLAND: MARK SPACKMAN
     MIE UNIVERSITY: HIROAKI UMEDA
     NAT. INST. OF ADVANCED INDUSTRIAL SCIENCE AND TECHNOLOGY: KAZUO KITAURA
     MICHIGAN STATE UNIVERSITY:
          KAROL KOWALSKI, MARTA WLOCH, JEFFREY GOUR, JESSE LUTZ,
          WEI LI, JUN SHEN, J. EMILIANO DEUSTUA, PIOTR PIECUCH
     UNIVERSITY OF MINNESOTA:
          YINAN SHU
     UNIVERSITY OF SILESIA: MONIKA MUSIAL, STANISLAW KUCHARSKI
     FACULTES UNIVERSITAIRES NOTRE-DAME DE LA PAIX:
          OLIVIER QUINET, BENOIT CHAMPAGNE
     UNIVERSITY OF CALIFORNIA - SANTA BARBARA: BERNARD KIRTMAN
     INSTITUTE FOR MOLECULAR SCIENCE:
          KAZUYA ISHIMURA, MICHIO KATOUDA, AND SHIGERU NAGASE
     UNIVERSITY OF NOTRE DAME: ANNA POMOGAEVA, DAN CHIPMAN
     KYUSHU UNIVERSITY:
          HARUYUKI NAKANO,
          FENG LONG GU, JACEK KORCHOWIEC, MARCIN MAKOWSKI, AND YURIKO AOKI,
          HIROTOSHI MORI AND EISAKU MIYOSHI
     PENNSYLVANIA STATE UNIVERSITY:
          TZVETELIN IORDANOV, CHET SWALINA, JONATHAN SKONE,
          SHARON HAMMES-SCHIFFER
     WASEDA UNIVERSITY:
          MASATO KOBAYASHI, TOMOKO AKAMA, TSUGUKI TOUMA,
          TAKESHI YOSHIKAWA, YASUHIRO IKABATA, JUNJI SEINO,
          YUYA NAKAJIMA, HIROMI NAKAI
     NANJING UNIVERSITY: SHUHUA LI
     UNIVERSITY OF NEBRASKA:
          PEIFENG SU, DEJUN SI, NANDUN THELLAMUREGE, YALI WANG, HUI LI
     UNIVERSITY OF ZURICH: ROBERTO PEVERATI, KIM BALDRIDGE
     N. COPERNICUS UNIVERSITY AND JACKSON STATE UNIVERSITY:
          MARIA BARYSZ
     UNIVERSITY OF COPENHAGEN: Jimmy Kromann, CASPER STEINMANN
     TOKYO INSTITUTE OF TECHNOLOGY: HIROYA NAKATA
     NAGOYA UNIVERSITY: YOSHIO NISHIMOTO, STEPHAN IRLE
     MOSCOW STATE UNIVERSITY: VLADIMIR MIRONOV


 PARALLEL VERSION RUNNING ON        2 PROCESSORS IN        1 NODES.

 EXECUTION OF GAMESS BEGUN Sat Nov 25 23:42:31 2023

            ECHO OF THE FIRST FEW INPUT CARDS -
 INPUT CARD> !Step 2: single point gmcpt calculation averaging 3 states                     
 INPUT CARD> !        for PH3+ at PH3 structure.                                            
 INPUT CARD> $system kdiag=3 mwords=100 memddi=1000 parall=.t. $end                         
 INPUT CARD> $contrl runtyp=energy ispher=1 $end                                            
 INPUT CARD> $contrl icut=9 itol=20 inttyp=rysquad qmttol=1.0d-05 nosym=1 $end              
 INPUT CARD> $scf    npunch=2 conv=1.0d-06 dirscf=.t.      $end                             
 INPUT CARD> $contrl scftyp=mcscf  mult=2 maxit=200 icharg=1 mplevl=2 $end                  
 INPUT CARD> $guess  guess=moread norb=81 purify=.t. $end                                   
 INPUT CARD> $basis  gbasis=cct $end                                                        
 INPUT CARD> $mcscf  cistep=gmcci fullnr=.t. finci=mos                                      
 INPUT CARD>         acurcy=1.d-6 maxit=100 $end                                            
 INPUT CARD> $trans  dirtrf=.t. $end                                                        
 INPUT CARD> $mrmp   mrpt=gmcpt rdvecs=.f. $end                                             
 INPUT CARD> $gmcpt  nmofzc=1 nmodoc=4 nmoact=7 nelact=7 stsym(1)=A                         
 INPUT CARD>         reftyp=ormas nspace=1 mstart(1)=6 mine(1)=7 maxe(1)=7                  
 INPUT CARD>         kstate(1)=1,1,1                                                        
 INPUT CARD>         wstate(1)=1,1,1                                                        
 INPUT CARD>         iwgt=0 thrwgt=-1.0 krot=.f. kszdoe=.f. knospn=.f.                      
 INPUT CARD>         thrde=-1.0 edshft=0.02 $end                                            
 INPUT CARD> --- Semi-canonical MOs --- generated at Wed Oct 25 14:28:45 2023               
 INPUT CARD> $VEC                                                                           
 INPUT CARD> 1  1 1.00014026E+00 2.12288233E-04 2.35259310E-04-9.69987525E-04-1.56061240E-04
 INPUT CARD> 1  2 2.24704850E-11 1.08104557E-11 0.00000000E+00 5.27654619E-11 2.51315613E-11
 INPUT CARD> 1  3 0.00000000E+00 0.00000000E+00 0.00000000E+00 0.00000000E+00 4.84975230E-11
 INPUT CARD> 1  4 0.00000000E+00 0.00000000E+00 5.97478244E-06 5.97478789E-06-1.19495703E-05
 INPUT CARD> 1  5 0.00000000E+00 0.00000000E+00 0.00000000E+00 1.39699393E-05 1.39699024E-05
 INPUT CARD> 1  6-2.79398417E-05-1.35074126E-11 0.00000000E+00 0.00000000E+00 1.67531508E-05
 INPUT CARD> 1  7 0.00000000E+00 0.00000000E+00 0.00000000E+00 0.00000000E+00-2.24766870E-05
 INPUT CARD> 1  8 0.00000000E+00-2.30057367E-11 0.00000000E+00 0.00000000E+00-1.16832778E-06
 INPUT CARD> 1  9-1.16830452E-06 2.33663231E-06 0.00000000E+00 0.00000000E+00 0.00000000E+00
 INPUT CARD> 1 10 5.17768380E-06-4.27232609E-05 3.09734201E-05 1.40215208E-06-2.42859932E-06
 INPUT CARD> 1 11 0.00000000E+00-1.09877526E-05 1.90313097E-05 0.00000000E+00-9.67969422E-07
 INPUT CARD> 1 12 5.86741647E-06-4.89944705E-06-6.83538926E-06 0.00000000E+00 0.00000000E+00
 INPUT CARD> 1 13 5.17767961E-06-4.27232159E-05 3.09734322E-05 1.40215234E-06 2.42859905E-06
 INPUT CARD> 1 14 0.00000000E+00-1.09877418E-05-1.90312875E-05 0.00000000E+00-9.67970307E-07
 INPUT CARD> 1 15 5.86741940E-06-4.89944909E-06 6.83539284E-06 0.00000000E+00 0.00000000E+00
 INPUT CARD> 1 16 5.17766201E-06-4.27232844E-05 3.09734099E-05-2.80427679E-06 0.00000000E+00
 INPUT CARD> 1 17 0.00000000E+00 2.19754740E-05 0.00000000E+00 0.00000000E+00 9.28508813E-06
 INPUT CARD> 1 18-4.38566624E-06-4.89942190E-06 0.00000000E+00 0.00000000E+00 0.00000000E+00
 INPUT CARD> 2  1-5.33920981E-04 9.53778939E-01-4.19196922E-03 6.30276435E-02 2.61399638E-03
 INPUT CARD> 2  2 6.28974787E-11 9.96812470E-11-0.00000000E+00 1.02891712E-10 2.05126344E-10
 INPUT CARD> 2  3-0.00000000E+00-0.00000000E+00-2.38713249E-11-0.00000000E+00 6.64911093E-11
 INPUT CARD> 2  4 6.27034786E-11-0.00000000E+00 9.65793100E-05 9.65794243E-05-1.93158734E-04
 INPUT CARD> 2  5-2.69954090E-11-0.00000000E+00-0.00000000E+00-1.78396631E-04-1.78396545E-04
 INPUT CARD> 2  6 3.56793176E-04-1.04925850E-10-0.00000000E+00-0.00000000E+00 1.01826168E-04
 INPUT CARD> 2  7 2.20823880E-11-0.00000000E+00-0.00000000E+00-0.00000000E+00-1.36614181E-04
 INPUT CARD> 2  8-0.00000000E+00 4.29651361E-11-3.02789776E-11-0.00000000E+00 2.38139809E-04
 INPUT CARD> 2  9 2.38139912E-04-4.76279721E-04-0.00000000E+00-0.00000000E+00-0.00000000E+00
 INPUT CARD> 2 10-1.82868827E-04 1.39177203E-04-5.45492220E-04-2.22000393E-05 3.84515667E-05
 INPUT CARD> 2 11-0.00000000E+00 8.78319684E-05-1.52129428E-04-0.00000000E+00 2.62487215E-06
  100000000 WORDS OF MEMORY AVAILABLE

     BASIS OPTIONS
     -------------
     GBASIS=CCT          IGAUSS=       0      POLAR=NONE    
     NDFUNC=       0     NFFUNC=       0     DIFFSP=       F
     NPFUNC=       0      DIFFS=       F     BASNAM=        


     RUN TITLE
     ---------
  PH3+ 3 states calculation at PH3 structure.                                    

 THE POINT GROUP OF THE MOLECULE IS C1      
 THE ORDER OF THE PRINCIPAL AXIS IS     0

 ATOM      ATOMIC                      COORDINATES (BOHR)
           CHARGE         X                   Y                   Z
 P          15.0    -1.3306735645        0.0000000776       -0.0064371302
 H           1.0    -2.6280097323        2.2471398438       -0.0064217677
 H           1.0    -2.6280097323       -2.2471397662       -0.0064197504
 H           1.0     1.2641063089        0.0000000776       -0.0064696398

          INTERNUCLEAR DISTANCES (ANGS.)
          ------------------------------

                1 P          2 H          3 H          4 H     

   1 P       0.0000000    1.3730817 *  1.3730818 *  1.3730985 *
   2 H       1.3730817 *  0.0000000    2.3782705 *  2.3782502 *
   3 H       1.3730818 *  2.3782705 *  0.0000000    2.3782502 *
   4 H       1.3730985 *  2.3782502 *  2.3782502 *  0.0000000  

  * ... LESS THAN  3.000


     ATOMIC BASIS SET
     ----------------
 THE CONTRACTED PRIMITIVE FUNCTIONS HAVE BEEN UNNORMALIZED
 THE CONTRACTED BASIS FUNCTIONS ARE NOW NORMALIZED TO UNITY

  SHELL TYPE  PRIMITIVE        EXPONENT          CONTRACTION COEFFICIENT(S)

 P         

      1   S       1        312400.0000000    0.000057689641
      1   S       2         46800.0000000    0.000448246591
      1   S       3         10650.0000000    0.002349131061
      1   S       4          3018.0000000    0.009781571802
      1   S       5           986.8000000    0.034142936511
      1   S       6           357.4000000    0.100192955985
      1   S       7           139.6000000    0.234346168617
      1   S       8            57.6300000    0.382391849918
      1   S       9            24.6000000    0.318052941833
      1   S      10            10.1200000    0.070770999093
      1   S      11             4.2830000   -0.001817789630
      1   S      12             1.8050000    0.002161561737
      1   S      13             0.2782000    0.000432249354

      2   S      14        312400.0000000   -0.000016380204
      2   S      15         46800.0000000   -0.000127233535
      2   S      16         10650.0000000   -0.000668625166
      2   S      17          3018.0000000   -0.002795303744
      2   S      18           986.8000000   -0.009928227435
      2   S      19           357.4000000   -0.030244566456
      2   S      20           139.6000000   -0.077884705328
      2   S      21            57.6300000   -0.156724571545
      2   S      22            24.6000000   -0.198042753651
      2   S      23            10.1200000    0.037971251521
      2   S      24             4.2830000    0.552751544147
      2   S      25             1.8050000    0.542611452452
      2   S      26             0.2782000   -0.009675942874

      3   S      27        312400.0000000    0.000006865735
      3   S      28         46800.0000000    0.000053281983
      3   S      29         10650.0000000    0.000280421002
      3   S      30          3018.0000000    0.001170789768
      3   S      31           986.8000000    0.004173591138
      3   S      32           357.4000000    0.012720496749
      3   S      33           139.6000000    0.033152766352
      3   S      34            57.6300000    0.067671246836
      3   S      35            24.6000000    0.089831018862
      3   S      36            10.1200000   -0.020305232360
      3   S      37             4.2830000   -0.313280408979
      3   S      38             1.8050000   -0.563687905527
      3   S      39             0.2782000    1.117494073734

      4   S      40             0.6158000    1.000000000000

      5   S      41             0.1055000    1.000000000000

      6   P      42           504.9000000    0.002433660431
      6   P      43           119.4000000    0.019305559477
      6   P      44            37.9600000    0.088473106893
      6   P      45            13.9500000    0.254701981099
      6   P      46             5.4570000    0.440199242653
      6   P      47             2.1770000    0.383632006272
      6   P      48             0.2877000   -0.003946337074

      7   P      49           504.9000000   -0.000954298933
      7   P      50           119.4000000   -0.007664025747
      7   P      51            37.9600000   -0.035465925259
      7   P      52            13.9500000   -0.106164716437
      7   P      53             5.4570000   -0.187210586037
      7   P      54             2.1770000   -0.181495819791
      7   P      55             0.2877000    0.991672644618

      8   P      56             0.8010000    1.000000000000

      9   P      57             0.0971400    1.000000000000

     10   D      58             0.6480000    1.000000000000

     11   D      59             0.2180000    1.000000000000

     12   F      60             0.4520000    1.000000000000

     13   D      61             3.1200000    1.000000000000

 H         

     14   S      62            33.8700000    0.025494863235
     14   S      63             5.0950000    0.190362765893
     14   S      64             1.1590000    0.852162022245

     15   S      65             0.3258000    1.000000000000

     16   S      66             0.1027000    1.000000000000

     17   P      67             1.4070000    1.000000000000

     18   P      68             0.3880000    1.000000000000

     19   D      69             1.0570000    1.000000000000

 H         

     20   S      70            33.8700000    0.025494863235
     20   S      71             5.0950000    0.190362765893
     20   S      72             1.1590000    0.852162022245

     21   S      73             0.3258000    1.000000000000

     22   S      74             0.1027000    1.000000000000

     23   P      75             1.4070000    1.000000000000

     24   P      76             0.3880000    1.000000000000

     25   D      77             1.0570000    1.000000000000

 H         

     26   S      78            33.8700000    0.025494863235
     26   S      79             5.0950000    0.190362765893
     26   S      80             1.1590000    0.852162022245

     27   S      81             0.3258000    1.000000000000

     28   S      82             0.1027000    1.000000000000

     29   P      83             1.4070000    1.000000000000

     30   P      84             0.3880000    1.000000000000

     31   D      85             1.0570000    1.000000000000

 TOTAL NUMBER OF BASIS SET SHELLS             =   31
 NUMBER OF CARTESIAN GAUSSIAN BASIS FUNCTIONS =   90
 NOTE: THIS RUN WILL RESTRICT THE MO VARIATION SPACE TO SPHERICAL HARMONICS.
 THE NUMBER OF ORBITALS KEPT IN THE VARIATIONAL SPACE WILL BE PRINTED LATER.
 NUMBER OF ELECTRONS                          =   17
 CHARGE OF MOLECULE                           =    1
 SPIN MULTIPLICITY                            =    2
 NUMBER OF OCCUPIED ORBITALS (ALPHA)          =    9
 NUMBER OF OCCUPIED ORBITALS (BETA )          =    8
 TOTAL NUMBER OF ATOMS                        =    4
 THE NUCLEAR REPULSION ENERGY IS       18.0101715317

     $CONTRL OPTIONS
     ---------------
 SCFTYP=MCSCF        RUNTYP=ENERGY       EXETYP=RUN     
 MPLEVL=       2     CITYP =NONE         CCTYP =NONE         VBTYP =NONE    
 DFTTYP=NONE         TDDFT =NONE    
 MULT  =       2     ICHARG=       1     NZVAR =       0     COORD =UNIQUE  
 PP    =NONE         RELWFN=NONE         LOCAL =NONE         NUMGRD=       F
 ISPHER=       1     NOSYM =       1     MAXIT =     200     UNITS =ANGS    
 PLTORB=       F     MOLPLT=       F     AIMPAC=       F     FRIEND=        
 NPRINT=       7     IREST =       0     GEOM  =INPUT   
 NORMF =       0     NORMP =       0     ITOL  =      20     ICUT  =       9
 INTTYP=RYSQUAD      GRDTYP=BEST         QMTTOL= 1.0E-05

     $SYSTEM OPTIONS
     ---------------
  REPLICATED MEMORY=   100000000 WORDS (ON EVERY NODE).
 DISTRIBUTED MEMDDI=        1000 MILLION WORDS IN AGGREGATE,
 MEMDDI DISTRIBUTED OVER   2 PROCESSORS IS   500000000 WORDS/PROCESSOR.
 TOTAL MEMORY REQUESTED ON EACH PROCESSOR=   600000000 WORDS.
 TIMLIM=      525600.00 MINUTES, OR     365.0 DAYS.
 PARALL= T  BALTYP=  DLB     KDIAG=    3  COREFL= F
 MXSEQ2=     300 MXSEQ3=     150  mem10=         0

          ----------------
          PROPERTIES INPUT
          ----------------

     MOMENTS            FIELD           POTENTIAL          DENSITY
 IEMOM =       1   IEFLD =       0   IEPOT =       0   IEDEN =       0
 WHERE =COMASS     WHERE =NUCLEI     WHERE =NUCLEI     WHERE =NUCLEI  
 OUTPUT=BOTH       OUTPUT=BOTH       OUTPUT=BOTH       OUTPUT=BOTH    
 IEMINT=       0   IEFINT=       0                     IEDINT=       0
                                                       MORB  =       0

     -------------------------------
     INTEGRAL TRANSFORMATION OPTIONS
     -------------------------------
     NWORD  =            0
     CUTOFF = 1.0E-09     MPTRAN =       0
     DIRTRF =       T     AOINTS =DUP     

          ----------------------
          MCSCF INPUT PARAMETERS
          ----------------------
 CONVERGER SELECTION: FOCAS = F  SOSCF = F  FULLNR = T  QUD = F  JACOBI = F
 SECULAR EQUATION METHOD CISTEP = GMCCI   
 --- GENERAL INPUT OPTIONS:
 MAXIT =     100  MICIT =       1  ACURCY= 1.000E-06
 DAMP  =   0.000  CANONC=       T  ENGTOL= 1.000E-10
 EKT   =       F  NPUNCH=       2  NWORD =         0
 REGENERATE CI AFTER CONVERGENCE = NONE    
 DIABATIZATION AFTER CONVERGENCE =        F
 --- INPUT FOR FULLNR CONVERGER:
 METHOD=DM2       FORS  =       F  DROPC =       T
 LINSER=       F  FCORE =       F  NORB  =      90

          ----------------------
          INTEGRAL INPUT OPTIONS
          ----------------------
 NOPK  =       1 NORDER=       0 SCHWRZ=       T

 ------------------------------------------
 MULTIREFERENCE PERTURBATION THEORY CONTROL
 ------------------------------------------
 MRPT=GMCPT    READ CONVERGED MCSCF VECTORS= F


     ------------------------------------------
     THE POINT GROUP IS C1 , NAXIS= 1, ORDER= 1
     ------------------------------------------

 -- VARIATIONAL SPACE WILL BE RESTRICTED TO PURE SPHERICAL HARMONICS ONLY --
 AFTER EXCLUDING CONTAMINANT COMBINATIONS FROM THE CARTESIAN GAUSSIAN BASIS
 SET, THE NUMBER OF SPHERICAL HARMONICS KEPT IN THE VARIATION SPACE IS   81

     DIMENSIONS OF THE SYMMETRY SUBSPACES ARE
 A   =   81

 ..... DONE SETTING UP THE RUN .....
 CPU     0: STEP CPU TIME=     0.13 TOTAL CPU TIME=          0.1 (      0.0 MIN)
 TOTAL WALL CLOCK TIME=          0.4 SECONDS, CPU UTILIZATION IS    36.11%

          ********************
          1 ELECTRON INTEGRALS
          ********************
 TIME TO DO   DIPOLE INTEGRALS=      0.01
 ...... END OF ONE-ELECTRON INTEGRALS ......
 CPU     0: STEP CPU TIME=     0.01 TOTAL CPU TIME=          0.1 (      0.0 MIN)
 TOTAL WALL CLOCK TIME=          0.4 SECONDS, CPU UTILIZATION IS    37.84%

          -------------
          GUESS OPTIONS
          -------------
          GUESS =MOREAD            NORB  =      81          NORDER=       0
          MIX   =       F          PRTMO =       F          PUNMO =       F
          TOLZ  = 1.0E-08          TOLE  = 1.0E-05
          SYMDEN=       F          PURIFY=       T

 INITIAL GUESS ORBITALS GENERATED BY MOREAD   ROUTINE.

 STATISTICS FOR GENERATION OF SYMMETRY ORBITAL -Q- MATRIX
 NUMBER OF CARTESIAN ATOMIC ORBITALS=         90
 NUMBER OF SPHERICAL CONTAMINANTS DROPPED=     9
 NUMBER OF LINEARLY DEPENDENT MOS DROPPED=     0
 TOTAL NUMBER OF MOS IN VARIATION SPACE=      81
 ORBITAL PURIFICATION WILL OCCUR

 SYMMETRIES FOR INITIAL GUESS ORBITALS FOLLOW.   BOTH SET(S).
     9 ORBITALS ARE OCCUPIED (    5 CORE ORBITALS).
     1=A        2=A        3=A        4=A        5=A        6=A        7=A   
     8=A        9=A       10=A       11=A       12=A       13=A       14=A   
    15=A       16=A       17=A       18=A       19=A       20=A       21=A   
    22=A       23=A       24=A       25=A       26=A       27=A       28=A   
    29=A       30=A       31=A       32=A       33=A       34=A       35=A   
    36=A       37=A       38=A       39=A       40=A       41=A       42=A   
    43=A       44=A       45=A       46=A       47=A       48=A       49=A   
    50=A       51=A       52=A       53=A       54=A       55=A       56=A   
    57=A       58=A       59=A       60=A       61=A       62=A       63=A   
    64=A       65=A       66=A       67=A       68=A       69=A       70=A   
    71=A       72=A       73=A       74=A       75=A       76=A       77=A   
    78=A       79=A       80=A       81=A   
 ...... END OF INITIAL ORBITAL SELECTION ......
 CPU     0: STEP CPU TIME=     0.08 TOTAL CPU TIME=          0.2 (      0.0 MIN)
 TOTAL WALL CLOCK TIME=          0.5 SECONDS, CPU UTILIZATION IS    44.00%

                    ----------------------
                    AO INTEGRAL TECHNOLOGY
                    ----------------------
     S,P,L SHELL ROTATED AXIS INTEGRALS, REPROGRAMMED BY
        KAZUYA ISHIMURA (IMS) AND JOSE SIERRA (SYNSTAR).
     S,P,D,L SHELL ROTATED AXIS INTEGRALS PROGRAMMED BY
        KAZUYA ISHIMURA (INSTITUTE FOR MOLECULAR SCIENCE).
     S,P,D,F,G SHELL TO TOTAL QUARTET ANGULAR MOMENTUM SUM 5,
        ERIC PROGRAM BY GRAHAM FLETCHER (ELORET AND NASA ADVANCED
        SUPERCOMPUTING DIVISION, AMES RESEARCH CENTER).
     S,P,D,F,G,L SHELL GENERAL RYS QUADRATURE PROGRAMMED BY
        MICHEL DUPUIS (PACIFIC NORTHWEST NATIONAL LABORATORY).

          --------------------
          2 ELECTRON INTEGRALS
          --------------------

 DIRECT SCF METHOD SKIPS INTEGRAL STORAGE ON DISK.
 DIRECT TRANSFORMATION SKIPS AO INTEGRAL STORAGE ON DISK.
  ...... END OF TWO-ELECTRON INTEGRALS .....
 STEP CPU TIME =     0.01 TOTAL CPU TIME =          0.2 (      0.0 MIN)
 TOTAL WALL CLOCK TIME=          0.5 SECONDS, CPU UTILIZATION IS    44.23%
 DDI: Creating Array [0] - 8100 x 78 = 631800 words.
 DDI: Creating Array [1] - 69 x 936 = 64584 words.
 DDI: Creating Array [2] - 78 x 78 = 6084 words.
 DDI: Creating Array [3] - 4095 x 78 = 319410 words.

          -----------------
          MCSCF CALCULATION
          -----------------

 ----- NUCLEAR ENERGY ----- =        18.0101715317

     -------------------------------------------------
     GMC-PT/GMC-QDPT or general MCSCF input parameters
     -------------------------------------------------
 # of frozen core orbs. =         1 ->         0
 # of doubly occ. orbs. =         4
 # of active      orbs. =         7
 # of virtual     orbs. =        69
 # of active electrons  =         7
 # of states in CI      =         3
 Highest state in CI    =         3
 kstate =  1 1 1
 avecoe =  0.333 0.333 0.333
 State symmetry           = A           
 Assigned symmetry number = 1

 <<<Act. MO sym.: 1111111

 <<<Division of 1-ext.:  0 0
 <<<Division of 2-ext.:  0 1

 *** Reference space

 Reference type: ORMAS (= Occupation restricted multiple active space)
 # of orbitals          =  7
 # of minimum electrons =  7
 # of maximum electrons =  7
 State symmetry    =    1 (input)
 2*Sz              =    1 (input)
 Spin multiplicity =    2 (input)
 Dimension of reference space =      1225  (from      3432 walks)

 Dimension of reference space =      1225  (from      1225 walks)

 <<<Ionized spaces for Ref-CI:
      0:         1225 /   -1-0:         1960 /  0-1-0:         2891

 EVALUATING EXCHANGE INTEGRALS FOR DIRECT INTEGRAL TRANSFORMATION
 SCHWARZ INEQUALITY OVERHEAD:      4095 INTEGRALS, T=        0.01

     --------------------------------------------
     PARTIAL TWO ELECTRON INTEGRAL TRANSFORMATION
     --------------------------------------------

 NUMBER OF CORE MOLECULAR ORBITALS     =    5
 NUMBER OF OCCUPIED MOLECULAR ORBITALS =   12
 TOTAL NUMBER OF MOLECULAR ORBITALS    =   81
 TOTAL NUMBER OF ATOMIC ORBITALS       =   90
 THRESHOLD FOR KEEPING TRANSFORMED 2E- INTEGRALS = 1.000E-09

 -------------------------------     ------------------------------
 DISTRIBUTED DATA TRANSFORMATION     PROGRAM WRITTEN BY G. FLETCHER
 -------------------------------     ------------------------------

 THE DISTRIBUTED MEMORY REQUIRED FOR THIS STEP IS MEMDDI=         2 MWORDS
 CREATING DISTRIBUTED STORAGE FOR [VIR OCC|VIR OCC] INTEGRALS
 CREATING DISTRIBUTED STORAGE FOR [VIR OCC|OCC OCC] INTEGRALS
 CREATING DISTRIBUTED STORAGE FOR [OCC OCC|OCC OCC] INTEGRALS
 CREATING DISTRIBUTED STORAGE FOR [VIR VIR|OCC OCC] INTEGRALS
 FOR    2 PROCESSORS, THE REPLICATED MEMORY NEEDED IS      340708 WORDS.
 SCHWARZ INEQUALITY OVERHEAD:      4095 INTEGRALS, T=        0.02

      DIRECT 4-INDEX TRANSFORMATION 
      SCHWARZ INEQUALITY TEST SKIPPED        168 INTEGRAL BLOCKS
 ----- FROZEN CORE ENERGY =      -345.9219846113
 ... END OF INTEGRAL TRANSFORMATION ...
 CPU     0: STEP CPU TIME=     3.27 TOTAL CPU TIME=          3.5 (      0.1 MIN)
 TOTAL WALL CLOCK TIME=          3.8 SECONDS, CPU UTILIZATION IS    91.38%

     --------------------------------     -----------------------------
     MCHF NEWTON-RAPHSON OPTIMIZATION     CODE WRITTEN BY MICHEL DUPUIS
     --------------------------------     -----------------------------
     PARALLEL VERSION WRITTEN BY G. FLETCHER (ELORET)
     NASA ADVANCED SUPERCOMPUTING DIVISION, AMES RESEARCH CENTER

 NUMBER OF INDEPENDENT ORBITAL ROTATION PARAMETERS =   712
 ..... DONE SOLVING NEWTON-RAPHSON EQUATIONS .....
 CPU     0: STEP CPU TIME=     0.43 TOTAL CPU TIME=          3.9 (      0.1 MIN)
 TOTAL WALL CLOCK TIME=          4.6 SECONDS, CPU UTILIZATION IS    84.70%
 ..... DONE WITH NTN-RPH ORBITAL ROTATIONS ..... 
 CPU     0: STEP CPU TIME=     0.00 TOTAL CPU TIME=          3.9 (      0.1 MIN)
 TOTAL WALL CLOCK TIME=          4.7 SECONDS, CPU UTILIZATION IS    84.52%
 MAXIMUM MEMORY USED BY NTN-RPH CODE WAS    135813 WORDS.

 ITER     TOTAL ENERGY      DEL(E)  LAGRANGIAN ASYMMETRY   SQCDF  MICIT   DAMP
   1     -342.038881159 -0.038881159  0.000006   48    8 1.468E-09  1   0.0000
   2     -342.038881159 -0.000000000  0.000000   22   10 3.788E-10  1   0.0000

          --------------------
          LAGRANGIAN CONVERGED
          --------------------

 FINAL MCSCF ENERGY IS     -342.0388811591 AFTER   2 ITERATIONS

 -MCCI- BASED ON OPTIMIZED ORBITALS
 ----------------------------------

 PLEASE NOTE: IF THE ACTIVE ORBITALS ARE CANONICALIZED BELOW,
 THE FOLLOWING CI EXPANSION COEFFICIENTS AND THE DENSITY DO NOT
 CORRESPOND TO THE PRINTED ORBITALS.  THE PRINTED EXPANSIONS MATCH
 THE ORBITALS USED DURING THE LAST ITERATION.  IF YOU WISH TO SEE
 CI EXPANSIONS BASED ON THE CANONICAL (OR NATURAL) ORBITALS, YOU
 MUST RUN A CI CALCULATION WITH THAT ORBITAL CHOICE READ IN $VEC.

 Averaged energy =    -342.038881159

 State #    1  Energy =    -342.207480423  S =  0.500

      Det      Coef    Occupancy (Ignoring core)
      ---      ----    --------- --------- -----
        1    0.977738  11110001110000
      107   -0.076235  11101000111000
      143    0.052529  11011001100100
      179    0.052529  10111001010100
      393    0.055354  10110101010010
      717    0.055352  11010011100001

 State #    2  Energy =    -341.954584853  S =  0.500

      Det      Coef    Occupancy (Ignoring core)
      ---      ----    --------- --------- -----
        6   -0.118200  11100101110000
       36   -0.139101  11110001101000
       38   -0.084845  11011001101000
       71   -0.944989  11110001011000
       74    0.084849  10111001011000
       78    0.076167  10110101011000
      109   -0.057495  10111000111000
      113   -0.054733  10110100111000
      122   -0.054732  11010010111000
      177    0.112708  11101001010100
      248    0.056857  11011001001100
      822    0.052198  11010011001001

 State #    3  Energy =    -341.954578202  S =  0.500

      Det      Coef    Occupancy (Ignoring core)
      ---      ----    --------- --------- -----
       16    0.118192  11100011110000
       36   -0.944989  11110001101000
       39   -0.084847  10111001101000
       52   -0.076163  11010011101000
       71    0.139101  11110001011000
       73   -0.084848  11011001011000
      108   -0.057497  11011000111000
      112    0.054733  11010100111000
      123   -0.054733  10110010111000
      142    0.112708  11101001100100
      249   -0.056857  10111001001100
      463   -0.052201  10110101001010

 DENSITY MATRIX OVER ACTIVE MO-S

             1           2           3           4           5

    1    1.9768667
    2   -0.0000029   1.6444324
    3    0.0000004   0.0000001   1.6444333
    4    0.0000000  -0.0000001   0.0000000   1.6282972
    5    0.0044908  -0.0000006   0.0000001  -0.0000000   0.0543510
    6    0.0000044   0.0030757  -0.0003178   0.0000084   0.0000003
    7   -0.0000002   0.0003180   0.0030770  -0.0000001  -0.0000000

             6           7

    6    0.0258105
    7   -0.0000001   0.0258088

 FORMING THE "STANDARD FOCK OPERATOR" IN DIRECT AO INTEGRAL MODE...
 ONLY THE    5 CORE AND   69 VIRTUAL ORBITALS WILL BE CANONICALIZED

          ----------------------
          MCSCF NATURAL ORBITALS
          ----------------------

                      1          2          3          4          5
                  -80.2666    -7.8143    -5.7093    -5.7093    -5.7080
                     A          A          A          A          A   
    1  P  1  S    1.000140  -0.000534  -0.000000   0.000000  -0.000000
    2  P  1  S    0.000212   0.953779  -0.000000   0.000000  -0.000000
    3  P  1  S    0.000235  -0.004192  -0.000000   0.000000  -0.000000
    4  P  1  S   -0.000970   0.063028  -0.000000  -0.000000   0.000000
    5  P  1  S   -0.000156   0.002614  -0.000000   0.000000   0.000000
    6  P  1  X    0.000000  -0.000000  -0.000963   0.958027   0.000010
    7  P  1  Y   -0.000000  -0.000000   0.958027   0.000963   0.000000
    8  P  1  Z   -0.000000   0.000000  -0.000000  -0.000010   0.961346
    9  P  1  X    0.000000   0.000000   0.000003  -0.003367   0.000000
   10  P  1  Y   -0.000000  -0.000000  -0.003367  -0.000003   0.000000
   11  P  1  Z   -0.000000  -0.000000   0.000000   0.000000  -0.000073
   12  P  1  X   -0.000000  -0.000000  -0.000080   0.079405   0.000001
   13  P  1  Y   -0.000000  -0.000000   0.079405   0.000080   0.000000
   14  P  1  Z   -0.000000   0.000000  -0.000000  -0.000001   0.075514
   15  P  1  X   -0.000000   0.000000  -0.000001   0.001226   0.000000
   16  P  1  Y   -0.000000   0.000000   0.001226   0.000001   0.000000
   17  P  1  Z   -0.000000   0.000000  -0.000000  -0.000000   0.001290
   18  P  1 XX    0.000006   0.000097  -0.000000   0.000256  -0.000000
   19  P  1 YY    0.000006   0.000097   0.000000  -0.000256   0.000000
   20  P  1 ZZ   -0.000012  -0.000193   0.000000  -0.000000   0.000000
   21  P  1 XY   -0.000000   0.000000  -0.000296  -0.000000   0.000000
   22  P  1 XZ   -0.000000  -0.000000   0.000000  -0.000000  -0.000000
   23  P  1 YZ   -0.000000  -0.000000   0.000000   0.000000  -0.000000
   24  P  1 XX    0.000014  -0.000178   0.000001  -0.001474   0.000000
   25  P  1 YY    0.000014  -0.000178  -0.000001   0.001474  -0.000000
   26  P  1 ZZ   -0.000028   0.000357   0.000000  -0.000000  -0.000000
   27  P  1 XY   -0.000000  -0.000000   0.001702   0.000002  -0.000000
   28  P  1 XZ   -0.000000   0.000000  -0.000000   0.000000   0.000000
   29  P  1 YZ    0.000000   0.000000  -0.000000  -0.000000   0.000000
   30  P  1 XXX   0.000017   0.000102   0.000000  -0.000046   0.000000
   31  P  1 YYY   0.000000   0.000000  -0.000046  -0.000000   0.000000
   32  P  1 ZZZ  -0.000000   0.000000  -0.000000  -0.000000  -0.000255
   33  P  1 XXY  -0.000000  -0.000000  -0.000020  -0.000000   0.000000
   34  P  1 XXZ  -0.000000  -0.000000  -0.000000   0.000000   0.000171
   35  P  1 YYX  -0.000022  -0.000137   0.000000  -0.000020   0.000000
   36  P  1 YYZ   0.000000   0.000000   0.000000   0.000000   0.000171
   37  P  1 ZZX  -0.000000  -0.000000  -0.000000   0.000082  -0.000000
   38  P  1 ZZY  -0.000000  -0.000000   0.000082   0.000000  -0.000000
   39  P  1 XYZ  -0.000000   0.000000   0.000000   0.000000   0.000000
   40  P  1 XX   -0.000001   0.000238   0.000000  -0.000274   0.000000
   41  P  1 YY   -0.000001   0.000238  -0.000000   0.000274  -0.000000
   42  P  1 ZZ    0.000002  -0.000476   0.000000   0.000000   0.000000
   43  P  1 XY   -0.000000   0.000000   0.000316   0.000000  -0.000000
   44  P  1 XZ    0.000000  -0.000000  -0.000000   0.000000  -0.000000
   45  P  1 YZ   -0.000000  -0.000000  -0.000000  -0.000000  -0.000000
   46  H  2  S    0.000005  -0.000183   0.000513  -0.000295   0.000000
   47  H  2  S   -0.000043   0.000139   0.003060  -0.001763   0.000000
   48  H  2  S    0.000031  -0.000545  -0.000302   0.000174  -0.000000
   49  H  2  X    0.000001  -0.000022   0.000033   0.000088   0.000000
   50  H  2  Y   -0.000002   0.000038   0.000050   0.000033  -0.000000
   51  H  2  Z   -0.000000   0.000000  -0.000000  -0.000000   0.000041
   52  H  2  X   -0.000011   0.000088   0.000603  -0.000415   0.000000
   53  H  2  Y    0.000019  -0.000152  -0.001113   0.000602  -0.000000
   54  H  2  Z    0.000000  -0.000000  -0.000000   0.000000   0.000118
   55  H  2 XX   -0.000001   0.000003  -0.000009   0.000038  -0.000000
   56  H  2 YY    0.000006   0.000017  -0.000040  -0.000009   0.000000
   57  H  2 ZZ   -0.000005  -0.000019   0.000049  -0.000028   0.000000
   58  H  2 XY   -0.000007  -0.000014  -0.000007  -0.000018   0.000000
   59  H  2 XZ   -0.000000  -0.000000   0.000000  -0.000000  -0.000011
   60  H  2 YZ    0.000000   0.000000   0.000000   0.000000   0.000020
   61  H  3  S    0.000005  -0.000183  -0.000512  -0.000296   0.000000
   62  H  3  S   -0.000043   0.000139  -0.003056  -0.001769   0.000000
   63  H  3  S    0.000031  -0.000545   0.000302   0.000175  -0.000000
   64  H  3  X    0.000001  -0.000022  -0.000033   0.000088   0.000000
   65  H  3  Y    0.000002  -0.000038   0.000050  -0.000033   0.000000
   66  H  3  Z   -0.000000   0.000000   0.000000  -0.000000   0.000041
   67  H  3  X   -0.000011   0.000088  -0.000602  -0.000417   0.000000
   68  H  3  Y   -0.000019   0.000152  -0.001111  -0.000604   0.000000
   69  H  3  Z    0.000000  -0.000000   0.000000   0.000000   0.000118
   70  H  3 XX   -0.000001   0.000003   0.000009   0.000038  -0.000000
   71  H  3 YY    0.000006   0.000017   0.000040  -0.000009   0.000000
   72  H  3 ZZ   -0.000005  -0.000019  -0.000049  -0.000029   0.000000
   73  H  3 XY    0.000007   0.000014  -0.000007   0.000018  -0.000000
   74  H  3 XZ   -0.000000  -0.000000  -0.000000  -0.000000  -0.000011
   75  H  3 YZ   -0.000000  -0.000000  -0.000000  -0.000000  -0.000020
   76  H  4  S    0.000005  -0.000183  -0.000001   0.000592  -0.000000
   77  H  4  S   -0.000043   0.000139  -0.000004   0.003531  -0.000000
   78  H  4  S    0.000031  -0.000546   0.000000  -0.000349   0.000000
   79  H  4  X   -0.000003   0.000044  -0.000000   0.000031   0.000000
   80  H  4  Y   -0.000000   0.000000   0.000108   0.000000   0.000000
   81  H  4  Z    0.000000  -0.000000  -0.000000  -0.000000   0.000041
   82  H  4  X    0.000022  -0.000176   0.000001  -0.001460   0.000000
   83  H  4  Y   -0.000000   0.000000  -0.000068  -0.000000  -0.000000
   84  H  4  Z   -0.000000   0.000000   0.000000   0.000000   0.000118
   85  H  4 XX    0.000009   0.000024   0.000000  -0.000032   0.000000
   86  H  4 YY   -0.000004  -0.000004   0.000000  -0.000025   0.000000
   87  H  4 ZZ   -0.000005  -0.000019  -0.000000   0.000057  -0.000000
   88  H  4 XY   -0.000000  -0.000000  -0.000038  -0.000000   0.000000
   89  H  4 XZ   -0.000000  -0.000000  -0.000000   0.000000   0.000023
   90  H  4 YZ   -0.000000  -0.000000   0.000000   0.000000  -0.000000

                      6          7          8          9         10
                    1.9769     1.6444     1.6444     1.6283     0.0543
                     A          A          A          A          A   
    1  P  1  S    0.001040  -0.000000   0.000000  -0.000000   0.012036
    2  P  1  S    0.002904  -0.000000   0.000000  -0.000000   0.112460
    3  P  1  S    0.549052  -0.000000   0.000003  -0.000000   0.572667
    4  P  1  S    0.057553  -0.000000   0.000000  -0.000000   0.093263
    5  P  1  S    0.220799  -0.000000   0.000004  -0.000000   0.415945
    6  P  1  X    0.000000   0.000050  -0.036576  -0.000000   0.000002
    7  P  1  Y    0.000000  -0.036578  -0.000050  -0.000000  -0.000000
    8  P  1  Z   -0.000000   0.000000   0.000000   0.001461   0.000000
    9  P  1  X   -0.000002  -0.000513   0.377682   0.000008   0.000013
   10  P  1  Y    0.000000   0.377681   0.000513   0.000000  -0.000000
   11  P  1  Z    0.000000  -0.000000  -0.000006   0.598304   0.000000
   12  P  1  X   -0.000001  -0.000158   0.116344   0.000002   0.000003
   13  P  1  Y    0.000000   0.116345   0.000158   0.000000   0.000000
   14  P  1  Z    0.000000  -0.000000  -0.000002   0.162445   0.000000
   15  P  1  X   -0.000000  -0.000147   0.108074   0.000005   0.000007
   16  P  1  Y    0.000000   0.108072   0.000147   0.000000  -0.000000
   17  P  1  Z    0.000000  -0.000000  -0.000002   0.364644   0.000000
   18  P  1 XX    0.011671  -0.000060   0.043944   0.000000  -0.092244
   19  P  1 YY    0.011674   0.000060  -0.043945  -0.000000  -0.092249
   20  P  1 ZZ   -0.023345  -0.000000   0.000000  -0.000000   0.184493
   21  P  1 XY   -0.000000  -0.050741  -0.000069  -0.000000   0.000000
   22  P  1 XZ   -0.000001   0.000000  -0.000001  -0.000000   0.000003
   23  P  1 YZ   -0.000000   0.000001   0.000000  -0.000000   0.000000
   24  P  1 XX    0.005430  -0.000037   0.027152   0.000000  -0.094756
   25  P  1 YY    0.005431   0.000037  -0.027152  -0.000000  -0.094757
   26  P  1 ZZ   -0.010862  -0.000000  -0.000000   0.000000   0.189512
   27  P  1 XY   -0.000000  -0.031352  -0.000043  -0.000000   0.000000
   28  P  1 XZ   -0.000000   0.000000  -0.000000   0.000000   0.000003
   29  P  1 YZ   -0.000000   0.000000   0.000000  -0.000000   0.000000
   30  P  1 XXX   0.011602  -0.000011   0.008357   0.000000  -0.063224
   31  P  1 YYY   0.000000   0.008358   0.000011   0.000000  -0.000000
   32  P  1 ZZZ  -0.000000   0.000000   0.000000  -0.011562  -0.000000
   33  P  1 XXY   0.000000   0.003736   0.000005   0.000000  -0.000000
   34  P  1 XXZ  -0.000000  -0.000000  -0.000001   0.007756   0.000001
   35  P  1 YYX  -0.015566  -0.000005   0.003737   0.000000   0.084823
   36  P  1 YYZ   0.000000  -0.000000  -0.000000   0.007756  -0.000001
   37  P  1 ZZX   0.000000   0.000020  -0.014949  -0.000000   0.000000
   38  P  1 ZZY  -0.000000  -0.014949  -0.000020  -0.000000   0.000000
   39  P  1 XYZ   0.000000  -0.000000  -0.000000   0.000000  -0.000000
   40  P  1 XX    0.002043  -0.000012   0.008488   0.000000  -0.010170
   41  P  1 YY    0.002044   0.000012  -0.008488  -0.000000  -0.010171
   42  P  1 ZZ   -0.004087  -0.000000   0.000000  -0.000000   0.020341
   43  P  1 XY   -0.000000  -0.009801  -0.000013  -0.000000   0.000000
   44  P  1 XZ   -0.000000   0.000000  -0.000000  -0.000000   0.000000
   45  P  1 YZ   -0.000000   0.000000   0.000000   0.000000   0.000000
   46  H  2  S    0.080024   0.146861  -0.084524  -0.000000  -0.193489
   47  H  2  S    0.114921   0.247463  -0.142424  -0.000000  -0.367064
   48  H  2  S    0.003690   0.046267  -0.026629  -0.000000  -0.053783
   49  H  2  X    0.003940   0.006774  -0.001900   0.000000  -0.006664
   50  H  2  Y   -0.006825  -0.009738   0.006759   0.000000   0.011543
   51  H  2  Z   -0.000000  -0.000000   0.000000   0.005077   0.000000
   52  H  2  X    0.007986   0.014122  -0.001860   0.000000  -0.022235
   53  H  2  Y   -0.013832  -0.018205   0.014096   0.000000   0.038513
   54  H  2  Z   -0.000000  -0.000000  -0.000000   0.024181   0.000000
   55  H  2 XX    0.000039   0.000174   0.001438   0.000000  -0.001247
   56  H  2 YY    0.001929   0.002146  -0.002773  -0.000000  -0.004887
   57  H  2 ZZ   -0.001968  -0.002320   0.001335  -0.000000   0.006134
   58  H  2 XY   -0.001890  -0.003745   0.001130  -0.000000   0.003640
   59  H  2 XZ   -0.000000  -0.000000  -0.000000   0.001335   0.000000
   60  H  2 YZ    0.000000   0.000000  -0.000000  -0.002312  -0.000000
   61  H  3  S    0.080024  -0.146631  -0.084922  -0.000000  -0.193489
   62  H  3  S    0.114921  -0.247075  -0.143095  -0.000000  -0.367065
   63  H  3  S    0.003690  -0.046194  -0.026755  -0.000000  -0.053783
   64  H  3  X    0.003940  -0.006769  -0.001918   0.000000  -0.006664
   65  H  3  Y    0.006824  -0.009720  -0.006785  -0.000000  -0.011543
   66  H  3  Z   -0.000000   0.000000   0.000000   0.005077   0.000000
   67  H  3  X    0.007986  -0.014117  -0.001899   0.000000  -0.022235
   68  H  3  Y    0.013832  -0.018166  -0.014145  -0.000000  -0.038513
   69  H  3  Z   -0.000000   0.000000   0.000000   0.024181   0.000000
   70  H  3 XX    0.000039  -0.000178   0.001437   0.000000  -0.001247
   71  H  3 YY    0.001929  -0.002139  -0.002779  -0.000000  -0.004887
   72  H  3 ZZ   -0.001968   0.002316   0.001341  -0.000000   0.006134
   73  H  3 XY    0.001890  -0.003742  -0.001140   0.000000  -0.003640
   74  H  3 XZ   -0.000000   0.000000  -0.000000   0.001335   0.000000
   75  H  3 YZ   -0.000000   0.000000   0.000000   0.002312   0.000000
   76  H  4  S    0.080020  -0.000230   0.169447   0.000000  -0.193491
   77  H  4  S    0.114917  -0.000388   0.285525   0.000000  -0.367077
   78  H  4  S    0.003690  -0.000072   0.053385   0.000000  -0.053787
   79  H  4  X   -0.007880   0.000019  -0.013638   0.000000   0.013329
   80  H  4  Y    0.000000   0.002000   0.000003   0.000000  -0.000000
   81  H  4  Z    0.000000  -0.000000   0.000000   0.005077  -0.000000
   82  H  4  X   -0.015971   0.000036  -0.026339   0.000000   0.044473
   83  H  4  Y    0.000000   0.006272   0.000009   0.000000   0.000000
   84  H  4  Z    0.000000  -0.000000   0.000000   0.024181  -0.000001
   85  H  4 XX    0.002874  -0.000007   0.005148  -0.000000  -0.006707
   86  H  4 YY   -0.000906   0.000003  -0.002471  -0.000000   0.000573
   87  H  4 ZZ   -0.001968   0.000004  -0.002677   0.000000   0.006134
   88  H  4 XY   -0.000000  -0.001777  -0.000002  -0.000000   0.000000
   89  H  4 XZ   -0.000000   0.000000  -0.000000  -0.002670   0.000000
   90  H  4 YZ   -0.000000   0.000000  -0.000000  -0.000000   0.000000

                     11         12
                    0.0258     0.0258
                     A          A   
    1  P  1  S   -0.000001   0.000000
    2  P  1  S   -0.000005   0.000000
    3  P  1  S   -0.000010   0.000000
    4  P  1  S   -0.000002  -0.000000
    5  P  1  S   -0.000000   0.000000
    6  P  1  X    0.165053  -0.000043
    7  P  1  Y    0.000043   0.165065
    8  P  1  Z   -0.000002  -0.000000
    9  P  1  X    0.864253  -0.000224
   10  P  1  Y    0.000224   0.864278
   11  P  1  Z   -0.000011  -0.000000
   12  P  1  X    0.142836  -0.000037
   13  P  1  Y    0.000037   0.142835
   14  P  1  Z   -0.000002  -0.000000
   15  P  1  X    0.342384  -0.000089
   16  P  1  Y    0.000089   0.342391
   17  P  1  Z   -0.000004  -0.000000
   18  P  1 XX   -0.141131   0.000037
   19  P  1 YY    0.141133  -0.000037
   20  P  1 ZZ   -0.000002   0.000000
   21  P  1 XY    0.000042   0.162969
   22  P  1 XZ    0.000001  -0.000000
   23  P  1 YZ   -0.000000  -0.000001
   24  P  1 XX   -0.037501   0.000010
   25  P  1 YY    0.037502  -0.000010
   26  P  1 ZZ   -0.000001  -0.000000
   27  P  1 XY    0.000011   0.043308
   28  P  1 XZ   -0.000000   0.000000
   29  P  1 YZ    0.000000   0.000000
   30  P  1 XXX  -0.020086   0.000005
   31  P  1 YYY  -0.000005  -0.020088
   32  P  1 ZZZ  -0.000001  -0.000000
   33  P  1 XXY  -0.000002  -0.008980
   34  P  1 XXZ   0.000001   0.000000
   35  P  1 YYX  -0.008983   0.000002
   36  P  1 YYZ   0.000000   0.000000
   37  P  1 ZZX   0.035931  -0.000009
   38  P  1 ZZY   0.000009   0.035931
   39  P  1 XYZ  -0.000000   0.000001
   40  P  1 XX   -0.016254   0.000004
   41  P  1 YY    0.016254  -0.000004
   42  P  1 ZZ   -0.000000  -0.000000
   43  P  1 XY    0.000005   0.018768
   44  P  1 XZ    0.000000  -0.000000
   45  P  1 YZ   -0.000000  -0.000000
   46  H  2  S    0.132878  -0.230290
   47  H  2  S    0.326935  -0.566619
   48  H  2  S    0.022424  -0.038867
   49  H  2  X    0.018120  -0.007010
   50  H  2  Y   -0.006999   0.026215
   51  H  2  Z   -0.000000   0.000000
   52  H  2  X    0.078378  -0.045280
   53  H  2  Y   -0.045229   0.130674
   54  H  2  Z   -0.000001   0.000001
   55  H  2 XX    0.005175   0.005604
   56  H  2 YY    0.000355  -0.015188
   57  H  2 ZZ   -0.005529   0.009584
   58  H  2 XY   -0.012000   0.011083
   59  H  2 XZ   -0.000000   0.000000
   60  H  2 YZ    0.000000  -0.000000
   61  H  3  S    0.132997   0.230221
   62  H  3  S    0.327228   0.566450
   63  H  3  S    0.022444   0.038856
   64  H  3  X    0.018124   0.007000
   65  H  3  Y    0.007013   0.026211
   66  H  3  Z   -0.000000  -0.000000
   67  H  3  X    0.078402   0.045240
   68  H  3  Y    0.045297   0.130650
   69  H  3  Z   -0.000001  -0.000001
   70  H  3 XX    0.005172  -0.005607
   71  H  3 YY    0.000363   0.015187
   72  H  3 ZZ   -0.005534  -0.009581
   73  H  3 XY    0.012006   0.011077
   74  H  3 XZ   -0.000000  -0.000000
   75  H  3 YZ   -0.000000  -0.000000
   76  H  4  S   -0.265867   0.000069
   77  H  4  S   -0.654163   0.000169
   78  H  4  S   -0.044872   0.000012
   79  H  4  X    0.030256  -0.000008
   80  H  4  Y    0.000004   0.014078
   81  H  4  Z   -0.000000  -0.000000
   82  H  4  X    0.156786  -0.000041
   83  H  4  Y    0.000014   0.052259
   84  H  4  Z   -0.000002  -0.000000
   85  H  4 XX   -0.021129   0.000005
   86  H  4 YY    0.010065  -0.000003
   87  H  4 ZZ    0.011064  -0.000003
   88  H  4 XY   -0.000003  -0.009710
   89  H  4 XZ    0.000001   0.000000
   90  H  4 YZ   -0.000000   0.000000

          ------------------------
          MCSCF OPTIMIZED ORBITALS
          ------------------------

                      1          2          3          4          5
                  -80.2666    -7.8143    -5.7093    -5.7093    -5.7080
                     A          A          A          A          A   
    1  P  1  S    1.000140  -0.000534  -0.000000   0.000000  -0.000000
    2  P  1  S    0.000212   0.953779  -0.000000   0.000000  -0.000000
    3  P  1  S    0.000235  -0.004192  -0.000000   0.000000  -0.000000
    4  P  1  S   -0.000970   0.063028  -0.000000  -0.000000   0.000000
    5  P  1  S   -0.000156   0.002614  -0.000000   0.000000   0.000000
    6  P  1  X    0.000000  -0.000000  -0.000963   0.958027   0.000010
    7  P  1  Y   -0.000000  -0.000000   0.958027   0.000963   0.000000
    8  P  1  Z   -0.000000   0.000000  -0.000000  -0.000010   0.961346
    9  P  1  X    0.000000   0.000000   0.000003  -0.003367   0.000000
   10  P  1  Y   -0.000000  -0.000000  -0.003367  -0.000003   0.000000
   11  P  1  Z   -0.000000  -0.000000   0.000000   0.000000  -0.000073
   12  P  1  X   -0.000000  -0.000000  -0.000080   0.079405   0.000001
   13  P  1  Y   -0.000000  -0.000000   0.079405   0.000080   0.000000
   14  P  1  Z   -0.000000   0.000000  -0.000000  -0.000001   0.075514
   15  P  1  X   -0.000000   0.000000  -0.000001   0.001226   0.000000
   16  P  1  Y   -0.000000   0.000000   0.001226   0.000001   0.000000
   17  P  1  Z   -0.000000   0.000000  -0.000000  -0.000000   0.001290
   18  P  1 XX    0.000006   0.000097  -0.000000   0.000256  -0.000000
   19  P  1 YY    0.000006   0.000097   0.000000  -0.000256   0.000000
   20  P  1 ZZ   -0.000012  -0.000193   0.000000  -0.000000   0.000000
   21  P  1 XY   -0.000000   0.000000  -0.000296  -0.000000   0.000000
   22  P  1 XZ   -0.000000  -0.000000   0.000000  -0.000000  -0.000000
   23  P  1 YZ   -0.000000  -0.000000   0.000000   0.000000  -0.000000
   24  P  1 XX    0.000014  -0.000178   0.000001  -0.001474   0.000000
   25  P  1 YY    0.000014  -0.000178  -0.000001   0.001474  -0.000000
   26  P  1 ZZ   -0.000028   0.000357   0.000000  -0.000000  -0.000000
   27  P  1 XY   -0.000000  -0.000000   0.001702   0.000002  -0.000000
   28  P  1 XZ   -0.000000   0.000000  -0.000000   0.000000   0.000000
   29  P  1 YZ    0.000000   0.000000  -0.000000  -0.000000   0.000000
   30  P  1 XXX   0.000017   0.000102   0.000000  -0.000046   0.000000
   31  P  1 YYY   0.000000   0.000000  -0.000046  -0.000000   0.000000
   32  P  1 ZZZ  -0.000000   0.000000  -0.000000  -0.000000  -0.000255
   33  P  1 XXY  -0.000000  -0.000000  -0.000020  -0.000000   0.000000
   34  P  1 XXZ  -0.000000  -0.000000  -0.000000   0.000000   0.000171
   35  P  1 YYX  -0.000022  -0.000137   0.000000  -0.000020   0.000000
   36  P  1 YYZ   0.000000   0.000000   0.000000   0.000000   0.000171
   37  P  1 ZZX  -0.000000  -0.000000  -0.000000   0.000082  -0.000000
   38  P  1 ZZY  -0.000000  -0.000000   0.000082   0.000000  -0.000000
   39  P  1 XYZ  -0.000000   0.000000   0.000000   0.000000   0.000000
   40  P  1 XX   -0.000001   0.000238   0.000000  -0.000274   0.000000
   41  P  1 YY   -0.000001   0.000238  -0.000000   0.000274  -0.000000
   42  P  1 ZZ    0.000002  -0.000476   0.000000   0.000000   0.000000
   43  P  1 XY   -0.000000   0.000000   0.000316   0.000000  -0.000000
   44  P  1 XZ    0.000000  -0.000000  -0.000000   0.000000  -0.000000
   45  P  1 YZ   -0.000000  -0.000000  -0.000000  -0.000000  -0.000000
   46  H  2  S    0.000005  -0.000183   0.000513  -0.000295   0.000000
   47  H  2  S   -0.000043   0.000139   0.003060  -0.001763   0.000000
   48  H  2  S    0.000031  -0.000545  -0.000302   0.000174  -0.000000
   49  H  2  X    0.000001  -0.000022   0.000033   0.000088   0.000000
   50  H  2  Y   -0.000002   0.000038   0.000050   0.000033  -0.000000
   51  H  2  Z   -0.000000   0.000000  -0.000000  -0.000000   0.000041
   52  H  2  X   -0.000011   0.000088   0.000603  -0.000415   0.000000
   53  H  2  Y    0.000019  -0.000152  -0.001113   0.000602  -0.000000
   54  H  2  Z    0.000000  -0.000000  -0.000000   0.000000   0.000118
   55  H  2 XX   -0.000001   0.000003  -0.000009   0.000038  -0.000000
   56  H  2 YY    0.000006   0.000017  -0.000040  -0.000009   0.000000
   57  H  2 ZZ   -0.000005  -0.000019   0.000049  -0.000028   0.000000
   58  H  2 XY   -0.000007  -0.000014  -0.000007  -0.000018   0.000000
   59  H  2 XZ   -0.000000  -0.000000   0.000000  -0.000000  -0.000011
   60  H  2 YZ    0.000000   0.000000   0.000000   0.000000   0.000020
   61  H  3  S    0.000005  -0.000183  -0.000512  -0.000296   0.000000
   62  H  3  S   -0.000043   0.000139  -0.003056  -0.001769   0.000000
   63  H  3  S    0.000031  -0.000545   0.000302   0.000175  -0.000000
   64  H  3  X    0.000001  -0.000022  -0.000033   0.000088   0.000000
   65  H  3  Y    0.000002  -0.000038   0.000050  -0.000033   0.000000
   66  H  3  Z   -0.000000   0.000000   0.000000  -0.000000   0.000041
   67  H  3  X   -0.000011   0.000088  -0.000602  -0.000417   0.000000
   68  H  3  Y   -0.000019   0.000152  -0.001111  -0.000604   0.000000
   69  H  3  Z    0.000000  -0.000000   0.000000   0.000000   0.000118
   70  H  3 XX   -0.000001   0.000003   0.000009   0.000038  -0.000000
   71  H  3 YY    0.000006   0.000017   0.000040  -0.000009   0.000000
   72  H  3 ZZ   -0.000005  -0.000019  -0.000049  -0.000029   0.000000
   73  H  3 XY    0.000007   0.000014  -0.000007   0.000018  -0.000000
   74  H  3 XZ   -0.000000  -0.000000  -0.000000  -0.000000  -0.000011
   75  H  3 YZ   -0.000000  -0.000000  -0.000000  -0.000000  -0.000020
   76  H  4  S    0.000005  -0.000183  -0.000001   0.000592  -0.000000
   77  H  4  S   -0.000043   0.000139  -0.000004   0.003531  -0.000000
   78  H  4  S    0.000031  -0.000546   0.000000  -0.000349   0.000000
   79  H  4  X   -0.000003   0.000044  -0.000000   0.000031   0.000000
   80  H  4  Y   -0.000000   0.000000   0.000108   0.000000   0.000000
   81  H  4  Z    0.000000  -0.000000  -0.000000  -0.000000   0.000041
   82  H  4  X    0.000022  -0.000176   0.000001  -0.001460   0.000000
   83  H  4  Y   -0.000000   0.000000  -0.000068  -0.000000  -0.000000
   84  H  4  Z   -0.000000   0.000000   0.000000   0.000000   0.000118
   85  H  4 XX    0.000009   0.000024   0.000000  -0.000032   0.000000
   86  H  4 YY   -0.000004  -0.000004   0.000000  -0.000025   0.000000
   87  H  4 ZZ   -0.000005  -0.000019  -0.000000   0.000057  -0.000000
   88  H  4 XY   -0.000000  -0.000000  -0.000038  -0.000000   0.000000
   89  H  4 XZ   -0.000000  -0.000000  -0.000000   0.000000   0.000023
   90  H  4 YZ   -0.000000  -0.000000   0.000000   0.000000  -0.000000

                      6          7          8          9         10
                    0.0000     0.0000     0.0000     0.0000     0.0000
                     A          A          A          A          A   
    1  P  1  S    0.001012   0.000000  -0.000000   0.000000   0.012039
    2  P  1  S    0.002641   0.000000  -0.000000   0.000000   0.112466
    3  P  1  S    0.547712  -0.000002   0.000000  -0.000000   0.573948
    4  P  1  S    0.057335  -0.000000   0.000000  -0.000000   0.093397
    5  P  1  S    0.219826   0.000002  -0.000000  -0.000000   0.416460
    6  P  1  X   -0.000000  -0.036496   0.005389  -0.000001  -0.000000
    7  P  1  Y    0.000000  -0.005389  -0.036498  -0.000000  -0.000000
    8  P  1  Z   -0.000000   0.000000  -0.000000   0.001461   0.000000
    9  P  1  X   -0.000001   0.371997  -0.054925   0.000001   0.000004
   10  P  1  Y    0.000000   0.054925   0.371996   0.000000  -0.000000
   11  P  1  Z    0.000000  -0.000001   0.000000   0.598304   0.000000
   12  P  1  X   -0.000000   0.114826  -0.016954   0.000001   0.000002
   13  P  1  Y    0.000000   0.016954   0.114827   0.000000   0.000000
   14  P  1  Z    0.000000  -0.000000   0.000000   0.162445   0.000000
   15  P  1  X    0.000000   0.106267  -0.015690   0.000002   0.000004
   16  P  1  Y   -0.000000   0.015690   0.106265   0.000000  -0.000000
   17  P  1  Z   -0.000000   0.000001  -0.000000   0.364644   0.000000
   18  P  1 XX    0.011887   0.043740  -0.006458   0.000000  -0.092215
   19  P  1 YY    0.011889  -0.043740   0.006458  -0.000000  -0.092223
   20  P  1 ZZ   -0.023776   0.000001  -0.000000   0.000000   0.184438
   21  P  1 XY   -0.000000  -0.007457  -0.050505  -0.000000   0.000000
   22  P  1 XZ   -0.000001  -0.000001   0.000000  -0.000000   0.000003
   23  P  1 YZ   -0.000000   0.000000   0.000001  -0.000000   0.000000
   24  P  1 XX    0.005652   0.026932  -0.003976  -0.000000  -0.094743
   25  P  1 YY    0.005652  -0.026932   0.003977  -0.000000  -0.094744
   26  P  1 ZZ   -0.011304   0.000000  -0.000000   0.000000   0.189486
   27  P  1 XY   -0.000000  -0.004592  -0.031097  -0.000000   0.000000
   28  P  1 XZ   -0.000000  -0.000000   0.000000   0.000000   0.000003
   29  P  1 YZ   -0.000000   0.000000   0.000000  -0.000000   0.000000
   30  P  1 XXX   0.011750   0.008305  -0.001226   0.000000  -0.063196
   31  P  1 YYY  -0.000000   0.001226   0.008306   0.000000  -0.000000
   32  P  1 ZZZ  -0.000000   0.000000  -0.000000  -0.011562  -0.000000
   33  P  1 XXY   0.000000   0.000548   0.003713   0.000000  -0.000000
   34  P  1 XXZ  -0.000000  -0.000000   0.000000   0.007756   0.000001
   35  P  1 YYX  -0.015764   0.003715  -0.000548   0.000000   0.084787
   36  P  1 YYZ   0.000000   0.000000  -0.000000   0.007756  -0.000001
   37  P  1 ZZX  -0.000000  -0.014857   0.002194  -0.000001  -0.000000
   38  P  1 ZZY  -0.000000  -0.002194  -0.014857  -0.000000   0.000000
   39  P  1 XYZ   0.000000  -0.000000  -0.000000   0.000000  -0.000000
   40  P  1 XX    0.002067   0.008428  -0.001244   0.000000  -0.010165
   41  P  1 YY    0.002067  -0.008428   0.001244  -0.000000  -0.010166
   42  P  1 ZZ   -0.004135   0.000000  -0.000000   0.000000   0.020332
   43  P  1 XY   -0.000000  -0.001437  -0.009731  -0.000000   0.000000
   44  P  1 XZ   -0.000000  -0.000000   0.000000  -0.000000   0.000000
   45  P  1 YZ   -0.000000   0.000000   0.000000  -0.000000   0.000000
   46  H  2  S    0.080475  -0.062567   0.158020  -0.000000  -0.193303
   47  H  2  S    0.115776  -0.105572   0.266632  -0.000001  -0.366798
   48  H  2  S    0.003816  -0.019685   0.049713   0.000000  -0.053774
   49  H  2  X    0.003955  -0.000932   0.006996  -0.000000  -0.006655
   50  H  2  Y   -0.006851   0.005284  -0.010665  -0.000000   0.011527
   51  H  2  Z   -0.000000   0.000000  -0.000000   0.005077   0.000000
   52  H  2  X    0.008037   0.000067   0.014350  -0.000000  -0.022217
   53  H  2  Y   -0.013922   0.011362  -0.020313   0.000000   0.038481
   54  H  2  Z   -0.000000   0.000000  -0.000000   0.024181   0.000000
   55  H  2 XX    0.000042   0.001436  -0.000045  -0.000000  -0.001247
   56  H  2 YY    0.001940  -0.002430   0.002554   0.000000  -0.004882
   57  H  2 ZZ   -0.001982   0.000993  -0.002508  -0.000000   0.006130
   58  H  2 XY   -0.001898   0.000596  -0.003893   0.000000   0.003636
   59  H  2 XZ   -0.000000   0.000000  -0.000000   0.001335   0.000000
   60  H  2 YZ    0.000000  -0.000000   0.000000  -0.002312  -0.000000
   61  H  3  S    0.080475  -0.105565  -0.133195  -0.000000  -0.193302
   62  H  3  S    0.115776  -0.178124  -0.224744  -0.000001  -0.366798
   63  H  3  S    0.003816  -0.033212  -0.041903   0.000000  -0.053774
   64  H  3  X    0.003955  -0.002914  -0.006428  -0.000000  -0.006655
   65  H  3  Y    0.006851  -0.008141  -0.008683   0.000000  -0.011527
   66  H  3  Z   -0.000000   0.000000   0.000000   0.005077   0.000000
   67  H  3  X    0.008037  -0.004083  -0.013758  -0.000000  -0.022217
   68  H  3  Y    0.013922  -0.016747  -0.016162  -0.000000  -0.038481
   69  H  3  Z   -0.000000   0.000000   0.000000   0.024181   0.000000
   70  H  3 XX    0.000042   0.001388  -0.000372  -0.000000  -0.001247
   71  H  3 YY    0.001940  -0.003064  -0.001743   0.000000  -0.004882
   72  H  3 ZZ   -0.001982   0.001676   0.002114  -0.000000   0.006130
   73  H  3 XY    0.001898  -0.001695  -0.003555  -0.000000  -0.003636
   74  H  3 XZ   -0.000000   0.000000   0.000000   0.001335   0.000000
   75  H  3 YZ   -0.000000   0.000000   0.000000   0.002312   0.000000
   76  H  4  S    0.080474   0.168132  -0.024825   0.000000  -0.193301
   77  H  4  S    0.115778   0.283698  -0.041888   0.000002  -0.366801
   78  H  4  S    0.003816   0.052897  -0.007810  -0.000000  -0.053778
   79  H  4  X   -0.007911  -0.013549   0.002001  -0.000000   0.013310
   80  H  4  Y    0.000000   0.000288   0.001952  -0.000000  -0.000000
   81  H  4  Z    0.000000   0.000000  -0.000000   0.005077  -0.000000
   82  H  4  X   -0.016076  -0.026352   0.003891  -0.000000   0.044434
   83  H  4  Y    0.000000   0.000902   0.006106   0.000000   0.000000
   84  H  4  Z    0.000000   0.000001  -0.000000   0.024181  -0.000001
   85  H  4 XX    0.002889   0.005132  -0.000758   0.000000  -0.006700
   86  H  4 YY   -0.000908  -0.002463   0.000364  -0.000000   0.000571
   87  H  4 ZZ   -0.001982  -0.002669   0.000394   0.000000   0.006129
   88  H  4 XY   -0.000000  -0.000257  -0.001740   0.000000   0.000000
   89  H  4 XZ   -0.000000  -0.000000   0.000000  -0.002670   0.000000
   90  H  4 YZ   -0.000000   0.000000   0.000000  -0.000000   0.000000

                     11         12         13         14         15
                    0.0000     0.0000    -0.0188     0.0443     0.0443
                     A          A          A          A          A   
    1  P  1  S   -0.000001   0.000000   0.016698  -0.000000   0.000001
    2  P  1  S   -0.000004   0.000000   0.123535  -0.000000   0.000004
    3  P  1  S   -0.000003   0.000000   0.402560  -0.000000   0.000007
    4  P  1  S   -0.000001  -0.000000   0.012886  -0.000000   0.000002
    5  P  1  S    0.000004  -0.000000   1.667357  -0.000000   0.000013
    6  P  1  X    0.164826  -0.007193  -0.000000   0.000036  -0.145678
    7  P  1  Y    0.007194   0.164838   0.000000  -0.145680  -0.000036
    8  P  1  Z   -0.000002   0.000000  -0.000000   0.000000   0.000002
    9  P  1  X    0.864150  -0.037714  -0.000002   0.000144  -0.580816
   10  P  1  Y    0.037715   0.864176   0.000000  -0.580820  -0.000144
   11  P  1  Z   -0.000008   0.000000  -0.000000   0.000000   0.000007
   12  P  1  X    0.142922  -0.006237  -0.000001   0.000009  -0.034653
   13  P  1  Y    0.006237   0.142921   0.000000  -0.034655  -0.000009
   14  P  1  Z   -0.000001   0.000000   0.000000   0.000000   0.000000
   15  P  1  X    0.342264  -0.014937   0.000009   0.000211  -0.847223
   16  P  1  Y    0.014938   0.342271   0.000000  -0.847305  -0.000211
   17  P  1  Z   -0.000002   0.000000   0.000000   0.000000   0.000011
   18  P  1 XX   -0.140914   0.006150   0.026991   0.000011  -0.046002
   19  P  1 YY    0.140914  -0.006150   0.026992  -0.000011   0.046002
   20  P  1 ZZ   -0.000000   0.000000  -0.053983  -0.000000   0.000000
   21  P  1 XY    0.007101   0.162717  -0.000000   0.053116   0.000013
   22  P  1 XZ    0.000001  -0.000000  -0.000001  -0.000000   0.000001
   23  P  1 YZ   -0.000000  -0.000001  -0.000000  -0.000001  -0.000000
   24  P  1 XX   -0.037415   0.001633   0.140424   0.000066  -0.266710
   25  P  1 YY    0.037414  -0.001633   0.140429  -0.000066   0.266705
   26  P  1 ZZ    0.000001  -0.000000  -0.280853  -0.000000   0.000005
   27  P  1 XY    0.001886   0.043207  -0.000000   0.307965   0.000077
   28  P  1 XZ   -0.000000   0.000000  -0.000005  -0.000000   0.000003
   29  P  1 YZ    0.000000   0.000000  -0.000000  -0.000003  -0.000000
   30  P  1 XXX  -0.020051   0.000875   0.015782   0.000004  -0.014571
   31  P  1 YYY  -0.000875  -0.020053   0.000000  -0.014572  -0.000004
   32  P  1 ZZZ  -0.000001  -0.000000  -0.000000  -0.000000  -0.000001
   33  P  1 XXY  -0.000391  -0.008964   0.000000  -0.006516  -0.000002
   34  P  1 XXZ   0.000001  -0.000000  -0.000000   0.000000   0.000001
   35  P  1 YYX  -0.008967   0.000391  -0.021174   0.000002  -0.006515
   36  P  1 YYZ   0.000000   0.000000   0.000000   0.000000   0.000000
   37  P  1 ZZX   0.035868  -0.001565  -0.000001  -0.000006   0.026064
   38  P  1 ZZY   0.001565   0.035868  -0.000000   0.026065   0.000006
   39  P  1 XYZ   0.000000   0.000001   0.000000   0.000000   0.000000
   40  P  1 XX   -0.016222   0.000708   0.007403   0.000002  -0.009862
   41  P  1 YY    0.016222  -0.000708   0.007403  -0.000002   0.009862
   42  P  1 ZZ    0.000000  -0.000000  -0.014805  -0.000000   0.000000
   43  P  1 XY    0.000818   0.018732  -0.000000   0.011387   0.000003
   44  P  1 XZ    0.000000  -0.000000  -0.000000  -0.000000   0.000000
   45  P  1 YZ   -0.000000  -0.000000  -0.000000  -0.000000  -0.000000
   46  H  2  S    0.122620  -0.235545   0.010444  -0.015982   0.009222
   47  H  2  S    0.301813  -0.579772   0.214969  -0.232609   0.134222
   48  H  2  S    0.020670  -0.039712  -1.197475   1.865332  -1.076305
   49  H  2  X    0.017796  -0.007776   0.009022  -0.011272   0.005111
   50  H  2  Y   -0.005844   0.026474  -0.015627   0.018132  -0.011267
   51  H  2  Z   -0.000000   0.000000  -0.000000   0.000000  -0.000000
   52  H  2  X    0.076339  -0.048608  -0.034868   0.057321  -0.031145
   53  H  2  Y   -0.039497   0.132475   0.060391  -0.097359   0.057290
   54  H  2  Z   -0.000001   0.000001   0.000000  -0.000001   0.000000
   55  H  2 XX    0.005415   0.005375  -0.000133  -0.002282  -0.000277
   56  H  2 YY   -0.000309  -0.015184  -0.001637   0.006562  -0.002193
   57  H  2 ZZ   -0.005106   0.009810   0.001769  -0.004280   0.002470
   58  H  2 XY   -0.011507   0.011585   0.001504  -0.007004   0.005104
   59  H  2 XZ   -0.000000   0.000000   0.000000  -0.000000   0.000000
   60  H  2 YZ    0.000000  -0.000000  -0.000000   0.000000  -0.000000
   61  H  3  S    0.142674   0.223967   0.010444   0.015978   0.009230
   62  H  3  S    0.351175   0.551274   0.214969   0.232542   0.134338
   63  H  3  S    0.024052   0.037760  -1.197475  -1.864797  -1.077232
   64  H  3  X    0.018406   0.006196   0.009022   0.011270   0.005116
   65  H  3  Y    0.008129   0.025864   0.015627   0.018126   0.011276
   66  H  3  Z   -0.000000  -0.000000  -0.000000  -0.000000  -0.000000
   67  H  3  X    0.080284   0.041772  -0.034868  -0.057305  -0.031173
   68  H  3  Y    0.050888   0.128531  -0.060391  -0.097331  -0.057338
   69  H  3  Z   -0.000001  -0.000001   0.000000   0.000001   0.000000
   70  H  3 XX    0.004927  -0.005826  -0.000133   0.002282  -0.000276
   71  H  3 YY    0.001015   0.015153  -0.001637  -0.006561  -0.002196
   72  H  3 ZZ   -0.005942  -0.009328   0.001769   0.004279   0.002472
   73  H  3 XY    0.012472   0.010539  -0.001504  -0.007001  -0.005107
   74  H  3 XZ   -0.000000  -0.000000   0.000000   0.000000   0.000000
   75  H  3 YZ   -0.000000  -0.000000   0.000000   0.000000   0.000000
   76  H  4  S   -0.265292   0.011578   0.010444   0.000005  -0.018452
   77  H  4  S   -0.652998   0.028498   0.214973   0.000067  -0.268578
   78  H  4  S   -0.044728   0.001952  -1.197454  -0.000535   2.153535
   79  H  4  X    0.030201  -0.001318  -0.018045  -0.000006   0.024636
   80  H  4  Y    0.000614   0.014068   0.000000  -0.001394  -0.000000
   81  H  4  Z   -0.000000   0.000000   0.000000   0.000000  -0.000000
   82  H  4  X    0.156587  -0.006834   0.069733   0.000032  -0.130429
   83  H  4  Y    0.002279   0.052221   0.000000   0.001932   0.000000
   84  H  4  Z   -0.000002   0.000000  -0.000001  -0.000000   0.000002
   85  H  4 XX   -0.021099   0.000921  -0.002389  -0.000003   0.011088
   86  H  4 YY    0.010051  -0.000439   0.000619   0.000002  -0.006147
   87  H  4 ZZ    0.011048  -0.000482   0.001769   0.000001  -0.004942
   88  H  4 XY   -0.000424  -0.009704  -0.000000   0.001840   0.000000
   89  H  4 XZ    0.000001  -0.000000   0.000000  -0.000000  -0.000000
   90  H  4 YZ    0.000000   0.000000   0.000000  -0.000000   0.000000

                     16         17         18         19         20
                    0.1345     0.1345     0.1759     0.2058     0.2058
                     A          A          A          A          A   
    1  P  1  S   -0.000000  -0.000000  -0.000000   0.000000   0.000000
    2  P  1  S   -0.000000  -0.000001  -0.000000   0.000001   0.000000
    3  P  1  S   -0.000000  -0.000001  -0.000000   0.000007   0.000000
    4  P  1  S   -0.000000  -0.000000  -0.000000   0.000007  -0.000000
    5  P  1  S    0.000000   0.000004   0.000001  -0.000141   0.000000
    6  P  1  X    0.000000  -0.000000  -0.000004  -0.080751   0.000031
    7  P  1  Y    0.000001   0.000000  -0.000000  -0.000031  -0.080749
    8  P  1  Z    0.000000  -0.000002  -0.326643   0.000000  -0.000000
    9  P  1  X    0.000000  -0.000002  -0.000013  -0.510772   0.000198
   10  P  1  Y    0.000002   0.000000  -0.000000  -0.000198  -0.510768
   11  P  1  Z    0.000000  -0.000009  -1.187592   0.000003   0.000000
   12  P  1  X    0.000000  -0.000000  -0.000000  -0.078909   0.000031
   13  P  1  Y    0.000000   0.000000  -0.000000  -0.000031  -0.078908
   14  P  1  Z    0.000000  -0.000000  -0.031155   0.000001   0.000000
   15  P  1  X   -0.000000   0.000009   0.000007   3.588058  -0.001390
   16  P  1  Y   -0.000008  -0.000000   0.000000   0.001390   3.588196
   17  P  1  Z   -0.000000   0.000009   1.398610  -0.000041  -0.000001
   18  P  1 XX   -0.000000   0.000002  -0.000000   0.041029  -0.000016
   19  P  1 YY    0.000000   0.000000   0.000000  -0.041033   0.000016
   20  P  1 ZZ   -0.000000  -0.000002  -0.000000   0.000004  -0.000000
   21  P  1 XY    0.000001   0.000000  -0.000000  -0.000018  -0.047382
   22  P  1 XZ   -0.000006   0.126001  -0.000001  -0.000001   0.000000
   23  P  1 YZ    0.126001   0.000006   0.000000   0.000000   0.000001
   24  P  1 XX   -0.000000   0.000018  -0.000002   0.719000  -0.000279
   25  P  1 YY    0.000001  -0.000001   0.000002  -0.719024   0.000279
   26  P  1 ZZ   -0.000001  -0.000017  -0.000000   0.000024  -0.000000
   27  P  1 XY    0.000011   0.000000   0.000000  -0.000322  -0.830220
   28  P  1 XZ   -0.000040   0.804746  -0.000007  -0.000013   0.000000
   29  P  1 YZ    0.804744   0.000040   0.000000   0.000000   0.000013
   30  P  1 XXX   0.000000   0.000000  -0.000000   0.063779  -0.000025
   31  P  1 YYY  -0.000000  -0.000000  -0.000000   0.000025   0.063789
   32  P  1 ZZZ  -0.000000   0.000000  -0.003949   0.000003   0.000000
   33  P  1 XXY  -0.000000   0.000000  -0.000000   0.000011   0.028518
   34  P  1 XXZ  -0.000000   0.004459   0.002649  -0.000004  -0.000000
   35  P  1 YYX  -0.000000  -0.000000  -0.000000   0.028531  -0.000011
   36  P  1 YYZ   0.000000  -0.004459   0.002649  -0.000000  -0.000000
   37  P  1 ZZX   0.000000  -0.000000   0.000000  -0.114099   0.000044
   38  P  1 ZZY   0.000000   0.000000   0.000000  -0.000044  -0.114100
   39  P  1 XYZ  -0.005149  -0.000000  -0.000000  -0.000000  -0.000002
   40  P  1 XX   -0.000000   0.000001   0.000000   0.007511  -0.000003
   41  P  1 YY    0.000000  -0.000000  -0.000000  -0.007511   0.000003
   42  P  1 ZZ   -0.000000  -0.000001   0.000000   0.000000  -0.000000
   43  P  1 XY    0.000001   0.000000  -0.000000  -0.000003  -0.008674
   44  P  1 XZ   -0.000002   0.048874  -0.000000  -0.000000   0.000000
   45  P  1 YZ    0.048874   0.000002   0.000000   0.000000   0.000000
   46  H  2  S    0.000000  -0.000000   0.000000  -0.031172   0.054040
   47  H  2  S    0.000001  -0.000001  -0.000001   0.273232  -0.473627
   48  H  2  S    0.000004   0.000003  -0.000003   1.352434  -2.344629
   49  H  2  X   -0.000000  -0.000000   0.000000  -0.004966   0.007386
   50  H  2  Y    0.000000   0.000000  -0.000000   0.007380  -0.013500
   51  H  2  Z    0.000431  -0.000249   0.005377   0.000000  -0.000000
   52  H  2  X    0.000001  -0.000001  -0.000001   0.126695  -0.142405
   53  H  2  Y   -0.000000  -0.000000   0.000000  -0.142261   0.291194
   54  H  2  Z    0.107535  -0.062077  -0.045546  -0.000002   0.000002
   55  H  2 XX   -0.000000   0.000000  -0.000000   0.002130   0.003497
   56  H  2 YY    0.000000  -0.000000  -0.000000   0.000914  -0.008774
   57  H  2 ZZ    0.000000  -0.000000   0.000000  -0.003043   0.005276
   58  H  2 XY    0.000000  -0.000000   0.000000  -0.007083   0.007484
   59  H  2 XZ   -0.001801   0.002254   0.000034  -0.000000   0.000000
   60  H  2 YZ    0.004333  -0.001801  -0.000059   0.000000  -0.000000
   61  H  3  S   -0.000000  -0.000000   0.000000  -0.031214  -0.054016
   62  H  3  S   -0.000001  -0.000001  -0.000001   0.273599   0.473415
   63  H  3  S   -0.000004   0.000002  -0.000004   1.354250   2.343581
   64  H  3  X    0.000000  -0.000000   0.000000  -0.004972  -0.007382
   65  H  3  Y    0.000000  -0.000000   0.000000  -0.007391  -0.013494
   66  H  3  Z   -0.000431  -0.000249   0.005377   0.000000   0.000000
   67  H  3  X   -0.000001  -0.000001  -0.000001   0.126805   0.142307
   68  H  3  Y   -0.000000   0.000000  -0.000000   0.142487   0.291084
   69  H  3  Z   -0.107529  -0.062088  -0.045546  -0.000002  -0.000002
   70  H  3 XX    0.000000   0.000000  -0.000000   0.002127  -0.003499
   71  H  3 YY    0.000000  -0.000000  -0.000000   0.000920   0.008773
   72  H  3 ZZ   -0.000000  -0.000000   0.000000  -0.003047  -0.005274
   73  H  3 XY    0.000000   0.000000  -0.000000   0.007089   0.007478
   74  H  3 XZ    0.001801   0.002254   0.000034  -0.000000  -0.000000
   75  H  3 YZ    0.004333   0.001801   0.000059  -0.000000  -0.000000
   76  H  4  S   -0.000000  -0.000000  -0.000000   0.062385  -0.000024
   77  H  4  S   -0.000000  -0.000003   0.000001  -0.546748   0.000212
   78  H  4  S    0.000000  -0.000005   0.000007  -2.706599   0.001049
   79  H  4  X    0.000000   0.000000   0.000000  -0.017761   0.000007
   80  H  4  Y   -0.000000  -0.000000   0.000000  -0.000000  -0.000705
   81  H  4  Z   -0.000000   0.000497   0.005377   0.000000   0.000000
   82  H  4  X   -0.000000   0.000002  -0.000001   0.373322  -0.000145
   83  H  4  Y   -0.000000   0.000000  -0.000000   0.000017   0.044551
   84  H  4  Z   -0.000006   0.124170  -0.045546  -0.000005  -0.000000
   85  H  4 XX   -0.000000   0.000000   0.000000  -0.013066   0.000005
   86  H  4 YY    0.000000   0.000000  -0.000000   0.006976  -0.000003
   87  H  4 ZZ   -0.000000  -0.000000  -0.000000   0.006090  -0.000002
   88  H  4 XY    0.000000   0.000000   0.000000  -0.000002  -0.004791
   89  H  4 XZ   -0.000000   0.005373  -0.000068   0.000000   0.000000
   90  H  4 YZ    0.001214   0.000000   0.000000  -0.000000   0.000000

                     21         22         23         24         25
                    0.2912     0.3827     0.5063     0.5063     0.5395
                     A          A          A          A          A   
    1  P  1  S   -0.080846  -0.004713   0.000000   0.000004  -0.000000
    2  P  1  S   -0.604931  -0.044215   0.000000   0.000026  -0.000000
    3  P  1  S   -1.299829  -0.040766   0.000000   0.000050  -0.000000
    4  P  1  S   -0.454143  -0.260665  -0.000000  -0.000003  -0.000000
    5  P  1  S    6.416245   2.862108   0.000000   0.000018   0.000000
    6  P  1  X   -0.000022  -0.000007   0.000111  -0.236668   0.000000
    7  P  1  Y    0.000000   0.000000   0.236673   0.000111  -0.000040
    8  P  1  Z    0.000000   0.000000  -0.000000   0.000003  -0.000000
    9  P  1  X   -0.000061  -0.000015   0.000372  -0.792043   0.000000
   10  P  1  Y    0.000000   0.000000   0.792057   0.000372  -0.000159
   11  P  1  Z    0.000000   0.000000  -0.000000   0.000010  -0.000000
   12  P  1  X   -0.000001   0.000000   0.000010  -0.021988  -0.000000
   13  P  1  Y   -0.000000  -0.000000   0.021989   0.000010  -0.000014
   14  P  1  Z    0.000000   0.000000  -0.000000   0.000000   0.000000
   15  P  1  X    0.000052   0.000072   0.000515  -1.096631  -0.000000
   16  P  1  Y    0.000000  -0.000000   1.096687   0.000515  -0.000312
   17  P  1  Z   -0.000000   0.000000  -0.000001   0.000014  -0.000000
   18  P  1 XX    0.033720   0.057447   0.000043  -0.090763  -0.000000
   19  P  1 YY    0.033737   0.057447  -0.000043   0.090763   0.000000
   20  P  1 ZZ   -0.067457  -0.114894  -0.000000  -0.000000  -0.000000
   21  P  1 XY   -0.000000   0.000000  -0.104800  -0.000049   0.000028
   22  P  1 XZ   -0.000002  -0.000002   0.000000   0.000001   0.000000
   23  P  1 YZ   -0.000000  -0.000000   0.000001  -0.000000  -0.000000
   24  P  1 XX    0.266688   0.729993   0.000549  -1.167483  -0.000000
   25  P  1 YY    0.266796   0.729969  -0.000549   1.167525   0.000000
   26  P  1 ZZ   -0.533484  -1.459963  -0.000000  -0.000042  -0.000000
   27  P  1 XY   -0.000000   0.000000  -1.348081  -0.000634   0.000343
   28  P  1 XZ   -0.000013  -0.000032   0.000001   0.000016   0.000000
   29  P  1 YZ   -0.000000  -0.000001   0.000017  -0.000001  -0.000000
   30  P  1 XXX   0.261306   0.132344  -0.000003   0.006392   0.000000
   31  P  1 YYY   0.000000  -0.000000  -0.006370  -0.000003   0.058459
   32  P  1 ZZZ  -0.000000  -0.000000  -0.000000   0.000000   0.000000
   33  P  1 XXY   0.000000   0.000000  -0.002883  -0.000001  -0.078416
   34  P  1 XXZ  -0.000004  -0.000002   0.000000  -0.000000   0.000000
   35  P  1 YYX  -0.350580  -0.177560  -0.000001   0.002853  -0.000000
   36  P  1 YYZ   0.000004   0.000002   0.000000  -0.000000  -0.000000
   37  P  1 ZZX   0.000002   0.000001   0.000005  -0.011430  -0.000000
   38  P  1 ZZY  -0.000000  -0.000000   0.011429   0.000005  -0.000014
   39  P  1 XYZ   0.000000   0.000000   0.000000  -0.000000   0.000001
   40  P  1 XX   -0.006921   0.019706   0.000017  -0.036439   0.000000
   41  P  1 YY   -0.006921   0.019703  -0.000017   0.036439  -0.000000
   42  P  1 ZZ    0.013841  -0.039408  -0.000000  -0.000000  -0.000000
   43  P  1 XY   -0.000000   0.000000  -0.042075  -0.000020   0.000011
   44  P  1 XZ    0.000000  -0.000001   0.000000   0.000001   0.000000
   45  P  1 YZ    0.000000  -0.000000   0.000001  -0.000000  -0.000000
   46  H  2  S    0.054544  -0.023319  -0.028973  -0.016745   0.000008
   47  H  2  S   -0.566132  -1.208546  -1.497988  -0.865865   0.000371
   48  H  2  S   -1.726634  -0.339999  -0.042761  -0.024674   0.000015
   49  H  2  X    0.002165  -0.005834  -0.001027  -0.006711   0.038395
   50  H  2  Y   -0.003748   0.010103   0.007915   0.001044   0.022165
   51  H  2  Z   -0.000000   0.000000   0.000000   0.000000  -0.000000
   52  H  2  X   -0.255262  -0.096094  -0.081613   0.130185  -0.578931
   53  H  2  Y    0.442137   0.166464  -0.036347   0.081389  -0.334212
   54  H  2  Z    0.000003   0.000001   0.000001  -0.000002   0.000007
   55  H  2 XX    0.006668   0.008137   0.002014  -0.008922  -0.017977
   56  H  2 YY   -0.026551  -0.014452  -0.013157   0.002482   0.017979
   57  H  2 ZZ    0.019883   0.006315   0.011143   0.006440  -0.000002
   58  H  2 XY    0.033214   0.022584   0.003527   0.008764   0.011987
   59  H  2 XZ    0.000000  -0.000000   0.000000   0.000000   0.000000
   60  H  2 YZ   -0.000000  -0.000000  -0.000000  -0.000000  -0.000000
   61  H  3  S    0.054544  -0.023319   0.028989  -0.016717  -0.000008
   62  H  3  S   -0.566132  -1.208546   1.498801  -0.864457  -0.000371
   63  H  3  S   -1.726634  -0.339999   0.042784  -0.024634  -0.000015
   64  H  3  X    0.002165  -0.005834   0.001033  -0.006710  -0.038395
   65  H  3  Y    0.003748  -0.010103   0.007916  -0.001036   0.022165
   66  H  3  Z   -0.000000   0.000000  -0.000000   0.000000   0.000000
   67  H  3  X   -0.255262  -0.096094   0.081491   0.130262   0.578931
   68  H  3  Y   -0.442137  -0.166464  -0.036270  -0.081423  -0.334212
   69  H  3  Z    0.000003   0.000001  -0.000001  -0.000002  -0.000007
   70  H  3 XX    0.006668   0.008137  -0.002006  -0.008924   0.017977
   71  H  3 YY   -0.026551  -0.014452   0.013154   0.002494  -0.017979
   72  H  3 ZZ    0.019883   0.006315  -0.011149   0.006430   0.000002
   73  H  3 XY   -0.033214  -0.022584   0.003535  -0.008761   0.011987
   74  H  3 XZ    0.000000  -0.000000  -0.000000   0.000000  -0.000000
   75  H  3 YZ    0.000000   0.000000  -0.000000   0.000000  -0.000000
[...]
      429   -0.023584   -0.023584  022+020
      789   -0.023584   -0.023584  022+002
      184   -0.022308   -0.022308  -+2+-+0
      159    0.022307   -0.022307  -2++-0+
     1051    0.021012    0.021012  2+++0--

 State #    2  Energy =    -342.180978092

      Det      Coef        Coefp    Occupancy (Ignoring core)
      ---      ----        ----    --------- --------- -----
       36    0.948349    0.948349  22+2000
       16    0.118286   -0.118286  222000+
       71    0.113965   -0.113965  2+22000
      142   -0.113108   -0.113108  22+0200
       73   -0.084137    0.084137  2+-2+00
       39    0.084133    0.084133  2-+2+00
       52   -0.076309    0.076309  220200+
      108    0.057701    0.057701  +2-2+00
      249   -0.057059    0.057059  20+2200
      112    0.054434    0.054434  +2-20+0
      123   -0.054433    0.054433  +-2200+
      463   -0.052316    0.052316  20+2020
       88   -0.045109    0.045109  202200+
      456    0.043641    0.043641  2++20-0
       77   -0.037421    0.037421  2+-20+0
      460    0.035539    0.035539  -++2+-0
       40   -0.031311    0.031311  -2+2+00
      876    0.030401    0.030401  ++2200-
      491   -0.030395    0.030395  +2+20-0
      288    0.028565    0.028565  +-+2-+0
       74    0.027898   -0.027898  2022+00
       38   -0.027898    0.027898  2202+00
      499   -0.027746    0.027746  02+2020
      859   -0.027724    0.027724  02+2002
      494   -0.027470    0.027470  +-+2+-0
      285   -0.027096    0.027096  02+2200
      823   -0.026731    0.026731  20+2002
      281   -0.026390    0.026390  +2+2-00
      254   -0.024904    0.024904  -++2-+0
       44   -0.024038    0.024038  -2+20+0
       89    0.024032    0.024032  -+2200+
      297   -0.023430    0.023430  +202-0+
      459    0.023406   -0.023406  20+2+-0
      808   -0.023406    0.023406  2+02+0-
      253   -0.022840   -0.022840  20+2-+0
      262    0.022840    0.022840  2+02-0+

 State #    3  Energy =    -342.180984593

      Det      Coef        Coefp    Occupancy (Ignoring core)
      ---      ----        ----    --------- --------- -----
       71    0.948348   -0.948348  2+22000
        6   -0.118293    0.118293  22200+0
       36   -0.113965   -0.113965  22+2000
      177   -0.113109    0.113109  2+20200
       74   -0.084140    0.084140  2022+00
       38    0.084134   -0.084134  2202+00
       78    0.076313   -0.076313  20220+0
      109    0.057700   -0.057700  +-22+00
      248   -0.057059    0.057059  2+02200
      113   -0.054433    0.054433  +-220+0
      122   -0.054432   -0.054432  +2-200+
      822   -0.052313    0.052313  2+02002
       42    0.045108   -0.045108  22020+0
      806    0.043640    0.043640  2++200-
       53   -0.037419   -0.037419  2-+200+
      810    0.035539    0.035539  -++2+0-
       75   -0.031310   -0.031310  -+22+00
      526    0.030407    0.030407  ++220-0
      841    0.030400   -0.030400  +2+200-
      332    0.028564   -0.028564  ++-2-0+
       73   -0.027898    0.027898  2+-2+00
       39    0.027898    0.027898  2-+2+00
      894   -0.027746   -0.027746  0+22002
      534   -0.027724   -0.027724  0+22020
      878   -0.027470   -0.027470  ++-2+0-
      320   -0.027096   -0.027096  0+22200
      462   -0.026731    0.026731  2+02020
      316   -0.026389   -0.026389  ++22-00
      264   -0.024903    0.024903  -++2-0+
       54    0.024032   -0.024032  -2+200+
       79    0.024027    0.024027  -+220+0
      323    0.023430   -0.023430  +022-+0
      458   -0.023406    0.023406  2+02+-0
      809   -0.023405    0.023405  20+2+0-
      252    0.022840    0.022840  2+02-+0
      263    0.022840    0.022840  20+2-0+

 ---------------------------------------
      - DIABATIC STATES IN CMO -        
 ---------------------------------------

 State #    1  Energy =    -342.419373229

      Det      Coef        Coefp    Occupancy (Ignoring core)
      ---      ----        ----    --------- --------- -----
        1    0.977738   -0.977738  222+000
      107   -0.076235    0.076235  +22-+00
      393   -0.055668   -0.055668  202+020
      717   -0.055664   -0.055664  220+002
      143   -0.052531   -0.052531  220+200
      179   -0.052528   -0.052528  202+200
        5    0.049938    0.049938  -22++00
        8    0.037237   -0.037237  2-2+0+0
       17    0.037234    0.037234  22-+00+
       76   -0.031454   -0.031454  2+2-0+0
       51   -0.031452    0.031452  22+-00+
      215   -0.030864   -0.030864  022+200
      389   -0.030124   -0.030124  202++-0
      738   -0.030124   -0.030124  2+-++0-
      353    0.030123    0.030123  220++-0
      704    0.030122   -0.030122  2-+++0-
      218   -0.028161    0.028161  +-2+-+0
      227   -0.028161   -0.028161  +2-+-0+
      183    0.027459   -0.027459  202+-+0
      158   -0.027458   -0.027458  2-++-0+
      147   -0.027458    0.027458  220+-+0
      192    0.027457   -0.027457  2+-+-0+
      368    0.026479    0.026479  2-++0-+
      742    0.026479    0.026479  2+-+0+-
      211    0.026297    0.026297  +22+-00
      753   -0.026074   -0.026074  202+002
      357   -0.026073   -0.026073  220+020
       29   -0.025723   -0.025723  2--+0++
      390   -0.024267    0.024267  -+2++-0
      705   -0.024266   -0.024266  -2+++0-
      424    0.023911    0.023911  +-2++-0
      773    0.023910   -0.023910  +2-++0-
      429   -0.023584   -0.023584  022+020
      789   -0.023584   -0.023584  022+002
      184    0.022427    0.022427  -+2+-+0
      159    0.022426   -0.022426  -2++-0+
     1051   -0.021012   -0.021012  2+++0--

 State #    2  Energy =    -342.180978092

      Det      Coef        Coefp    Occupancy (Ignoring core)
      ---      ----        ----    --------- --------- -----
       36    0.954836    0.954836  22+2000
       16    0.118260   -0.118260  222000+
      142   -0.113882   -0.113882  22+0200
       73   -0.088607    0.088607  2+-2+00
       39    0.088606    0.088606  2-+2+00
       52   -0.076685    0.076685  220200+
      108    0.058098    0.058098  +2-2+00
      249   -0.057448    0.057448  20+2200
      123   -0.055722    0.055722  +-2200+
      112   -0.055721   -0.055721  +2-20+0
      463   -0.052630    0.052630  20+2020
       88   -0.044706    0.044706  202200+
      456   -0.043632   -0.043632  2++20-0
       77    0.037803   -0.037803  2+-20+0
      460   -0.035531   -0.035531  -++2+-0
       40   -0.031521    0.031521  -2+2+00
      876    0.031121    0.031121  ++2200-
      491    0.031121   -0.031121  +2+20-0
      288   -0.028915   -0.028915  +-+2-+0
      499   -0.027936    0.027936  02+2020
      859   -0.027913    0.027913  02+2002
      494    0.027756   -0.027756  +-+2+-0
      285   -0.027281    0.027281  02+2200
      823   -0.026958    0.026958  20+2002
      281   -0.026577    0.026577  +2+2-00
       71   -0.025342    0.025342  2+22000
      254    0.024898   -0.024898  -++2-+0
       89    0.024601    0.024601  -+2200+
       44    0.024600   -0.024600  -2+20+0
      459   -0.023961    0.023961  20+2+-0
      808   -0.023960    0.023960  2+02+0-
      297   -0.023783    0.023783  +202-0+
      253    0.023382    0.023382  20+2-+0
      262    0.023380    0.023380  2+02-0+
      843    0.020180    0.020180  +202+0-

 State #    3  Energy =    -342.180984593

      Det      Coef        Coefp    Occupancy (Ignoring core)
      ---      ----        ----    --------- --------- -----
       71    0.954835   -0.954835  2+22000
        6    0.118267   -0.118267  22200+0
      177   -0.113882    0.113882  2+20200
       74   -0.088606    0.088606  2022+00
       38    0.088605   -0.088605  2202+00
       78   -0.076691    0.076691  20220+0
      109    0.058092   -0.058092  +-22+00
      248   -0.057451    0.057451  2+02200
      113    0.055722   -0.055722  +-220+0
      122   -0.055720   -0.055720  +2-200+
      822   -0.052627    0.052627  2+02002
       42   -0.044704    0.044704  22020+0
      806    0.043630    0.043630  2++200-
       53   -0.037803   -0.037803  2-+200+
      810    0.035531    0.035531  -++2+0-
       75   -0.031518   -0.031518  -+22+00
      526   -0.031121   -0.031121  ++220-0
      841    0.031119   -0.031119  +2+200-
      332    0.028915   -0.028915  ++-2-0+
      894   -0.027935   -0.027935  0+22002
      534   -0.027914   -0.027914  0+22020
      878   -0.027756   -0.027756  ++-2+0-
      320   -0.027281   -0.027281  0+22200
      462   -0.026957    0.026957  2+02020
      316   -0.026574   -0.026574  ++22-00
       36    0.025342    0.025342  22+2000
      264   -0.024898    0.024898  -++2-0+
       79   -0.024601   -0.024601  -+220+0
       54    0.024601   -0.024601  -2+200+
      458    0.023959   -0.023959  2+02+-0
      809   -0.023959    0.023959  20+2+0-
      323   -0.023783    0.023783  +022-+0
      263    0.023381    0.023381  20+2-0+
      252   -0.023380   -0.023380  2+02-+0
      529    0.020180    0.020180  +022+-0

 ---------------------------------------
    -DIABATIC STATES IN PROTOTYPES-     
 ---------------------------------------

     STATE:    1
 Group Ref#    Coefficients
     1    1    0.999014
     2    2    0.000000
     3    3    0.000000

WEIGHT OF LISTED PROTOTYPES:   99.80%

     STATE:    2
 Group Ref#    Coefficients
     1    1    0.000000
     2    2    0.997532
     3    3   -0.000000

WEIGHT OF LISTED PROTOTYPES:   99.51%

     STATE:    3
 Group Ref#    Coefficients
     1    1    0.000000
     2    2   -0.000000
     3    3    0.997532

WEIGHT OF LISTED PROTOTYPES:   99.51%

     DIRECT MAX. DIABATIZATION FINISHED    
 CPU     0: STEP CPU TIME=     0.29 TOTAL CPU TIME=         23.9 (      0.4 MIN)
 TOTAL WALL CLOCK TIME=         26.1 SECONDS, CPU UTILIZATION IS    91.90%

DIABATS FOR SPIN-ORBIT CALCULATION ARE READY

TRANSITION DIPOLES BETWEEN ADIABATS (in A.U.):

STATE PAIR      X         Y         Z
    1    1  0.000080 -0.000000  0.000000
    2    1 -0.000000  0.000000 -0.000005
    2    2 -0.422689  0.000819  0.000005
    3    1 -0.000000 -0.000000  0.000000
    3    2 -0.000819 -0.422739  0.000000
    3    3  0.422815 -0.000819 -0.000005


TRANSITION DIPOLES BETWEEN DIABATS (in A.U.):

STATE PAIR      X         Y         Z
    1    1  0.000080 -0.000000  0.000000
    2    1 -0.000000 -0.000004  0.000000
    2    2  0.422200 -0.022810 -0.000005
    3    1  0.000004 -0.000000 -0.000005
    3    2  0.022811  0.422124 -0.000000
    3    3 -0.422074  0.022810  0.000005

TRANSITION DIPOLES BETWEEN DIRECT MAX. DIABATS (in A.U.):

STATE PAIR      X         Y         Z
    1    1  0.000080 -0.000000  0.000000
    2    1 -0.000000 -0.000004  0.000000
    2    2  0.422200 -0.022810 -0.000005
    3    1  0.000004 -0.000000 -0.000005
    3    2  0.022811  0.422124 -0.000000
    3    3 -0.422074  0.022810  0.000005
 No $TRANST Group Found.
 Quit without doing spin-orbit coupling
 ..... DONE WITH MP2 ENERGY .....
 CPU     0: STEP CPU TIME=     0.00 TOTAL CPU TIME=         23.9 (      0.4 MIN)
 TOTAL WALL CLOCK TIME=         26.1 SECONDS, CPU UTILIZATION IS    91.90%
            100000000  WORDS OF DYNAMIC MEMORY USED
 EXECUTION OF GAMESS TERMINATED NORMALLY Sat Nov 25 23:42:57 2023
 DDI: 4351152 bytes (4.1 MB / 0 MWords) used by master data server.

 ----------------------------------------
 CPU timing information for all processes
 ========================================
 0: 23.818 + 0.143 = 23.961
 1: 23.456 + 0.96 = 23.553
 ----------------------------------------
Note: The following floating-point exceptions are signalling: IEEE_DENORMAL
Note: The following floating-point exceptions are signalling: IEEE_DENORMAL
 ddikick.x: exited gracefully.
unset echo
----- accounting info -----
Files used on the master node io002 were:
-rw-r--r-- 1 bjb2chen nooijen  134347 Nov 25 23:42 /home/bjb2chen/gmsscr//ph3_cct_gmcpt_D3h_3st_diab_mode3_-0.05x2.F05
-rw-r--r-- 1 bjb2chen nooijen 2006104 Nov 25 23:43 /home/bjb2chen/gmsscr//ph3_cct_gmcpt_D3h_3st_diab_mode3_-0.05x2.F09
-rw-r--r-- 1 bjb2chen nooijen 2520224 Nov 25 23:43 /home/bjb2chen/gmsscr//ph3_cct_gmcpt_D3h_3st_diab_mode3_-0.05x2.F09.001
-rw-r--r-- 1 bjb2chen nooijen 2715760 Nov 25 23:42 /home/bjb2chen/gmsscr//ph3_cct_gmcpt_D3h_3st_diab_mode3_-0.05x2.F10
-rw-r--r-- 1 bjb2chen nooijen 1037784 Nov 25 23:42 /home/bjb2chen/gmsscr//ph3_cct_gmcpt_D3h_3st_diab_mode3_-0.05x2.F13
-rw-r--r-- 1 bjb2chen nooijen 1037784 Nov 25 23:43 /home/bjb2chen/gmsscr//ph3_cct_gmcpt_D3h_3st_diab_mode3_-0.05x2.F13.001
-rw-r--r-- 1 bjb2chen nooijen  180648 Nov 25 23:43 /home/bjb2chen/gmsscr//ph3_cct_gmcpt_D3h_3st_diab_mode3_-0.05x2.F15
-rw-r--r-- 1 bjb2chen nooijen       0 Nov 25 23:42 /home/bjb2chen/gmsscr//ph3_cct_gmcpt_D3h_3st_diab_mode3_-0.05x2.F16
-rw-r--r-- 1 bjb2chen nooijen    9808 Nov 25 23:42 /home/bjb2chen/gmsscr//ph3_cct_gmcpt_D3h_3st_diab_mode3_-0.05x2.F70
-rw-r--r-- 1 bjb2chen nooijen    9808 Nov 25 23:42 /home/bjb2chen/gmsscr//ph3_cct_gmcpt_D3h_3st_diab_mode3_-0.05x2.F70.001
-rw-r--r-- 1 bjb2chen nooijen    9808 Nov 25 23:42 /home/bjb2chen/gmsscr//ph3_cct_gmcpt_D3h_3st_diab_mode3_-0.05x2.F71
-rw-r--r-- 1 bjb2chen nooijen    9808 Nov 25 23:42 /home/bjb2chen/gmsscr//ph3_cct_gmcpt_D3h_3st_diab_mode3_-0.05x2.F71.001
-rw-r--r-- 1 bjb2chen nooijen   19608 Nov 25 23:42 /home/bjb2chen/gmsscr//ph3_cct_gmcpt_D3h_3st_diab_mode3_-0.05x2.F72
-rw-r--r-- 1 bjb2chen nooijen   19608 Nov 25 23:42 /home/bjb2chen/gmsscr//ph3_cct_gmcpt_D3h_3st_diab_mode3_-0.05x2.F72.001
-rw-r--r-- 1 bjb2chen nooijen   19608 Nov 25 23:42 /home/bjb2chen/gmsscr//ph3_cct_gmcpt_D3h_3st_diab_mode3_-0.05x2.F73
-rw-r--r-- 1 bjb2chen nooijen   19608 Nov 25 23:42 /home/bjb2chen/gmsscr//ph3_cct_gmcpt_D3h_3st_diab_mode3_-0.05x2.F73.001
-rw-r--r-- 1 bjb2chen nooijen  961208 Nov 25 23:43 /home/bjb2chen/gmsscr//ph3_cct_gmcpt_D3h_3st_diab_mode3_-0.05x2.F74
-rw-r--r-- 1 bjb2chen nooijen  959640 Nov 25 23:43 /home/bjb2chen/gmsscr//ph3_cct_gmcpt_D3h_3st_diab_mode3_-0.05x2.F74.001
-rw-r--r-- 1 bjb2chen nooijen       0 Nov 25 23:42 /home/bjb2chen/gmsscr//ph3_cct_gmcpt_D3h_3st_diab_mode3_-0.05x2.F75
-rw-r--r-- 1 bjb2chen nooijen       0 Nov 25 23:42 /home/bjb2chen/gmsscr//ph3_cct_gmcpt_D3h_3st_diab_mode3_-0.05x2.F75.001
-rw-r--r-- 1 bjb2chen nooijen   58848 Nov 25 23:42 /home/bjb2chen/gmsscr//ph3_cct_gmcpt_D3h_3st_diab_mode3_-0.05x2.F76
-rw-r--r-- 1 bjb2chen nooijen   58848 Nov 25 23:43 /home/bjb2chen/gmsscr//ph3_cct_gmcpt_D3h_3st_diab_mode3_-0.05x2.F76.001
-rw-r--r-- 1 bjb2chen nooijen       0 Nov 25 23:42 /home/bjb2chen/gmsscr//ph3_cct_gmcpt_D3h_3st_diab_mode3_-0.05x2.F77
-rw-r--r-- 1 bjb2chen nooijen       0 Nov 25 23:42 /home/bjb2chen/gmsscr//ph3_cct_gmcpt_D3h_3st_diab_mode3_-0.05x2.F77.001
-rw-r--r-- 1 bjb2chen nooijen    5128 Nov 25 23:42 /home/bjb2chen/gmsscr//ph3_cct_gmcpt_D3h_3st_diab_mode3_-0.05x2.F78
-rw-r--r-- 1 bjb2chen nooijen    5128 Nov 25 23:42 /home/bjb2chen/gmsscr//ph3_cct_gmcpt_D3h_3st_diab_mode3_-0.05x2.F78.001
-rw-r--r-- 1 bjb2chen nooijen   39208 Nov 25 23:43 /home/bjb2chen/gmsscr//ph3_cct_gmcpt_D3h_3st_diab_mode3_-0.05x2.F79
-rw-r--r-- 1 bjb2chen nooijen   39208 Nov 25 23:43 /home/bjb2chen/gmsscr//ph3_cct_gmcpt_D3h_3st_diab_mode3_-0.05x2.F79.001
-rw-r--r-- 1 bjb2chen nooijen     104 Nov 25 23:42 /home/bjb2chen/gmsscr//ph3_cct_gmcpt_D3h_3st_diab_mode3_-0.05x2.F80
-rw-r--r-- 1 bjb2chen nooijen     104 Nov 25 23:42 /home/bjb2chen/gmsscr//ph3_cct_gmcpt_D3h_3st_diab_mode3_-0.05x2.F80.001
-rw-r--r-- 1 bjb2chen nooijen  102416 Nov 25 23:43 /home/bjb2chen/gmsscr//ph3_cct_gmcpt_D3h_3st_diab_mode3_-0.05x2.F81
-rw-r--r-- 1 bjb2chen nooijen  102416 Nov 25 23:43 /home/bjb2chen/gmsscr//ph3_cct_gmcpt_D3h_3st_diab_mode3_-0.05x2.F81.001
-rw-r--r-- 1 bjb2chen nooijen     136 Nov 25 23:42 /home/bjb2chen/gmsscr//ph3_cct_gmcpt_D3h_3st_diab_mode3_-0.05x2.F82
-rw-r--r-- 1 bjb2chen nooijen     136 Nov 25 23:42 /home/bjb2chen/gmsscr//ph3_cct_gmcpt_D3h_3st_diab_mode3_-0.05x2.F82.001
-rw-r--r-- 1 bjb2chen nooijen   19216 Nov 25 23:43 /home/bjb2chen/gmsscr//ph3_cct_gmcpt_D3h_3st_diab_mode3_-0.05x2.F83
-rw-r--r-- 1 bjb2chen nooijen   19216 Nov 25 23:43 /home/bjb2chen/gmsscr//ph3_cct_gmcpt_D3h_3st_diab_mode3_-0.05x2.F83.001
-rw-r--r-- 1 bjb2chen nooijen  154896 Nov 25 23:42 /home/bjb2chen/gmsscr//ph3_cct_gmcpt_D3h_3st_diab_mode3_-0.05x2.F84
-rw-r--r-- 1 bjb2chen nooijen  154896 Nov 25 23:42 /home/bjb2chen/gmsscr//ph3_cct_gmcpt_D3h_3st_diab_mode3_-0.05x2.F84.001
-rw-r--r-- 1 bjb2chen nooijen 1438920 Nov 25 23:43 /home/bjb2chen/gmsscr//ph3_cct_gmcpt_D3h_3st_diab_mode3_-0.05x2.F85
-rw-r--r-- 1 bjb2chen nooijen 1438920 Nov 25 23:42 /home/bjb2chen/gmsscr//ph3_cct_gmcpt_D3h_3st_diab_mode3_-0.05x2.F85.001
-rw-r--r-- 1 bjb2chen nooijen 6490616 Nov 25 23:42 /home/bjb2chen/gmsscr//ph3_cct_gmcpt_D3h_3st_diab_mode3_-0.05x2.F86
-rw-r--r-- 1 bjb2chen nooijen 6124952 Nov 25 23:42 /home/bjb2chen/gmsscr//ph3_cct_gmcpt_D3h_3st_diab_mode3_-0.05x2.F86.001
-rw-r--r-- 1 bjb2chen nooijen     656 Nov 25 23:43 /home/bjb2chen/gmsscr//ph3_cct_gmcpt_D3h_3st_diab_mode3_-0.05x2.F87
-rw-r--r-- 1 bjb2chen nooijen     656 Nov 25 23:43 /home/bjb2chen/gmsscr//ph3_cct_gmcpt_D3h_3st_diab_mode3_-0.05x2.F87.001
-rw-r--r-- 1 bjb2chen nooijen   16336 Nov 25 23:42 /home/bjb2chen/gmsscr//ph3_cct_gmcpt_D3h_3st_diab_mode3_-0.05x2.F88
-rw-r--r-- 1 bjb2chen nooijen   16336 Nov 25 23:42 /home/bjb2chen/gmsscr//ph3_cct_gmcpt_D3h_3st_diab_mode3_-0.05x2.F88.001
-rw-r--r-- 1 bjb2chen nooijen     648 Nov 25 23:43 /home/bjb2chen/gmsscr//ph3_cct_gmcpt_D3h_3st_diab_mode3_-0.05x2.F89
-rw-r--r-- 1 bjb2chen nooijen     648 Nov 25 23:43 /home/bjb2chen/gmsscr//ph3_cct_gmcpt_D3h_3st_diab_mode3_-0.05x2.F89.001
-rw-r--r-- 1 bjb2chen nooijen       0 Nov 25 23:42 /home/bjb2chen/gmsscr//ph3_cct_gmcpt_D3h_3st_diab_mode3_-0.05x2.F90
-rw-r--r-- 1 bjb2chen nooijen       0 Nov 25 23:42 /home/bjb2chen/gmsscr//ph3_cct_gmcpt_D3h_3st_diab_mode3_-0.05x2.F90.001
-rw-r--r-- 1 bjb2chen nooijen   13760 Nov 25 23:42 /home/bjb2chen/gmsscr//ph3_cct_gmcpt_D3h_3st_diab_mode3_-0.05x2.F91
-rw-r--r-- 1 bjb2chen nooijen   13760 Nov 25 23:43 /home/bjb2chen/gmsscr//ph3_cct_gmcpt_D3h_3st_diab_mode3_-0.05x2.F91.001
-rw-r--r-- 1 bjb2chen nooijen   22776 Nov 25 23:42 /home/bjb2chen/gmsscr//ph3_cct_gmcpt_D3h_3st_diab_mode3_-0.05x2.F92
-rw-r--r-- 1 bjb2chen nooijen   22776 Nov 25 23:42 /home/bjb2chen/gmsscr//ph3_cct_gmcpt_D3h_3st_diab_mode3_-0.05x2.F92.001
-rw-r--r-- 1 bjb2chen nooijen   23168 Nov 25 23:42 /home/bjb2chen/gmsscr//ph3_cct_gmcpt_D3h_3st_diab_mode3_-0.05x2.F93
-rw-r--r-- 1 bjb2chen nooijen   23168 Nov 25 23:42 /home/bjb2chen/gmsscr//ph3_cct_gmcpt_D3h_3st_diab_mode3_-0.05x2.F93.001
-rw-r--r-- 1 bjb2chen nooijen   22776 Nov 25 23:43 /home/bjb2chen/gmsscr//ph3_cct_gmcpt_D3h_3st_diab_mode3_-0.05x2.F94
-rw-r--r-- 1 bjb2chen nooijen   22776 Nov 25 23:42 /home/bjb2chen/gmsscr//ph3_cct_gmcpt_D3h_3st_diab_mode3_-0.05x2.F94.001
-rw-r--r-- 1 bjb2chen nooijen   13760 Nov 25 23:43 /home/bjb2chen/gmsscr//ph3_cct_gmcpt_D3h_3st_diab_mode3_-0.05x2.F95
-rw-r--r-- 1 bjb2chen nooijen   13760 Nov 25 23:42 /home/bjb2chen/gmsscr//ph3_cct_gmcpt_D3h_3st_diab_mode3_-0.05x2.F95.001
-rw-r--r-- 1 bjb2chen nooijen   29440 Nov 25 23:43 /home/bjb2chen/gmsscr//ph3_cct_gmcpt_D3h_3st_diab_mode3_-0.05x2.F96
-rw-r--r-- 1 bjb2chen nooijen   29440 Nov 25 23:43 /home/bjb2chen/gmsscr//ph3_cct_gmcpt_D3h_3st_diab_mode3_-0.05x2.F96.001
-rw-r--r-- 1 bjb2chen nooijen    1184 Nov 25 23:42 /home/bjb2chen/gmsscr//ph3_cct_gmcpt_D3h_3st_diab_mode3_-0.05x2.F97
-rw-r--r-- 1 bjb2chen nooijen    1184 Nov 25 23:42 /home/bjb2chen/gmsscr//ph3_cct_gmcpt_D3h_3st_diab_mode3_-0.05x2.F97.001
-rw-r--r-- 1 bjb2chen nooijen    9808 Nov 25 23:42 /home/bjb2chen/gmsscr//ph3_cct_gmcpt_D3h_3st_diab_mode3_-0.05x2.F98
-rw-r--r-- 1 bjb2chen nooijen    9808 Nov 25 23:42 /home/bjb2chen/gmsscr//ph3_cct_gmcpt_D3h_3st_diab_mode3_-0.05x2.F98.001
-rw-r--r-- 1 bjb2chen nooijen   30264 Nov 25 23:43 /home/bjb2chen/gmsscr//ph3_cct_gmcpt_D3h_3st_diab_mode3_-0.05x2.F99
-rw-r--r-- 1 bjb2chen nooijen   30264 Nov 25 23:42 /home/bjb2chen/gmsscr//ph3_cct_gmcpt_D3h_3st_diab_mode3_-0.05x2.F99.001
ls: No match.
ls: No match.
ls: No match.
Sat 25 Nov 2023 11:43:01 PM EST
0.301u 0.055s 0:29.60 1.1%	0+0k 264+472io 0pf+0w
