----- GAMESS execution script 'rungms' -----
This job is running on host io001
under operating system Linux at Sat 25 Nov 2023 11:42:31 PM EST
Available scratch disk space (Kbyte units) at beginning of the job is
Filesystem             1K-blocks       Used Available Use% Mounted on
helmholtz.nlogn:/home 6391504896 5219977216 849388544  87% /home
GAMESS temporary binary files will be written to /home/bjb2chen/gmsscr/
GAMESS supplementary output files will be written to /home/bjb2chen/gamess/vibronics/Toby_automate/ph3/python
Copying input file ph3_cct_gmcpt_D3h_3st_diab_mode3_+0.05.inp to your run's scratch directory...
cp ph3_cct_gmcpt_D3h_3st_diab_mode3_+0.05.inp /home/bjb2chen/gmsscr//ph3_cct_gmcpt_D3h_3st_diab_mode3_+0.05.F05
unset echo
 
Assuming a single but multicore node.
 
/home/bjb2chen/gamess/ddikick.x /home/bjb2chen/gamess/gamess.00.x ph3_cct_gmcpt_D3h_3st_diab_mode3_+0.05 -ddi 1 2 io001:cpus=2 -scr /home/bjb2chen/gmsscr/

 Distributed Data Interface kickoff program.
 Initiating 2 compute processes on 1 nodes to run the following command:
 /home/bjb2chen/gamess/gamess.00.x ph3_cct_gmcpt_D3h_3st_diab_mode3_+0.05 

          ******************************************************
          *         GAMESS VERSION = 02 AUG 2018 (R2)         *
          *             FROM IOWA STATE UNIVERSITY             *
          * M.W.SCHMIDT, K.K.BALDRIDGE, J.A.BOATZ, S.T.ELBERT, *
          *   M.S.GORDON, J.H.JENSEN, S.KOSEKI, N.MATSUNAGA,   *
          *          K.A.NGUYEN, S.J.SU, T.L.WINDUS,           *
          *       TOGETHER WITH M.DUPUIS, J.A.MONTGOMERY       *
          *         J.COMPUT.CHEM.  14, 1347-1363(1993)        *
          **************** 64 BIT LINUX VERSION ****************

  SINCE 1993, STUDENTS AND POSTDOCS WORKING AT IOWA STATE UNIVERSITY
  AND ALSO IN THEIR VARIOUS JOBS AFTER LEAVING ISU HAVE MADE IMPORTANT
  CONTRIBUTIONS TO THE CODE:
     IVANA ADAMOVIC, CHRISTINE AIKENS, YURI ALEXEEV, POOJA ARORA,
     ANDREY ASADCHEV, ROB BELL, PRADIPTA BANDYOPADHYAY, JONATHAN BENTZ,
     BRETT BODE, KURT BRORSEN, CALEB CARLIN, GALINA CHABAN, WEI CHEN,
     CHEOL HO CHOI, PAUL DAY, ALBERT DEFUSCO, NUWAN DESILVA, TIM DUDLEY,
     DMITRI FEDOROV, ALEX FINDLATER, GRAHAM FLETCHER, MARK FREITAG,
     KURT GLAESEMANN, ANASTASIA GUININA,
     DAN KEMP, GRANT MERRILL, NORIYUKI MINEZAWA, JONATHAN MULLIN,
     TAKESHI NAGATA, SEAN NEDD, HEATHER NETZLOFF, BOSILJKA NJEGIC, RYAN OLSON,
     MIKE PAK, BUU PHAM,
     SPENCER PRUITT, LUKE ROSKOP, JIM SHOEMAKER, LYUDMILA SLIPCHENKO,
     TONY SMITH, SAROM SOK LEANG, JIE SONG, TETSUYA TAKETSUGU, SIMON WEBB,
     PENG XU, SOOHAENG YOO, FEDERICO ZAHARIEV

  ADDITIONAL CODE HAS BEEN PROVIDED BY COLLABORATORS IN OTHER GROUPS:
     IOWA STATE UNIVERSITY:
          JOE IVANIC, AARON WEST, LAIMUTIS BYTAUTAS, KLAUS RUEDENBERG
     UNIVERSITY OF TOKYO: KIMIHIKO HIRAO, TAKAHITO NAKAJIMA,
          TAKAO TSUNEDA, MUNEAKI KAMIYA, SUSUMU YANAGISAWA,
          KIYOSHI YAGI, MAHITO CHIBA, SEIKEN TOKURA, NAOAKI KAWAKAMI
     UNIVERSITY OF AARHUS: FRANK JENSEN
     UNIVERSITY OF IOWA: VISVALDAS KAIRYS, HUI LI
     NATIONAL INST. OF STANDARDS AND TECHNOLOGY: WALT STEVENS, DAVID GARMER
     UNIVERSITY OF PISA: BENEDETTA MENNUCCI, JACOPO TOMASI
     UNIVERSITY OF MEMPHIS: HENRY KURTZ, PRAKASHAN KORAMBATH
     UNIVERSITY OF ALBERTA: TOBY ZENG, MARIUSZ KLOBUKOWSKI
     UNIVERSITY OF NEW ENGLAND: MARK SPACKMAN
     MIE UNIVERSITY: HIROAKI UMEDA
     NAT. INST. OF ADVANCED INDUSTRIAL SCIENCE AND TECHNOLOGY: KAZUO KITAURA
     MICHIGAN STATE UNIVERSITY:
          KAROL KOWALSKI, MARTA WLOCH, JEFFREY GOUR, JESSE LUTZ,
          WEI LI, JUN SHEN, J. EMILIANO DEUSTUA, PIOTR PIECUCH
     UNIVERSITY OF MINNESOTA:
          YINAN SHU
     UNIVERSITY OF SILESIA: MONIKA MUSIAL, STANISLAW KUCHARSKI
     FACULTES UNIVERSITAIRES NOTRE-DAME DE LA PAIX:
          OLIVIER QUINET, BENOIT CHAMPAGNE
     UNIVERSITY OF CALIFORNIA - SANTA BARBARA: BERNARD KIRTMAN
     INSTITUTE FOR MOLECULAR SCIENCE:
          KAZUYA ISHIMURA, MICHIO KATOUDA, AND SHIGERU NAGASE
     UNIVERSITY OF NOTRE DAME: ANNA POMOGAEVA, DAN CHIPMAN
     KYUSHU UNIVERSITY:
          HARUYUKI NAKANO,
          FENG LONG GU, JACEK KORCHOWIEC, MARCIN MAKOWSKI, AND YURIKO AOKI,
          HIROTOSHI MORI AND EISAKU MIYOSHI
     PENNSYLVANIA STATE UNIVERSITY:
          TZVETELIN IORDANOV, CHET SWALINA, JONATHAN SKONE,
          SHARON HAMMES-SCHIFFER
     WASEDA UNIVERSITY:
          MASATO KOBAYASHI, TOMOKO AKAMA, TSUGUKI TOUMA,
          TAKESHI YOSHIKAWA, YASUHIRO IKABATA, JUNJI SEINO,
          YUYA NAKAJIMA, HIROMI NAKAI
     NANJING UNIVERSITY: SHUHUA LI
     UNIVERSITY OF NEBRASKA:
          PEIFENG SU, DEJUN SI, NANDUN THELLAMUREGE, YALI WANG, HUI LI
     UNIVERSITY OF ZURICH: ROBERTO PEVERATI, KIM BALDRIDGE
     N. COPERNICUS UNIVERSITY AND JACKSON STATE UNIVERSITY:
          MARIA BARYSZ
     UNIVERSITY OF COPENHAGEN: Jimmy Kromann, CASPER STEINMANN
     TOKYO INSTITUTE OF TECHNOLOGY: HIROYA NAKATA
     NAGOYA UNIVERSITY: YOSHIO NISHIMOTO, STEPHAN IRLE
     MOSCOW STATE UNIVERSITY: VLADIMIR MIRONOV


 PARALLEL VERSION RUNNING ON        2 PROCESSORS IN        1 NODES.

 EXECUTION OF GAMESS BEGUN Sat Nov 25 23:42:31 2023

            ECHO OF THE FIRST FEW INPUT CARDS -
 INPUT CARD> !Step 2: single point gmcpt calculation averaging 3 states                     
 INPUT CARD> !        for PH3+ at PH3 structure.                                            
 INPUT CARD> $system kdiag=3 mwords=100 memddi=1000 parall=.t. $end                         
 INPUT CARD> $contrl runtyp=energy ispher=1 $end                                            
 INPUT CARD> $contrl icut=9 itol=20 inttyp=rysquad qmttol=1.0d-05 nosym=1 $end              
 INPUT CARD> $scf    npunch=2 conv=1.0d-06 dirscf=.t.      $end                             
 INPUT CARD> $contrl scftyp=mcscf  mult=2 maxit=200 icharg=1 mplevl=2 $end                  
 INPUT CARD> $guess  guess=moread norb=81 purify=.t. $end                                   
 INPUT CARD> $basis  gbasis=cct $end                                                        
 INPUT CARD> $mcscf  cistep=gmcci fullnr=.t. finci=mos                                      
 INPUT CARD>         acurcy=1.d-6 maxit=100 $end                                            
 INPUT CARD> $trans  dirtrf=.t. $end                                                        
 INPUT CARD> $mrmp   mrpt=gmcpt rdvecs=.f. $end                                             
 INPUT CARD> $gmcpt  nmofzc=1 nmodoc=4 nmoact=7 nelact=7 stsym(1)=A                         
 INPUT CARD>         reftyp=ormas nspace=1 mstart(1)=6 mine(1)=7 maxe(1)=7                  
 INPUT CARD>         kstate(1)=1,1,1                                                        
 INPUT CARD>         wstate(1)=1,1,1                                                        
 INPUT CARD>         iwgt=0 thrwgt=-1.0 krot=.f. kszdoe=.f. knospn=.f.                      
 INPUT CARD>         thrde=-1.0 edshft=0.02 $end                                            
 INPUT CARD> --- Semi-canonical MOs --- generated at Wed Oct 25 14:28:45 2023               
 INPUT CARD> $VEC                                                                           
 INPUT CARD> 1  1 1.00014026E+00 2.12288233E-04 2.35259310E-04-9.69987525E-04-1.56061240E-04
 INPUT CARD> 1  2 2.24704850E-11 1.08104557E-11 0.00000000E+00 5.27654619E-11 2.51315613E-11
 INPUT CARD> 1  3 0.00000000E+00 0.00000000E+00 0.00000000E+00 0.00000000E+00 4.84975230E-11
 INPUT CARD> 1  4 0.00000000E+00 0.00000000E+00 5.97478244E-06 5.97478789E-06-1.19495703E-05
 INPUT CARD> 1  5 0.00000000E+00 0.00000000E+00 0.00000000E+00 1.39699393E-05 1.39699024E-05
 INPUT CARD> 1  6-2.79398417E-05-1.35074126E-11 0.00000000E+00 0.00000000E+00 1.67531508E-05
 INPUT CARD> 1  7 0.00000000E+00 0.00000000E+00 0.00000000E+00 0.00000000E+00-2.24766870E-05
 INPUT CARD> 1  8 0.00000000E+00-2.30057367E-11 0.00000000E+00 0.00000000E+00-1.16832778E-06
 INPUT CARD> 1  9-1.16830452E-06 2.33663231E-06 0.00000000E+00 0.00000000E+00 0.00000000E+00
 INPUT CARD> 1 10 5.17768380E-06-4.27232609E-05 3.09734201E-05 1.40215208E-06-2.42859932E-06
 INPUT CARD> 1 11 0.00000000E+00-1.09877526E-05 1.90313097E-05 0.00000000E+00-9.67969422E-07
 INPUT CARD> 1 12 5.86741647E-06-4.89944705E-06-6.83538926E-06 0.00000000E+00 0.00000000E+00
 INPUT CARD> 1 13 5.17767961E-06-4.27232159E-05 3.09734322E-05 1.40215234E-06 2.42859905E-06
 INPUT CARD> 1 14 0.00000000E+00-1.09877418E-05-1.90312875E-05 0.00000000E+00-9.67970307E-07
 INPUT CARD> 1 15 5.86741940E-06-4.89944909E-06 6.83539284E-06 0.00000000E+00 0.00000000E+00
 INPUT CARD> 1 16 5.17766201E-06-4.27232844E-05 3.09734099E-05-2.80427679E-06 0.00000000E+00
 INPUT CARD> 1 17 0.00000000E+00 2.19754740E-05 0.00000000E+00 0.00000000E+00 9.28508813E-06
 INPUT CARD> 1 18-4.38566624E-06-4.89942190E-06 0.00000000E+00 0.00000000E+00 0.00000000E+00
 INPUT CARD> 2  1-5.33920981E-04 9.53778939E-01-4.19196922E-03 6.30276435E-02 2.61399638E-03
 INPUT CARD> 2  2 6.28974787E-11 9.96812470E-11-0.00000000E+00 1.02891712E-10 2.05126344E-10
 INPUT CARD> 2  3-0.00000000E+00-0.00000000E+00-2.38713249E-11-0.00000000E+00 6.64911093E-11
 INPUT CARD> 2  4 6.27034786E-11-0.00000000E+00 9.65793100E-05 9.65794243E-05-1.93158734E-04
 INPUT CARD> 2  5-2.69954090E-11-0.00000000E+00-0.00000000E+00-1.78396631E-04-1.78396545E-04
 INPUT CARD> 2  6 3.56793176E-04-1.04925850E-10-0.00000000E+00-0.00000000E+00 1.01826168E-04
 INPUT CARD> 2  7 2.20823880E-11-0.00000000E+00-0.00000000E+00-0.00000000E+00-1.36614181E-04
 INPUT CARD> 2  8-0.00000000E+00 4.29651361E-11-3.02789776E-11-0.00000000E+00 2.38139809E-04
 INPUT CARD> 2  9 2.38139912E-04-4.76279721E-04-0.00000000E+00-0.00000000E+00-0.00000000E+00
 INPUT CARD> 2 10-1.82868827E-04 1.39177203E-04-5.45492220E-04-2.22000393E-05 3.84515667E-05
 INPUT CARD> 2 11-0.00000000E+00 8.78319684E-05-1.52129428E-04-0.00000000E+00 2.62487215E-06
  100000000 WORDS OF MEMORY AVAILABLE

     BASIS OPTIONS
     -------------
     GBASIS=CCT          IGAUSS=       0      POLAR=NONE    
     NDFUNC=       0     NFFUNC=       0     DIFFSP=       F
     NPFUNC=       0      DIFFS=       F     BASNAM=        


     RUN TITLE
     ---------
  PH3+ 3 states calculation at PH3 structure.                                    

 THE POINT GROUP OF THE MOLECULE IS C1      
 THE ORDER OF THE PRINCIPAL AXIS IS     0

 ATOM      ATOMIC                      COORDINATES (BOHR)
           CHARGE         X                   Y                   Z
 P          15.0     0.6653367823       -0.0000000388        0.0032185651
 H           1.0    -0.6320827156        2.2471526459        0.0032108838
 H           1.0    -0.6320827156       -2.2471526847        0.0032098752
 H           1.0     3.2601220093       -0.0000000388        0.0032348199

          INTERNUCLEAR DISTANCES (ANGS.)
          ------------------------------

                1 P          2 H          3 H          4 H     

   1 P       0.0000000    1.3731097 *  1.3731097 *  1.3731013 *
   2 H       1.3731097 *  0.0000000    2.3782841 *  2.3782943 *
   3 H       1.3731097 *  2.3782841 *  0.0000000    2.3782943 *
   4 H       1.3731013 *  2.3782943 *  2.3782943 *  0.0000000  

  * ... LESS THAN  3.000


     ATOMIC BASIS SET
     ----------------
 THE CONTRACTED PRIMITIVE FUNCTIONS HAVE BEEN UNNORMALIZED
 THE CONTRACTED BASIS FUNCTIONS ARE NOW NORMALIZED TO UNITY

  SHELL TYPE  PRIMITIVE        EXPONENT          CONTRACTION COEFFICIENT(S)

 P         

      1   S       1        312400.0000000    0.000057689641
      1   S       2         46800.0000000    0.000448246591
      1   S       3         10650.0000000    0.002349131061
      1   S       4          3018.0000000    0.009781571802
      1   S       5           986.8000000    0.034142936511
      1   S       6           357.4000000    0.100192955985
      1   S       7           139.6000000    0.234346168617
      1   S       8            57.6300000    0.382391849918
      1   S       9            24.6000000    0.318052941833
      1   S      10            10.1200000    0.070770999093
      1   S      11             4.2830000   -0.001817789630
      1   S      12             1.8050000    0.002161561737
      1   S      13             0.2782000    0.000432249354

      2   S      14        312400.0000000   -0.000016380204
      2   S      15         46800.0000000   -0.000127233535
      2   S      16         10650.0000000   -0.000668625166
      2   S      17          3018.0000000   -0.002795303744
      2   S      18           986.8000000   -0.009928227435
      2   S      19           357.4000000   -0.030244566456
      2   S      20           139.6000000   -0.077884705328
      2   S      21            57.6300000   -0.156724571545
      2   S      22            24.6000000   -0.198042753651
      2   S      23            10.1200000    0.037971251521
      2   S      24             4.2830000    0.552751544147
      2   S      25             1.8050000    0.542611452452
      2   S      26             0.2782000   -0.009675942874

      3   S      27        312400.0000000    0.000006865735
      3   S      28         46800.0000000    0.000053281983
      3   S      29         10650.0000000    0.000280421002
      3   S      30          3018.0000000    0.001170789768
      3   S      31           986.8000000    0.004173591138
      3   S      32           357.4000000    0.012720496749
      3   S      33           139.6000000    0.033152766352
      3   S      34            57.6300000    0.067671246836
      3   S      35            24.6000000    0.089831018862
      3   S      36            10.1200000   -0.020305232360
      3   S      37             4.2830000   -0.313280408979
      3   S      38             1.8050000   -0.563687905527
      3   S      39             0.2782000    1.117494073734

      4   S      40             0.6158000    1.000000000000

      5   S      41             0.1055000    1.000000000000

      6   P      42           504.9000000    0.002433660431
      6   P      43           119.4000000    0.019305559477
      6   P      44            37.9600000    0.088473106893
      6   P      45            13.9500000    0.254701981099
      6   P      46             5.4570000    0.440199242653
      6   P      47             2.1770000    0.383632006272
      6   P      48             0.2877000   -0.003946337074

      7   P      49           504.9000000   -0.000954298933
      7   P      50           119.4000000   -0.007664025747
      7   P      51            37.9600000   -0.035465925259
      7   P      52            13.9500000   -0.106164716437
      7   P      53             5.4570000   -0.187210586037
      7   P      54             2.1770000   -0.181495819791
      7   P      55             0.2877000    0.991672644618

      8   P      56             0.8010000    1.000000000000

      9   P      57             0.0971400    1.000000000000

     10   D      58             0.6480000    1.000000000000

     11   D      59             0.2180000    1.000000000000

     12   F      60             0.4520000    1.000000000000

     13   D      61             3.1200000    1.000000000000

 H         

     14   S      62            33.8700000    0.025494863235
     14   S      63             5.0950000    0.190362765893
     14   S      64             1.1590000    0.852162022245

     15   S      65             0.3258000    1.000000000000

     16   S      66             0.1027000    1.000000000000

     17   P      67             1.4070000    1.000000000000

     18   P      68             0.3880000    1.000000000000

     19   D      69             1.0570000    1.000000000000

 H         

     20   S      70            33.8700000    0.025494863235
     20   S      71             5.0950000    0.190362765893
     20   S      72             1.1590000    0.852162022245

     21   S      73             0.3258000    1.000000000000

     22   S      74             0.1027000    1.000000000000

     23   P      75             1.4070000    1.000000000000

     24   P      76             0.3880000    1.000000000000

     25   D      77             1.0570000    1.000000000000

 H         

     26   S      78            33.8700000    0.025494863235
     26   S      79             5.0950000    0.190362765893
     26   S      80             1.1590000    0.852162022245

     27   S      81             0.3258000    1.000000000000

     28   S      82             0.1027000    1.000000000000

     29   P      83             1.4070000    1.000000000000

     30   P      84             0.3880000    1.000000000000

     31   D      85             1.0570000    1.000000000000

 TOTAL NUMBER OF BASIS SET SHELLS             =   31
 NUMBER OF CARTESIAN GAUSSIAN BASIS FUNCTIONS =   90
 NOTE: THIS RUN WILL RESTRICT THE MO VARIATION SPACE TO SPHERICAL HARMONICS.
 THE NUMBER OF ORBITALS KEPT IN THE VARIATIONAL SPACE WILL BE PRINTED LATER.
 NUMBER OF ELECTRONS                          =   17
 CHARGE OF MOLECULE                           =    1
 SPIN MULTIPLICITY                            =    2
 NUMBER OF OCCUPIED ORBITALS (ALPHA)          =    9
 NUMBER OF OCCUPIED ORBITALS (BETA )          =    8
 TOTAL NUMBER OF ATOMS                        =    4
 THE NUCLEAR REPULSION ENERGY IS       18.0099148167

     $CONTRL OPTIONS
     ---------------
 SCFTYP=MCSCF        RUNTYP=ENERGY       EXETYP=RUN     
 MPLEVL=       2     CITYP =NONE         CCTYP =NONE         VBTYP =NONE    
 DFTTYP=NONE         TDDFT =NONE    
 MULT  =       2     ICHARG=       1     NZVAR =       0     COORD =UNIQUE  
 PP    =NONE         RELWFN=NONE         LOCAL =NONE         NUMGRD=       F
 ISPHER=       1     NOSYM =       1     MAXIT =     200     UNITS =ANGS    
 PLTORB=       F     MOLPLT=       F     AIMPAC=       F     FRIEND=        
 NPRINT=       7     IREST =       0     GEOM  =INPUT   
 NORMF =       0     NORMP =       0     ITOL  =      20     ICUT  =       9
 INTTYP=RYSQUAD      GRDTYP=BEST         QMTTOL= 1.0E-05

     $SYSTEM OPTIONS
     ---------------
  REPLICATED MEMORY=   100000000 WORDS (ON EVERY NODE).
 DISTRIBUTED MEMDDI=        1000 MILLION WORDS IN AGGREGATE,
 MEMDDI DISTRIBUTED OVER   2 PROCESSORS IS   500000000 WORDS/PROCESSOR.
 TOTAL MEMORY REQUESTED ON EACH PROCESSOR=   600000000 WORDS.
 TIMLIM=      525600.00 MINUTES, OR     365.0 DAYS.
 PARALL= T  BALTYP=  DLB     KDIAG=    3  COREFL= F
 MXSEQ2=     300 MXSEQ3=     150  mem10=         0

          ----------------
          PROPERTIES INPUT
          ----------------

     MOMENTS            FIELD           POTENTIAL          DENSITY
 IEMOM =       1   IEFLD =       0   IEPOT =       0   IEDEN =       0
 WHERE =COMASS     WHERE =NUCLEI     WHERE =NUCLEI     WHERE =NUCLEI  
 OUTPUT=BOTH       OUTPUT=BOTH       OUTPUT=BOTH       OUTPUT=BOTH    
 IEMINT=       0   IEFINT=       0                     IEDINT=       0
                                                       MORB  =       0

     -------------------------------
     INTEGRAL TRANSFORMATION OPTIONS
     -------------------------------
     NWORD  =            0
     CUTOFF = 1.0E-09     MPTRAN =       0
     DIRTRF =       T     AOINTS =DUP     

          ----------------------
          MCSCF INPUT PARAMETERS
          ----------------------
 CONVERGER SELECTION: FOCAS = F  SOSCF = F  FULLNR = T  QUD = F  JACOBI = F
 SECULAR EQUATION METHOD CISTEP = GMCCI   
 --- GENERAL INPUT OPTIONS:
 MAXIT =     100  MICIT =       1  ACURCY= 1.000E-06
 DAMP  =   0.000  CANONC=       T  ENGTOL= 1.000E-10
 EKT   =       F  NPUNCH=       2  NWORD =         0
 REGENERATE CI AFTER CONVERGENCE = NONE    
 DIABATIZATION AFTER CONVERGENCE =        F
 --- INPUT FOR FULLNR CONVERGER:
 METHOD=DM2       FORS  =       F  DROPC =       T
 LINSER=       F  FCORE =       F  NORB  =      90

          ----------------------
          INTEGRAL INPUT OPTIONS
          ----------------------
 NOPK  =       1 NORDER=       0 SCHWRZ=       T

 ------------------------------------------
 MULTIREFERENCE PERTURBATION THEORY CONTROL
 ------------------------------------------
 MRPT=GMCPT    READ CONVERGED MCSCF VECTORS= F


     ------------------------------------------
     THE POINT GROUP IS C1 , NAXIS= 1, ORDER= 1
     ------------------------------------------

 -- VARIATIONAL SPACE WILL BE RESTRICTED TO PURE SPHERICAL HARMONICS ONLY --
 AFTER EXCLUDING CONTAMINANT COMBINATIONS FROM THE CARTESIAN GAUSSIAN BASIS
 SET, THE NUMBER OF SPHERICAL HARMONICS KEPT IN THE VARIATION SPACE IS   81

     DIMENSIONS OF THE SYMMETRY SUBSPACES ARE
 A   =   81

 ..... DONE SETTING UP THE RUN .....
 CPU     0: STEP CPU TIME=     0.13 TOTAL CPU TIME=          0.1 (      0.0 MIN)
 TOTAL WALL CLOCK TIME=          0.4 SECONDS, CPU UTILIZATION IS    35.14%

          ********************
          1 ELECTRON INTEGRALS
          ********************
 TIME TO DO   DIPOLE INTEGRALS=      0.01
 ...... END OF ONE-ELECTRON INTEGRALS ......
 CPU     0: STEP CPU TIME=     0.01 TOTAL CPU TIME=          0.1 (      0.0 MIN)
 TOTAL WALL CLOCK TIME=          0.4 SECONDS, CPU UTILIZATION IS    36.84%

          -------------
          GUESS OPTIONS
          -------------
          GUESS =MOREAD            NORB  =      81          NORDER=       0
          MIX   =       F          PRTMO =       F          PUNMO =       F
          TOLZ  = 1.0E-08          TOLE  = 1.0E-05
          SYMDEN=       F          PURIFY=       T

 INITIAL GUESS ORBITALS GENERATED BY MOREAD   ROUTINE.

 STATISTICS FOR GENERATION OF SYMMETRY ORBITAL -Q- MATRIX
 NUMBER OF CARTESIAN ATOMIC ORBITALS=         90
 NUMBER OF SPHERICAL CONTAMINANTS DROPPED=     9
 NUMBER OF LINEARLY DEPENDENT MOS DROPPED=     0
 TOTAL NUMBER OF MOS IN VARIATION SPACE=      81
 ORBITAL PURIFICATION WILL OCCUR

 SYMMETRIES FOR INITIAL GUESS ORBITALS FOLLOW.   BOTH SET(S).
     9 ORBITALS ARE OCCUPIED (    5 CORE ORBITALS).
     1=A        2=A        3=A        4=A        5=A        6=A        7=A   
     8=A        9=A       10=A       11=A       12=A       13=A       14=A   
    15=A       16=A       17=A       18=A       19=A       20=A       21=A   
    22=A       23=A       24=A       25=A       26=A       27=A       28=A   
    29=A       30=A       31=A       32=A       33=A       34=A       35=A   
    36=A       37=A       38=A       39=A       40=A       41=A       42=A   
    43=A       44=A       45=A       46=A       47=A       48=A       49=A   
    50=A       51=A       52=A       53=A       54=A       55=A       56=A   
    57=A       58=A       59=A       60=A       61=A       62=A       63=A   
    64=A       65=A       66=A       67=A       68=A       69=A       70=A   
    71=A       72=A       73=A       74=A       75=A       76=A       77=A   
    78=A       79=A       80=A       81=A   
 ...... END OF INITIAL ORBITAL SELECTION ......
 CPU     0: STEP CPU TIME=     0.08 TOTAL CPU TIME=          0.2 (      0.0 MIN)
 TOTAL WALL CLOCK TIME=          0.5 SECONDS, CPU UTILIZATION IS    44.90%

                    ----------------------
                    AO INTEGRAL TECHNOLOGY
                    ----------------------
     S,P,L SHELL ROTATED AXIS INTEGRALS, REPROGRAMMED BY
        KAZUYA ISHIMURA (IMS) AND JOSE SIERRA (SYNSTAR).
     S,P,D,L SHELL ROTATED AXIS INTEGRALS PROGRAMMED BY
        KAZUYA ISHIMURA (INSTITUTE FOR MOLECULAR SCIENCE).
     S,P,D,F,G SHELL TO TOTAL QUARTET ANGULAR MOMENTUM SUM 5,
        ERIC PROGRAM BY GRAHAM FLETCHER (ELORET AND NASA ADVANCED
        SUPERCOMPUTING DIVISION, AMES RESEARCH CENTER).
     S,P,D,F,G,L SHELL GENERAL RYS QUADRATURE PROGRAMMED BY
        MICHEL DUPUIS (PACIFIC NORTHWEST NATIONAL LABORATORY).

          --------------------
          2 ELECTRON INTEGRALS
          --------------------

 DIRECT SCF METHOD SKIPS INTEGRAL STORAGE ON DISK.
 DIRECT TRANSFORMATION SKIPS AO INTEGRAL STORAGE ON DISK.
  ...... END OF TWO-ELECTRON INTEGRALS .....
 STEP CPU TIME =     0.02 TOTAL CPU TIME =          0.2 (      0.0 MIN)
 TOTAL WALL CLOCK TIME=          0.5 SECONDS, CPU UTILIZATION IS    47.06%
 DDI: Creating Array [0] - 8100 x 78 = 631800 words.
 DDI: Creating Array [1] - 69 x 936 = 64584 words.
 DDI: Creating Array [2] - 78 x 78 = 6084 words.
 DDI: Creating Array [3] - 4095 x 78 = 319410 words.

          -----------------
          MCSCF CALCULATION
          -----------------

 ----- NUCLEAR ENERGY ----- =        18.0099148167

     -------------------------------------------------
     GMC-PT/GMC-QDPT or general MCSCF input parameters
     -------------------------------------------------
 # of frozen core orbs. =         1 ->         0
 # of doubly occ. orbs. =         4
 # of active      orbs. =         7
 # of virtual     orbs. =        69
 # of active electrons  =         7
 # of states in CI      =         3
 Highest state in CI    =         3
 kstate =  1 1 1
 avecoe =  0.333 0.333 0.333
 State symmetry           = A           
 Assigned symmetry number = 1

 <<<Act. MO sym.: 1111111

 <<<Division of 1-ext.:  0 0
 <<<Division of 2-ext.:  0 1

 *** Reference space

 Reference type: ORMAS (= Occupation restricted multiple active space)
 # of orbitals          =  7
 # of minimum electrons =  7
 # of maximum electrons =  7
 State symmetry    =    1 (input)
 2*Sz              =    1 (input)
 Spin multiplicity =    2 (input)
 Dimension of reference space =      1225  (from      3432 walks)

 Dimension of reference space =      1225  (from      1225 walks)

 <<<Ionized spaces for Ref-CI:
      0:         1225 /   -1-0:         1960 /  0-1-0:         2891

 EVALUATING EXCHANGE INTEGRALS FOR DIRECT INTEGRAL TRANSFORMATION
 SCHWARZ INEQUALITY OVERHEAD:      4095 INTEGRALS, T=        0.02

     --------------------------------------------
     PARTIAL TWO ELECTRON INTEGRAL TRANSFORMATION
     --------------------------------------------

 NUMBER OF CORE MOLECULAR ORBITALS     =    5
 NUMBER OF OCCUPIED MOLECULAR ORBITALS =   12
 TOTAL NUMBER OF MOLECULAR ORBITALS    =   81
 TOTAL NUMBER OF ATOMIC ORBITALS       =   90
 THRESHOLD FOR KEEPING TRANSFORMED 2E- INTEGRALS = 1.000E-09

 -------------------------------     ------------------------------
 DISTRIBUTED DATA TRANSFORMATION     PROGRAM WRITTEN BY G. FLETCHER
 -------------------------------     ------------------------------

 THE DISTRIBUTED MEMORY REQUIRED FOR THIS STEP IS MEMDDI=         2 MWORDS
 CREATING DISTRIBUTED STORAGE FOR [VIR OCC|VIR OCC] INTEGRALS
 CREATING DISTRIBUTED STORAGE FOR [VIR OCC|OCC OCC] INTEGRALS
 CREATING DISTRIBUTED STORAGE FOR [OCC OCC|OCC OCC] INTEGRALS
 CREATING DISTRIBUTED STORAGE FOR [VIR VIR|OCC OCC] INTEGRALS
 FOR    2 PROCESSORS, THE REPLICATED MEMORY NEEDED IS      340708 WORDS.
 SCHWARZ INEQUALITY OVERHEAD:      4095 INTEGRALS, T=        0.01

      DIRECT 4-INDEX TRANSFORMATION 
      SCHWARZ INEQUALITY TEST SKIPPED        168 INTEGRAL BLOCKS
 ----- FROZEN CORE ENERGY =      -345.9218198306
 ... END OF INTEGRAL TRANSFORMATION ...
 CPU     0: STEP CPU TIME=     3.24 TOTAL CPU TIME=          3.5 (      0.1 MIN)
 TOTAL WALL CLOCK TIME=          3.8 SECONDS, CPU UTILIZATION IS    91.82%

     --------------------------------     -----------------------------
     MCHF NEWTON-RAPHSON OPTIMIZATION     CODE WRITTEN BY MICHEL DUPUIS
     --------------------------------     -----------------------------
     PARALLEL VERSION WRITTEN BY G. FLETCHER (ELORET)
     NASA ADVANCED SUPERCOMPUTING DIVISION, AMES RESEARCH CENTER

 NUMBER OF INDEPENDENT ORBITAL ROTATION PARAMETERS =   680
 ..... DONE SOLVING NEWTON-RAPHSON EQUATIONS .....
 CPU     0: STEP CPU TIME=     0.44 TOTAL CPU TIME=          3.9 (      0.1 MIN)
 TOTAL WALL CLOCK TIME=          4.5 SECONDS, CPU UTILIZATION IS    86.34%
 ..... DONE WITH NTN-RPH ORBITAL ROTATIONS ..... 
 CPU     0: STEP CPU TIME=     0.01 TOTAL CPU TIME=          3.9 (      0.1 MIN)
 TOTAL WALL CLOCK TIME=          4.6 SECONDS, CPU UTILIZATION IS    86.37%
 MAXIMUM MEMORY USED BY NTN-RPH CODE WAS    135813 WORDS.

 ITER     TOTAL ENERGY      DEL(E)  LAGRANGIAN ASYMMETRY   SQCDF  MICIT   DAMP
   1     -342.038885110 -0.038885110  0.000003   48    8 1.990E-09  1   0.0000
   2     -342.038885111 -0.000000000  0.000000   22   10 4.805E-10  1   0.0000

          --------------------
          LAGRANGIAN CONVERGED
          --------------------

 FINAL MCSCF ENERGY IS     -342.0388851106 AFTER   2 ITERATIONS

 -MCCI- BASED ON OPTIMIZED ORBITALS
 ----------------------------------

 PLEASE NOTE: IF THE ACTIVE ORBITALS ARE CANONICALIZED BELOW,
 THE FOLLOWING CI EXPANSION COEFFICIENTS AND THE DENSITY DO NOT
 CORRESPOND TO THE PRINTED ORBITALS.  THE PRINTED EXPANSIONS MATCH
 THE ORBITALS USED DURING THE LAST ITERATION.  IF YOU WISH TO SEE
 CI EXPANSIONS BASED ON THE CANONICAL (OR NATURAL) ORBITALS, YOU
 MUST RUN A CI CALCULATION WITH THAT ORBITAL CHOICE READ IN $VEC.

 Averaged energy =    -342.038885111

 State #    1  Energy =    -342.207481874  S =  0.500

      Det      Coef    Occupancy (Ignoring core)
      ---      ----    --------- --------- -----
        1   -0.977737  11110001110000
      107    0.076236  11101000111000
      143   -0.052531  11011001100100
      179   -0.052531  10111001010100
      393   -0.055353  10110101010010
      717   -0.055355  11010011100001

 State #    2  Energy =    -341.954588392  S =  0.500

      Det      Coef    Occupancy (Ignoring core)
      ---      ----    --------- --------- -----
       16   -0.118200  11100011110000
       36    0.944991  11110001101000
       39    0.084849  10111001101000
       52    0.076165  11010011101000
       71   -0.139080  11110001011000
       73    0.084849  11011001011000
      108    0.057496  11011000111000
      112   -0.054732  11010100111000
      123    0.054732  10110010111000
      142   -0.112709  11101001100100
      249    0.056860  10111001001100
      463    0.052200  10110101001010

 State #    3  Energy =    -341.954585065  S =  0.500

      Det      Coef    Occupancy (Ignoring core)
      ---      ----    --------- --------- -----
        6   -0.118197  11100101110000
       36   -0.139080  11110001101000
       38   -0.084850  11011001101000
       71   -0.944991  11110001011000
       74    0.084848  10111001011000
       78    0.076163  10110101011000
      109   -0.057497  10111000111000
      113   -0.054732  10110100111000
      122   -0.054733  11010010111000
      177    0.112709  11101001010100
      248    0.056860  11011001001100
      822    0.052201  11010011001001

 DENSITY MATRIX OVER ACTIVE MO-S

             1           2           3           4           5

    1    1.9768662
    2    0.0000015   1.6444321
    3   -0.0000002  -0.0000001   1.6444317
    4   -0.0000000   0.0000001  -0.0000000   1.6282960
    5    0.0044979   0.0000003  -0.0000000   0.0000000   0.0543533
    6   -0.0000022   0.0030789  -0.0003182  -0.0000042  -0.0000001
    7    0.0000001   0.0003181   0.0030782   0.0000000   0.0000000

             6           7

    6    0.0258100
    7    0.0000000   0.0258109

 FORMING THE "STANDARD FOCK OPERATOR" IN DIRECT AO INTEGRAL MODE...
 ONLY THE    5 CORE AND   69 VIRTUAL ORBITALS WILL BE CANONICALIZED

          ----------------------
          MCSCF NATURAL ORBITALS
          ----------------------

                      1          2          3          4          5
                  -80.2666    -7.8143    -5.7093    -5.7093    -5.7080
                     A          A          A          A          A   
    1  P  1  S    1.000140  -0.000534  -0.000000   0.000000   0.000000
    2  P  1  S    0.000212   0.953779  -0.000000  -0.000000   0.000000
    3  P  1  S    0.000235  -0.004192  -0.000000   0.000000   0.000000
    4  P  1  S   -0.000970   0.063028   0.000000   0.000000  -0.000000
    5  P  1  S   -0.000156   0.002614  -0.000000   0.000000   0.000000
    6  P  1  X   -0.000000   0.000000   0.958027  -0.000937  -0.000005
    7  P  1  Y    0.000000  -0.000000   0.000937   0.958027  -0.000000
    8  P  1  Z   -0.000000  -0.000000   0.000005   0.000000   0.961346
    9  P  1  X   -0.000000  -0.000000  -0.003366   0.000003  -0.000000
   10  P  1  Y    0.000000  -0.000000  -0.000003  -0.003366   0.000000
   11  P  1  Z   -0.000000   0.000000  -0.000000  -0.000000  -0.000073
   12  P  1  X    0.000000   0.000000   0.079405  -0.000078  -0.000000
   13  P  1  Y   -0.000000   0.000000   0.000078   0.079405  -0.000000
   14  P  1  Z   -0.000000  -0.000000   0.000000   0.000000   0.075514
   15  P  1  X    0.000000  -0.000000   0.001226  -0.000001  -0.000000
   16  P  1  Y   -0.000000   0.000000   0.000001   0.001226  -0.000000
   17  P  1  Z   -0.000000  -0.000000   0.000000   0.000000   0.001290
   18  P  1 XX    0.000006   0.000097   0.000256  -0.000000   0.000000
   19  P  1 YY    0.000006   0.000097  -0.000256   0.000000  -0.000000
   20  P  1 ZZ   -0.000012  -0.000193   0.000000  -0.000000  -0.000000
   21  P  1 XY   -0.000000  -0.000000  -0.000000  -0.000296   0.000000
   22  P  1 XZ    0.000000   0.000000   0.000000  -0.000000   0.000000
   23  P  1 YZ   -0.000000   0.000000  -0.000000  -0.000000   0.000000
   24  P  1 XX    0.000014  -0.000178  -0.001474   0.000001  -0.000000
   25  P  1 YY    0.000014  -0.000178   0.001474  -0.000001   0.000000
   26  P  1 ZZ   -0.000028   0.000357   0.000000   0.000000  -0.000000
   27  P  1 XY   -0.000000   0.000000   0.000002   0.001702  -0.000000
   28  P  1 XZ    0.000000  -0.000000  -0.000000   0.000000  -0.000000
   29  P  1 YZ   -0.000000  -0.000000   0.000000   0.000000  -0.000000
   30  P  1 XXX   0.000017   0.000102  -0.000046   0.000000  -0.000000
   31  P  1 YYY  -0.000000  -0.000000  -0.000000  -0.000046  -0.000000
   32  P  1 ZZZ  -0.000000  -0.000000   0.000000  -0.000000  -0.000255
   33  P  1 XXY  -0.000000  -0.000000  -0.000000  -0.000020  -0.000000
   34  P  1 XXZ   0.000000   0.000000  -0.000000   0.000000   0.000171
   35  P  1 YYX  -0.000022  -0.000137  -0.000020   0.000000  -0.000000
   36  P  1 YYZ  -0.000000  -0.000000  -0.000000  -0.000000   0.000171
   37  P  1 ZZX   0.000000   0.000000   0.000082  -0.000000   0.000000
   38  P  1 ZZY  -0.000000   0.000000   0.000000   0.000082   0.000000
   39  P  1 XYZ  -0.000000  -0.000000  -0.000000  -0.000000  -0.000000
   40  P  1 XX   -0.000001   0.000238  -0.000274   0.000000  -0.000000
   41  P  1 YY   -0.000001   0.000238   0.000274  -0.000000   0.000000
   42  P  1 ZZ    0.000002  -0.000476  -0.000000  -0.000000  -0.000000
   43  P  1 XY   -0.000000  -0.000000   0.000000   0.000316  -0.000000
   44  P  1 XZ   -0.000000   0.000000  -0.000000   0.000000   0.000000
   45  P  1 YZ   -0.000000   0.000000   0.000000   0.000000  -0.000000
   46  H  2  S    0.000005  -0.000183  -0.000295   0.000513  -0.000000
   47  H  2  S   -0.000043   0.000139  -0.001762   0.003060  -0.000000
   48  H  2  S    0.000031  -0.000545   0.000174  -0.000302   0.000000
   49  H  2  X    0.000001  -0.000022   0.000088   0.000033  -0.000000
   50  H  2  Y   -0.000002   0.000038   0.000033   0.000050  -0.000000
   51  H  2  Z   -0.000000  -0.000000   0.000000   0.000000   0.000041
   52  H  2  X   -0.000011   0.000088  -0.000415   0.000603  -0.000000
   53  H  2  Y    0.000019  -0.000152   0.000602  -0.001113   0.000000
   54  H  2  Z   -0.000000   0.000000  -0.000000   0.000000   0.000118
   55  H  2 XX   -0.000001   0.000003   0.000038  -0.000009   0.000000
   56  H  2 YY    0.000006   0.000017  -0.000009  -0.000040  -0.000000
   57  H  2 ZZ   -0.000005  -0.000019  -0.000028   0.000049  -0.000000
   58  H  2 XY   -0.000007  -0.000014  -0.000018  -0.000006  -0.000000
   59  H  2 XZ    0.000000   0.000000   0.000000  -0.000000  -0.000011
   60  H  2 YZ   -0.000000  -0.000000  -0.000000  -0.000000   0.000020
   61  H  3  S    0.000005  -0.000183  -0.000296  -0.000512  -0.000000
   62  H  3  S   -0.000043   0.000139  -0.001768  -0.003056  -0.000000
   63  H  3  S    0.000031  -0.000545   0.000175   0.000302   0.000000
   64  H  3  X    0.000001  -0.000022   0.000088  -0.000033  -0.000000
   65  H  3  Y    0.000002  -0.000038  -0.000033   0.000050  -0.000000
   66  H  3  Z    0.000000  -0.000000   0.000000  -0.000000   0.000041
   67  H  3  X   -0.000011   0.000088  -0.000417  -0.000602  -0.000000
   68  H  3  Y   -0.000019   0.000152  -0.000604  -0.001111  -0.000000
   69  H  3  Z   -0.000000   0.000000  -0.000000  -0.000000   0.000118
   70  H  3 XX   -0.000001   0.000003   0.000038   0.000009   0.000000
   71  H  3 YY    0.000006   0.000017  -0.000009   0.000040  -0.000000
   72  H  3 ZZ   -0.000005  -0.000019  -0.000029  -0.000049  -0.000000
   73  H  3 XY    0.000007   0.000014   0.000018  -0.000007   0.000000
   74  H  3 XZ    0.000000   0.000000   0.000000   0.000000  -0.000011
   75  H  3 YZ    0.000000   0.000000   0.000000  -0.000000  -0.000020
   76  H  4  S    0.000005  -0.000183   0.000592  -0.000001   0.000000
   77  H  4  S   -0.000043   0.000139   0.003531  -0.000003   0.000000
   78  H  4  S    0.000031  -0.000545  -0.000349   0.000000  -0.000000
   79  H  4  X   -0.000003   0.000044   0.000031  -0.000000  -0.000000
   80  H  4  Y   -0.000000   0.000000   0.000000   0.000108  -0.000000
   81  H  4  Z   -0.000000   0.000000   0.000000   0.000000   0.000041
   82  H  4  X    0.000022  -0.000176  -0.001460   0.000001  -0.000000
   83  H  4  Y   -0.000000  -0.000000  -0.000000  -0.000068  -0.000000
   84  H  4  Z    0.000000  -0.000000  -0.000000  -0.000000   0.000118
   85  H  4 XX    0.000009   0.000024  -0.000032   0.000000  -0.000000
   86  H  4 YY   -0.000004  -0.000004  -0.000025   0.000000  -0.000000
   87  H  4 ZZ   -0.000005  -0.000019   0.000057  -0.000000   0.000000
   88  H  4 XY   -0.000000  -0.000000  -0.000000  -0.000038  -0.000000
   89  H  4 XZ    0.000000   0.000000  -0.000000   0.000000   0.000023
   90  H  4 YZ    0.000000   0.000000   0.000000  -0.000000  -0.000000

                      6          7          8          9         10
                    1.9769     1.6444     1.6444     1.6283     0.0543
                     A          A          A          A          A   
    1  P  1  S    0.001040  -0.000000   0.000000   0.000000   0.012036
    2  P  1  S    0.002905  -0.000000   0.000000   0.000000   0.112457
    3  P  1  S    0.549053  -0.000001   0.000000   0.000000   0.572667
    4  P  1  S    0.057554  -0.000000   0.000000   0.000000   0.093265
    5  P  1  S    0.220802  -0.000002   0.000000   0.000000   0.415935
    6  P  1  X   -0.000000  -0.036576   0.000041   0.000000  -0.000001
    7  P  1  Y   -0.000000  -0.000041  -0.036575   0.000000   0.000000
    8  P  1  Z    0.000000  -0.000000  -0.000000   0.001461  -0.000000
    9  P  1  X    0.000001   0.377681  -0.000421  -0.000004  -0.000007
   10  P  1  Y   -0.000000   0.000421   0.377681  -0.000000   0.000000
   11  P  1  Z   -0.000000   0.000003   0.000000   0.598304  -0.000000
   12  P  1  X    0.000001   0.116344  -0.000130  -0.000001  -0.000002
   13  P  1  Y   -0.000000   0.000130   0.116343  -0.000000  -0.000000
   14  P  1  Z   -0.000000   0.000001   0.000000   0.162445  -0.000000
   15  P  1  X    0.000000   0.108074  -0.000120  -0.000002  -0.000003
   16  P  1  Y   -0.000000   0.000120   0.108075  -0.000000   0.000000
   17  P  1  Z   -0.000000   0.000001   0.000000   0.364645  -0.000000
   18  P  1 XX    0.011673   0.043942  -0.000049  -0.000000  -0.092244
   19  P  1 YY    0.011671  -0.043942   0.000049   0.000000  -0.092242
   20  P  1 ZZ   -0.023344  -0.000000   0.000000   0.000000   0.184486
   21  P  1 XY    0.000000  -0.000057  -0.050741   0.000000  -0.000000
   22  P  1 XZ    0.000000   0.000000  -0.000000   0.000000  -0.000002
   23  P  1 YZ    0.000000  -0.000000  -0.000000   0.000000  -0.000000
   24  P  1 XX    0.005431   0.027151  -0.000030  -0.000000  -0.094754
   25  P  1 YY    0.005431  -0.027151   0.000030   0.000000  -0.094753
   26  P  1 ZZ   -0.010862   0.000000   0.000000  -0.000000   0.189507
   27  P  1 XY    0.000000  -0.000035  -0.031352   0.000000  -0.000000
   28  P  1 XZ    0.000000   0.000000  -0.000000  -0.000000  -0.000001
   29  P  1 YZ    0.000000  -0.000000  -0.000000   0.000000  -0.000000
   30  P  1 XXX   0.011602   0.008357  -0.000009  -0.000000  -0.063220
   31  P  1 YYY  -0.000000   0.000009   0.008356  -0.000000   0.000000
   32  P  1 ZZZ   0.000000  -0.000000  -0.000000  -0.011562   0.000000
   33  P  1 XXY  -0.000000   0.000004   0.003738  -0.000000   0.000000
   34  P  1 XXZ   0.000000   0.000000   0.000000   0.007756  -0.000000
   35  P  1 YYX  -0.015565   0.003737  -0.000004  -0.000000   0.084819
   36  P  1 YYZ  -0.000000   0.000000   0.000000   0.007756   0.000000
   37  P  1 ZZX  -0.000000  -0.014949   0.000017   0.000000  -0.000000
   38  P  1 ZZY   0.000000  -0.000017  -0.014949   0.000000  -0.000000
   39  P  1 XYZ  -0.000000   0.000000   0.000000   0.000000   0.000000
   40  P  1 XX    0.002044   0.008488  -0.000009  -0.000000  -0.010171
   41  P  1 YY    0.002043  -0.008488   0.000009   0.000000  -0.010170
   42  P  1 ZZ   -0.004087  -0.000000   0.000000   0.000000   0.020341
   43  P  1 XY    0.000000  -0.000011  -0.009801   0.000000  -0.000000
   44  P  1 XZ    0.000000   0.000000  -0.000000   0.000000  -0.000000
   45  P  1 YZ    0.000000  -0.000000  -0.000000  -0.000000  -0.000000
   46  H  2  S    0.080021  -0.084560   0.146838   0.000000  -0.193488
   47  H  2  S    0.114919  -0.142488   0.247431   0.000000  -0.367075
   48  H  2  S    0.003691  -0.026641   0.046264   0.000000  -0.053786
   49  H  2  X    0.003940  -0.001902   0.006774  -0.000000  -0.006664
   50  H  2  Y   -0.006824   0.006761  -0.009736  -0.000000   0.011543
   51  H  2  Z    0.000000  -0.000000   0.000000   0.005077  -0.000000
   52  H  2  X    0.007986  -0.001865   0.014123  -0.000000  -0.022237
   53  H  2  Y   -0.013832   0.014101  -0.018202  -0.000000   0.038514
   54  H  2  Z    0.000000   0.000000   0.000000   0.024181  -0.000000
   55  H  2 XX    0.000039   0.001437   0.000174  -0.000000  -0.001247
   56  H  2 YY    0.001929  -0.002773   0.002145   0.000000  -0.004887
   57  H  2 ZZ   -0.001968   0.001336  -0.002320   0.000000   0.006134
   58  H  2 XY   -0.001890   0.001131  -0.003744   0.000000   0.003640
   59  H  2 XZ    0.000000   0.000000   0.000000   0.001335  -0.000000
   60  H  2 YZ   -0.000000   0.000000  -0.000000  -0.002312   0.000000
   61  H  3  S    0.080021  -0.084887  -0.146649   0.000000  -0.193488
   62  H  3  S    0.114919  -0.143039  -0.247113   0.000000  -0.367074
   63  H  3  S    0.003691  -0.026744  -0.046204   0.000000  -0.053786
   64  H  3  X    0.003940  -0.001917  -0.006769  -0.000000  -0.006664
   65  H  3  Y    0.006824  -0.006782  -0.009721   0.000000  -0.011543
   66  H  3  Z    0.000000  -0.000000  -0.000000   0.005077  -0.000000
   67  H  3  X    0.007986  -0.001897  -0.014119  -0.000000  -0.022236
   68  H  3  Y    0.013832  -0.014141  -0.018170   0.000000  -0.038514
   69  H  3  Z    0.000000  -0.000000  -0.000000   0.024181  -0.000000
   70  H  3 XX    0.000039   0.001437  -0.000178  -0.000000  -0.001247
   71  H  3 YY    0.001929  -0.002778  -0.002139   0.000000  -0.004887
   72  H  3 ZZ   -0.001968   0.001341   0.002317   0.000000   0.006134
   73  H  3 XY    0.001890  -0.001139  -0.003742  -0.000000  -0.003640
   74  H  3 XZ    0.000000   0.000000  -0.000000   0.001335  -0.000000
   75  H  3 YZ    0.000000  -0.000000  -0.000000   0.002312  -0.000000
   76  H  4  S    0.080023   0.169445  -0.000189  -0.000000  -0.193487
   77  H  4  S    0.114921   0.285524  -0.000318  -0.000000  -0.367068
   78  H  4  S    0.003691   0.053385  -0.000059  -0.000000  -0.053784
   79  H  4  X   -0.007880  -0.013638   0.000015  -0.000000   0.013328
   80  H  4  Y   -0.000000   0.000002   0.002000  -0.000000   0.000000
   81  H  4  Z   -0.000000  -0.000000   0.000000   0.005077   0.000000
   82  H  4  X   -0.015972  -0.026338   0.000029  -0.000000   0.044471
   83  H  4  Y   -0.000000   0.000007   0.006272  -0.000000  -0.000000
   84  H  4  Z   -0.000000  -0.000000   0.000000   0.024181   0.000000
   85  H  4 XX    0.002874   0.005148  -0.000006   0.000000  -0.006707
   86  H  4 YY   -0.000906  -0.002471   0.000003   0.000000   0.000573
   87  H  4 ZZ   -0.001968  -0.002677   0.000003  -0.000000   0.006134
   88  H  4 XY    0.000000  -0.000002  -0.001777   0.000000  -0.000000
   89  H  4 XZ    0.000000   0.000000  -0.000000  -0.002670  -0.000000
   90  H  4 YZ    0.000000   0.000000  -0.000000  -0.000000  -0.000000

                     11         12
                    0.0258     0.0258
                     A          A   
    1  P  1  S   -0.000000   0.000000
    2  P  1  S   -0.000000   0.000002
    3  P  1  S   -0.000000   0.000005
    4  P  1  S    0.000000   0.000001
    5  P  1  S   -0.000000   0.000000
    6  P  1  X   -0.000024   0.165053
    7  P  1  Y    0.165047   0.000024
    8  P  1  Z    0.000000   0.000001
    9  P  1  X   -0.000127   0.864261
   10  P  1  Y    0.864248   0.000127
   11  P  1  Z    0.000000   0.000006
   12  P  1  X   -0.000021   0.142839
   13  P  1  Y    0.142840   0.000021
   14  P  1  Z    0.000000   0.000001
   15  P  1  X   -0.000050   0.342389
   16  P  1  Y    0.342386   0.000050
   17  P  1  Z    0.000000   0.000002
   18  P  1 XX    0.000021  -0.141129
   19  P  1 YY   -0.000021   0.141128
   20  P  1 ZZ   -0.000000   0.000001
   21  P  1 XY    0.162959   0.000024
   22  P  1 XZ    0.000000  -0.000001
   23  P  1 YZ    0.000001   0.000000
   24  P  1 XX    0.000005  -0.037507
   25  P  1 YY   -0.000006   0.037507
   26  P  1 ZZ    0.000000   0.000000
   27  P  1 XY    0.043307   0.000006
   28  P  1 XZ   -0.000000   0.000000
   29  P  1 YZ   -0.000000  -0.000000
   30  P  1 XXX   0.000003  -0.020086
   31  P  1 YYY  -0.020085  -0.000003
   32  P  1 ZZZ   0.000000   0.000001
   33  P  1 XXY  -0.008984  -0.000001
   34  P  1 XXZ  -0.000000  -0.000001
   35  P  1 YYX   0.000001  -0.008982
   36  P  1 YYZ  -0.000000  -0.000000
   37  P  1 ZZX  -0.000005   0.035930
   38  P  1 ZZY   0.035930   0.000005
   39  P  1 XYZ  -0.000000   0.000000
   40  P  1 XX    0.000002  -0.016253
   41  P  1 YY   -0.000002   0.016253
   42  P  1 ZZ    0.000000   0.000000
   43  P  1 XY    0.018767   0.000003
   44  P  1 XZ    0.000000  -0.000000
   45  P  1 YZ    0.000000   0.000000
   46  H  2  S   -0.230267   0.132900
   47  H  2  S   -0.566567   0.327001
   48  H  2  S   -0.038865   0.022433
   49  H  2  X   -0.007008   0.018120
   50  H  2  Y    0.026211  -0.007001
   51  H  2  Z   -0.000000   0.000000
   52  H  2  X   -0.045275   0.078385
   53  H  2  Y    0.130658  -0.045243
   54  H  2  Z   -0.000000   0.000000
   55  H  2 XX    0.005603   0.005175
   56  H  2 YY   -0.015185   0.000356
   57  H  2 ZZ    0.009582  -0.005531
   58  H  2 XY    0.011082  -0.012002
   59  H  2 XZ   -0.000000   0.000000
   60  H  2 YZ    0.000000  -0.000000
   61  H  3  S    0.230228   0.132968
   62  H  3  S    0.566471   0.327167
   63  H  3  S    0.038859   0.022444
   64  H  3  X    0.007003   0.018123
   65  H  3  Y    0.026209   0.007009
   66  H  3  Z    0.000000   0.000000
   67  H  3  X    0.045252   0.078398
   68  H  3  Y    0.130645   0.045281
   69  H  3  Z    0.000000   0.000000
   70  H  3 XX   -0.005605   0.005173
   71  H  3 YY    0.015185   0.000360
   72  H  3 ZZ   -0.009581  -0.005534
   73  H  3 XY    0.011078   0.012005
   74  H  3 XZ    0.000000   0.000000
   75  H  3 YZ    0.000000   0.000000
   76  H  4  S    0.000039  -0.265871
   77  H  4  S    0.000096  -0.654168
   78  H  4  S    0.000007  -0.044875
   79  H  4  X   -0.000004   0.030256
   80  H  4  Y    0.014077   0.000002
   81  H  4  Z    0.000000   0.000000
   82  H  4  X   -0.000023   0.156788
   83  H  4  Y    0.052258   0.000008
   84  H  4  Z    0.000000   0.000001
   85  H  4 XX    0.000003  -0.021130
   86  H  4 YY   -0.000001   0.010065
   87  H  4 ZZ   -0.000002   0.011064
   88  H  4 XY   -0.009710  -0.000001
   89  H  4 XZ   -0.000000  -0.000000
   90  H  4 YZ   -0.000000  -0.000000

          ------------------------
          MCSCF OPTIMIZED ORBITALS
          ------------------------

                      1          2          3          4          5
                  -80.2666    -7.8143    -5.7093    -5.7093    -5.7080
                     A          A          A          A          A   
    1  P  1  S    1.000140  -0.000534  -0.000000   0.000000   0.000000
    2  P  1  S    0.000212   0.953779  -0.000000  -0.000000   0.000000
    3  P  1  S    0.000235  -0.004192  -0.000000   0.000000   0.000000
    4  P  1  S   -0.000970   0.063028   0.000000   0.000000  -0.000000
    5  P  1  S   -0.000156   0.002614  -0.000000   0.000000   0.000000
    6  P  1  X   -0.000000   0.000000   0.958027  -0.000937  -0.000005
    7  P  1  Y    0.000000  -0.000000   0.000937   0.958027  -0.000000
    8  P  1  Z   -0.000000  -0.000000   0.000005   0.000000   0.961346
    9  P  1  X   -0.000000  -0.000000  -0.003366   0.000003  -0.000000
   10  P  1  Y    0.000000  -0.000000  -0.000003  -0.003366   0.000000
   11  P  1  Z   -0.000000   0.000000  -0.000000  -0.000000  -0.000073
   12  P  1  X    0.000000   0.000000   0.079405  -0.000078  -0.000000
   13  P  1  Y   -0.000000   0.000000   0.000078   0.079405  -0.000000
   14  P  1  Z   -0.000000  -0.000000   0.000000   0.000000   0.075514
   15  P  1  X    0.000000  -0.000000   0.001226  -0.000001  -0.000000
   16  P  1  Y   -0.000000   0.000000   0.000001   0.001226  -0.000000
   17  P  1  Z   -0.000000  -0.000000   0.000000   0.000000   0.001290
   18  P  1 XX    0.000006   0.000097   0.000256  -0.000000   0.000000
   19  P  1 YY    0.000006   0.000097  -0.000256   0.000000  -0.000000
   20  P  1 ZZ   -0.000012  -0.000193   0.000000  -0.000000  -0.000000
   21  P  1 XY   -0.000000  -0.000000  -0.000000  -0.000296   0.000000
   22  P  1 XZ    0.000000   0.000000   0.000000  -0.000000   0.000000
   23  P  1 YZ   -0.000000   0.000000  -0.000000  -0.000000   0.000000
   24  P  1 XX    0.000014  -0.000178  -0.001474   0.000001  -0.000000
   25  P  1 YY    0.000014  -0.000178   0.001474  -0.000001   0.000000
   26  P  1 ZZ   -0.000028   0.000357   0.000000   0.000000  -0.000000
   27  P  1 XY   -0.000000   0.000000   0.000002   0.001702  -0.000000
   28  P  1 XZ    0.000000  -0.000000  -0.000000   0.000000  -0.000000
   29  P  1 YZ   -0.000000  -0.000000   0.000000   0.000000  -0.000000
   30  P  1 XXX   0.000017   0.000102  -0.000046   0.000000  -0.000000
   31  P  1 YYY  -0.000000  -0.000000  -0.000000  -0.000046  -0.000000
   32  P  1 ZZZ  -0.000000  -0.000000   0.000000  -0.000000  -0.000255
   33  P  1 XXY  -0.000000  -0.000000  -0.000000  -0.000020  -0.000000
   34  P  1 XXZ   0.000000   0.000000  -0.000000   0.000000   0.000171
   35  P  1 YYX  -0.000022  -0.000137  -0.000020   0.000000  -0.000000
   36  P  1 YYZ  -0.000000  -0.000000  -0.000000  -0.000000   0.000171
   37  P  1 ZZX   0.000000   0.000000   0.000082  -0.000000   0.000000
   38  P  1 ZZY  -0.000000   0.000000   0.000000   0.000082   0.000000
   39  P  1 XYZ  -0.000000  -0.000000  -0.000000  -0.000000  -0.000000
   40  P  1 XX   -0.000001   0.000238  -0.000274   0.000000  -0.000000
   41  P  1 YY   -0.000001   0.000238   0.000274  -0.000000   0.000000
   42  P  1 ZZ    0.000002  -0.000476  -0.000000  -0.000000  -0.000000
   43  P  1 XY   -0.000000  -0.000000   0.000000   0.000316  -0.000000
   44  P  1 XZ   -0.000000   0.000000  -0.000000   0.000000   0.000000
   45  P  1 YZ   -0.000000   0.000000   0.000000   0.000000  -0.000000
   46  H  2  S    0.000005  -0.000183  -0.000295   0.000513  -0.000000
   47  H  2  S   -0.000043   0.000139  -0.001762   0.003060  -0.000000
   48  H  2  S    0.000031  -0.000545   0.000174  -0.000302   0.000000
   49  H  2  X    0.000001  -0.000022   0.000088   0.000033  -0.000000
   50  H  2  Y   -0.000002   0.000038   0.000033   0.000050  -0.000000
   51  H  2  Z   -0.000000  -0.000000   0.000000   0.000000   0.000041
   52  H  2  X   -0.000011   0.000088  -0.000415   0.000603  -0.000000
   53  H  2  Y    0.000019  -0.000152   0.000602  -0.001113   0.000000
   54  H  2  Z   -0.000000   0.000000  -0.000000   0.000000   0.000118
   55  H  2 XX   -0.000001   0.000003   0.000038  -0.000009   0.000000
   56  H  2 YY    0.000006   0.000017  -0.000009  -0.000040  -0.000000
   57  H  2 ZZ   -0.000005  -0.000019  -0.000028   0.000049  -0.000000
   58  H  2 XY   -0.000007  -0.000014  -0.000018  -0.000006  -0.000000
   59  H  2 XZ    0.000000   0.000000   0.000000  -0.000000  -0.000011
   60  H  2 YZ   -0.000000  -0.000000  -0.000000  -0.000000   0.000020
   61  H  3  S    0.000005  -0.000183  -0.000296  -0.000512  -0.000000
   62  H  3  S   -0.000043   0.000139  -0.001768  -0.003056  -0.000000
   63  H  3  S    0.000031  -0.000545   0.000175   0.000302   0.000000
   64  H  3  X    0.000001  -0.000022   0.000088  -0.000033  -0.000000
   65  H  3  Y    0.000002  -0.000038  -0.000033   0.000050  -0.000000
   66  H  3  Z    0.000000  -0.000000   0.000000  -0.000000   0.000041
   67  H  3  X   -0.000011   0.000088  -0.000417  -0.000602  -0.000000
   68  H  3  Y   -0.000019   0.000152  -0.000604  -0.001111  -0.000000
   69  H  3  Z   -0.000000   0.000000  -0.000000  -0.000000   0.000118
   70  H  3 XX   -0.000001   0.000003   0.000038   0.000009   0.000000
   71  H  3 YY    0.000006   0.000017  -0.000009   0.000040  -0.000000
   72  H  3 ZZ   -0.000005  -0.000019  -0.000029  -0.000049  -0.000000
   73  H  3 XY    0.000007   0.000014   0.000018  -0.000007   0.000000
   74  H  3 XZ    0.000000   0.000000   0.000000   0.000000  -0.000011
   75  H  3 YZ    0.000000   0.000000   0.000000  -0.000000  -0.000020
   76  H  4  S    0.000005  -0.000183   0.000592  -0.000001   0.000000
   77  H  4  S   -0.000043   0.000139   0.003531  -0.000003   0.000000
   78  H  4  S    0.000031  -0.000545  -0.000349   0.000000  -0.000000
   79  H  4  X   -0.000003   0.000044   0.000031  -0.000000  -0.000000
   80  H  4  Y   -0.000000   0.000000   0.000000   0.000108  -0.000000
   81  H  4  Z   -0.000000   0.000000   0.000000   0.000000   0.000041
   82  H  4  X    0.000022  -0.000176  -0.001460   0.000001  -0.000000
   83  H  4  Y   -0.000000  -0.000000  -0.000000  -0.000068  -0.000000
   84  H  4  Z    0.000000  -0.000000  -0.000000  -0.000000   0.000118
   85  H  4 XX    0.000009   0.000024  -0.000032   0.000000  -0.000000
   86  H  4 YY   -0.000004  -0.000004  -0.000025   0.000000  -0.000000
   87  H  4 ZZ   -0.000005  -0.000019   0.000057  -0.000000   0.000000
   88  H  4 XY   -0.000000  -0.000000  -0.000000  -0.000038  -0.000000
   89  H  4 XZ    0.000000   0.000000  -0.000000   0.000000   0.000023
   90  H  4 YZ    0.000000   0.000000   0.000000  -0.000000  -0.000000

                      6          7          8          9         10
                    0.0000     0.0000     0.0000     0.0000     0.0000
                     A          A          A          A          A   
    1  P  1  S    0.001012  -0.000000   0.000000   0.000000   0.012038
    2  P  1  S    0.002642  -0.000000   0.000000   0.000000   0.112463
    3  P  1  S    0.547712   0.000001  -0.000000   0.000000   0.573950
    4  P  1  S    0.057335   0.000000  -0.000000  -0.000000   0.093399
    5  P  1  S    0.219829  -0.000001   0.000000   0.000000   0.416450
    6  P  1  X    0.000000  -0.036496   0.005389   0.000000   0.000000
    7  P  1  Y   -0.000000  -0.005388  -0.036495   0.000000   0.000000
    8  P  1  Z    0.000000  -0.000000   0.000000   0.001461  -0.000000
    9  P  1  X    0.000000   0.371995  -0.054925  -0.000000  -0.000002
   10  P  1  Y   -0.000000   0.054925   0.371995  -0.000000   0.000000
   11  P  1  Z   -0.000000   0.000000  -0.000000   0.598304  -0.000000
   12  P  1  X    0.000000   0.114826  -0.016954  -0.000000  -0.000001
   13  P  1  Y   -0.000000   0.016954   0.114825  -0.000000  -0.000000
   14  P  1  Z   -0.000000   0.000000  -0.000000   0.162445  -0.000000
   15  P  1  X   -0.000000   0.106267  -0.015690  -0.000001  -0.000002
   16  P  1  Y    0.000000   0.015690   0.106268  -0.000000   0.000000
   17  P  1  Z    0.000000  -0.000000   0.000000   0.364645  -0.000000
   18  P  1 XX    0.011888   0.043738  -0.006458  -0.000000  -0.092217
   19  P  1 YY    0.011887  -0.043738   0.006458   0.000000  -0.092213
   20  P  1 ZZ   -0.023776  -0.000000   0.000000  -0.000000   0.184431
   21  P  1 XY    0.000000  -0.007457  -0.050505   0.000000  -0.000000
   22  P  1 XZ    0.000000   0.000000  -0.000000   0.000000  -0.000002
   23  P  1 YZ    0.000000  -0.000000  -0.000000   0.000000  -0.000000
   24  P  1 XX    0.005653   0.026931  -0.003976   0.000000  -0.094741
   25  P  1 YY    0.005652  -0.026931   0.003976   0.000000  -0.094740
   26  P  1 ZZ   -0.011305  -0.000000   0.000000  -0.000000   0.189481
   27  P  1 XY    0.000000  -0.004592  -0.031098   0.000000  -0.000000
   28  P  1 XZ    0.000000   0.000000  -0.000000  -0.000000  -0.000001
   29  P  1 YZ    0.000000  -0.000000  -0.000000   0.000000  -0.000000
   30  P  1 XXX   0.011750   0.008305  -0.001226  -0.000000  -0.063193
   31  P  1 YYY  -0.000000   0.001226   0.008305  -0.000000   0.000000
   32  P  1 ZZZ   0.000000  -0.000000   0.000000  -0.011562   0.000000
   33  P  1 XXY   0.000000   0.000548   0.003715  -0.000000   0.000000
   34  P  1 XXZ   0.000000   0.000000  -0.000000   0.007756  -0.000000
   35  P  1 YYX  -0.015764   0.003714  -0.000548  -0.000000   0.084782
   36  P  1 YYZ  -0.000000  -0.000000   0.000000   0.007756   0.000000
   37  P  1 ZZX   0.000000  -0.014857   0.002194   0.000000   0.000000
   38  P  1 ZZY   0.000000  -0.002194  -0.014856   0.000000  -0.000000
   39  P  1 XYZ  -0.000000   0.000000   0.000000   0.000000   0.000000
   40  P  1 XX    0.002067   0.008427  -0.001244  -0.000000  -0.010166
   41  P  1 YY    0.002067  -0.008427   0.001244   0.000000  -0.010165
   42  P  1 ZZ   -0.004134  -0.000000   0.000000  -0.000000   0.020331
   43  P  1 XY    0.000000  -0.001437  -0.009731   0.000000  -0.000000
   44  P  1 XZ    0.000000   0.000000  -0.000000   0.000000  -0.000000
   45  P  1 YZ    0.000000  -0.000000  -0.000000  -0.000000  -0.000000
   46  H  2  S    0.080474  -0.062567   0.158017   0.000000  -0.193299
   47  H  2  S    0.115778  -0.105574   0.266636   0.000000  -0.366803
   48  H  2  S    0.003817  -0.019685   0.049717  -0.000000  -0.053777
   49  H  2  X    0.003956  -0.000932   0.006996   0.000000  -0.006655
   50  H  2  Y   -0.006851   0.005284  -0.010665   0.000000   0.011527
   51  H  2  Z    0.000000  -0.000000   0.000000   0.005077  -0.000000
   52  H  2  X    0.008038   0.000066   0.014352   0.000000  -0.022217
   53  H  2  Y   -0.013922   0.011362  -0.020313  -0.000000   0.038481
   54  H  2  Z    0.000000  -0.000000   0.000000   0.024181  -0.000000
   55  H  2 XX    0.000042   0.001436  -0.000045   0.000000  -0.001247
   56  H  2 YY    0.001940  -0.002429   0.002553  -0.000000  -0.004882
   57  H  2 ZZ   -0.001982   0.000993  -0.002508   0.000000   0.006129
   58  H  2 XY   -0.001898   0.000596  -0.003893  -0.000000   0.003635
   59  H  2 XZ    0.000000  -0.000000   0.000000   0.001335  -0.000000
   60  H  2 YZ   -0.000000   0.000000  -0.000000  -0.002312   0.000000
   61  H  3  S    0.080474  -0.105564  -0.133193   0.000000  -0.193299
   62  H  3  S    0.115778  -0.178126  -0.224747   0.000000  -0.366803
   63  H  3  S    0.003817  -0.033213  -0.041906  -0.000000  -0.053777
   64  H  3  X    0.003956  -0.002914  -0.006428   0.000000  -0.006655
   65  H  3  Y    0.006851  -0.008140  -0.008683  -0.000000  -0.011527
   66  H  3  Z    0.000000  -0.000000  -0.000000   0.005077  -0.000000
   67  H  3  X    0.008038  -0.004084  -0.013759   0.000000  -0.022217
   68  H  3  Y    0.013922  -0.016748  -0.016163   0.000000  -0.038481
   69  H  3  Z    0.000000  -0.000000  -0.000000   0.024181  -0.000000
   70  H  3 XX    0.000042   0.001388  -0.000372   0.000000  -0.001247
   71  H  3 YY    0.001940  -0.003064  -0.001742  -0.000000  -0.004882
   72  H  3 ZZ   -0.001982   0.001676   0.002114   0.000000   0.006129
   73  H  3 XY    0.001898  -0.001696  -0.003555   0.000000  -0.003635
   74  H  3 XZ    0.000000  -0.000000  -0.000000   0.001335  -0.000000
   75  H  3 YZ    0.000000  -0.000000  -0.000000   0.002312  -0.000000
   76  H  4  S    0.080474   0.168131  -0.024824  -0.000000  -0.193300
   77  H  4  S    0.115778   0.283699  -0.041888  -0.000001  -0.366801
   78  H  4  S    0.003816   0.052897  -0.007810   0.000000  -0.053776
   79  H  4  X   -0.007911  -0.013549   0.002001   0.000000   0.013310
   80  H  4  Y   -0.000000   0.000288   0.001952   0.000000   0.000000
   81  H  4  Z   -0.000000  -0.000000   0.000000   0.005077   0.000000
   82  H  4  X   -0.016076  -0.026353   0.003891   0.000000   0.044434
   83  H  4  Y   -0.000000   0.000902   0.006106  -0.000000  -0.000000
   84  H  4  Z   -0.000000  -0.000000   0.000000   0.024181   0.000000
   85  H  4 XX    0.002889   0.005132  -0.000758  -0.000000  -0.006700
   86  H  4 YY   -0.000908  -0.002463   0.000364   0.000000   0.000571
   87  H  4 ZZ   -0.001982  -0.002669   0.000394  -0.000000   0.006129
   88  H  4 XY    0.000000  -0.000257  -0.001739  -0.000000  -0.000000
   89  H  4 XZ    0.000000   0.000000  -0.000000  -0.002670  -0.000000
   90  H  4 YZ    0.000000  -0.000000  -0.000000   0.000000  -0.000000

                     11         12         13         14         15
                    0.0000     0.0000    -0.0188     0.0443     0.0443
                     A          A          A          A          A   
    1  P  1  S    0.000000  -0.000000   0.016698  -0.000000   0.000000
    2  P  1  S    0.000002  -0.000000   0.123536  -0.000002   0.000000
    3  P  1  S    0.000002  -0.000000   0.402556  -0.000004   0.000000
    4  P  1  S    0.000000   0.000000   0.012882  -0.000001   0.000000
    5  P  1  S   -0.000002  -0.000000   1.667295  -0.000006   0.000000
    6  P  1  X    0.164826  -0.007194   0.000000  -0.145675   0.000035
    7  P  1  Y    0.007193   0.164819  -0.000000  -0.000035  -0.145674
    8  P  1  Z    0.000001  -0.000000  -0.000000  -0.000001  -0.000000
    9  P  1  X    0.864159  -0.037716   0.000001  -0.580807   0.000138
   10  P  1  Y    0.037715   0.864146   0.000000  -0.000138  -0.580805
   11  P  1  Z    0.000004  -0.000000  -0.000000  -0.000003  -0.000000
   12  P  1  X    0.142925  -0.006238   0.000000  -0.034653   0.000008
   13  P  1  Y    0.006238   0.142926   0.000000  -0.000008  -0.034652
   14  P  1  Z    0.000001  -0.000000   0.000000  -0.000000  -0.000000
   15  P  1  X    0.342270  -0.014938  -0.000004  -0.847239   0.000201
   16  P  1  Y    0.014938   0.342266   0.000000  -0.000201  -0.847197
   17  P  1  Z    0.000001  -0.000000  -0.000000  -0.000006  -0.000000
   18  P  1 XX   -0.140910   0.006150   0.026992  -0.046000   0.000011
   19  P  1 YY    0.140910  -0.006150   0.026992   0.046001  -0.000011
   20  P  1 ZZ    0.000000  -0.000000  -0.053984  -0.000000  -0.000000
   21  P  1 XY    0.007101   0.162707   0.000000   0.000013   0.053118
   22  P  1 XZ   -0.000001   0.000000   0.000000  -0.000000   0.000000
   23  P  1 YZ    0.000000   0.000001   0.000000   0.000000   0.000000
   24  P  1 XX   -0.037419   0.001633   0.140431  -0.266705   0.000063
   25  P  1 YY    0.037420  -0.001633   0.140429   0.266707  -0.000063
   26  P  1 ZZ   -0.000001   0.000000  -0.280860  -0.000003  -0.000000
   27  P  1 XY    0.001886   0.043206   0.000000   0.000073   0.307967
   28  P  1 XZ    0.000000  -0.000000   0.000003  -0.000002   0.000000
   29  P  1 YZ   -0.000000  -0.000000   0.000000   0.000000   0.000002
   30  P  1 XXX  -0.020051   0.000875   0.015783  -0.014570   0.000003
   31  P  1 YYY  -0.000875  -0.020049   0.000000  -0.000003  -0.014570
   32  P  1 ZZZ   0.000001   0.000000   0.000000   0.000000   0.000000
   33  P  1 XXY  -0.000391  -0.008968   0.000000  -0.000002  -0.006516
   34  P  1 XXZ  -0.000001   0.000000   0.000000  -0.000000  -0.000000
   35  P  1 YYX  -0.008967   0.000391  -0.021175  -0.006516   0.000002
   36  P  1 YYZ  -0.000000  -0.000000  -0.000000  -0.000000  -0.000000
   37  P  1 ZZX   0.035868  -0.001565   0.000000   0.026064  -0.000006
   38  P  1 ZZY   0.001565   0.035868  -0.000000   0.000006   0.026063
   39  P  1 XYZ  -0.000000  -0.000000  -0.000000  -0.000000  -0.000000
   40  P  1 XX   -0.016221   0.000708   0.007403  -0.009862   0.000002
   41  P  1 YY    0.016221  -0.000708   0.007403   0.009862  -0.000002
   42  P  1 ZZ   -0.000000   0.000000  -0.014806  -0.000000  -0.000000
   43  P  1 XY    0.000817   0.018731   0.000000   0.000003   0.011388
   44  P  1 XZ   -0.000000   0.000000   0.000000  -0.000000   0.000000
   45  P  1 YZ    0.000000   0.000000   0.000000   0.000000   0.000000
   46  H  2  S    0.122619  -0.235537   0.010444   0.009222  -0.015981
   47  H  2  S    0.301820  -0.579757   0.214983   0.134240  -0.232639
   48  H  2  S    0.020676  -0.039713  -1.197449  -1.076320   1.865238
   49  H  2  X    0.017796  -0.007776   0.009022   0.005111  -0.011272
   50  H  2  Y   -0.005844   0.026472  -0.015627  -0.011267   0.018131
   51  H  2  Z    0.000000  -0.000000   0.000000   0.000000  -0.000000
   52  H  2  X    0.076341  -0.048611  -0.034866  -0.031143   0.057320
   53  H  2  Y   -0.039497   0.132465   0.060390   0.057289  -0.097346
   54  H  2  Z    0.000000  -0.000000  -0.000000  -0.000000   0.000000
   55  H  2 XX    0.005416   0.005373  -0.000133  -0.000277  -0.002281
   56  H  2 YY   -0.000309  -0.015182  -0.001637  -0.002193   0.006562
   57  H  2 ZZ   -0.005107   0.009809   0.001769   0.002470  -0.004280
   58  H  2 XY   -0.011507   0.011586   0.001504   0.005104  -0.007004
   59  H  2 XZ    0.000000  -0.000000  -0.000000  -0.000000   0.000000
   60  H  2 YZ   -0.000000   0.000000   0.000000   0.000000  -0.000000
   61  H  3  S    0.142674   0.223959   0.010444   0.009229   0.015977
   62  H  3  S    0.351182   0.551257   0.214983   0.134350   0.232576
   63  H  3  S    0.024057   0.037761  -1.197449  -1.077204  -1.864727
   64  H  3  X    0.018406   0.006196   0.009022   0.005116   0.011270
   65  H  3  Y    0.008128   0.025862   0.015627   0.011275   0.018125
   66  H  3  Z    0.000000   0.000000   0.000000   0.000000   0.000000
   67  H  3  X    0.080285   0.041775  -0.034866  -0.031170  -0.057305
   68  H  3  Y    0.050887   0.128520  -0.060390  -0.057335  -0.097319
   69  H  3  Z    0.000000   0.000000  -0.000000  -0.000000  -0.000000
   70  H  3 XX    0.004927  -0.005824  -0.000133  -0.000276   0.002282
   71  H  3 YY    0.001015   0.015151  -0.001637  -0.002196  -0.006561
   72  H  3 ZZ   -0.005942  -0.009327   0.001769   0.002472   0.004279
   73  H  3 XY    0.012473   0.010539  -0.001504  -0.005107  -0.007002
   74  H  3 XZ    0.000000   0.000000  -0.000000  -0.000000  -0.000000
   75  H  3 YZ    0.000000   0.000000  -0.000000  -0.000000  -0.000000
   76  H  4  S   -0.265293   0.011579   0.010444  -0.018451   0.000004
   77  H  4  S   -0.652997   0.028500   0.214981  -0.268580   0.000064
   78  H  4  S   -0.044730   0.001952  -1.197460   2.153524  -0.000510
   79  H  4  X    0.030201  -0.001318  -0.018045   0.024636  -0.000006
   80  H  4  Y    0.000614   0.014067   0.000000  -0.000000  -0.001394
   81  H  4  Z    0.000000  -0.000000  -0.000000   0.000000  -0.000000
   82  H  4  X    0.156588  -0.006834   0.069733  -0.130425   0.000031
   83  H  4  Y    0.002279   0.052221   0.000000   0.000000   0.001932
   84  H  4  Z    0.000001  -0.000000   0.000000  -0.000001   0.000000
   85  H  4 XX   -0.021100   0.000921  -0.002389   0.011088  -0.000003
   86  H  4 YY    0.010051  -0.000439   0.000619  -0.006146   0.000001
   87  H  4 ZZ    0.011049  -0.000482   0.001769  -0.004942   0.000001
   88  H  4 XY   -0.000424  -0.009704  -0.000000   0.000000   0.001840
   89  H  4 XZ   -0.000000   0.000000  -0.000000   0.000000   0.000000
   90  H  4 YZ   -0.000000  -0.000000  -0.000000  -0.000000   0.000000

                     16         17         18         19         20
                    0.1345     0.1345     0.1759     0.2058     0.2058
                     A          A          A          A          A   
    1  P  1  S    0.000000   0.000000  -0.000000  -0.000000  -0.000000
    2  P  1  S    0.000000   0.000000  -0.000000  -0.000000  -0.000000
    3  P  1  S    0.000001   0.000000  -0.000000  -0.000000  -0.000003
    4  P  1  S    0.000000   0.000000   0.000000  -0.000000  -0.000003
    5  P  1  S   -0.000002  -0.000000  -0.000000   0.000000   0.000069
    6  P  1  X    0.000000  -0.000000   0.000002   0.000011  -0.080768
    7  P  1  Y    0.000000  -0.000000   0.000000  -0.080769  -0.000011
    8  P  1  Z    0.000001  -0.000000  -0.326645   0.000000   0.000000
    9  P  1  X    0.000001  -0.000000   0.000007   0.000068  -0.510815
   10  P  1  Y   -0.000000  -0.000001   0.000000  -0.510817  -0.000068
   11  P  1  Z    0.000004  -0.000000  -1.187596   0.000000  -0.000001
   12  P  1  X    0.000000  -0.000000   0.000000   0.000010  -0.078909
   13  P  1  Y   -0.000000  -0.000000  -0.000000  -0.078910  -0.000010
   14  P  1  Z    0.000000  -0.000000  -0.031154  -0.000000  -0.000000
   15  P  1  X   -0.000004   0.000000  -0.000003  -0.000475   3.588099
   16  P  1  Y    0.000000   0.000004   0.000000   3.588030   0.000475
   17  P  1  Z   -0.000005   0.000000   1.398609   0.000001   0.000020
   18  P  1 XX   -0.000001  -0.000000   0.000000  -0.000005   0.041026
   19  P  1 YY   -0.000000  -0.000000  -0.000000   0.000005  -0.041024
   20  P  1 ZZ    0.000001   0.000000   0.000000   0.000000  -0.000002
   21  P  1 XY   -0.000000  -0.000001  -0.000000  -0.047371  -0.000006
   22  P  1 XZ    0.126000  -0.000010   0.000000  -0.000000   0.000000
   23  P  1 YZ    0.000010   0.126000  -0.000000  -0.000000  -0.000000
   24  P  1 XX   -0.000009   0.000000   0.000001  -0.000095   0.718970
   25  P  1 YY    0.000001  -0.000000  -0.000001   0.000095  -0.718958
   26  P  1 ZZ    0.000008   0.000000   0.000000   0.000000  -0.000012
   27  P  1 XY   -0.000000  -0.000005  -0.000000  -0.830200  -0.000110
   28  P  1 XZ    0.804743  -0.000064   0.000003  -0.000000   0.000006
   29  P  1 YZ    0.000064   0.804743  -0.000000  -0.000006  -0.000000
   30  P  1 XXX  -0.000000  -0.000000   0.000000  -0.000008   0.063784
   31  P  1 YYY   0.000000   0.000000   0.000000   0.063779   0.000008
   32  P  1 ZZZ  -0.000000   0.000000  -0.003949  -0.000000  -0.000002
   33  P  1 XXY   0.000000   0.000000   0.000000   0.028528   0.000004
   34  P  1 XXZ   0.004459  -0.000000   0.002649   0.000000   0.000002
   35  P  1 YYX   0.000000   0.000000   0.000000  -0.000004   0.028521
   36  P  1 YYZ  -0.004459   0.000000   0.002649   0.000000   0.000000
   37  P  1 ZZX   0.000000  -0.000000  -0.000000   0.000015  -0.114097
   38  P  1 ZZY  -0.000000  -0.000000  -0.000000  -0.114096  -0.000015
   39  P  1 XYZ  -0.000000  -0.005148   0.000000   0.000001   0.000000
   40  P  1 XX   -0.000000   0.000000  -0.000000  -0.000001   0.007511
   41  P  1 YY    0.000000  -0.000000   0.000000   0.000001  -0.007511
   42  P  1 ZZ    0.000000   0.000000  -0.000000   0.000000  -0.000000
   43  P  1 XY   -0.000000  -0.000000  -0.000000  -0.008673  -0.000001
   44  P  1 XZ    0.048874  -0.000004   0.000000  -0.000000   0.000000
   45  P  1 YZ    0.000004   0.048874  -0.000000  -0.000000  -0.000000
   46  H  2  S    0.000000  -0.000000  -0.000000   0.054032  -0.031185
   47  H  2  S    0.000000  -0.000000   0.000001  -0.473505   0.273281
   48  H  2  S   -0.000001  -0.000002   0.000002  -2.344157   1.352999
   49  H  2  X    0.000000   0.000000  -0.000000   0.007387  -0.004969
   50  H  2  Y   -0.000000  -0.000000   0.000000  -0.013499   0.007384
   51  H  2  Z   -0.000249   0.000430   0.005376   0.000000  -0.000000
   52  H  2  X    0.000000  -0.000001   0.000001  -0.142381   0.126727
   53  H  2  Y    0.000000   0.000000  -0.000000   0.291147  -0.142316
   54  H  2  Z   -0.062078   0.107542  -0.045544  -0.000001   0.000001
   55  H  2 XX   -0.000000   0.000000   0.000000   0.003498   0.002130
   56  H  2 YY    0.000000   0.000000   0.000000  -0.008773   0.000915
   57  H  2 ZZ    0.000000  -0.000000  -0.000000   0.005274  -0.003044
   58  H  2 XY    0.000000  -0.000000  -0.000000   0.007482  -0.007083
   59  H  2 XZ    0.002254  -0.001801   0.000034  -0.000000   0.000000
   60  H  2 YZ   -0.001800   0.004333  -0.000059   0.000000  -0.000000
   61  H  3  S    0.000000   0.000000  -0.000000  -0.054023  -0.031200
   62  H  3  S    0.000000   0.000001   0.000001   0.473433   0.273406
   63  H  3  S   -0.000001   0.000002   0.000002   2.343798   1.353620
   64  H  3  X    0.000000  -0.000000  -0.000000  -0.007386  -0.004970
   65  H  3  Y    0.000000  -0.000000  -0.000000  -0.013497  -0.007388
   66  H  3  Z   -0.000249  -0.000430   0.005376  -0.000000  -0.000000
   67  H  3  X    0.000000   0.000001   0.000001   0.142347   0.126765
   68  H  3  Y   -0.000000   0.000000   0.000000   0.291109   0.142393
   69  H  3  Z   -0.062095  -0.107532  -0.045544   0.000001   0.000001
   70  H  3 XX   -0.000000  -0.000000   0.000000  -0.003499   0.002129
   71  H  3 YY    0.000000  -0.000000   0.000000   0.008773   0.000917
   72  H  3 ZZ    0.000000   0.000000  -0.000000  -0.005274  -0.003046
   73  H  3 XY   -0.000000  -0.000000   0.000000   0.007480   0.007085
   74  H  3 XZ    0.002254   0.001801   0.000034   0.000000   0.000000
   75  H  3 YZ    0.001801   0.004333   0.000059   0.000000   0.000000
   76  H  4  S    0.000000   0.000000   0.000000  -0.000008   0.062386
   77  H  4  S    0.000001   0.000000  -0.000001   0.000072  -0.546729
   78  H  4  S    0.000003  -0.000000  -0.000004   0.000358  -2.706662
   79  H  4  X   -0.000000  -0.000000  -0.000000   0.000002  -0.017762
   80  H  4  Y   -0.000000   0.000000  -0.000000  -0.000705  -0.000000
   81  H  4  Z    0.000497  -0.000000   0.005376  -0.000000  -0.000000
   82  H  4  X   -0.000001   0.000000   0.000001  -0.000049   0.373325
   83  H  4  Y   -0.000000   0.000000   0.000000   0.044557   0.000006
   84  H  4  Z    0.124171  -0.000010  -0.045544   0.000000   0.000003
   85  H  4 XX   -0.000000   0.000000  -0.000000   0.000002  -0.013066
   86  H  4 YY   -0.000000  -0.000000   0.000000  -0.000001   0.006976
   87  H  4 ZZ    0.000000   0.000000   0.000000  -0.000001   0.006090
   88  H  4 XY   -0.000000  -0.000000  -0.000000  -0.004790  -0.000001
   89  H  4 XZ    0.005373  -0.000000  -0.000068  -0.000000  -0.000000
   90  H  4 YZ    0.000000   0.001214  -0.000000  -0.000000   0.000000

                     21         22         23         24         25
                    0.2912     0.3827     0.5063     0.5063     0.5395
                     A          A          A          A          A   
    1  P  1  S   -0.080852  -0.004721  -0.000002  -0.000000  -0.000000
    2  P  1  S   -0.604975  -0.044273  -0.000013  -0.000000   0.000000
    3  P  1  S   -1.299894  -0.040873  -0.000025  -0.000000   0.000000
    4  P  1  S   -0.454136  -0.260683   0.000001   0.000000  -0.000000
    5  P  1  S    6.415974   2.862256  -0.000009   0.000000  -0.000000
    6  P  1  X    0.000011   0.000003  -0.236632   0.000107  -0.000000
    7  P  1  Y   -0.000000  -0.000000   0.000107   0.236630   0.000020
    8  P  1  Z   -0.000000  -0.000000  -0.000001   0.000000   0.000000
    9  P  1  X    0.000031   0.000007  -0.791949   0.000357  -0.000000
   10  P  1  Y   -0.000000  -0.000000   0.000357   0.791942   0.000079
   11  P  1  Z   -0.000000  -0.000000  -0.000005   0.000000  -0.000000
   12  P  1  X    0.000001  -0.000000  -0.021991   0.000010   0.000000
   13  P  1  Y    0.000000   0.000000   0.000010   0.021991   0.000007
   14  P  1  Z    0.000000  -0.000000  -0.000000   0.000000  -0.000000
   15  P  1  X   -0.000025  -0.000036  -1.096690   0.000494   0.000000
   16  P  1  Y   -0.000000   0.000000   0.000494   1.096663   0.000156
   17  P  1  Z   -0.000000   0.000000  -0.000007   0.000000   0.000000
   18  P  1 XX    0.033725   0.057447  -0.090762   0.000041   0.000000
   19  P  1 YY    0.033716   0.057447   0.090762  -0.000041  -0.000000
   20  P  1 ZZ   -0.067441  -0.114894   0.000000  -0.000000  -0.000000
   21  P  1 XY    0.000000  -0.000000  -0.000047  -0.104805  -0.000014
   22  P  1 XZ    0.000001   0.000001  -0.000001  -0.000000   0.000000
   23  P  1 YZ    0.000000   0.000000   0.000000  -0.000001   0.000000
   24  P  1 XX    0.266731   0.729976  -1.167458   0.000526   0.000000
   25  P  1 YY    0.266676   0.729988   1.167437  -0.000526  -0.000000
   26  P  1 ZZ   -0.533408  -1.459964   0.000021   0.000000   0.000000
   27  P  1 XY    0.000000  -0.000000  -0.000607  -1.348071  -0.000172
   28  P  1 XZ    0.000006   0.000016  -0.000008  -0.000000  -0.000000
   29  P  1 YZ    0.000000   0.000001   0.000000  -0.000008   0.000000
   30  P  1 XXX   0.261296   0.132352   0.006389  -0.000003  -0.000000
   31  P  1 YYY  -0.000000  -0.000000  -0.000003  -0.006400   0.058434
   32  P  1 ZZZ   0.000000   0.000000  -0.000000   0.000000  -0.000000
   33  P  1 XXY  -0.000000  -0.000000  -0.000001  -0.002845  -0.078405
   34  P  1 XXZ   0.000002   0.000001   0.000000  -0.000000  -0.000000
   35  P  1 YYX  -0.350564  -0.177568   0.002860  -0.000001   0.000000
   36  P  1 YYZ  -0.000002  -0.000001   0.000000  -0.000000   0.000000
   37  P  1 ZZX  -0.000001  -0.000001  -0.011432   0.000005   0.000000
   38  P  1 ZZY   0.000000   0.000000   0.000005   0.011432   0.000007
   39  P  1 XYZ  -0.000000  -0.000000   0.000000  -0.000000  -0.000001
   40  P  1 XX   -0.006921   0.019703  -0.036440   0.000016  -0.000000
   41  P  1 YY   -0.006921   0.019705   0.036440  -0.000016   0.000000
   42  P  1 ZZ    0.013843  -0.039409   0.000000   0.000000  -0.000000
   43  P  1 XY    0.000000  -0.000000  -0.000019  -0.042077  -0.000006
   44  P  1 XZ   -0.000000   0.000000  -0.000000  -0.000000   0.000000
   45  P  1 YZ   -0.000000   0.000000   0.000000  -0.000000   0.000000
   46  H  2  S    0.054546  -0.023316  -0.016745  -0.028973  -0.000004
   47  H  2  S   -0.565991  -1.208543  -0.865711  -1.497950  -0.000186
   48  H  2  S   -1.726588  -0.340053  -0.024714  -0.042726  -0.000007
   49  H  2  X    0.002165  -0.005832  -0.006711  -0.001040   0.038396
   50  H  2  Y   -0.003751   0.010102   0.001041   0.007906   0.022169
   51  H  2  Z    0.000000  -0.000000  -0.000000   0.000000   0.000000
   52  H  2  X   -0.255250  -0.096118   0.130194  -0.081391  -0.578939
   53  H  2  Y    0.442101   0.166469   0.081389  -0.036226  -0.334268
   54  H  2  Z   -0.000002  -0.000001   0.000001  -0.000001  -0.000004
   55  H  2 XX    0.006664   0.008134  -0.008923   0.002022  -0.017975
   56  H  2 YY   -0.026547  -0.014450   0.002483  -0.013164   0.017974
   57  H  2 ZZ    0.019883   0.006316   0.006440   0.011142   0.000001
   58  H  2 XY    0.033214   0.022587   0.008763   0.003522   0.011982
   59  H  2 XZ   -0.000000   0.000000  -0.000000  -0.000000  -0.000000
   60  H  2 YZ    0.000000   0.000000   0.000000   0.000000   0.000000
   61  H  3  S    0.054546  -0.023316  -0.016719   0.028988   0.000004
   62  H  3  S   -0.565991  -1.208543  -0.864361   1.498730   0.000186
   63  H  3  S   -1.726588  -0.340053  -0.024675   0.042748   0.000007
   64  H  3  X    0.002165  -0.005832  -0.006710   0.001046  -0.038396
   65  H  3  Y    0.003751  -0.010102  -0.001034   0.007907   0.022169
   66  H  3  Z    0.000000  -0.000000  -0.000000   0.000000  -0.000000
   67  H  3  X   -0.255250  -0.096118   0.130267   0.081274   0.578939
   68  H  3  Y   -0.442101  -0.166469  -0.081422  -0.036152  -0.334268
   69  H  3  Z   -0.000002  -0.000001   0.000001   0.000001   0.000004
   70  H  3 XX    0.006664   0.008134  -0.008925  -0.002014   0.017975
   71  H  3 YY   -0.026547  -0.014450   0.002495   0.013162  -0.017974
   72  H  3 ZZ    0.019883   0.006316   0.006430  -0.011148  -0.000001
   73  H  3 XY   -0.033214  -0.022587  -0.008760   0.003530   0.011982
   74  H  3 XZ   -0.000000   0.000000  -0.000000   0.000000   0.000000
   75  H  3 YZ   -0.000000  -0.000000  -0.000000   0.000000   0.000000
[...]
      390    0.024139   -0.024139  -+2++-0
      773    0.023785   -0.023785  +2-++0-
      424   -0.023784   -0.023784  +-2++-0
      789   -0.023584   -0.023584  022+002
      429   -0.023584   -0.023584  022+020
      159    0.022308   -0.022308  -2++-0+
      184   -0.022308   -0.022308  -+2+-+0
     1051    0.021011    0.021011  2+++0--

 State #    2  Energy =    -342.180987812

      Det      Coef        Coefp    Occupancy (Ignoring core)
      ---      ----        ----    --------- --------- -----
       36    0.948347    0.948347  22+2000
       16    0.118294   -0.118294  222000+
       71    0.113965   -0.113965  2+22000
      142   -0.113109   -0.113109  22+0200
       39    0.084140    0.084140  2-+2+00
       73   -0.084138    0.084138  2+-2+00
       52   -0.076312    0.076312  220200+
      108    0.057700    0.057700  +2-2+00
      249   -0.057061    0.057061  20+2200
      123   -0.054433    0.054433  +-2200+
      112    0.054433    0.054433  +2-20+0
      463   -0.052315    0.052315  20+2020
       88   -0.045110    0.045110  202200+
      456    0.043640    0.043640  2++20-0
       77   -0.037421    0.037421  2+-20+0
      460    0.035540    0.035540  -++2+-0
       40   -0.031303    0.031303  -2+2+00
      491   -0.030404    0.030404  +2+20-0
      876    0.030401    0.030401  ++2200-
      288    0.028565    0.028565  +-+2-+0
       38   -0.027899    0.027899  2202+00
       74    0.027899   -0.027899  2022+00
      499   -0.027746    0.027746  02+2020
      859   -0.027724    0.027724  02+2002
      494   -0.027471    0.027471  +-+2+-0
      285   -0.027096    0.027096  02+2200
      823   -0.026731    0.026731  20+2002
      281   -0.026397    0.026397  +2+2-00
      254   -0.024904    0.024904  -++2-+0
       89    0.024032    0.024032  -+2200+
       44   -0.024029    0.024029  -2+20+0
      297   -0.023432    0.023432  +202-0+
      808   -0.023406    0.023406  2+02+0-
      459    0.023406   -0.023406  20+2+-0
      262    0.022841    0.022841  2+02-0+
      253   -0.022840   -0.022840  20+2-+0

 State #    3  Energy =    -342.180984561

      Det      Coef        Coefp    Occupancy (Ignoring core)
      ---      ----        ----    --------- --------- -----
       71    0.948348   -0.948348  2+22000
        6   -0.118290    0.118290  22200+0
       36   -0.113965   -0.113965  22+2000
      177   -0.113109    0.113109  2+20200
       38    0.084139   -0.084139  2202+00
       74   -0.084136    0.084136  2022+00
       78    0.076310   -0.076310  20220+0
      109    0.057701   -0.057701  +-22+00
      248   -0.057062    0.057062  2+02200
      122   -0.054433   -0.054433  +2-200+
      113   -0.054433    0.054433  +-220+0
      822   -0.052316    0.052316  2+02002
       42    0.045110   -0.045110  22020+0
      806    0.043640    0.043640  2++200-
       53   -0.037422   -0.037422  2-+200+
      810    0.035540    0.035540  -++2+0-
       75   -0.031303   -0.031303  -+22+00
      841    0.030401   -0.030401  +2+200-
      526    0.030398    0.030398  ++220-0
      332    0.028565   -0.028565  ++-2-0+
       39    0.027899    0.027899  2-+2+00
       73   -0.027898    0.027898  2+-2+00
      894   -0.027746   -0.027746  0+22002
      534   -0.027724   -0.027724  0+22020
      878   -0.027471   -0.027471  ++-2+0-
      320   -0.027096   -0.027096  0+22200
      462   -0.026731    0.026731  2+02020
      316   -0.026398   -0.026398  ++22-00
      264   -0.024904    0.024904  -++2-0+
       79    0.024035    0.024035  -+220+0
       54    0.024032   -0.024032  -2+200+
      323    0.023432   -0.023432  +022-+0
      809   -0.023407    0.023407  20+2+0-
      458   -0.023406    0.023406  2+02+-0
      263    0.022841    0.022841  20+2-0+
      252    0.022841    0.022841  2+02-+0

 ---------------------------------------
      - DIABATIC STATES IN CMO -        
 ---------------------------------------

 State #    1  Energy =    -342.419374173

      Det      Coef        Coefp    Occupancy (Ignoring core)
      ---      ----        ----    --------- --------- -----
        1    0.977737   -0.977737  222+000
      107   -0.076236    0.076236  +22-+00
      717   -0.055667   -0.055667  220+002
      393   -0.055665   -0.055665  202+020
      179   -0.052532   -0.052532  202+200
      143   -0.052530   -0.052530  220+200
        5    0.049938    0.049938  -22++00
       17    0.037237    0.037237  22-+00+
        8    0.037235   -0.037235  2-2+0+0
       51   -0.031454    0.031454  22+-00+
       76   -0.031453   -0.031453  2+2-0+0
      215   -0.030864   -0.030864  022+200
      704    0.030124   -0.030124  2-+++0-
      353    0.030124    0.030124  220++-0
      738   -0.030124   -0.030124  2+-++0-
      389   -0.030124   -0.030124  202++-0
      227   -0.028162   -0.028162  +2-+-0+
      218   -0.028162    0.028162  +-2+-+0
      192    0.027459   -0.027459  2+-+-0+
      147   -0.027459    0.027459  220+-+0
      158   -0.027459   -0.027459  2-++-0+
      183    0.027458   -0.027458  202+-+0
      742    0.026480    0.026480  2+-+0+-
      368    0.026480    0.026480  2-++0-+
      211    0.026298    0.026298  +22+-00
      357   -0.026075   -0.026075  220+020
      753   -0.026074   -0.026074  202+002
       29   -0.025722   -0.025722  2--+0++
      705   -0.024267   -0.024267  -2+++0-
      390   -0.024267    0.024267  -+2++-0
      773    0.023911   -0.023911  +2-++0-
      424    0.023911    0.023911  +-2++-0
      789   -0.023584   -0.023584  022+002
      429   -0.023584   -0.023584  022+020
      159    0.022427   -0.022427  -2++-0+
      184    0.022427    0.022427  -+2+-+0
     1051   -0.021011   -0.021011  2+++0--

 State #    2  Energy =    -342.180987812

      Det      Coef        Coefp    Occupancy (Ignoring core)
      ---      ----        ----    --------- --------- -----
       36    0.954835    0.954835  22+2000
       16    0.118268   -0.118268  222000+
      142   -0.113883   -0.113883  22+0200
       39    0.088608    0.088608  2-+2+00
       73   -0.088608    0.088608  2+-2+00
       52   -0.076688    0.076688  220200+
      108    0.058094    0.058094  +2-2+00
      249   -0.057452    0.057452  20+2200
      112   -0.055721   -0.055721  +2-20+0
      123   -0.055721    0.055721  +-2200+
      463   -0.052628    0.052628  20+2020
       88   -0.044708    0.044708  202200+
      456   -0.043630   -0.043630  2++20-0
       77    0.037806   -0.037806  2+-20+0
      460   -0.035532   -0.035532  -++2+-0
       40   -0.031519    0.031519  -2+2+00
      491    0.031120   -0.031120  +2+20-0
      876    0.031120    0.031120  ++2200-
      288   -0.028916   -0.028916  +-+2-+0
      499   -0.027936    0.027936  02+2020
      859   -0.027914    0.027914  02+2002
      494    0.027756   -0.027756  +-+2+-0
      285   -0.027281    0.027281  02+2200
      823   -0.026958    0.026958  20+2002
      281   -0.026575    0.026575  +2+2-00
       71   -0.025301    0.025301  2+22000
      254    0.024898   -0.024898  -++2-+0
       44    0.024601   -0.024601  -2+20+0
       89    0.024601    0.024601  -+2200+
      808   -0.023960    0.023960  2+02+0-
      459   -0.023960    0.023960  20+2+-0
      297   -0.023784    0.023784  +202-0+
      262    0.023381    0.023381  2+02-0+
      253    0.023381    0.023381  20+2-+0
      843    0.020180    0.020180  +202+0-

 State #    3  Energy =    -342.180984561

      Det      Coef        Coefp    Occupancy (Ignoring core)
      ---      ----        ----    --------- --------- -----
       71    0.954835   -0.954835  2+22000
        6    0.118264   -0.118264  22200+0
      177   -0.113883    0.113883  2+20200
       38    0.088609   -0.088609  2202+00
       74   -0.088608    0.088608  2022+00
       78   -0.076685    0.076685  20220+0
      109    0.058097   -0.058097  +-22+00
      248   -0.057451    0.057451  2+02200
      122   -0.055722   -0.055722  +2-200+
      113    0.055721   -0.055721  +-220+0
      822   -0.052629    0.052629  2+02002
       42   -0.044709    0.044709  22020+0
      806    0.043631    0.043631  2++200-
       53   -0.037806   -0.037806  2-+200+
      810    0.035532    0.035532  -++2+0-
       75   -0.031521   -0.031521  -+22+00
      841    0.031121   -0.031121  +2+200-
      526   -0.031120   -0.031120  ++220-0
      332    0.028916   -0.028916  ++-2-0+
      894   -0.027936   -0.027936  0+22002
      534   -0.027913   -0.027913  0+22020
      878   -0.027757   -0.027757  ++-2+0-
      320   -0.027282   -0.027282  0+22200
      462   -0.026959    0.026959  2+02020
      316   -0.026576   -0.026576  ++22-00
       36    0.025301    0.025301  22+2000
      264   -0.024899    0.024899  -++2-0+
       54    0.024601   -0.024601  -2+200+
       79   -0.024601   -0.024601  -+220+0
      809   -0.023961    0.023961  20+2+0-
      458    0.023961   -0.023961  2+02+-0
      323   -0.023784    0.023784  +022-+0
      252   -0.023381   -0.023381  2+02-+0
      263    0.023381    0.023381  20+2-0+
      529    0.020180    0.020180  +022+-0

 ---------------------------------------
    -DIABATIC STATES IN PROTOTYPES-     
 ---------------------------------------

     STATE:    1
 Group Ref#    Coefficients
     1    1    0.999014
     2    2   -0.000000
     3    3   -0.000000

WEIGHT OF LISTED PROTOTYPES:   99.80%

     STATE:    2
 Group Ref#    Coefficients
     1    1   -0.000000
     2    2    0.997532
     3    3    0.000000

WEIGHT OF LISTED PROTOTYPES:   99.51%

     STATE:    3
 Group Ref#    Coefficients
     1    1   -0.000000
     2    2    0.000000
     3    3    0.997532

WEIGHT OF LISTED PROTOTYPES:   99.51%

     DIRECT MAX. DIABATIZATION FINISHED    
 CPU     0: STEP CPU TIME=     0.29 TOTAL CPU TIME=         23.4 (      0.4 MIN)
 TOTAL WALL CLOCK TIME=         25.2 SECONDS, CPU UTILIZATION IS    92.66%

DIABATS FOR SPIN-ORBIT CALCULATION ARE READY

TRANSITION DIPOLES BETWEEN ADIABATS (in A.U.):

STATE PAIR      X         Y         Z
    1    1 -0.000040  0.000000 -0.000000
    2    1  0.000000  0.000000  0.000000
    2    2  0.422708 -0.000969  0.000003
    3    1 -0.000000  0.000000 -0.000002
    3    2  0.000969  0.422746  0.000000
    3    3 -0.422771  0.000969 -0.000003


TRANSITION DIPOLES BETWEEN DIABATS (in A.U.):

STATE PAIR      X         Y         Z
    1    1 -0.000040  0.000000 -0.000000
    2    1  0.000000  0.000002 -0.000000
    2    2  0.422093 -0.022810  0.000003
    3    1 -0.000002  0.000000  0.000002
    3    2  0.022810  0.422131  0.000000
    3    3 -0.422156  0.022810 -0.000003

TRANSITION DIPOLES BETWEEN DIRECT MAX. DIABATS (in A.U.):

STATE PAIR      X         Y         Z
    1    1 -0.000040  0.000000 -0.000000
    2    1  0.000000  0.000002 -0.000000
    2    2  0.422093 -0.022810  0.000003
    3    1 -0.000002  0.000000  0.000002
    3    2  0.022810  0.422131  0.000000
    3    3 -0.422156  0.022810 -0.000003
 No $TRANST Group Found.
 Quit without doing spin-orbit coupling
 ..... DONE WITH MP2 ENERGY .....
 CPU     0: STEP CPU TIME=     0.00 TOTAL CPU TIME=         23.4 (      0.4 MIN)
 TOTAL WALL CLOCK TIME=         25.2 SECONDS, CPU UTILIZATION IS    92.66%
            100000000  WORDS OF DYNAMIC MEMORY USED
 EXECUTION OF GAMESS TERMINATED NORMALLY Sat Nov 25 23:42:56 2023
 DDI: 4351152 bytes (4.1 MB / 0 MWords) used by master data server.

 ----------------------------------------
 CPU timing information for all processes
 ========================================
 0: 23.257 + 0.121 = 23.378
 1: 22.381 + 0.124 = 22.505
 ----------------------------------------
Note: The following floating-point exceptions are signalling: IEEE_DENORMAL
Note: The following floating-point exceptions are signalling: IEEE_DENORMAL
 ddikick.x: exited gracefully.
unset echo
----- accounting info -----
Files used on the master node io001 were:
-rw-r--r-- 1 bjb2chen nooijen  134348 Nov 25 23:42 /home/bjb2chen/gmsscr//ph3_cct_gmcpt_D3h_3st_diab_mode3_+0.05.F05
-rw-r--r-- 1 bjb2chen nooijen 2006104 Nov 25 23:42 /home/bjb2chen/gmsscr//ph3_cct_gmcpt_D3h_3st_diab_mode3_+0.05.F09
-rw-r--r-- 1 bjb2chen nooijen 2340208 Nov 25 23:42 /home/bjb2chen/gmsscr//ph3_cct_gmcpt_D3h_3st_diab_mode3_+0.05.F09.001
-rw-r--r-- 1 bjb2chen nooijen 2715760 Nov 25 23:42 /home/bjb2chen/gmsscr//ph3_cct_gmcpt_D3h_3st_diab_mode3_+0.05.F10
-rw-r--r-- 1 bjb2chen nooijen 1011848 Nov 25 23:42 /home/bjb2chen/gmsscr//ph3_cct_gmcpt_D3h_3st_diab_mode3_+0.05.F13
-rw-r--r-- 1 bjb2chen nooijen 1011848 Nov 25 23:42 /home/bjb2chen/gmsscr//ph3_cct_gmcpt_D3h_3st_diab_mode3_+0.05.F13.001
-rw-r--r-- 1 bjb2chen nooijen  180648 Nov 25 23:42 /home/bjb2chen/gmsscr//ph3_cct_gmcpt_D3h_3st_diab_mode3_+0.05.F15
-rw-r--r-- 1 bjb2chen nooijen       0 Nov 25 23:42 /home/bjb2chen/gmsscr//ph3_cct_gmcpt_D3h_3st_diab_mode3_+0.05.F16
-rw-r--r-- 1 bjb2chen nooijen    9808 Nov 25 23:42 /home/bjb2chen/gmsscr//ph3_cct_gmcpt_D3h_3st_diab_mode3_+0.05.F70
-rw-r--r-- 1 bjb2chen nooijen    9808 Nov 25 23:42 /home/bjb2chen/gmsscr//ph3_cct_gmcpt_D3h_3st_diab_mode3_+0.05.F70.001
-rw-r--r-- 1 bjb2chen nooijen    9808 Nov 25 23:42 /home/bjb2chen/gmsscr//ph3_cct_gmcpt_D3h_3st_diab_mode3_+0.05.F71
-rw-r--r-- 1 bjb2chen nooijen    9808 Nov 25 23:42 /home/bjb2chen/gmsscr//ph3_cct_gmcpt_D3h_3st_diab_mode3_+0.05.F71.001
-rw-r--r-- 1 bjb2chen nooijen   19608 Nov 25 23:42 /home/bjb2chen/gmsscr//ph3_cct_gmcpt_D3h_3st_diab_mode3_+0.05.F72
-rw-r--r-- 1 bjb2chen nooijen   19608 Nov 25 23:42 /home/bjb2chen/gmsscr//ph3_cct_gmcpt_D3h_3st_diab_mode3_+0.05.F72.001
-rw-r--r-- 1 bjb2chen nooijen   19608 Nov 25 23:42 /home/bjb2chen/gmsscr//ph3_cct_gmcpt_D3h_3st_diab_mode3_+0.05.F73
-rw-r--r-- 1 bjb2chen nooijen   19608 Nov 25 23:42 /home/bjb2chen/gmsscr//ph3_cct_gmcpt_D3h_3st_diab_mode3_+0.05.F73.001
-rw-r--r-- 1 bjb2chen nooijen  961208 Nov 25 23:42 /home/bjb2chen/gmsscr//ph3_cct_gmcpt_D3h_3st_diab_mode3_+0.05.F74
-rw-r--r-- 1 bjb2chen nooijen  959640 Nov 25 23:42 /home/bjb2chen/gmsscr//ph3_cct_gmcpt_D3h_3st_diab_mode3_+0.05.F74.001
-rw-r--r-- 1 bjb2chen nooijen       0 Nov 25 23:42 /home/bjb2chen/gmsscr//ph3_cct_gmcpt_D3h_3st_diab_mode3_+0.05.F75
-rw-r--r-- 1 bjb2chen nooijen       0 Nov 25 23:42 /home/bjb2chen/gmsscr//ph3_cct_gmcpt_D3h_3st_diab_mode3_+0.05.F75.001
-rw-r--r-- 1 bjb2chen nooijen   58848 Nov 25 23:42 /home/bjb2chen/gmsscr//ph3_cct_gmcpt_D3h_3st_diab_mode3_+0.05.F76
-rw-r--r-- 1 bjb2chen nooijen   58848 Nov 25 23:42 /home/bjb2chen/gmsscr//ph3_cct_gmcpt_D3h_3st_diab_mode3_+0.05.F76.001
-rw-r--r-- 1 bjb2chen nooijen       0 Nov 25 23:42 /home/bjb2chen/gmsscr//ph3_cct_gmcpt_D3h_3st_diab_mode3_+0.05.F77
-rw-r--r-- 1 bjb2chen nooijen       0 Nov 25 23:42 /home/bjb2chen/gmsscr//ph3_cct_gmcpt_D3h_3st_diab_mode3_+0.05.F77.001
-rw-r--r-- 1 bjb2chen nooijen    5128 Nov 25 23:42 /home/bjb2chen/gmsscr//ph3_cct_gmcpt_D3h_3st_diab_mode3_+0.05.F78
-rw-r--r-- 1 bjb2chen nooijen    5128 Nov 25 23:42 /home/bjb2chen/gmsscr//ph3_cct_gmcpt_D3h_3st_diab_mode3_+0.05.F78.001
-rw-r--r-- 1 bjb2chen nooijen   39208 Nov 25 23:42 /home/bjb2chen/gmsscr//ph3_cct_gmcpt_D3h_3st_diab_mode3_+0.05.F79
-rw-r--r-- 1 bjb2chen nooijen   39208 Nov 25 23:42 /home/bjb2chen/gmsscr//ph3_cct_gmcpt_D3h_3st_diab_mode3_+0.05.F79.001
-rw-r--r-- 1 bjb2chen nooijen     104 Nov 25 23:42 /home/bjb2chen/gmsscr//ph3_cct_gmcpt_D3h_3st_diab_mode3_+0.05.F80
-rw-r--r-- 1 bjb2chen nooijen     104 Nov 25 23:42 /home/bjb2chen/gmsscr//ph3_cct_gmcpt_D3h_3st_diab_mode3_+0.05.F80.001
-rw-r--r-- 1 bjb2chen nooijen  102416 Nov 25 23:42 /home/bjb2chen/gmsscr//ph3_cct_gmcpt_D3h_3st_diab_mode3_+0.05.F81
-rw-r--r-- 1 bjb2chen nooijen  102416 Nov 25 23:42 /home/bjb2chen/gmsscr//ph3_cct_gmcpt_D3h_3st_diab_mode3_+0.05.F81.001
-rw-r--r-- 1 bjb2chen nooijen     136 Nov 25 23:42 /home/bjb2chen/gmsscr//ph3_cct_gmcpt_D3h_3st_diab_mode3_+0.05.F82
-rw-r--r-- 1 bjb2chen nooijen     136 Nov 25 23:42 /home/bjb2chen/gmsscr//ph3_cct_gmcpt_D3h_3st_diab_mode3_+0.05.F82.001
-rw-r--r-- 1 bjb2chen nooijen   19216 Nov 25 23:42 /home/bjb2chen/gmsscr//ph3_cct_gmcpt_D3h_3st_diab_mode3_+0.05.F83
-rw-r--r-- 1 bjb2chen nooijen   19216 Nov 25 23:42 /home/bjb2chen/gmsscr//ph3_cct_gmcpt_D3h_3st_diab_mode3_+0.05.F83.001
-rw-r--r-- 1 bjb2chen nooijen  154896 Nov 25 23:42 /home/bjb2chen/gmsscr//ph3_cct_gmcpt_D3h_3st_diab_mode3_+0.05.F84
-rw-r--r-- 1 bjb2chen nooijen  154896 Nov 25 23:42 /home/bjb2chen/gmsscr//ph3_cct_gmcpt_D3h_3st_diab_mode3_+0.05.F84.001
-rw-r--r-- 1 bjb2chen nooijen 1354248 Nov 25 23:42 /home/bjb2chen/gmsscr//ph3_cct_gmcpt_D3h_3st_diab_mode3_+0.05.F85
-rw-r--r-- 1 bjb2chen nooijen 1354248 Nov 25 23:42 /home/bjb2chen/gmsscr//ph3_cct_gmcpt_D3h_3st_diab_mode3_+0.05.F85.001
-rw-r--r-- 1 bjb2chen nooijen 6211000 Nov 25 23:42 /home/bjb2chen/gmsscr//ph3_cct_gmcpt_D3h_3st_diab_mode3_+0.05.F86
-rw-r--r-- 1 bjb2chen nooijen 6072152 Nov 25 23:42 /home/bjb2chen/gmsscr//ph3_cct_gmcpt_D3h_3st_diab_mode3_+0.05.F86.001
-rw-r--r-- 1 bjb2chen nooijen     656 Nov 25 23:42 /home/bjb2chen/gmsscr//ph3_cct_gmcpt_D3h_3st_diab_mode3_+0.05.F87
-rw-r--r-- 1 bjb2chen nooijen     656 Nov 25 23:42 /home/bjb2chen/gmsscr//ph3_cct_gmcpt_D3h_3st_diab_mode3_+0.05.F87.001
-rw-r--r-- 1 bjb2chen nooijen   16336 Nov 25 23:42 /home/bjb2chen/gmsscr//ph3_cct_gmcpt_D3h_3st_diab_mode3_+0.05.F88
-rw-r--r-- 1 bjb2chen nooijen   16336 Nov 25 23:42 /home/bjb2chen/gmsscr//ph3_cct_gmcpt_D3h_3st_diab_mode3_+0.05.F88.001
-rw-r--r-- 1 bjb2chen nooijen     648 Nov 25 23:42 /home/bjb2chen/gmsscr//ph3_cct_gmcpt_D3h_3st_diab_mode3_+0.05.F89
-rw-r--r-- 1 bjb2chen nooijen     648 Nov 25 23:42 /home/bjb2chen/gmsscr//ph3_cct_gmcpt_D3h_3st_diab_mode3_+0.05.F89.001
-rw-r--r-- 1 bjb2chen nooijen       0 Nov 25 23:42 /home/bjb2chen/gmsscr//ph3_cct_gmcpt_D3h_3st_diab_mode3_+0.05.F90
-rw-r--r-- 1 bjb2chen nooijen       0 Nov 25 23:42 /home/bjb2chen/gmsscr//ph3_cct_gmcpt_D3h_3st_diab_mode3_+0.05.F90.001
-rw-r--r-- 1 bjb2chen nooijen   13760 Nov 25 23:42 /home/bjb2chen/gmsscr//ph3_cct_gmcpt_D3h_3st_diab_mode3_+0.05.F91
-rw-r--r-- 1 bjb2chen nooijen   13760 Nov 25 23:42 /home/bjb2chen/gmsscr//ph3_cct_gmcpt_D3h_3st_diab_mode3_+0.05.F91.001
-rw-r--r-- 1 bjb2chen nooijen   22776 Nov 25 23:42 /home/bjb2chen/gmsscr//ph3_cct_gmcpt_D3h_3st_diab_mode3_+0.05.F92
-rw-r--r-- 1 bjb2chen nooijen   22776 Nov 25 23:42 /home/bjb2chen/gmsscr//ph3_cct_gmcpt_D3h_3st_diab_mode3_+0.05.F92.001
-rw-r--r-- 1 bjb2chen nooijen   23168 Nov 25 23:42 /home/bjb2chen/gmsscr//ph3_cct_gmcpt_D3h_3st_diab_mode3_+0.05.F93
-rw-r--r-- 1 bjb2chen nooijen   23168 Nov 25 23:42 /home/bjb2chen/gmsscr//ph3_cct_gmcpt_D3h_3st_diab_mode3_+0.05.F93.001
-rw-r--r-- 1 bjb2chen nooijen   22776 Nov 25 23:42 /home/bjb2chen/gmsscr//ph3_cct_gmcpt_D3h_3st_diab_mode3_+0.05.F94
-rw-r--r-- 1 bjb2chen nooijen   22776 Nov 25 23:42 /home/bjb2chen/gmsscr//ph3_cct_gmcpt_D3h_3st_diab_mode3_+0.05.F94.001
-rw-r--r-- 1 bjb2chen nooijen   13760 Nov 25 23:42 /home/bjb2chen/gmsscr//ph3_cct_gmcpt_D3h_3st_diab_mode3_+0.05.F95
-rw-r--r-- 1 bjb2chen nooijen   13760 Nov 25 23:42 /home/bjb2chen/gmsscr//ph3_cct_gmcpt_D3h_3st_diab_mode3_+0.05.F95.001
-rw-r--r-- 1 bjb2chen nooijen   29440 Nov 25 23:42 /home/bjb2chen/gmsscr//ph3_cct_gmcpt_D3h_3st_diab_mode3_+0.05.F96
-rw-r--r-- 1 bjb2chen nooijen   29440 Nov 25 23:42 /home/bjb2chen/gmsscr//ph3_cct_gmcpt_D3h_3st_diab_mode3_+0.05.F96.001
-rw-r--r-- 1 bjb2chen nooijen    1184 Nov 25 23:42 /home/bjb2chen/gmsscr//ph3_cct_gmcpt_D3h_3st_diab_mode3_+0.05.F97
-rw-r--r-- 1 bjb2chen nooijen    1184 Nov 25 23:42 /home/bjb2chen/gmsscr//ph3_cct_gmcpt_D3h_3st_diab_mode3_+0.05.F97.001
-rw-r--r-- 1 bjb2chen nooijen    9808 Nov 25 23:42 /home/bjb2chen/gmsscr//ph3_cct_gmcpt_D3h_3st_diab_mode3_+0.05.F98
-rw-r--r-- 1 bjb2chen nooijen    9808 Nov 25 23:42 /home/bjb2chen/gmsscr//ph3_cct_gmcpt_D3h_3st_diab_mode3_+0.05.F98.001
-rw-r--r-- 1 bjb2chen nooijen   30264 Nov 25 23:42 /home/bjb2chen/gmsscr//ph3_cct_gmcpt_D3h_3st_diab_mode3_+0.05.F99
-rw-r--r-- 1 bjb2chen nooijen   30264 Nov 25 23:42 /home/bjb2chen/gmsscr//ph3_cct_gmcpt_D3h_3st_diab_mode3_+0.05.F99.001
ls: No match.
ls: No match.
ls: No match.
Sat 25 Nov 2023 11:43:00 PM EST
0.299u 0.049s 0:28.79 1.1%	0+0k 264+472io 0pf+0w
