----- GAMESS execution script 'rungms' -----
This job is running on host io003
under operating system Linux at Sat 25 Nov 2023 11:42:31 PM EST
Available scratch disk space (Kbyte units) at beginning of the job is
Filesystem             1K-blocks       Used Available Use% Mounted on
helmholtz.nlogn:/home 6391504896 5219979264 849386496  87% /home
GAMESS temporary binary files will be written to /home/bjb2chen/gmsscr/
GAMESS supplementary output files will be written to /home/bjb2chen/gamess/vibronics/Toby_automate/ph3/python
Copying input file ph3_cct_gmcpt_D3h_3st_diab_mode11_+0.05x2.inp to your run's scratch directory...
cp ph3_cct_gmcpt_D3h_3st_diab_mode11_+0.05x2.inp /home/bjb2chen/gmsscr//ph3_cct_gmcpt_D3h_3st_diab_mode11_+0.05x2.F05
unset echo
 
Assuming a single but multicore node.
 
/home/bjb2chen/gamess/ddikick.x /home/bjb2chen/gamess/gamess.00.x ph3_cct_gmcpt_D3h_3st_diab_mode11_+0.05x2 -ddi 1 2 io003:cpus=2 -scr /home/bjb2chen/gmsscr/

 Distributed Data Interface kickoff program.
 Initiating 2 compute processes on 1 nodes to run the following command:
 /home/bjb2chen/gamess/gamess.00.x ph3_cct_gmcpt_D3h_3st_diab_mode11_+0.05x2 

          ******************************************************
          *         GAMESS VERSION = 02 AUG 2018 (R2)         *
          *             FROM IOWA STATE UNIVERSITY             *
          * M.W.SCHMIDT, K.K.BALDRIDGE, J.A.BOATZ, S.T.ELBERT, *
          *   M.S.GORDON, J.H.JENSEN, S.KOSEKI, N.MATSUNAGA,   *
          *          K.A.NGUYEN, S.J.SU, T.L.WINDUS,           *
          *       TOGETHER WITH M.DUPUIS, J.A.MONTGOMERY       *
          *         J.COMPUT.CHEM.  14, 1347-1363(1993)        *
          **************** 64 BIT LINUX VERSION ****************

  SINCE 1993, STUDENTS AND POSTDOCS WORKING AT IOWA STATE UNIVERSITY
  AND ALSO IN THEIR VARIOUS JOBS AFTER LEAVING ISU HAVE MADE IMPORTANT
  CONTRIBUTIONS TO THE CODE:
     IVANA ADAMOVIC, CHRISTINE AIKENS, YURI ALEXEEV, POOJA ARORA,
     ANDREY ASADCHEV, ROB BELL, PRADIPTA BANDYOPADHYAY, JONATHAN BENTZ,
     BRETT BODE, KURT BRORSEN, CALEB CARLIN, GALINA CHABAN, WEI CHEN,
     CHEOL HO CHOI, PAUL DAY, ALBERT DEFUSCO, NUWAN DESILVA, TIM DUDLEY,
     DMITRI FEDOROV, ALEX FINDLATER, GRAHAM FLETCHER, MARK FREITAG,
     KURT GLAESEMANN, ANASTASIA GUININA,
     DAN KEMP, GRANT MERRILL, NORIYUKI MINEZAWA, JONATHAN MULLIN,
     TAKESHI NAGATA, SEAN NEDD, HEATHER NETZLOFF, BOSILJKA NJEGIC, RYAN OLSON,
     MIKE PAK, BUU PHAM,
     SPENCER PRUITT, LUKE ROSKOP, JIM SHOEMAKER, LYUDMILA SLIPCHENKO,
     TONY SMITH, SAROM SOK LEANG, JIE SONG, TETSUYA TAKETSUGU, SIMON WEBB,
     PENG XU, SOOHAENG YOO, FEDERICO ZAHARIEV

  ADDITIONAL CODE HAS BEEN PROVIDED BY COLLABORATORS IN OTHER GROUPS:
     IOWA STATE UNIVERSITY:
          JOE IVANIC, AARON WEST, LAIMUTIS BYTAUTAS, KLAUS RUEDENBERG
     UNIVERSITY OF TOKYO: KIMIHIKO HIRAO, TAKAHITO NAKAJIMA,
          TAKAO TSUNEDA, MUNEAKI KAMIYA, SUSUMU YANAGISAWA,
          KIYOSHI YAGI, MAHITO CHIBA, SEIKEN TOKURA, NAOAKI KAWAKAMI
     UNIVERSITY OF AARHUS: FRANK JENSEN
     UNIVERSITY OF IOWA: VISVALDAS KAIRYS, HUI LI
     NATIONAL INST. OF STANDARDS AND TECHNOLOGY: WALT STEVENS, DAVID GARMER
     UNIVERSITY OF PISA: BENEDETTA MENNUCCI, JACOPO TOMASI
     UNIVERSITY OF MEMPHIS: HENRY KURTZ, PRAKASHAN KORAMBATH
     UNIVERSITY OF ALBERTA: TOBY ZENG, MARIUSZ KLOBUKOWSKI
     UNIVERSITY OF NEW ENGLAND: MARK SPACKMAN
     MIE UNIVERSITY: HIROAKI UMEDA
     NAT. INST. OF ADVANCED INDUSTRIAL SCIENCE AND TECHNOLOGY: KAZUO KITAURA
     MICHIGAN STATE UNIVERSITY:
          KAROL KOWALSKI, MARTA WLOCH, JEFFREY GOUR, JESSE LUTZ,
          WEI LI, JUN SHEN, J. EMILIANO DEUSTUA, PIOTR PIECUCH
     UNIVERSITY OF MINNESOTA:
          YINAN SHU
     UNIVERSITY OF SILESIA: MONIKA MUSIAL, STANISLAW KUCHARSKI
     FACULTES UNIVERSITAIRES NOTRE-DAME DE LA PAIX:
          OLIVIER QUINET, BENOIT CHAMPAGNE
     UNIVERSITY OF CALIFORNIA - SANTA BARBARA: BERNARD KIRTMAN
     INSTITUTE FOR MOLECULAR SCIENCE:
          KAZUYA ISHIMURA, MICHIO KATOUDA, AND SHIGERU NAGASE
     UNIVERSITY OF NOTRE DAME: ANNA POMOGAEVA, DAN CHIPMAN
     KYUSHU UNIVERSITY:
          HARUYUKI NAKANO,
          FENG LONG GU, JACEK KORCHOWIEC, MARCIN MAKOWSKI, AND YURIKO AOKI,
          HIROTOSHI MORI AND EISAKU MIYOSHI
     PENNSYLVANIA STATE UNIVERSITY:
          TZVETELIN IORDANOV, CHET SWALINA, JONATHAN SKONE,
          SHARON HAMMES-SCHIFFER
     WASEDA UNIVERSITY:
          MASATO KOBAYASHI, TOMOKO AKAMA, TSUGUKI TOUMA,
          TAKESHI YOSHIKAWA, YASUHIRO IKABATA, JUNJI SEINO,
          YUYA NAKAJIMA, HIROMI NAKAI
     NANJING UNIVERSITY: SHUHUA LI
     UNIVERSITY OF NEBRASKA:
          PEIFENG SU, DEJUN SI, NANDUN THELLAMUREGE, YALI WANG, HUI LI
     UNIVERSITY OF ZURICH: ROBERTO PEVERATI, KIM BALDRIDGE
     N. COPERNICUS UNIVERSITY AND JACKSON STATE UNIVERSITY:
          MARIA BARYSZ
     UNIVERSITY OF COPENHAGEN: Jimmy Kromann, CASPER STEINMANN
     TOKYO INSTITUTE OF TECHNOLOGY: HIROYA NAKATA
     NAGOYA UNIVERSITY: YOSHIO NISHIMOTO, STEPHAN IRLE
     MOSCOW STATE UNIVERSITY: VLADIMIR MIRONOV


 PARALLEL VERSION RUNNING ON        2 PROCESSORS IN        1 NODES.

 EXECUTION OF GAMESS BEGUN Sat Nov 25 23:42:31 2023

            ECHO OF THE FIRST FEW INPUT CARDS -
 INPUT CARD> !Step 2: single point gmcpt calculation averaging 3 states                     
 INPUT CARD> !        for PH3+ at PH3 structure.                                            
 INPUT CARD> $system kdiag=3 mwords=100 memddi=1000 parall=.t. $end                         
 INPUT CARD> $contrl runtyp=energy ispher=1 $end                                            
 INPUT CARD> $contrl icut=9 itol=20 inttyp=rysquad qmttol=1.0d-05 nosym=1 $end              
 INPUT CARD> $scf    npunch=2 conv=1.0d-06 dirscf=.t.      $end                             
 INPUT CARD> $contrl scftyp=mcscf  mult=2 maxit=200 icharg=1 mplevl=2 $end                  
 INPUT CARD> $guess  guess=moread norb=81 purify=.t. $end                                   
 INPUT CARD> $basis  gbasis=cct $end                                                        
 INPUT CARD> $mcscf  cistep=gmcci fullnr=.t. finci=mos                                      
 INPUT CARD>         acurcy=1.d-6 maxit=100 $end                                            
 INPUT CARD> $trans  dirtrf=.t. $end                                                        
 INPUT CARD> $mrmp   mrpt=gmcpt rdvecs=.f. $end                                             
 INPUT CARD> $gmcpt  nmofzc=1 nmodoc=4 nmoact=7 nelact=7 stsym(1)=A                         
 INPUT CARD>         reftyp=ormas nspace=1 mstart(1)=6 mine(1)=7 maxe(1)=7                  
 INPUT CARD>         kstate(1)=1,1,1                                                        
 INPUT CARD>         wstate(1)=1,1,1                                                        
 INPUT CARD>         iwgt=0 thrwgt=-1.0 krot=.f. kszdoe=.f. knospn=.f.                      
 INPUT CARD>         thrde=-1.0 edshft=0.02 $end                                            
 INPUT CARD> --- Semi-canonical MOs --- generated at Wed Oct 25 14:28:45 2023               
 INPUT CARD> $VEC                                                                           
 INPUT CARD> 1  1 1.00014026E+00 2.12288233E-04 2.35259310E-04-9.69987525E-04-1.56061240E-04
 INPUT CARD> 1  2 2.24704850E-11 1.08104557E-11 0.00000000E+00 5.27654619E-11 2.51315613E-11
 INPUT CARD> 1  3 0.00000000E+00 0.00000000E+00 0.00000000E+00 0.00000000E+00 4.84975230E-11
 INPUT CARD> 1  4 0.00000000E+00 0.00000000E+00 5.97478244E-06 5.97478789E-06-1.19495703E-05
 INPUT CARD> 1  5 0.00000000E+00 0.00000000E+00 0.00000000E+00 1.39699393E-05 1.39699024E-05
 INPUT CARD> 1  6-2.79398417E-05-1.35074126E-11 0.00000000E+00 0.00000000E+00 1.67531508E-05
 INPUT CARD> 1  7 0.00000000E+00 0.00000000E+00 0.00000000E+00 0.00000000E+00-2.24766870E-05
 INPUT CARD> 1  8 0.00000000E+00-2.30057367E-11 0.00000000E+00 0.00000000E+00-1.16832778E-06
 INPUT CARD> 1  9-1.16830452E-06 2.33663231E-06 0.00000000E+00 0.00000000E+00 0.00000000E+00
 INPUT CARD> 1 10 5.17768380E-06-4.27232609E-05 3.09734201E-05 1.40215208E-06-2.42859932E-06
 INPUT CARD> 1 11 0.00000000E+00-1.09877526E-05 1.90313097E-05 0.00000000E+00-9.67969422E-07
 INPUT CARD> 1 12 5.86741647E-06-4.89944705E-06-6.83538926E-06 0.00000000E+00 0.00000000E+00
 INPUT CARD> 1 13 5.17767961E-06-4.27232159E-05 3.09734322E-05 1.40215234E-06 2.42859905E-06
 INPUT CARD> 1 14 0.00000000E+00-1.09877418E-05-1.90312875E-05 0.00000000E+00-9.67970307E-07
 INPUT CARD> 1 15 5.86741940E-06-4.89944909E-06 6.83539284E-06 0.00000000E+00 0.00000000E+00
 INPUT CARD> 1 16 5.17766201E-06-4.27232844E-05 3.09734099E-05-2.80427679E-06 0.00000000E+00
 INPUT CARD> 1 17 0.00000000E+00 2.19754740E-05 0.00000000E+00 0.00000000E+00 9.28508813E-06
 INPUT CARD> 1 18-4.38566624E-06-4.89942190E-06 0.00000000E+00 0.00000000E+00 0.00000000E+00
 INPUT CARD> 2  1-5.33920981E-04 9.53778939E-01-4.19196922E-03 6.30276435E-02 2.61399638E-03
 INPUT CARD> 2  2 6.28974787E-11 9.96812470E-11-0.00000000E+00 1.02891712E-10 2.05126344E-10
 INPUT CARD> 2  3-0.00000000E+00-0.00000000E+00-2.38713249E-11-0.00000000E+00 6.64911093E-11
 INPUT CARD> 2  4 6.27034786E-11-0.00000000E+00 9.65793100E-05 9.65794243E-05-1.93158734E-04
 INPUT CARD> 2  5-2.69954090E-11-0.00000000E+00-0.00000000E+00-1.78396631E-04-1.78396545E-04
 INPUT CARD> 2  6 3.56793176E-04-1.04925850E-10-0.00000000E+00-0.00000000E+00 1.01826168E-04
 INPUT CARD> 2  7 2.20823880E-11-0.00000000E+00-0.00000000E+00-0.00000000E+00-1.36614181E-04
 INPUT CARD> 2  8-0.00000000E+00 4.29651361E-11-3.02789776E-11-0.00000000E+00 2.38139809E-04
 INPUT CARD> 2  9 2.38139912E-04-4.76279721E-04-0.00000000E+00-0.00000000E+00-0.00000000E+00
 INPUT CARD> 2 10-1.82868827E-04 1.39177203E-04-5.45492220E-04-2.22000393E-05 3.84515667E-05
 INPUT CARD> 2 11-0.00000000E+00 8.78319684E-05-1.52129428E-04-0.00000000E+00 2.62487215E-06
  100000000 WORDS OF MEMORY AVAILABLE

     BASIS OPTIONS
     -------------
     GBASIS=CCT          IGAUSS=       0      POLAR=NONE    
     NDFUNC=       0     NFFUNC=       0     DIFFSP=       F
     NPFUNC=       0      DIFFS=       F     BASNAM=        


     RUN TITLE
     ---------
  PH3+ 3 states calculation at PH3 structure.                                    

 THE POINT GROUP OF THE MOLECULE IS C1      
 THE ORDER OF THE PRINCIPAL AXIS IS     0

 ATOM      ATOMIC                      COORDINATES (BOHR)
           CHARGE         X                   Y                   Z
 P          15.0    -0.0008094427        0.0000000000        0.0000000000
 H           1.0    -1.2932830399        2.2399023934        0.0000000000
 H           1.0    -1.2932830397       -2.2399023930        0.0000000000
 H           1.0     2.6114432943        0.0000000000        0.0000000000

          INTERNUCLEAR DISTANCES (ANGS.)
          ------------------------------

                1 P          2 H          3 H          4 H     

   1 P       0.0000000    1.3684784 *  1.3684784 *  1.3823447 *
   2 H       1.3684784 *  0.0000000    2.3706108 *  2.3821236 *
   3 H       1.3684784 *  2.3706108 *  0.0000000    2.3821236 *
   4 H       1.3823447 *  2.3821236 *  2.3821236 *  0.0000000  

  * ... LESS THAN  3.000


     ATOMIC BASIS SET
     ----------------
 THE CONTRACTED PRIMITIVE FUNCTIONS HAVE BEEN UNNORMALIZED
 THE CONTRACTED BASIS FUNCTIONS ARE NOW NORMALIZED TO UNITY

  SHELL TYPE  PRIMITIVE        EXPONENT          CONTRACTION COEFFICIENT(S)

 P         

      1   S       1        312400.0000000    0.000057689641
      1   S       2         46800.0000000    0.000448246591
      1   S       3         10650.0000000    0.002349131061
      1   S       4          3018.0000000    0.009781571802
      1   S       5           986.8000000    0.034142936511
      1   S       6           357.4000000    0.100192955985
      1   S       7           139.6000000    0.234346168617
      1   S       8            57.6300000    0.382391849918
      1   S       9            24.6000000    0.318052941833
      1   S      10            10.1200000    0.070770999093
      1   S      11             4.2830000   -0.001817789630
      1   S      12             1.8050000    0.002161561737
      1   S      13             0.2782000    0.000432249354

      2   S      14        312400.0000000   -0.000016380204
      2   S      15         46800.0000000   -0.000127233535
      2   S      16         10650.0000000   -0.000668625166
      2   S      17          3018.0000000   -0.002795303744
      2   S      18           986.8000000   -0.009928227435
      2   S      19           357.4000000   -0.030244566456
      2   S      20           139.6000000   -0.077884705328
      2   S      21            57.6300000   -0.156724571545
      2   S      22            24.6000000   -0.198042753651
      2   S      23            10.1200000    0.037971251521
      2   S      24             4.2830000    0.552751544147
      2   S      25             1.8050000    0.542611452452
      2   S      26             0.2782000   -0.009675942874

      3   S      27        312400.0000000    0.000006865735
      3   S      28         46800.0000000    0.000053281983
      3   S      29         10650.0000000    0.000280421002
      3   S      30          3018.0000000    0.001170789768
      3   S      31           986.8000000    0.004173591138
      3   S      32           357.4000000    0.012720496749
      3   S      33           139.6000000    0.033152766352
      3   S      34            57.6300000    0.067671246836
      3   S      35            24.6000000    0.089831018862
      3   S      36            10.1200000   -0.020305232360
      3   S      37             4.2830000   -0.313280408979
      3   S      38             1.8050000   -0.563687905527
      3   S      39             0.2782000    1.117494073734

      4   S      40             0.6158000    1.000000000000

      5   S      41             0.1055000    1.000000000000

      6   P      42           504.9000000    0.002433660431
      6   P      43           119.4000000    0.019305559477
      6   P      44            37.9600000    0.088473106893
      6   P      45            13.9500000    0.254701981099
      6   P      46             5.4570000    0.440199242653
      6   P      47             2.1770000    0.383632006272
      6   P      48             0.2877000   -0.003946337074

      7   P      49           504.9000000   -0.000954298933
      7   P      50           119.4000000   -0.007664025747
      7   P      51            37.9600000   -0.035465925259
      7   P      52            13.9500000   -0.106164716437
      7   P      53             5.4570000   -0.187210586037
      7   P      54             2.1770000   -0.181495819791
      7   P      55             0.2877000    0.991672644618

      8   P      56             0.8010000    1.000000000000

      9   P      57             0.0971400    1.000000000000

     10   D      58             0.6480000    1.000000000000

     11   D      59             0.2180000    1.000000000000

     12   F      60             0.4520000    1.000000000000

     13   D      61             3.1200000    1.000000000000

 H         

     14   S      62            33.8700000    0.025494863235
     14   S      63             5.0950000    0.190362765893
     14   S      64             1.1590000    0.852162022245

     15   S      65             0.3258000    1.000000000000

     16   S      66             0.1027000    1.000000000000

     17   P      67             1.4070000    1.000000000000

     18   P      68             0.3880000    1.000000000000

     19   D      69             1.0570000    1.000000000000

 H         

     20   S      70            33.8700000    0.025494863235
     20   S      71             5.0950000    0.190362765893
     20   S      72             1.1590000    0.852162022245

     21   S      73             0.3258000    1.000000000000

     22   S      74             0.1027000    1.000000000000

     23   P      75             1.4070000    1.000000000000

     24   P      76             0.3880000    1.000000000000

     25   D      77             1.0570000    1.000000000000

 H         

     26   S      78            33.8700000    0.025494863235
     26   S      79             5.0950000    0.190362765893
     26   S      80             1.1590000    0.852162022245

     27   S      81             0.3258000    1.000000000000

     28   S      82             0.1027000    1.000000000000

     29   P      83             1.4070000    1.000000000000

     30   P      84             0.3880000    1.000000000000

     31   D      85             1.0570000    1.000000000000

 TOTAL NUMBER OF BASIS SET SHELLS             =   31
 NUMBER OF CARTESIAN GAUSSIAN BASIS FUNCTIONS =   90
 NOTE: THIS RUN WILL RESTRICT THE MO VARIATION SPACE TO SPHERICAL HARMONICS.
 THE NUMBER OF ORBITALS KEPT IN THE VARIATIONAL SPACE WILL BE PRINTED LATER.
 NUMBER OF ELECTRONS                          =   17
 CHARGE OF MOLECULE                           =    1
 SPIN MULTIPLICITY                            =    2
 NUMBER OF OCCUPIED ORBITALS (ALPHA)          =    9
 NUMBER OF OCCUPIED ORBITALS (BETA )          =    8
 TOTAL NUMBER OF ATOMS                        =    4
 THE NUCLEAR REPULSION ENERGY IS       18.0103917511

     $CONTRL OPTIONS
     ---------------
 SCFTYP=MCSCF        RUNTYP=ENERGY       EXETYP=RUN     
 MPLEVL=       2     CITYP =NONE         CCTYP =NONE         VBTYP =NONE    
 DFTTYP=NONE         TDDFT =NONE    
 MULT  =       2     ICHARG=       1     NZVAR =       0     COORD =UNIQUE  
 PP    =NONE         RELWFN=NONE         LOCAL =NONE         NUMGRD=       F
 ISPHER=       1     NOSYM =       1     MAXIT =     200     UNITS =ANGS    
 PLTORB=       F     MOLPLT=       F     AIMPAC=       F     FRIEND=        
 NPRINT=       7     IREST =       0     GEOM  =INPUT   
 NORMF =       0     NORMP =       0     ITOL  =      20     ICUT  =       9
 INTTYP=RYSQUAD      GRDTYP=BEST         QMTTOL= 1.0E-05

     $SYSTEM OPTIONS
     ---------------
  REPLICATED MEMORY=   100000000 WORDS (ON EVERY NODE).
 DISTRIBUTED MEMDDI=        1000 MILLION WORDS IN AGGREGATE,
 MEMDDI DISTRIBUTED OVER   2 PROCESSORS IS   500000000 WORDS/PROCESSOR.
 TOTAL MEMORY REQUESTED ON EACH PROCESSOR=   600000000 WORDS.
 TIMLIM=      525600.00 MINUTES, OR     365.0 DAYS.
 PARALL= T  BALTYP=  DLB     KDIAG=    3  COREFL= F
 MXSEQ2=     300 MXSEQ3=     150  mem10=         0

          ----------------
          PROPERTIES INPUT
          ----------------

     MOMENTS            FIELD           POTENTIAL          DENSITY
 IEMOM =       1   IEFLD =       0   IEPOT =       0   IEDEN =       0
 WHERE =COMASS     WHERE =NUCLEI     WHERE =NUCLEI     WHERE =NUCLEI  
 OUTPUT=BOTH       OUTPUT=BOTH       OUTPUT=BOTH       OUTPUT=BOTH    
 IEMINT=       0   IEFINT=       0                     IEDINT=       0
                                                       MORB  =       0

     -------------------------------
     INTEGRAL TRANSFORMATION OPTIONS
     -------------------------------
     NWORD  =            0
     CUTOFF = 1.0E-09     MPTRAN =       0
     DIRTRF =       T     AOINTS =DUP     

          ----------------------
          MCSCF INPUT PARAMETERS
          ----------------------
 CONVERGER SELECTION: FOCAS = F  SOSCF = F  FULLNR = T  QUD = F  JACOBI = F
 SECULAR EQUATION METHOD CISTEP = GMCCI   
 --- GENERAL INPUT OPTIONS:
 MAXIT =     100  MICIT =       1  ACURCY= 1.000E-06
 DAMP  =   0.000  CANONC=       T  ENGTOL= 1.000E-10
 EKT   =       F  NPUNCH=       2  NWORD =         0
 REGENERATE CI AFTER CONVERGENCE = NONE    
 DIABATIZATION AFTER CONVERGENCE =        F
 --- INPUT FOR FULLNR CONVERGER:
 METHOD=DM2       FORS  =       F  DROPC =       T
 LINSER=       F  FCORE =       F  NORB  =      90

          ----------------------
          INTEGRAL INPUT OPTIONS
          ----------------------
 NOPK  =       1 NORDER=       0 SCHWRZ=       T

 ------------------------------------------
 MULTIREFERENCE PERTURBATION THEORY CONTROL
 ------------------------------------------
 MRPT=GMCPT    READ CONVERGED MCSCF VECTORS= F


     ------------------------------------------
     THE POINT GROUP IS C1 , NAXIS= 1, ORDER= 1
     ------------------------------------------

 -- VARIATIONAL SPACE WILL BE RESTRICTED TO PURE SPHERICAL HARMONICS ONLY --
 AFTER EXCLUDING CONTAMINANT COMBINATIONS FROM THE CARTESIAN GAUSSIAN BASIS
 SET, THE NUMBER OF SPHERICAL HARMONICS KEPT IN THE VARIATION SPACE IS   81

     DIMENSIONS OF THE SYMMETRY SUBSPACES ARE
 A   =   81

 ..... DONE SETTING UP THE RUN .....
 CPU     0: STEP CPU TIME=     0.17 TOTAL CPU TIME=          0.2 (      0.0 MIN)
 TOTAL WALL CLOCK TIME=          0.4 SECONDS, CPU UTILIZATION IS    45.95%

          ********************
          1 ELECTRON INTEGRALS
          ********************
 TIME TO DO   DIPOLE INTEGRALS=      0.01
 ...... END OF ONE-ELECTRON INTEGRALS ......
 CPU     0: STEP CPU TIME=     0.01 TOTAL CPU TIME=          0.2 (      0.0 MIN)
 TOTAL WALL CLOCK TIME=          0.4 SECONDS, CPU UTILIZATION IS    47.37%

          -------------
          GUESS OPTIONS
          -------------
          GUESS =MOREAD            NORB  =      81          NORDER=       0
          MIX   =       F          PRTMO =       F          PUNMO =       F
          TOLZ  = 1.0E-08          TOLE  = 1.0E-05
          SYMDEN=       F          PURIFY=       T

 INITIAL GUESS ORBITALS GENERATED BY MOREAD   ROUTINE.

 STATISTICS FOR GENERATION OF SYMMETRY ORBITAL -Q- MATRIX
 NUMBER OF CARTESIAN ATOMIC ORBITALS=         90
 NUMBER OF SPHERICAL CONTAMINANTS DROPPED=     9
 NUMBER OF LINEARLY DEPENDENT MOS DROPPED=     0
 TOTAL NUMBER OF MOS IN VARIATION SPACE=      81
 ORBITAL PURIFICATION WILL OCCUR

 SYMMETRIES FOR INITIAL GUESS ORBITALS FOLLOW.   BOTH SET(S).
     9 ORBITALS ARE OCCUPIED (    5 CORE ORBITALS).
     1=A        2=A        3=A        4=A        5=A        6=A        7=A   
     8=A        9=A       10=A       11=A       12=A       13=A       14=A   
    15=A       16=A       17=A       18=A       19=A       20=A       21=A   
    22=A       23=A       24=A       25=A       26=A       27=A       28=A   
    29=A       30=A       31=A       32=A       33=A       34=A       35=A   
    36=A       37=A       38=A       39=A       40=A       41=A       42=A   
    43=A       44=A       45=A       46=A       47=A       48=A       49=A   
    50=A       51=A       52=A       53=A       54=A       55=A       56=A   
    57=A       58=A       59=A       60=A       61=A       62=A       63=A   
    64=A       65=A       66=A       67=A       68=A       69=A       70=A   
    71=A       72=A       73=A       74=A       75=A       76=A       77=A   
    78=A       79=A       80=A       81=A   
 ...... END OF INITIAL ORBITAL SELECTION ......
 CPU     0: STEP CPU TIME=     0.08 TOTAL CPU TIME=          0.3 (      0.0 MIN)
 TOTAL WALL CLOCK TIME=          0.5 SECONDS, CPU UTILIZATION IS    50.98%

                    ----------------------
                    AO INTEGRAL TECHNOLOGY
                    ----------------------
     S,P,L SHELL ROTATED AXIS INTEGRALS, REPROGRAMMED BY
        KAZUYA ISHIMURA (IMS) AND JOSE SIERRA (SYNSTAR).
     S,P,D,L SHELL ROTATED AXIS INTEGRALS PROGRAMMED BY
        KAZUYA ISHIMURA (INSTITUTE FOR MOLECULAR SCIENCE).
     S,P,D,F,G SHELL TO TOTAL QUARTET ANGULAR MOMENTUM SUM 5,
        ERIC PROGRAM BY GRAHAM FLETCHER (ELORET AND NASA ADVANCED
        SUPERCOMPUTING DIVISION, AMES RESEARCH CENTER).
     S,P,D,F,G,L SHELL GENERAL RYS QUADRATURE PROGRAMMED BY
        MICHEL DUPUIS (PACIFIC NORTHWEST NATIONAL LABORATORY).

          --------------------
          2 ELECTRON INTEGRALS
          --------------------

 DIRECT SCF METHOD SKIPS INTEGRAL STORAGE ON DISK.
 DIRECT TRANSFORMATION SKIPS AO INTEGRAL STORAGE ON DISK.
  ...... END OF TWO-ELECTRON INTEGRALS .....
 STEP CPU TIME =     0.03 TOTAL CPU TIME =          0.3 (      0.0 MIN)
 TOTAL WALL CLOCK TIME=          0.5 SECONDS, CPU UTILIZATION IS    53.70%
 DDI: Creating Array [0] - 8100 x 78 = 631800 words.
 DDI: Creating Array [1] - 69 x 936 = 64584 words.
 DDI: Creating Array [2] - 78 x 78 = 6084 words.
 DDI: Creating Array [3] - 4095 x 78 = 319410 words.

          -----------------
          MCSCF CALCULATION
          -----------------

 ----- NUCLEAR ENERGY ----- =        18.0103917511

     -------------------------------------------------
     GMC-PT/GMC-QDPT or general MCSCF input parameters
     -------------------------------------------------
 # of frozen core orbs. =         1 ->         0
 # of doubly occ. orbs. =         4
 # of active      orbs. =         7
 # of virtual     orbs. =        69
 # of active electrons  =         7
 # of states in CI      =         3
 Highest state in CI    =         3
 kstate =  1 1 1
 avecoe =  0.333 0.333 0.333
 State symmetry           = A           
 Assigned symmetry number = 1

 <<<Act. MO sym.: 1111111

 <<<Division of 1-ext.:  0 0
 <<<Division of 2-ext.:  0 1

 *** Reference space

 Reference type: ORMAS (= Occupation restricted multiple active space)
 # of orbitals          =  7
 # of minimum electrons =  7
 # of maximum electrons =  7
 State symmetry    =    1 (input)
 2*Sz              =    1 (input)
 Spin multiplicity =    2 (input)
 Dimension of reference space =      1225  (from      3432 walks)

 Dimension of reference space =      1225  (from      1225 walks)

 <<<Ionized spaces for Ref-CI:
      0:         1225 /   -1-0:         1960 /  0-1-0:         2891

 EVALUATING EXCHANGE INTEGRALS FOR DIRECT INTEGRAL TRANSFORMATION
 SCHWARZ INEQUALITY OVERHEAD:      4095 INTEGRALS, T=        0.02

     --------------------------------------------
     PARTIAL TWO ELECTRON INTEGRAL TRANSFORMATION
     --------------------------------------------

 NUMBER OF CORE MOLECULAR ORBITALS     =    5
 NUMBER OF OCCUPIED MOLECULAR ORBITALS =   12
 TOTAL NUMBER OF MOLECULAR ORBITALS    =   81
 TOTAL NUMBER OF ATOMIC ORBITALS       =   90
 THRESHOLD FOR KEEPING TRANSFORMED 2E- INTEGRALS = 1.000E-09

 -------------------------------     ------------------------------
 DISTRIBUTED DATA TRANSFORMATION     PROGRAM WRITTEN BY G. FLETCHER
 -------------------------------     ------------------------------

 THE DISTRIBUTED MEMORY REQUIRED FOR THIS STEP IS MEMDDI=         2 MWORDS
 CREATING DISTRIBUTED STORAGE FOR [VIR OCC|VIR OCC] INTEGRALS
 CREATING DISTRIBUTED STORAGE FOR [VIR OCC|OCC OCC] INTEGRALS
 CREATING DISTRIBUTED STORAGE FOR [OCC OCC|OCC OCC] INTEGRALS
 CREATING DISTRIBUTED STORAGE FOR [VIR VIR|OCC OCC] INTEGRALS
 FOR    2 PROCESSORS, THE REPLICATED MEMORY NEEDED IS      340708 WORDS.
 SCHWARZ INEQUALITY OVERHEAD:      4095 INTEGRALS, T=        0.02

      DIRECT 4-INDEX TRANSFORMATION 
      SCHWARZ INEQUALITY TEST SKIPPED        168 INTEGRAL BLOCKS
 ----- FROZEN CORE ENERGY =      -345.9221346241
 ... END OF INTEGRAL TRANSFORMATION ...
 CPU     0: STEP CPU TIME=     2.59 TOTAL CPU TIME=          2.9 (      0.0 MIN)
 TOTAL WALL CLOCK TIME=          3.2 SECONDS, CPU UTILIZATION IS    89.72%

     --------------------------------     -----------------------------
     MCHF NEWTON-RAPHSON OPTIMIZATION     CODE WRITTEN BY MICHEL DUPUIS
     --------------------------------     -----------------------------
     PARALLEL VERSION WRITTEN BY G. FLETCHER (ELORET)
     NASA ADVANCED SUPERCOMPUTING DIVISION, AMES RESEARCH CENTER

 NUMBER OF INDEPENDENT ORBITAL ROTATION PARAMETERS =   513
 ..... DONE SOLVING NEWTON-RAPHSON EQUATIONS .....
 CPU     0: STEP CPU TIME=     0.30 TOTAL CPU TIME=          3.2 (      0.1 MIN)
 TOTAL WALL CLOCK TIME=          3.8 SECONDS, CPU UTILIZATION IS    84.80%
 ..... DONE WITH NTN-RPH ORBITAL ROTATIONS ..... 
 CPU     0: STEP CPU TIME=     0.00 TOTAL CPU TIME=          3.2 (      0.1 MIN)
 TOTAL WALL CLOCK TIME=          3.8 SECONDS, CPU UTILIZATION IS    84.80%
 MAXIMUM MEMORY USED BY NTN-RPH CODE WAS    135813 WORDS.

 ITER     TOTAL ENERGY      DEL(E)  LAGRANGIAN ASYMMETRY   SQCDF  MICIT   DAMP
   1     -342.038820718 -0.038820718  0.001759   47    6 5.424E-05  1   0.0000
   2     -342.038832487 -0.000011770  0.000227   16    9 1.999E-05  1   0.0000
   3     -342.038834164 -0.000001676  0.000211   16    9 1.326E-05  1   0.0000
   4     -342.038835241 -0.000001078  0.000174   16    9 8.998E-06  1   0.0000
   5     -342.038835963 -0.000000722  0.000142   16    9 6.078E-06  1   0.0000
   6     -342.038836449 -0.000000486  0.000116   16    9 4.102E-06  1   0.0000
   7     -342.038836778 -0.000000329  0.000096   16    9 2.774E-06  1   0.0000
   8     -342.038837001 -0.000000223  0.000079   16    9 1.880E-06  1   0.0000
   9     -342.038837152 -0.000000152  0.000065   16    9 1.278E-06  1   0.0000
  10     -342.038837256 -0.000000103  0.000053   16    9 8.701E-07  1   0.0000
  11     -342.038837326 -0.000000070  0.000044   16    9 5.937E-07  1   0.0000
  12     -342.038837374 -0.000000048  0.000037   16    9 4.057E-07  1   0.0000
  13     -342.038837407 -0.000000033  0.000030   16    9 2.776E-07  1   0.0000
  14     -342.038837430 -0.000000023  0.000025   16    9 1.900E-07  1   0.0000
  15     -342.038837445 -0.000000016  0.000021   16    9 1.304E-07  1   0.0000
  16     -342.038837456 -0.000000011  0.000017   16    9 8.954E-08  1   0.0000
  17     -342.038837463 -0.000000007  0.000014   16    9 6.150E-08  1   0.0000
  18     -342.038837468 -0.000000005  0.000012   16    9 4.227E-08  1   0.0000
  19     -342.038837472 -0.000000003  0.000010   16    9 2.906E-08  1   0.0000
  20     -342.038837474 -0.000000002  0.000008   16    9 1.989E-08  1   0.0000
  21     -342.038837476 -0.000000002  0.000007   16    9 1.375E-08  1   0.0000
  22     -342.038837477 -0.000000001  0.000006   16    9 9.466E-09  1   0.0000
  23     -342.038837478 -0.000000001  0.000005   16    9 6.525E-09  1   0.0000
  24     -342.038837478 -0.000000001  0.000004   16    9 4.493E-09  1   0.0000
  25     -342.038837479 -0.000000000  0.000003   16    9 3.092E-09  1   0.0000
  26     -342.038837479 -0.000000000  0.000003   16    9 2.131E-09  1   0.0000
  27     -342.038837479 -0.000000000  0.000002   16    9 1.468E-09  1   0.0000
  28     -342.038837479 -0.000000000  0.000002   16    9 1.010E-09  1   0.0000
  29     -342.038837479 -0.000000000  0.000002   16    9 6.967E-10  1   0.0000

          ----------------
          ENERGY CONVERGED
          ----------------

 FINAL MCSCF ENERGY IS     -342.0388374793 AFTER  29 ITERATIONS

 -MCCI- BASED ON OPTIMIZED ORBITALS
 ----------------------------------

 PLEASE NOTE: IF THE ACTIVE ORBITALS ARE CANONICALIZED BELOW,
 THE FOLLOWING CI EXPANSION COEFFICIENTS AND THE DENSITY DO NOT
 CORRESPOND TO THE PRINTED ORBITALS.  THE PRINTED EXPANSIONS MATCH
 THE ORBITALS USED DURING THE LAST ITERATION.  IF YOU WISH TO SEE
 CI EXPANSIONS BASED ON THE CANONICAL (OR NATURAL) ORBITALS, YOU
 MUST RUN A CI CALCULATION WITH THAT ORBITAL CHOICE READ IN $VEC.

 Averaged energy =    -342.038837479

 State #    1  Energy =    -342.207392361  S =  0.500

      Det      Coef    Occupancy (Ignoring core)
      ---      ----    --------- --------- -----
        1    0.977730  11110001110000
      107   -0.076321  11101000111000
      143    0.052002  11011001100100
      179    0.053058  10111001010100
      393    0.055597  10110101010010
      717    0.054965  11010011100001

 State #    2  Energy =    -341.955921884  S =  0.500

      Det      Coef    Occupancy (Ignoring core)
      ---      ----    --------- --------- -----
        6    0.123481  11100101110000
       36    0.139350  11110001101000
       38    0.080794  11011001101000
       71    0.942871  11110001011000
       74   -0.087306  10111001011000
       78   -0.076969  10110101011000
      109    0.057784  10111000111000
      113    0.054260  10110100111000
      122    0.054357  11010010111000
      177   -0.114112  11101001010100
      248   -0.056416  11011001001100
      822   -0.051809  11010011001001

 State #    3  Energy =    -341.953198193  S =  0.500

      Det      Coef    Occupancy (Ignoring core)
      ---      ----    --------- --------- -----
       16   -0.115580  11100011110000
       36    0.945022  11110001101000
       39    0.086702  10111001101000
       52    0.076994  11010011101000
       71   -0.139668  11110001011000
       73    0.084362  11011001011000
      108    0.057018  11011000111000
      112   -0.055321  11010100111000
      123    0.054629  10110010111000
      142   -0.112363  11101001100100
      249    0.057148  10111001001100
      463    0.052467  10110101001010

 DENSITY MATRIX OVER ACTIVE MO-S

             1           2           3           4           5

    1    1.9767582
    2   -0.0068713   1.6450289
    3    0.0010155  -0.0000011   1.6450214
    4    0.0000000  -0.0000000   0.0000000   1.6259426
    5    0.0044667   0.0034570  -0.0005109  -0.0000000   0.0553576
    6    0.0009001   0.0037276  -0.0004372  -0.0000000   0.0032254
    7   -0.0000391   0.0002181   0.0025889   0.0000000  -0.0001399

             6           7

    6    0.0265860
    7   -0.0000557   0.0253053

 FORMING THE "STANDARD FOCK OPERATOR" IN DIRECT AO INTEGRAL MODE...
 ONLY THE    5 CORE AND   69 VIRTUAL ORBITALS WILL BE CANONICALIZED

          ----------------------
          MCSCF NATURAL ORBITALS
          ----------------------

                      1          2          3          4          5
                  -80.2667    -7.8144    -5.7093    -5.7093    -5.7081
                     A          A          A          A          A   
    1  P  1  S    1.000140  -0.000534  -0.000000  -0.000004  -0.000000
    2  P  1  S    0.000212   0.953779   0.000000  -0.000113  -0.000000
    3  P  1  S    0.000235  -0.004191  -0.000000   0.000156  -0.000000
    4  P  1  S   -0.000970   0.063026  -0.000000   0.000060  -0.000000
    5  P  1  S   -0.000156   0.002614  -0.000000   0.000069  -0.000000
    6  P  1  X    0.000003   0.000093   0.000001   0.958054  -0.000000
    7  P  1  Y    0.000000  -0.000000   0.958006  -0.000001  -0.000000
    8  P  1  Z    0.000000  -0.000000  -0.000000   0.000000   0.961341
    9  P  1  X    0.000002   0.000014  -0.000000  -0.003323  -0.000000
   10  P  1  Y    0.000000  -0.000000  -0.003408   0.000000  -0.000000
   11  P  1  Z    0.000000  -0.000000  -0.000000   0.000000  -0.000074
   12  P  1  X   -0.000001   0.000044   0.000000   0.079401  -0.000000
   13  P  1  Y    0.000000  -0.000000   0.079400  -0.000000  -0.000000
   14  P  1  Z    0.000000  -0.000000  -0.000000   0.000000   0.075522
   15  P  1  X    0.000000   0.000003   0.000000   0.001227  -0.000000
   16  P  1  Y    0.000000  -0.000000   0.001224  -0.000000  -0.000000
   17  P  1  Z    0.000000  -0.000000  -0.000000   0.000000   0.001291
   18  P  1 XX    0.000006   0.000104   0.000000   0.000271  -0.000000
   19  P  1 YY    0.000006   0.000088  -0.000000  -0.000259  -0.000000
   20  P  1 ZZ   -0.000012  -0.000192   0.000000  -0.000012  -0.000000
   21  P  1 XY    0.000000   0.000000  -0.000285   0.000000  -0.000000
   22  P  1 XZ    0.000000  -0.000000  -0.000000   0.000000   0.000004
   23  P  1 YZ    0.000000  -0.000000  -0.000000   0.000000   0.000000
   24  P  1 XX    0.000015  -0.000178  -0.000000  -0.001462  -0.000000
   25  P  1 YY    0.000013  -0.000178   0.000000   0.001460  -0.000000
   26  P  1 ZZ   -0.000028   0.000357   0.000000   0.000002  -0.000000
   27  P  1 XY   -0.000000  -0.000000   0.001717  -0.000000  -0.000000
   28  P  1 XZ    0.000000  -0.000000  -0.000000   0.000000   0.000004
   29  P  1 YZ    0.000000  -0.000000  -0.000000   0.000000  -0.000000
   30  P  1 XXX   0.000017   0.000101  -0.000000  -0.000046  -0.000000
   31  P  1 YYY   0.000000   0.000000  -0.000045   0.000000  -0.000000
   32  P  1 ZZZ   0.000000  -0.000000  -0.000000   0.000000  -0.000254
   33  P  1 XXY   0.000000  -0.000000  -0.000025   0.000000  -0.000000
   34  P  1 XXZ   0.000000  -0.000000  -0.000000   0.000000   0.000169
   35  P  1 YYX  -0.000022  -0.000137   0.000000  -0.000017  -0.000000
   36  P  1 YYZ   0.000000  -0.000000  -0.000000   0.000000   0.000172
   37  P  1 ZZX  -0.000000   0.000002   0.000000   0.000079  -0.000000
   38  P  1 ZZY   0.000000   0.000000   0.000085  -0.000000  -0.000000
   39  P  1 XYZ   0.000000  -0.000000  -0.000000   0.000000   0.000000
   40  P  1 XX   -0.000001   0.000243  -0.000000  -0.000239  -0.000000
   41  P  1 YY   -0.000001   0.000232   0.000000   0.000262  -0.000000
   42  P  1 ZZ    0.000002  -0.000474   0.000000  -0.000023  -0.000000
   43  P  1 XY    0.000000  -0.000000   0.000343  -0.000000  -0.000000
   44  P  1 XZ    0.000000  -0.000000  -0.000000   0.000000   0.000019
   45  P  1 YZ    0.000000  -0.000000  -0.000000   0.000000  -0.000000
   46  H  2  S    0.000005  -0.000187   0.000522  -0.000279  -0.000000
   47  H  2  S   -0.000042   0.000142   0.003114  -0.001732  -0.000000
   48  H  2  S    0.000031  -0.000549  -0.000301   0.000174  -0.000000
   49  H  2  X    0.000002  -0.000021   0.000036   0.000089  -0.000000
   50  H  2  Y   -0.000003   0.000036   0.000047   0.000033  -0.000000
   51  H  2  Z    0.000000  -0.000000  -0.000000   0.000000   0.000041
   52  H  2  X   -0.000011   0.000089   0.000610  -0.000408  -0.000000
   53  H  2  Y    0.000019  -0.000156  -0.001128   0.000595  -0.000000
   54  H  2  Z    0.000000  -0.000000  -0.000000   0.000000   0.000120
   55  H  2 XX   -0.000001   0.000002  -0.000011   0.000038  -0.000000
   56  H  2 YY    0.000006   0.000021  -0.000033  -0.000012  -0.000000
   57  H  2 ZZ   -0.000005  -0.000022   0.000044  -0.000026  -0.000000
   58  H  2 XY   -0.000007  -0.000019  -0.000015  -0.000016  -0.000000
   59  H  2 XZ    0.000000  -0.000000  -0.000000   0.000000  -0.000012
   60  H  2 YZ    0.000000  -0.000000  -0.000000   0.000000   0.000020
   61  H  3  S    0.000005  -0.000187  -0.000522  -0.000279  -0.000000
   62  H  3  S   -0.000042   0.000142  -0.003114  -0.001732  -0.000000
   63  H  3  S    0.000031  -0.000549   0.000301   0.000174  -0.000000
   64  H  3  X    0.000002  -0.000021  -0.000036   0.000089  -0.000000
   65  H  3  Y    0.000003  -0.000036   0.000047  -0.000033  -0.000000
   66  H  3  Z    0.000000  -0.000000  -0.000000   0.000000   0.000041
   67  H  3  X   -0.000011   0.000089  -0.000610  -0.000408  -0.000000
   68  H  3  Y   -0.000019   0.000156  -0.001128  -0.000595  -0.000000
   69  H  3  Z    0.000000  -0.000000  -0.000000   0.000000   0.000120
   70  H  3 XX   -0.000001   0.000002   0.000011   0.000038  -0.000000
   71  H  3 YY    0.000006   0.000021   0.000033  -0.000012  -0.000000
   72  H  3 ZZ   -0.000005  -0.000022  -0.000044  -0.000026  -0.000000
   73  H  3 XY    0.000007   0.000019  -0.000015   0.000016  -0.000000
   74  H  3 XZ    0.000000  -0.000000  -0.000000   0.000000  -0.000012
   75  H  3 YZ    0.000000  -0.000000  -0.000000   0.000000  -0.000020
   76  H  4  S    0.000005  -0.000173  -0.000000   0.000592  -0.000000
   77  H  4  S   -0.000044   0.000138   0.000000   0.003468  -0.000000
   78  H  4  S    0.000030  -0.000538  -0.000000  -0.000350  -0.000000
   79  H  4  X   -0.000002   0.000048   0.000000   0.000036  -0.000000
   80  H  4  Y    0.000000   0.000000   0.000107  -0.000000  -0.000000
   81  H  4  Z    0.000000  -0.000000  -0.000000   0.000000   0.000042
   82  H  4  X    0.000023  -0.000170  -0.000000  -0.001441  -0.000000
   83  H  4  Y    0.000000   0.000000  -0.000071   0.000000  -0.000000
   84  H  4  Z    0.000000  -0.000000  -0.000000   0.000000   0.000115
   85  H  4 XX    0.000009   0.000012  -0.000000  -0.000053  -0.000000
   86  H  4 YY   -0.000004   0.000001  -0.000000  -0.000015  -0.000000
   87  H  4 ZZ   -0.000005  -0.000013   0.000000   0.000068  -0.000000
   88  H  4 XY   -0.000000  -0.000000  -0.000038   0.000000  -0.000000
   89  H  4 XZ    0.000000  -0.000000  -0.000000   0.000000   0.000022
   90  H  4 YZ    0.000000  -0.000000  -0.000000   0.000000   0.000000

                      6          7          8          9         10
                    1.9769     1.6450     1.6449     1.6259     0.0557
                     A          A          A          A          A   
    1  P  1  S    0.001039   0.000000   0.000094   0.000000   0.011713
    2  P  1  S    0.002894   0.000000   0.000517   0.000000   0.109801
    3  P  1  S    0.548951   0.000000   0.011640   0.000000   0.565077
    4  P  1  S    0.057558   0.000000   0.000933   0.000000   0.091995
    5  P  1  S    0.220660   0.000000   0.007282   0.000000   0.416984
    6  P  1  X    0.001025  -0.000000  -0.036127   0.000000   0.014595
    7  P  1  Y    0.000000  -0.036975   0.000000   0.000000   0.000000
    8  P  1  Z   -0.000000  -0.000000   0.000000   0.001485  -0.000000
    9  P  1  X   -0.007743   0.000000   0.377503   0.000000   0.087214
   10  P  1  Y    0.000000   0.377941  -0.000000   0.000000  -0.000000
   11  P  1  Z   -0.000000  -0.000000   0.000000   0.598414  -0.000000
   12  P  1  X   -0.002793   0.000000   0.115999   0.000000   0.014903
   13  P  1  Y    0.000000   0.116685  -0.000000   0.000000  -0.000000
   14  P  1  Z   -0.000000  -0.000000   0.000000   0.162451  -0.000000
   15  P  1  X   -0.001918   0.000000   0.108495   0.000000   0.047730
   16  P  1  Y    0.000000   0.107722  -0.000000   0.000000   0.000000
   17  P  1  Z   -0.000000  -0.000000   0.000000   0.364539  -0.000000
   18  P  1 XX    0.010601   0.000000   0.043402   0.000000  -0.106040
   19  P  1 YY    0.012759  -0.000000  -0.043986   0.000000  -0.077787
   20  P  1 ZZ   -0.023360   0.000000   0.000584   0.000000   0.183828
   21  P  1 XY   -0.000000  -0.051026   0.000000   0.000000   0.000000
   22  P  1 XZ   -0.000000  -0.000000   0.000000   0.000908  -0.000000
   23  P  1 YZ   -0.000000  -0.000000   0.000000  -0.000000  -0.000000
   24  P  1 XX    0.004979   0.000000   0.026499   0.000000  -0.102602
   25  P  1 YY    0.005914  -0.000000  -0.027628   0.000000  -0.088681
   26  P  1 ZZ   -0.010892   0.000000   0.001129   0.000000   0.191283
   27  P  1 XY   -0.000000  -0.031510   0.000000   0.000000  -0.000000
   28  P  1 XZ   -0.000000  -0.000000   0.000000   0.002046  -0.000000
   29  P  1 YZ   -0.000000  -0.000000   0.000000   0.000000  -0.000000
   30  P  1 XXX   0.011349   0.000000   0.008435   0.000000  -0.067066
   31  P  1 YYY   0.000000   0.008353  -0.000000   0.000000   0.000000
   32  P  1 ZZZ  -0.000000  -0.000000   0.000000  -0.011536  -0.000000
   33  P  1 XXY   0.000000   0.003797  -0.000000   0.000000   0.000000
   34  P  1 XXZ  -0.000000  -0.000000   0.000000   0.007840  -0.000000
   35  P  1 YYX  -0.015680   0.000000   0.003551   0.000000   0.081161
   36  P  1 YYZ  -0.000000  -0.000000   0.000000   0.007638  -0.000000
   37  P  1 ZZX   0.000454  -0.000000  -0.014867   0.000000   0.008818
   38  P  1 ZZY  -0.000000  -0.015003   0.000000   0.000000  -0.000000
   39  P  1 XYZ  -0.000000  -0.000000   0.000000  -0.000000  -0.000000
   40  P  1 XX    0.001808   0.000000   0.008355   0.000000  -0.012393
   41  P  1 YY    0.002283  -0.000000  -0.008465   0.000000  -0.008140
   42  P  1 ZZ   -0.004091   0.000000   0.000110   0.000000   0.020533
   43  P  1 XY   -0.000000  -0.009888   0.000000   0.000000  -0.000000
   44  P  1 XZ   -0.000000  -0.000000   0.000000   0.000123  -0.000000
   45  P  1 YZ   -0.000000  -0.000000   0.000000   0.000000  -0.000000
   46  H  2  S    0.082124   0.147159  -0.083218   0.000000  -0.178367
   47  H  2  S    0.117786   0.246657  -0.139985   0.000000  -0.327984
   48  H  2  S    0.004100   0.045829  -0.026889   0.000000  -0.048300
   49  H  2  X    0.004018   0.006838  -0.001818   0.000000  -0.005112
   50  H  2  Y   -0.007013  -0.009794   0.006651   0.000000   0.010938
   51  H  2  Z   -0.000000  -0.000000   0.000000   0.005121  -0.000000
   52  H  2  X    0.007999   0.014074  -0.001636   0.000000  -0.014803
   53  H  2  Y   -0.014079  -0.017952   0.013627   0.000000   0.033974
   54  H  2  Z   -0.000000  -0.000000   0.000000   0.024232  -0.000000
   55  H  2 XX    0.000011   0.000195   0.001439   0.000000  -0.000765
   56  H  2 YY    0.001997   0.002113  -0.002724   0.000000  -0.004752
   57  H  2 ZZ   -0.002008  -0.002308   0.001285   0.000000   0.005517
   58  H  2 XY   -0.001925  -0.003771   0.001075   0.000000   0.002667
   59  H  2 XZ   -0.000000  -0.000000   0.000000   0.001342  -0.000000
   60  H  2 YZ   -0.000000  -0.000000   0.000000  -0.002334  -0.000000
   61  H  3  S    0.082124  -0.147159  -0.083218   0.000000  -0.178367
   62  H  3  S    0.117786  -0.246657  -0.139984   0.000000  -0.327984
   63  H  3  S    0.004100  -0.045829  -0.026889   0.000000  -0.048300
   64  H  3  X    0.004018  -0.006838  -0.001818   0.000000  -0.005112
   65  H  3  Y    0.007013  -0.009794  -0.006651   0.000000  -0.010938
   66  H  3  Z   -0.000000  -0.000000   0.000000   0.005121  -0.000000
   67  H  3  X    0.007999  -0.014074  -0.001636   0.000000  -0.014803
   68  H  3  Y    0.014079  -0.017952  -0.013627   0.000000  -0.033974
   69  H  3  Z   -0.000000  -0.000000   0.000000   0.024232  -0.000000
   70  H  3 XX    0.000011  -0.000195   0.001439   0.000000  -0.000765
   71  H  3 YY    0.001997  -0.002113  -0.002724   0.000000  -0.004752
   72  H  3 ZZ   -0.002008   0.002308   0.001285   0.000000   0.005517
   73  H  3 XY    0.001925  -0.003771  -0.001075   0.000000  -0.002667
   74  H  3 XZ   -0.000000  -0.000000   0.000000   0.001342  -0.000000
   75  H  3 YZ   -0.000000  -0.000000   0.000000   0.002334  -0.000000
   76  H  4  S    0.075786   0.000000   0.170059   0.000000  -0.215183
   77  H  4  S    0.109083   0.000000   0.289030   0.000000  -0.434491
   78  H  4  S    0.002884   0.000000   0.053921   0.000000  -0.070458
   79  H  4  X   -0.007472  -0.000000  -0.013602   0.000000   0.014625
   80  H  4  Y   -0.000000   0.001943  -0.000000   0.000000  -0.000000
   81  H  4  Z   -0.000000  -0.000000   0.000000   0.004990  -0.000000
   82  H  4  X   -0.015485  -0.000000  -0.027180   0.000000   0.055503
   83  H  4  Y   -0.000000   0.006251  -0.000000   0.000000   0.000000
   84  H  4  Z   -0.000000  -0.000000   0.000000   0.024020  -0.000000
   85  H  4 XX    0.002729   0.000000   0.005209   0.000000  -0.007834
   86  H  4 YY   -0.000844  -0.000000  -0.002471   0.000000   0.001059
   87  H  4 ZZ   -0.001885  -0.000000  -0.002738   0.000000   0.006775
   88  H  4 XY   -0.000000  -0.001728   0.000000   0.000000  -0.000000
   89  H  4 XZ   -0.000000  -0.000000   0.000000  -0.002626  -0.000000
   90  H  4 YZ   -0.000000  -0.000000   0.000000   0.000000  -0.000000

                     11         12
                    0.0262     0.0253
                     A          A   
    1  P  1  S   -0.002545   0.000000
    2  P  1  S   -0.022753   0.000000
    3  P  1  S   -0.087748   0.000000
    4  P  1  S   -0.016643  -0.000000
    5  P  1  S   -0.033523   0.000000
    6  P  1  X    0.161115  -0.000000
    7  P  1  Y    0.000000   0.167992
    8  P  1  Z   -0.000000   0.000000
    9  P  1  X    0.852620  -0.000000
   10  P  1  Y    0.000000   0.870623
   11  P  1  Z   -0.000000   0.000000
   12  P  1  X    0.141949  -0.000000
   13  P  1  Y    0.000000   0.143087
   14  P  1  Z   -0.000000   0.000000
   15  P  1  X    0.339749  -0.000000
   16  P  1  Y    0.000000   0.342962
   17  P  1  Z   -0.000000   0.000000
   18  P  1 XX   -0.133946   0.000000
   19  P  1 YY    0.147576  -0.000000
   20  P  1 ZZ   -0.013629  -0.000000
   21  P  1 XY    0.000000   0.162173
   22  P  1 XZ   -0.000000   0.000000
   23  P  1 YZ   -0.000000   0.000000
   24  P  1 XX   -0.037510   0.000000
   25  P  1 YY    0.040417  -0.000000
   26  P  1 ZZ   -0.002907  -0.000000
   27  P  1 XY    0.000000   0.041219
   28  P  1 XZ   -0.000000   0.000000
   29  P  1 YZ   -0.000000   0.000000
   30  P  1 XXX  -0.008644   0.000000
   31  P  1 YYY  -0.000000  -0.020443
   32  P  1 ZZZ  -0.000000   0.000000
   33  P  1 XXY  -0.000000  -0.008037
   34  P  1 XXZ  -0.000000   0.000000
   35  P  1 YYX  -0.023938  -0.000000
   36  P  1 YYZ  -0.000000   0.000000
   37  P  1 ZZX   0.035535  -0.000000
   38  P  1 ZZY   0.000000   0.035464
   39  P  1 XYZ  -0.000000   0.000000
   40  P  1 XX   -0.015901   0.000000
   41  P  1 YY    0.016477   0.000000
   42  P  1 ZZ   -0.000576  -0.000000
   43  P  1 XY   -0.000000   0.018692
   44  P  1 XZ   -0.000000   0.000000
   45  P  1 YZ   -0.000000   0.000000
   46  H  2  S    0.162119  -0.232799
   47  H  2  S    0.372397  -0.570474
   48  H  2  S    0.020905  -0.037356
   49  H  2  X    0.019514  -0.007261
   50  H  2  Y   -0.009398   0.026755
   51  H  2  Z   -0.000000   0.000000
   52  H  2  X    0.082423  -0.046150
   53  H  2  Y   -0.052477   0.132294
   54  H  2  Z   -0.000000   0.000000
   55  H  2 XX    0.005390   0.005626
   56  H  2 YY    0.001424  -0.015314
   57  H  2 ZZ   -0.006814   0.009688
   58  H  2 XY   -0.012813   0.011351
   59  H  2 XZ   -0.000000   0.000000
   60  H  2 YZ   -0.000000   0.000000
   61  H  3  S    0.162119   0.232799
   62  H  3  S    0.372397   0.570474
   63  H  3  S    0.020905   0.037356
   64  H  3  X    0.019514   0.007261
   65  H  3  Y    0.009398   0.026755
   66  H  3  Z   -0.000000   0.000000
   67  H  3  X    0.082423   0.046150
   68  H  3  Y    0.052477   0.132294
   69  H  3  Z   -0.000000   0.000000
   70  H  3 XX    0.005390  -0.005626
   71  H  3 YY    0.001424   0.015314
   72  H  3 ZZ   -0.006814  -0.009688
   73  H  3 XY    0.012813   0.011351
   74  H  3 XZ   -0.000000   0.000000
   75  H  3 YZ   -0.000000   0.000000
   76  H  4  S   -0.230164   0.000000
   77  H  4  S   -0.595679   0.000000
   78  H  4  S   -0.049632   0.000000
   79  H  4  X    0.026122  -0.000000
   80  H  4  Y    0.000000   0.013892
   81  H  4  Z   -0.000000   0.000000
   82  H  4  X    0.143331  -0.000000
   83  H  4  Y    0.000000   0.051828
   84  H  4  Z   -0.000000   0.000000
   85  H  4 XX   -0.018897  -0.000000
   86  H  4 YY    0.009435   0.000000
   87  H  4 ZZ    0.009462   0.000000
   88  H  4 XY    0.000000  -0.009714
   89  H  4 XZ   -0.000000   0.000000
   90  H  4 YZ   -0.000000   0.000000

          ------------------------
          MCSCF OPTIMIZED ORBITALS
          ------------------------

                      1          2          3          4          5
                  -80.2667    -7.8144    -5.7093    -5.7093    -5.7081
                     A          A          A          A          A   
    1  P  1  S    1.000140  -0.000534  -0.000000  -0.000004  -0.000000
    2  P  1  S    0.000212   0.953779   0.000000  -0.000113  -0.000000
    3  P  1  S    0.000235  -0.004191  -0.000000   0.000156  -0.000000
    4  P  1  S   -0.000970   0.063026  -0.000000   0.000060  -0.000000
    5  P  1  S   -0.000156   0.002614  -0.000000   0.000069  -0.000000
    6  P  1  X    0.000003   0.000093   0.000001   0.958054  -0.000000
    7  P  1  Y    0.000000  -0.000000   0.958006  -0.000001  -0.000000
    8  P  1  Z    0.000000  -0.000000  -0.000000   0.000000   0.961341
    9  P  1  X    0.000002   0.000014  -0.000000  -0.003323  -0.000000
   10  P  1  Y    0.000000  -0.000000  -0.003408   0.000000  -0.000000
   11  P  1  Z    0.000000  -0.000000  -0.000000   0.000000  -0.000074
   12  P  1  X   -0.000001   0.000044   0.000000   0.079401  -0.000000
   13  P  1  Y    0.000000  -0.000000   0.079400  -0.000000  -0.000000
   14  P  1  Z    0.000000  -0.000000  -0.000000   0.000000   0.075522
   15  P  1  X    0.000000   0.000003   0.000000   0.001227  -0.000000
   16  P  1  Y    0.000000  -0.000000   0.001224  -0.000000  -0.000000
   17  P  1  Z    0.000000  -0.000000  -0.000000   0.000000   0.001291
   18  P  1 XX    0.000006   0.000104   0.000000   0.000271  -0.000000
   19  P  1 YY    0.000006   0.000088  -0.000000  -0.000259  -0.000000
   20  P  1 ZZ   -0.000012  -0.000192   0.000000  -0.000012  -0.000000
   21  P  1 XY    0.000000   0.000000  -0.000285   0.000000  -0.000000
   22  P  1 XZ    0.000000  -0.000000  -0.000000   0.000000   0.000004
   23  P  1 YZ    0.000000  -0.000000  -0.000000   0.000000   0.000000
   24  P  1 XX    0.000015  -0.000178  -0.000000  -0.001462  -0.000000
   25  P  1 YY    0.000013  -0.000178   0.000000   0.001460  -0.000000
   26  P  1 ZZ   -0.000028   0.000357   0.000000   0.000002  -0.000000
   27  P  1 XY   -0.000000  -0.000000   0.001717  -0.000000  -0.000000
   28  P  1 XZ    0.000000  -0.000000  -0.000000   0.000000   0.000004
   29  P  1 YZ    0.000000  -0.000000  -0.000000   0.000000  -0.000000
   30  P  1 XXX   0.000017   0.000101  -0.000000  -0.000046  -0.000000
   31  P  1 YYY   0.000000   0.000000  -0.000045   0.000000  -0.000000
   32  P  1 ZZZ   0.000000  -0.000000  -0.000000   0.000000  -0.000254
   33  P  1 XXY   0.000000  -0.000000  -0.000025   0.000000  -0.000000
   34  P  1 XXZ   0.000000  -0.000000  -0.000000   0.000000   0.000169
   35  P  1 YYX  -0.000022  -0.000137   0.000000  -0.000017  -0.000000
   36  P  1 YYZ   0.000000  -0.000000  -0.000000   0.000000   0.000172
   37  P  1 ZZX  -0.000000   0.000002   0.000000   0.000079  -0.000000
   38  P  1 ZZY   0.000000   0.000000   0.000085  -0.000000  -0.000000
   39  P  1 XYZ   0.000000  -0.000000  -0.000000   0.000000   0.000000
   40  P  1 XX   -0.000001   0.000243  -0.000000  -0.000239  -0.000000
   41  P  1 YY   -0.000001   0.000232   0.000000   0.000262  -0.000000
   42  P  1 ZZ    0.000002  -0.000474   0.000000  -0.000023  -0.000000
   43  P  1 XY    0.000000  -0.000000   0.000343  -0.000000  -0.000000
   44  P  1 XZ    0.000000  -0.000000  -0.000000   0.000000   0.000019
   45  P  1 YZ    0.000000  -0.000000  -0.000000   0.000000  -0.000000
   46  H  2  S    0.000005  -0.000187   0.000522  -0.000279  -0.000000
   47  H  2  S   -0.000042   0.000142   0.003114  -0.001732  -0.000000
   48  H  2  S    0.000031  -0.000549  -0.000301   0.000174  -0.000000
   49  H  2  X    0.000002  -0.000021   0.000036   0.000089  -0.000000
   50  H  2  Y   -0.000003   0.000036   0.000047   0.000033  -0.000000
   51  H  2  Z    0.000000  -0.000000  -0.000000   0.000000   0.000041
   52  H  2  X   -0.000011   0.000089   0.000610  -0.000408  -0.000000
   53  H  2  Y    0.000019  -0.000156  -0.001128   0.000595  -0.000000
   54  H  2  Z    0.000000  -0.000000  -0.000000   0.000000   0.000120
   55  H  2 XX   -0.000001   0.000002  -0.000011   0.000038  -0.000000
   56  H  2 YY    0.000006   0.000021  -0.000033  -0.000012  -0.000000
   57  H  2 ZZ   -0.000005  -0.000022   0.000044  -0.000026  -0.000000
   58  H  2 XY   -0.000007  -0.000019  -0.000015  -0.000016  -0.000000
   59  H  2 XZ    0.000000  -0.000000  -0.000000   0.000000  -0.000012
   60  H  2 YZ    0.000000  -0.000000  -0.000000   0.000000   0.000020
   61  H  3  S    0.000005  -0.000187  -0.000522  -0.000279  -0.000000
   62  H  3  S   -0.000042   0.000142  -0.003114  -0.001732  -0.000000
   63  H  3  S    0.000031  -0.000549   0.000301   0.000174  -0.000000
   64  H  3  X    0.000002  -0.000021  -0.000036   0.000089  -0.000000
   65  H  3  Y    0.000003  -0.000036   0.000047  -0.000033  -0.000000
   66  H  3  Z    0.000000  -0.000000  -0.000000   0.000000   0.000041
   67  H  3  X   -0.000011   0.000089  -0.000610  -0.000408  -0.000000
   68  H  3  Y   -0.000019   0.000156  -0.001128  -0.000595  -0.000000
   69  H  3  Z    0.000000  -0.000000  -0.000000   0.000000   0.000120
   70  H  3 XX   -0.000001   0.000002   0.000011   0.000038  -0.000000
   71  H  3 YY    0.000006   0.000021   0.000033  -0.000012  -0.000000
   72  H  3 ZZ   -0.000005  -0.000022  -0.000044  -0.000026  -0.000000
   73  H  3 XY    0.000007   0.000019  -0.000015   0.000016  -0.000000
   74  H  3 XZ    0.000000  -0.000000  -0.000000   0.000000  -0.000012
   75  H  3 YZ    0.000000  -0.000000  -0.000000   0.000000  -0.000020
   76  H  4  S    0.000005  -0.000173  -0.000000   0.000592  -0.000000
   77  H  4  S   -0.000044   0.000138   0.000000   0.003468  -0.000000
   78  H  4  S    0.000030  -0.000538  -0.000000  -0.000350  -0.000000
   79  H  4  X   -0.000002   0.000048   0.000000   0.000036  -0.000000
   80  H  4  Y    0.000000   0.000000   0.000107  -0.000000  -0.000000
   81  H  4  Z    0.000000  -0.000000  -0.000000   0.000000   0.000042
   82  H  4  X    0.000023  -0.000170  -0.000000  -0.001441  -0.000000
   83  H  4  Y    0.000000   0.000000  -0.000071   0.000000  -0.000000
   84  H  4  Z    0.000000  -0.000000  -0.000000   0.000000   0.000115
   85  H  4 XX    0.000009   0.000012  -0.000000  -0.000053  -0.000000
   86  H  4 YY   -0.000004   0.000001  -0.000000  -0.000015  -0.000000
   87  H  4 ZZ   -0.000005  -0.000013   0.000000   0.000068  -0.000000
   88  H  4 XY   -0.000000  -0.000000  -0.000038   0.000000  -0.000000
   89  H  4 XZ    0.000000  -0.000000  -0.000000   0.000000   0.000022
   90  H  4 YZ    0.000000  -0.000000  -0.000000   0.000000   0.000000

                      6          7          8          9         10
                    0.0000     0.0000     0.0000     0.0000     0.0000
                     A          A          A          A          A   
    1  P  1  S    0.001013   0.000048  -0.000007   0.000000   0.011925
    2  P  1  S    0.002648   0.000231  -0.000034   0.000000   0.111643
    3  P  1  S    0.547751  -0.001028   0.000152   0.000000   0.572576
    4  P  1  S    0.057350  -0.000456   0.000067   0.000000   0.093400
    5  P  1  S    0.219782   0.001697  -0.000251   0.000000   0.418662
    6  P  1  X    0.000201  -0.036117   0.005338   0.000000  -0.003273
    7  P  1  Y    0.000000  -0.005445  -0.036844   0.000000   0.000000
    8  P  1  Z    0.000000   0.000000   0.000000   0.001485   0.000000
    9  P  1  X   -0.000246   0.371566  -0.054915   0.000000  -0.006147
   10  P  1  Y    0.000000   0.055053   0.372499   0.000000   0.000000
   11  P  1  Z    0.000000   0.000000   0.000000   0.598414   0.000000
   12  P  1  X   -0.000435   0.114457  -0.016916   0.000000  -0.000526
   13  P  1  Y    0.000000   0.017026   0.115204   0.000000   0.000000
   14  P  1  Z    0.000000   0.000000   0.000000   0.162451   0.000000
   15  P  1  X    0.000163   0.106533  -0.015745   0.000000   0.010357
   16  P  1  Y    0.000000   0.015669   0.106021   0.000000   0.000000
   17  P  1  Z    0.000000   0.000000   0.000000   0.364539   0.000000
   18  P  1 XX    0.011786   0.043239  -0.006390   0.000000  -0.090560
   19  P  1 YY    0.011990  -0.043880   0.006485   0.000000  -0.093599
   20  P  1 ZZ   -0.023776   0.000642  -0.000095   0.000000   0.184159
   21  P  1 XY   -0.000000  -0.007498  -0.050735   0.000000   0.000000
   22  P  1 XZ    0.000000   0.000000   0.000000   0.000908   0.000000
   23  P  1 YZ    0.000000   0.000000   0.000000  -0.000000   0.000000
   24  P  1 XX    0.005782   0.026432  -0.003906   0.000000  -0.097788
   25  P  1 YY    0.005537  -0.027314   0.004037   0.000000  -0.092633
   26  P  1 ZZ   -0.011319   0.000883  -0.000130   0.000000   0.190421
   27  P  1 XY   -0.000000  -0.004617  -0.031237   0.000000  -0.000000
   28  P  1 XZ    0.000000   0.000000   0.000000   0.002046   0.000000
   29  P  1 YZ    0.000000   0.000000   0.000000   0.000000   0.000000
   30  P  1 XXX   0.011683   0.008288  -0.001225   0.000000  -0.065665
   31  P  1 YYY   0.000000   0.001226   0.008295   0.000000   0.000000
   32  P  1 ZZZ   0.000000   0.000000   0.000000  -0.011536   0.000000
   33  P  1 XXY   0.000000   0.000557   0.003769   0.000000   0.000000
   34  P  1 XXZ   0.000000   0.000000   0.000000   0.007840   0.000000
   35  P  1 YYX  -0.015789   0.003688  -0.000545   0.000000   0.083271
   36  P  1 YYZ   0.000000   0.000000   0.000000   0.007638   0.000000
   37  P  1 ZZX   0.000114  -0.014807   0.002188   0.000000   0.004828
   38  P  1 ZZY  -0.000000  -0.002202  -0.014898   0.000000  -0.000000
   39  P  1 XYZ   0.000000   0.000000   0.000000  -0.000000   0.000000
   40  P  1 XX    0.002014   0.008289  -0.001225   0.000000  -0.010548
   41  P  1 YY    0.002122  -0.008434   0.001246   0.000000  -0.009914
   42  P  1 ZZ   -0.004136   0.000145  -0.000021   0.000000   0.020463
   43  P  1 XY   -0.000000  -0.001450  -0.009811   0.000000   0.000000
   44  P  1 XZ    0.000000   0.000000   0.000000   0.000123   0.000000
   45  P  1 YZ    0.000000   0.000000   0.000000  -0.000000   0.000000
   46  H  2  S    0.080756  -0.062331   0.158347   0.000000  -0.195098
   47  H  2  S    0.115534  -0.104654   0.265727   0.000000  -0.366956
   48  H  2  S    0.003647  -0.019896   0.049327   0.000000  -0.050355
   49  H  2  X    0.003987  -0.000908   0.007058   0.000000  -0.007220
   50  H  2  Y   -0.006896   0.005278  -0.010723   0.000000   0.011903
   51  H  2  Z    0.000000   0.000000   0.000000   0.005121   0.000000
   52  H  2  X    0.007981   0.000152   0.014279   0.000000  -0.023753
   53  H  2  Y   -0.013861   0.011137  -0.020008   0.000000   0.039531
   54  H  2  Z    0.000000   0.000000   0.000000   0.024232   0.000000
   55  H  2 XX    0.000041   0.001441  -0.000025   0.000000  -0.001349
   56  H  2 YY    0.001951  -0.002414   0.002517   0.000000  -0.004881
   57  H  2 ZZ   -0.001992   0.000973  -0.002492   0.000000   0.006231
   58  H  2 XY   -0.001906   0.000569  -0.003914   0.000000   0.004057
   59  H  2 XZ    0.000000   0.000000   0.000000   0.001342   0.000000
   60  H  2 YZ    0.000000   0.000000   0.000000  -0.002334   0.000000
   61  H  3  S    0.080756  -0.105472  -0.133547   0.000000  -0.195098
   62  H  3  S    0.115534  -0.177046  -0.224093   0.000000  -0.366956
   63  H  3  S    0.003647  -0.033314  -0.041463   0.000000  -0.050355
   64  H  3  X    0.003987  -0.002910  -0.006493   0.000000  -0.007220
   65  H  3  Y    0.006896  -0.008154  -0.008738   0.000000  -0.011903
   66  H  3  Z    0.000000   0.000000   0.000000   0.005121   0.000000
   67  H  3  X    0.007981  -0.003984  -0.013713   0.000000  -0.023753
   68  H  3  Y    0.013861  -0.016449  -0.015930   0.000000  -0.039531
   69  H  3  Z    0.000000   0.000000   0.000000   0.024232   0.000000
   70  H  3 XX    0.000041   0.001387  -0.000393   0.000000  -0.001349
   71  H  3 YY    0.001951  -0.003039  -0.001711   0.000000  -0.004881
   72  H  3 ZZ   -0.001992   0.001653   0.002104   0.000000   0.006231
   73  H  3 XY    0.001906  -0.001677  -0.003583   0.000000  -0.004057
   74  H  3 XZ    0.000000   0.000000   0.000000   0.001342   0.000000
   75  H  3 YZ    0.000000   0.000000   0.000000   0.002334   0.000000
   76  H  4  S    0.079881   0.167622  -0.024773   0.000000  -0.188036
   77  H  4  S    0.116255   0.285880  -0.042251   0.000000  -0.365515
   78  H  4  S    0.004187   0.053543  -0.007913   0.000000  -0.064450
   79  H  4  X   -0.007795  -0.013388   0.001979   0.000000   0.011619
   80  H  4  Y   -0.000000   0.000281   0.001900   0.000000  -0.000000
   81  H  4  Z    0.000000   0.000000   0.000000   0.004990   0.000000
   82  H  4  X   -0.016212  -0.026990   0.003989   0.000000   0.039324
   83  H  4  Y   -0.000000   0.000902   0.006102   0.000000   0.000000
   84  H  4  Z    0.000000   0.000000   0.000000   0.024020   0.000000
   85  H  4 XX    0.002860   0.005153  -0.000762   0.000000  -0.005692
   86  H  4 YY   -0.000900  -0.002449   0.000362   0.000000   0.000008
   87  H  4 ZZ   -0.001960  -0.002705   0.000400   0.000000   0.005684
   88  H  4 XY   -0.000000  -0.000250  -0.001694   0.000000  -0.000000
   89  H  4 XZ    0.000000   0.000000   0.000000  -0.002626   0.000000
   90  H  4 YZ    0.000000   0.000000   0.000000   0.000000   0.000000

                     11         12         13         14         15
                    0.0000     0.0000    -0.0186     0.0442     0.0445
                     A          A          A          A          A   
    1  P  1  S   -0.001241   0.000054   0.016752   0.000000  -0.000286
    2  P  1  S   -0.010540   0.000457   0.123908   0.000000  -0.001889
    3  P  1  S   -0.024857   0.001079   0.402858   0.000000  -0.004269
    4  P  1  S   -0.006403   0.000278   0.012945  -0.000000   0.000347
    5  P  1  S    0.012587  -0.000546   1.665435   0.000000   0.018763
    6  P  1  X    0.161507  -0.007007  -0.000802   0.000000  -0.145094
    7  P  1  Y    0.007279   0.167774  -0.000000   0.146510   0.000000
    8  P  1  Z    0.000000   0.000000   0.000000  -0.000000   0.000000
    9  P  1  X    0.857110  -0.037188  -0.005081   0.000000  -0.579008
   10  P  1  Y    0.037764   0.870408  -0.000000   0.583150   0.000000
   11  P  1  Z    0.000000   0.000000   0.000000  -0.000000   0.000000
   12  P  1  X    0.142862  -0.006198  -0.001230   0.000000  -0.034151
   13  P  1  Y    0.006210   0.143139  -0.000000   0.035117   0.000000
   14  P  1  Z    0.000000   0.000000   0.000000  -0.000000   0.000000
   15  P  1  X    0.342865  -0.014876  -0.032223   0.000000  -0.831550
   16  P  1  Y    0.014874   0.342812  -0.000000   0.859124   0.000000
   17  P  1  Z    0.000000   0.000000   0.000000  -0.000000   0.000000
   18  P  1 XX   -0.144542   0.006271   0.027105   0.000000  -0.047032
   19  P  1 YY    0.137910  -0.005984   0.026966  -0.000000   0.045575
   20  P  1 ZZ    0.006633  -0.000288  -0.054071  -0.000000   0.001457
   21  P  1 XY    0.007026   0.161939  -0.000000  -0.052915  -0.000000
   22  P  1 XZ    0.000000   0.000000   0.000000  -0.000000   0.000000
   23  P  1 YZ    0.000000   0.000000   0.000000  -0.000000   0.000000
   24  P  1 XX   -0.048445   0.002102   0.138526   0.000000  -0.272369
   25  P  1 YY    0.030340  -0.001316   0.142775  -0.000000   0.262925
   26  P  1 ZZ    0.018105  -0.000786  -0.281300  -0.000000   0.009444
   27  P  1 XY    0.001785   0.041129   0.000000  -0.306842  -0.000000
   28  P  1 XZ    0.000000   0.000000   0.000000  -0.000000   0.000000
   29  P  1 YZ    0.000000   0.000000   0.000000  -0.000000   0.000000
   30  P  1 XXX  -0.015919   0.000691   0.015698   0.000000  -0.014139
   31  P  1 YYY  -0.000886  -0.020411  -0.000000   0.014602   0.000000
   32  P  1 ZZZ   0.000000   0.000000   0.000000  -0.000000   0.000000
   33  P  1 XXY  -0.000348  -0.008023  -0.000000   0.006669   0.000000
   34  P  1 XXZ   0.000000   0.000000   0.000000  -0.000000   0.000000
   35  P  1 YYX  -0.014862   0.000645  -0.021117   0.000000  -0.006816
   36  P  1 YYZ   0.000000   0.000000   0.000000  -0.000000   0.000000
   37  P  1 ZZX   0.036220  -0.001571   0.000057  -0.000000   0.025785
   38  P  1 ZZY   0.001536   0.035407   0.000000  -0.026260  -0.000000
   39  P  1 XYZ   0.000000   0.000000   0.000000  -0.000000   0.000000
   40  P  1 XX   -0.017130   0.000743   0.007453   0.000000  -0.010342
   41  P  1 YY    0.015450  -0.000670   0.007391  -0.000000   0.009725
   42  P  1 ZZ    0.001680  -0.000073  -0.014844  -0.000000   0.000617
   43  P  1 XY    0.000810   0.018659  -0.000000  -0.011220  -0.000000
   44  P  1 XZ    0.000000   0.000000   0.000000  -0.000000   0.000000
   45  P  1 YZ    0.000000   0.000000   0.000000  -0.000000   0.000000
   46  H  2  S    0.131170  -0.238473   0.010599   0.016063   0.009211
   47  H  2  S    0.308810  -0.584013   0.214059   0.228424   0.130176
   48  H  2  S    0.013781  -0.037916  -1.219876  -1.876729  -1.065503
   49  H  2  X    0.018500  -0.008059   0.009072   0.011312   0.005068
   50  H  2  Y   -0.006960   0.027067  -0.015861  -0.018176  -0.011066
   51  H  2  Z    0.000000   0.000000   0.000000  -0.000000   0.000000
   52  H  2  X    0.078222  -0.049565  -0.035721  -0.057814  -0.030854
   53  H  2  Y   -0.042622   0.134239   0.061331   0.098974   0.057119
   54  H  2  Z    0.000000   0.000000   0.000000  -0.000000   0.000000
   55  H  2 XX    0.005515   0.005392  -0.000158   0.002296  -0.000270
   56  H  2 YY    0.000223  -0.015335  -0.001628  -0.006585  -0.002203
   57  H  2 ZZ   -0.005738   0.009943   0.001786   0.004288   0.002473
   58  H  2 XY   -0.011937   0.011873   0.001532   0.007008   0.005063
   59  H  2 XZ    0.000000   0.000000   0.000000  -0.000000   0.000000
   60  H  2 YZ    0.000000   0.000000   0.000000  -0.000000   0.000000
   61  H  3  S    0.151331   0.226216   0.010599  -0.016063   0.009211
   62  H  3  S    0.358232   0.555072   0.214059  -0.228424   0.130176
   63  H  3  S    0.017013   0.036580  -1.219876   1.876730  -1.065501
   64  H  3  X    0.019128   0.006427   0.009072  -0.011312   0.005068
   65  H  3  Y    0.009278   0.026362   0.015861  -0.018176   0.011066
   66  H  3  Z    0.000000   0.000000   0.000000  -0.000000   0.000000
   67  H  3  X    0.082221   0.042604  -0.035721   0.057814  -0.030854
   68  H  3  Y    0.054089   0.130043  -0.061331   0.098974  -0.057119
   69  H  3  Z    0.000000   0.000000   0.000000  -0.000000   0.000000
   70  H  3 XX    0.005028  -0.005850  -0.000158  -0.002296  -0.000270
   71  H  3 YY    0.001550   0.015258  -0.001628   0.006585  -0.002203
   72  H  3 ZZ   -0.006578  -0.009408   0.001786  -0.004288   0.002473
   73  H  3 XY    0.012921   0.010795  -0.001532   0.007008  -0.005063
   74  H  3 XZ    0.000000   0.000000   0.000000  -0.000000   0.000000
   75  H  3 YZ    0.000000   0.000000   0.000000  -0.000000   0.000000
   76  H  4  S   -0.251743   0.010922   0.010416   0.000000  -0.018396
   77  H  4  S   -0.638480   0.027702   0.218108   0.000000  -0.280779
   78  H  4  S   -0.056891   0.002468  -1.151318  -0.000001   2.140672
   79  H  4  X    0.027509  -0.001194  -0.017596  -0.000000   0.024706
   80  H  4  Y    0.000602   0.013882  -0.000000   0.001473   0.000000
   81  H  4  Z    0.000000   0.000000   0.000000  -0.000000   0.000000
   82  H  4  X    0.148350  -0.006436   0.067349   0.000000  -0.127819
   83  H  4  Y    0.002247   0.051790  -0.000000  -0.002149  -0.000000
   84  H  4  Z    0.000000   0.000000   0.000000  -0.000000   0.000000
   85  H  4 XX   -0.019612   0.000851  -0.002331  -0.000000   0.011096
   86  H  4 YY    0.009480  -0.000411   0.000602   0.000000  -0.006165
   87  H  4 ZZ    0.010132  -0.000440   0.001729   0.000000  -0.004931
   88  H  4 XY   -0.000421  -0.009707   0.000000  -0.001864  -0.000000
   89  H  4 XZ    0.000000   0.000000   0.000000  -0.000000   0.000000
   90  H  4 YZ    0.000000   0.000000   0.000000  -0.000000   0.000000

                     16         17         18         19         20
                    0.1344     0.1346     0.1759     0.2058     0.2058
                     A          A          A          A          A   
    1  P  1  S    0.000000  -0.000000   0.000000  -0.000000   0.000908
    2  P  1  S    0.000000  -0.000000   0.000000  -0.000000   0.006841
    3  P  1  S    0.000000  -0.000000   0.000000  -0.000000   0.017293
    4  P  1  S    0.000000  -0.000000   0.000000  -0.000000   0.003745
    5  P  1  S    0.000000  -0.000000   0.000000   0.000001  -0.111460
    6  P  1  X    0.000000  -0.000000   0.000000   0.000001  -0.084368
    7  P  1  Y    0.000000  -0.000000   0.000000  -0.076709  -0.000001
    8  P  1  Z   -0.000164  -0.000000  -0.326639   0.000000  -0.000000
    9  P  1  X    0.000000  -0.000000   0.000000   0.000007  -0.518988
   10  P  1  Y    0.000000  -0.000000   0.000000  -0.501209  -0.000006
   11  P  1  Z   -0.002339  -0.000000  -1.187527   0.000000  -0.000000
   12  P  1  X    0.000000  -0.000000   0.000000   0.000001  -0.078903
   13  P  1  Y    0.000000  -0.000000   0.000000  -0.078868  -0.000001
   14  P  1  Z   -0.000404  -0.000000  -0.031135   0.000000  -0.000000
   15  P  1  X    0.000000  -0.000000   0.000000  -0.000046   3.575971
   16  P  1  Y    0.000000  -0.000000   0.000000   3.600597   0.000046
   17  P  1  Z   -0.000307   0.000000   1.398647   0.000000  -0.000000
   18  P  1 XX    0.000000  -0.000000   0.000000  -0.000001   0.039650
   19  P  1 YY    0.000000  -0.000000   0.000000   0.000001  -0.039847
   20  P  1 ZZ    0.000000  -0.000000   0.000000  -0.000000   0.000197
   21  P  1 XY    0.000000  -0.000000   0.000000  -0.048915  -0.000001
   22  P  1 XZ    0.125881  -0.000000  -0.000264   0.000000  -0.000000
   23  P  1 YZ    0.000000   0.126131   0.000000   0.000000  -0.000000
   24  P  1 XX    0.000000  -0.000000   0.000000  -0.000009   0.718609
   25  P  1 YY    0.000000  -0.000000   0.000000   0.000009  -0.710191
   26  P  1 ZZ    0.000000  -0.000000   0.000000   0.000000  -0.008418
   27  P  1 XY    0.000000  -0.000000   0.000000  -0.835845  -0.000011
   28  P  1 XZ    0.804091  -0.000000  -0.002034   0.000000  -0.000000
   29  P  1 YZ    0.000000   0.805548  -0.000000   0.000000  -0.000000
   30  P  1 XXX   0.000000  -0.000000   0.000000  -0.000001   0.059938
   31  P  1 YYY   0.000000  -0.000000   0.000000   0.064017   0.000001
   32  P  1 ZZZ   0.000174   0.000000  -0.003972   0.000000  -0.000000
   33  P  1 XXY   0.000000  -0.000000   0.000000   0.028953   0.000000
   34  P  1 XXZ   0.004284  -0.000000   0.002541   0.000000  -0.000000
   35  P  1 YYX   0.000000  -0.000000   0.000000  -0.000000   0.032969
   36  P  1 YYZ  -0.004517   0.000000   0.002788   0.000000  -0.000000
   37  P  1 ZZX   0.000000  -0.000000   0.000000   0.000001  -0.113385
   38  P  1 ZZY   0.000000  -0.000000   0.000000  -0.114841  -0.000001
   39  P  1 XYZ  -0.000000  -0.005246   0.000000   0.000000  -0.000000
   40  P  1 XX    0.000000  -0.000000   0.000000  -0.000000   0.007864
   41  P  1 YY    0.000000  -0.000000   0.000000   0.000000  -0.007011
   42  P  1 ZZ    0.000000  -0.000000   0.000000   0.000000  -0.000854
   43  P  1 XY    0.000000  -0.000000   0.000000  -0.008759  -0.000000
   44  P  1 XZ    0.048838  -0.000000  -0.000082   0.000000  -0.000000
   45  P  1 YZ    0.000000   0.048915   0.000000   0.000000  -0.000000
   46  H  2  S    0.000000  -0.000000   0.000000   0.054224  -0.032480
   47  H  2  S    0.000000  -0.000000   0.000000  -0.483092   0.272118
   48  H  2  S    0.000000  -0.000000   0.000000  -2.356188   1.378383
   49  H  2  X    0.000000  -0.000000   0.000000   0.007283  -0.004914
   50  H  2  Y    0.000000  -0.000000   0.000000  -0.013288   0.007360
   51  H  2  Z   -0.000325   0.000584   0.005428   0.000000  -0.000000
   52  H  2  X    0.000000  -0.000000   0.000000  -0.143216   0.128406
   53  H  2  Y    0.000000  -0.000000   0.000000   0.292190  -0.145672
   54  H  2  Z   -0.061630   0.106311  -0.046099   0.000000  -0.000000
   55  H  2 XX    0.000000  -0.000000   0.000000   0.003512   0.002169
   56  H  2 YY    0.000000  -0.000000   0.000000  -0.008882   0.001091
   57  H  2 ZZ    0.000000  -0.000000   0.000000   0.005371  -0.003260
   58  H  2 XY    0.000000  -0.000000   0.000000   0.007564  -0.007276
   59  H  2 XZ    0.002199  -0.001807   0.000059   0.000000  -0.000000
   60  H  2 YZ   -0.001807   0.004341  -0.000114   0.000000  -0.000000
   61  H  3  S    0.000000  -0.000000   0.000000  -0.054223  -0.032481
   62  H  3  S    0.000000  -0.000000   0.000000   0.483085   0.272131
   63  H  3  S    0.000000  -0.000000   0.000000   2.356153   1.378443
   64  H  3  X    0.000000  -0.000000   0.000000  -0.007282  -0.004914
   65  H  3  Y    0.000000  -0.000000   0.000000  -0.013287  -0.007360
   66  H  3  Z   -0.000325  -0.000584   0.005428   0.000000  -0.000000
   67  H  3  X    0.000000  -0.000000   0.000000   0.143212   0.128410
   68  H  3  Y    0.000000  -0.000000   0.000000   0.292187   0.145680
   69  H  3  Z   -0.061630  -0.106311  -0.046099   0.000000  -0.000000
   70  H  3 XX    0.000000  -0.000000   0.000000  -0.003512   0.002169
   71  H  3 YY    0.000000  -0.000000   0.000000   0.008882   0.001091
   72  H  3 ZZ    0.000000  -0.000000   0.000000  -0.005370  -0.003260
   73  H  3 XY    0.000000  -0.000000   0.000000   0.007564   0.007276
   74  H  3 XZ    0.002199   0.001807   0.000059   0.000000  -0.000000
   75  H  3 YZ    0.001807   0.004341   0.000114   0.000000  -0.000000
   76  H  4  S    0.000000  -0.000000   0.000000  -0.000001   0.060721
   77  H  4  S    0.000000  -0.000000   0.000000   0.000007  -0.531586
   78  H  4  S    0.000000  -0.000000   0.000000   0.000034  -2.663681
   79  H  4  X    0.000000  -0.000000   0.000000   0.000000  -0.018231
   80  H  4  Y    0.000000  -0.000000   0.000000  -0.000773  -0.000000
   81  H  4  Z    0.000158  -0.000000   0.005285   0.000000  -0.000000
   82  H  4  X    0.000000  -0.000000   0.000000  -0.000005   0.367839
   83  H  4  Y    0.000000  -0.000000   0.000000   0.045159   0.000001
   84  H  4  Z    0.126497  -0.000000  -0.044471   0.000000  -0.000000
   85  H  4 XX    0.000000  -0.000000   0.000000   0.000000  -0.012583
   86  H  4 YY    0.000000  -0.000000   0.000000  -0.000000   0.006853
   87  H  4 ZZ    0.000000  -0.000000   0.000000  -0.000000   0.005729
   88  H  4 XY    0.000000  -0.000000   0.000000  -0.004728  -0.000000
   89  H  4 XZ    0.005392  -0.000000   0.000051   0.000000  -0.000000
   90  H  4 YZ    0.000000   0.001297   0.000000   0.000000  -0.000000

                     21         22         23         24         25
                    0.2912     0.3826     0.5046     0.5078     0.5395
                     A          A          A          A          A   
    1  P  1  S   -0.080785  -0.004703   0.001563  -0.000000  -0.000000
    2  P  1  S   -0.604491  -0.044127   0.011444  -0.000000  -0.000000
    3  P  1  S   -1.299173  -0.040599   0.021942  -0.000000  -0.000000
    4  P  1  S   -0.453992  -0.260532   0.000428  -0.000000   0.000000
    5  P  1  S    6.415556   2.864734   0.020535  -0.000000   0.000000
    6  P  1  X   -0.015489  -0.016067  -0.227878   0.000000   0.000000
    7  P  1  Y   -0.000000   0.000000   0.000000   0.245560   0.009373
    8  P  1  Z    0.000000   0.000000   0.000000   0.000000   0.000000
    9  P  1  X   -0.046564  -0.027337  -0.769893   0.000000   0.000000
   10  P  1  Y    0.000000   0.000000   0.000000   0.813953   0.029376
   11  P  1  Z    0.000000   0.000000   0.000000   0.000000   0.000000
   12  P  1  X   -0.002306   0.004929  -0.022975   0.000000   0.000000
   13  P  1  Y    0.000000  -0.000000   0.000000   0.020912   0.000425
   14  P  1  Z    0.000000   0.000000   0.000000   0.000000   0.000000
   15  P  1  X    0.040131  -0.062800  -1.087596   0.000000   0.000000
   16  P  1  Y   -0.000000   0.000000   0.000000   1.106205   0.014487
   17  P  1  Z    0.000000   0.000000   0.000000   0.000000   0.000000
   18  P  1 XX    0.030888   0.053336  -0.091680   0.000000   0.000000
   19  P  1 YY    0.036645   0.061628   0.090908  -0.000000  -0.000000
   20  P  1 ZZ   -0.067533  -0.114965   0.000772  -0.000000   0.000000
   21  P  1 XY    0.000000  -0.000000  -0.000000  -0.104268  -0.003437
   22  P  1 XZ    0.000000   0.000000   0.000000   0.000000   0.000000
   23  P  1 YZ    0.000000   0.000000   0.000000   0.000000   0.000000
   24  P  1 XX    0.267857   0.694618  -1.154613   0.000000   0.000000
   25  P  1 YY    0.266002   0.764911   1.163339  -0.000000  -0.000000
   26  P  1 ZZ   -0.533859  -1.459529  -0.008727   0.000000   0.000000
   27  P  1 XY    0.000000  -0.000000  -0.000000  -1.358191  -0.031059
   28  P  1 XZ    0.000000   0.000000   0.000000   0.000000   0.000000
   29  P  1 YZ    0.000000   0.000000   0.000000   0.000000   0.000000
   30  P  1 XXX   0.260790   0.129723   0.007175  -0.000000  -0.000000
   31  P  1 YYY  -0.000000   0.000000   0.000000  -0.007665   0.058499
   32  P  1 ZZZ   0.000000   0.000000   0.000000   0.000000   0.000000
   33  P  1 XXY  -0.000000   0.000000   0.000000  -0.000083  -0.078328
   34  P  1 XXZ   0.000000   0.000000   0.000000   0.000000   0.000000
   35  P  1 YYX  -0.350703  -0.178746   0.002859  -0.000000   0.000000
   36  P  1 YYZ   0.000000   0.000000   0.000000   0.000000   0.000000
   37  P  1 ZZX   0.000817   0.004704  -0.012486   0.000000  -0.000000
   38  P  1 ZZY   0.000000  -0.000000  -0.000000   0.010367  -0.000157
   39  P  1 XYZ   0.000000   0.000000   0.000000   0.000000   0.000000
   40  P  1 XX   -0.006440   0.019552  -0.036893   0.000000   0.000000
   41  P  1 YY   -0.007376   0.019833   0.036641  -0.000000  -0.000000
   42  P  1 ZZ    0.013816  -0.039384   0.000252  -0.000000  -0.000000
   43  P  1 XY    0.000000  -0.000000  -0.000000  -0.041677  -0.001537
   44  P  1 XZ    0.000000   0.000000   0.000000   0.000000   0.000000
   45  P  1 YZ    0.000000   0.000000   0.000000   0.000000   0.000000
[...]
      ---      ----        ----    --------- --------- -----
       36    0.948541    0.948541  22+2000
       16    0.115682   -0.115682  222000+
       71    0.114042   -0.114042  2+22000
      142   -0.112834   -0.112834  22+0200
       39    0.085555    0.085555  2-+2+00
       73   -0.083883    0.083883  2+-2+00
       52   -0.076861    0.076861  220200+
      108    0.057328    0.057328  +2-2+00
      249   -0.057225    0.057225  20+2200
      112    0.054756    0.054756  +2-20+0
      123   -0.054245    0.054245  +-2200+
      463   -0.052790    0.052790  20+2020
       88   -0.044890    0.044890  202200+
      456    0.044700    0.044700  2++20-0
       77   -0.037726    0.037726  2+-20+0
      460    0.035711    0.035711  -++2+-0
       40   -0.031065    0.031065  -2+2+00
      876    0.030410    0.030410  ++2200-
      288    0.028641    0.028641  +-+2-+0
      491   -0.028348    0.028348  +2+20-0
       74    0.028140   -0.028140  2022+00
       38   -0.027968    0.027968  2202+00
      499   -0.027837    0.027837  02+2020
      859   -0.027626    0.027626  02+2002
      494   -0.027464    0.027464  +-+2+-0
      285   -0.027078    0.027078  02+2200
      823   -0.026682    0.026682  20+2002
       44   -0.026408    0.026408  -2+20+0
      281   -0.026263    0.026263  +2+2-00
      254   -0.025013    0.025013  -++2-+0
       89    0.023835    0.023835  -+2200+
      459    0.023379   -0.023379  20+2+-0
      808   -0.023357    0.023357  2+02+0-
      297   -0.023273    0.023273  +202-0+
      253   -0.023027   -0.023027  20+2-+0
      262    0.022417    0.022417  2+02-0+

 State #    3  Energy =    -342.182194547

      Det      Coef        Coefp    Occupancy (Ignoring core)
      ---      ----        ----    --------- --------- -----
       71    0.946193   -0.946193  2+22000
        6   -0.123754    0.123754  22200+0
      177   -0.114365    0.114365  2+20200
       36   -0.113630   -0.113630  22+2000
       74   -0.086604    0.086604  2022+00
       38    0.080249   -0.080249  2202+00
       78    0.077583   -0.077583  20220+0
      109    0.057906   -0.057906  +-22+00
      248   -0.056754    0.056754  2+02200
      113   -0.054275    0.054275  +-220+0
      122   -0.054086   -0.054086  +2-200+
      822   -0.051905    0.051905  2+02002
        2    0.047814   -0.047814  2220+00
       42    0.043305   -0.043305  22020+0
      806    0.042407    0.042407  2++200-
      810    0.035285    0.035285  -++2+0-
       53   -0.035091   -0.035091  2-+200+
      526    0.032120    0.032120  ++220-0
       75   -0.031627   -0.031627  -+22+00
      841    0.030499   -0.030499  +2+200-
      332    0.029064   -0.029064  ++-2-0+
       39    0.027724    0.027724  2-+2+00
      878   -0.027694   -0.027694  ++-2+0-
      534   -0.027682   -0.027682  0+22020
       73   -0.027679    0.027679  2+-2+00
      894   -0.027625   -0.027625  0+22002
      320   -0.026977   -0.026977  0+22200
      462   -0.026472    0.026472  2+02020
      316   -0.026279   -0.026279  ++22-00
      264   -0.024694    0.024694  -++2-0+
      458   -0.023683    0.023683  2+02+-0
       54    0.023587   -0.023587  -2+200+
      809   -0.023095    0.023095  20+2+0-
      252    0.022942    0.022942  2+02-+0
      323    0.022880   -0.022880  +022-+0
      263    0.022860    0.022860  20+2-0+
       79    0.022155    0.022155  -+220+0
      106    0.021167    0.021167  +222000

 ---------------------------------------
      - DIABATIC STATES IN CMO -        
 ---------------------------------------

 State #    1  Energy =    -342.419313294

      Det      Coef        Coefp    Occupancy (Ignoring core)
      ---      ----        ----    --------- --------- -----
        1    0.977735   -0.977735  222+000
      107   -0.075992    0.075992  +22-+00
      179   -0.059365   -0.059365  202+200
      717   -0.055266   -0.055266  220+002
        5    0.049708    0.049708  -22++00
      393   -0.049574   -0.049574  202+020
      143   -0.045554   -0.045554  220+200
        8    0.037515   -0.037515  2-2+0+0
       17    0.036375    0.036375  22-+00+
      357   -0.032597   -0.032597  220+020
      353    0.032521    0.032521  220++-0
       76   -0.031289   -0.031289  2+2-0+0
       51   -0.031190    0.031190  22+-00+
      215   -0.030690   -0.030690  022+200
      389   -0.030501   -0.030501  202++-0
      147   -0.029745    0.029745  220+-+0
      742    0.029431    0.029431  2+-+0+-
      368    0.029329    0.029329  2-++0-+
      704    0.029143   -0.029143  2-+++0-
      227   -0.028475   -0.028475  +2-+-0+
      183    0.027865   -0.027865  202+-+0
      218   -0.026855    0.026855  +-2+-+0
      738   -0.026537   -0.026537  2+-++0-
      192    0.026417   -0.026417  2+-+-0+
      211    0.026284    0.026284  +22+-00
      753   -0.026098   -0.026098  202+002
       29   -0.025529   -0.025529  2--+0++
      705   -0.024764   -0.024764  -2+++0-
      773    0.024170   -0.024170  +2-++0-
      158   -0.023997   -0.023997  2-++-0+
      429   -0.023872   -0.023872  022+020
      789   -0.023461   -0.023461  022+002
      390   -0.022883    0.022883  -+2++-0
      159    0.022800   -0.022800  -2++-0+
      424    0.022614    0.022614  +-2++-0
      184    0.021118    0.021118  -+2+-+0
     1051   -0.020865   -0.020865  2+++0--

 State #    2  Energy =    -342.179886208

      Det      Coef        Coefp    Occupancy (Ignoring core)
      ---      ----        ----    --------- --------- -----
       36    0.955069    0.955069  22+2000
       16    0.115624   -0.115624  222000+
      142   -0.110836   -0.110836  22+0200
       39    0.089247    0.089247  2-+2+00
       73   -0.083136    0.083136  2+-2+00
       52   -0.077303    0.077303  220200+
      249   -0.062931    0.062931  20+2200
      112   -0.062532   -0.062532  +2-20+0
      123   -0.056047    0.056047  +-2200+
      108    0.052054    0.052054  +2-2+00
      463   -0.047719    0.047719  20+2020
       77    0.046925   -0.046925  2+-20+0
      456   -0.043981   -0.043981  2++20-0
       88   -0.043624    0.043624  202200+
      491    0.034616   -0.034616  +2+20-0
      460   -0.033975   -0.033975  -++2+-0
      876    0.031123    0.031123  ++2200-
       40   -0.029273    0.029273  -2+2+00
      499   -0.029225    0.029225  02+2020
       44    0.027916   -0.027916  -2+20+0
      859   -0.027714    0.027714  02+2002
      288   -0.027462   -0.027462  +-+2-+0
      823   -0.027014    0.027014  20+2002
      494    0.026401   -0.026401  +-+2+-0
      285   -0.026195    0.026195  02+2200
       71   -0.025734    0.025734  2+22000
       89    0.024924    0.024924  -+2200+
      297   -0.023735    0.023735  +202-0+
      459   -0.023512    0.023512  20+2+-0
      254    0.023316   -0.023316  -++2-+0
      253    0.023013    0.023013  20+2-+0
      281   -0.022780    0.022780  +2+2-00
      262    0.021909    0.021909  2+02-0+
      812    0.021527   -0.021527  2+020+-
      808   -0.021474    0.021474  2+02+0-
      146   -0.020784    0.020784  22+0-+0
      843    0.020192    0.020192  +202+0-

 State #    3  Energy =    -342.182194547

      Det      Coef        Coefp    Occupancy (Ignoring core)
      ---      ----        ----    --------- --------- -----
       71    0.952772   -0.952772  2+22000
        6    0.117758   -0.117758  22200+0
      177   -0.117744    0.117744  2+20200
       74   -0.100706    0.100706  2022+00
       38    0.079518   -0.079518  2202+00
       78   -0.068194    0.068194  20220+0
      109    0.063066   -0.063066  +-22+00
        2    0.061200   -0.061200  2220+00
      122   -0.055299   -0.055299  +2-200+
      822   -0.052275    0.052275  2+02002
       42   -0.051878    0.051878  22020+0
      248   -0.051541    0.051541  2+02200
      113    0.048053   -0.048053  +-220+0
      806    0.042666    0.042666  2++200-
      810    0.035939    0.035939  -++2+0-
       53   -0.035137   -0.035137  2-+200+
       75   -0.033411   -0.033411  -+22+00
      462   -0.032223    0.032223  2+02020
      841    0.030792   -0.030792  +2+200-
      332    0.029771   -0.029771  ++-2-0+
      316   -0.029654   -0.029654  ++22-00
      878   -0.028286   -0.028286  ++-2+0-
      320   -0.027872   -0.027872  0+22200
      894   -0.027804   -0.027804  0+22002
      526   -0.027369   -0.027369  ++220-0
      534   -0.027180   -0.027180  0+22020
      458    0.026956   -0.026956  2+02+-0
      252   -0.026158   -0.026158  2+02-+0
       36    0.025796    0.025796  22+2000
      264   -0.025307    0.025307  -++2-0+
       54    0.024507   -0.024507  -2+200+
      323   -0.022497    0.022497  +022-+0
      809   -0.022372    0.022372  20+2+0-
      473   -0.021305   -0.021305  20+20-+
      263    0.020914    0.020914  20+2-0+
       79   -0.020684   -0.020684  -+220+0

 ---------------------------------------
    -DIABATIC STATES IN PROTOTYPES-     
 ---------------------------------------

     STATE:    1
 Group Ref#    Coefficients
     1    1    0.998998
     2    2   -0.000000
     3    3   -0.000000

WEIGHT OF LISTED PROTOTYPES:   99.80%

     STATE:    2
 Group Ref#    Coefficients
     1    1    0.000000
     2    2    0.997578
     3    3    0.000027

WEIGHT OF LISTED PROTOTYPES:   99.52%

     STATE:    3
 Group Ref#    Coefficients
     1    1    0.000000
     2    2    0.000027
     3    3    0.995911

WEIGHT OF LISTED PROTOTYPES:   99.18%

     DIRECT MAX. DIABATIZATION FINISHED    
 CPU     0: STEP CPU TIME=     0.25 TOTAL CPU TIME=         66.9 (      1.1 MIN)
 TOTAL WALL CLOCK TIME=        102.4 SECONDS, CPU UTILIZATION IS    65.33%

DIABATS FOR SPIN-ORBIT CALCULATION ARE READY

TRANSITION DIPOLES BETWEEN ADIABATS (in A.U.):

STATE PAIR      X         Y         Z
    1    1  0.015078 -0.000000 -0.000000
    2    1 -0.000000  0.000000  0.017737
    2    2 -0.437805  0.000001 -0.000000
    3    1  0.000000 -0.000000 -0.000000
    3    2  0.000001  0.403798 -0.000000
    3    3  0.442661 -0.000001 -0.000000


TRANSITION DIPOLES BETWEEN DIABATS (in A.U.):

STATE PAIR      X         Y         Z
    1    1  0.015078 -0.000000 -0.000000
    2    1  0.000000 -0.000000 -0.000479
    2    2  0.442019 -0.021797  0.000000
    3    1 -0.000000  0.000000  0.017731
    3    2  0.023764  0.403209 -0.000000
    3    3 -0.437163  0.021797 -0.000000

TRANSITION DIPOLES BETWEEN DIRECT MAX. DIABATS (in A.U.):

STATE PAIR      X         Y         Z
    1    1  0.015078 -0.000000 -0.000000
    2    1  0.000000 -0.000000 -0.000479
    2    2  0.442019 -0.021797  0.000000
    3    1 -0.000000  0.000000  0.017731
    3    2  0.023764  0.403209 -0.000000
    3    3 -0.437163  0.021797 -0.000000
 No $TRANST Group Found.
 Quit without doing spin-orbit coupling
 ..... DONE WITH MP2 ENERGY .....
 CPU     0: STEP CPU TIME=     0.00 TOTAL CPU TIME=         66.9 (      1.1 MIN)
 TOTAL WALL CLOCK TIME=        102.4 SECONDS, CPU UTILIZATION IS    65.33%
            100000000  WORDS OF DYNAMIC MEMORY USED
 EXECUTION OF GAMESS TERMINATED NORMALLY Sat Nov 25 23:44:14 2023
 DDI: 4351152 bytes (4.1 MB / 0 MWords) used by master data server.
Note: The following floating-point exceptions are signalling: IEEE_DENORMAL

 ----------------------------------------
 CPU timing information for all processes
 ========================================
 0: 66.455 + 0.450 = 66.905
 1: 65.763 + 0.354 = 66.118
 ----------------------------------------
Note: The following floating-point exceptions are signalling: IEEE_DENORMAL
 ddikick.x: exited gracefully.
unset echo
----- accounting info -----
Files used on the master node io003 were:
-rw-r--r-- 1 bjb2chen nooijen  134244 Nov 25 23:42 /home/bjb2chen/gmsscr//ph3_cct_gmcpt_D3h_3st_diab_mode11_+0.05x2.F05
-rw-r--r-- 1 bjb2chen nooijen 1106024 Nov 25 23:44 /home/bjb2chen/gmsscr//ph3_cct_gmcpt_D3h_3st_diab_mode11_+0.05x2.F09
-rw-r--r-- 1 bjb2chen nooijen 1260112 Nov 25 23:44 /home/bjb2chen/gmsscr//ph3_cct_gmcpt_D3h_3st_diab_mode11_+0.05x2.F09.001
-rw-r--r-- 1 bjb2chen nooijen 2715760 Nov 25 23:44 /home/bjb2chen/gmsscr//ph3_cct_gmcpt_D3h_3st_diab_mode11_+0.05x2.F10
-rw-r--r-- 1 bjb2chen nooijen  611600 Nov 25 23:44 /home/bjb2chen/gmsscr//ph3_cct_gmcpt_D3h_3st_diab_mode11_+0.05x2.F13
-rw-r--r-- 1 bjb2chen nooijen  611600 Nov 25 23:44 /home/bjb2chen/gmsscr//ph3_cct_gmcpt_D3h_3st_diab_mode11_+0.05x2.F13.001
-rw-r--r-- 1 bjb2chen nooijen  180648 Nov 25 23:44 /home/bjb2chen/gmsscr//ph3_cct_gmcpt_D3h_3st_diab_mode11_+0.05x2.F15
-rw-r--r-- 1 bjb2chen nooijen       0 Nov 25 23:42 /home/bjb2chen/gmsscr//ph3_cct_gmcpt_D3h_3st_diab_mode11_+0.05x2.F16
-rw-r--r-- 1 bjb2chen nooijen    9808 Nov 25 23:44 /home/bjb2chen/gmsscr//ph3_cct_gmcpt_D3h_3st_diab_mode11_+0.05x2.F70
-rw-r--r-- 1 bjb2chen nooijen    9808 Nov 25 23:44 /home/bjb2chen/gmsscr//ph3_cct_gmcpt_D3h_3st_diab_mode11_+0.05x2.F70.001
-rw-r--r-- 1 bjb2chen nooijen    9808 Nov 25 23:44 /home/bjb2chen/gmsscr//ph3_cct_gmcpt_D3h_3st_diab_mode11_+0.05x2.F71
-rw-r--r-- 1 bjb2chen nooijen    9808 Nov 25 23:44 /home/bjb2chen/gmsscr//ph3_cct_gmcpt_D3h_3st_diab_mode11_+0.05x2.F71.001
-rw-r--r-- 1 bjb2chen nooijen   19608 Nov 25 23:44 /home/bjb2chen/gmsscr//ph3_cct_gmcpt_D3h_3st_diab_mode11_+0.05x2.F72
-rw-r--r-- 1 bjb2chen nooijen   19608 Nov 25 23:44 /home/bjb2chen/gmsscr//ph3_cct_gmcpt_D3h_3st_diab_mode11_+0.05x2.F72.001
-rw-r--r-- 1 bjb2chen nooijen   19608 Nov 25 23:44 /home/bjb2chen/gmsscr//ph3_cct_gmcpt_D3h_3st_diab_mode11_+0.05x2.F73
-rw-r--r-- 1 bjb2chen nooijen   19608 Nov 25 23:44 /home/bjb2chen/gmsscr//ph3_cct_gmcpt_D3h_3st_diab_mode11_+0.05x2.F73.001
-rw-r--r-- 1 bjb2chen nooijen  961208 Nov 25 23:44 /home/bjb2chen/gmsscr//ph3_cct_gmcpt_D3h_3st_diab_mode11_+0.05x2.F74
-rw-r--r-- 1 bjb2chen nooijen  959640 Nov 25 23:44 /home/bjb2chen/gmsscr//ph3_cct_gmcpt_D3h_3st_diab_mode11_+0.05x2.F74.001
-rw-r--r-- 1 bjb2chen nooijen       0 Nov 25 23:42 /home/bjb2chen/gmsscr//ph3_cct_gmcpt_D3h_3st_diab_mode11_+0.05x2.F75
-rw-r--r-- 1 bjb2chen nooijen       0 Nov 25 23:42 /home/bjb2chen/gmsscr//ph3_cct_gmcpt_D3h_3st_diab_mode11_+0.05x2.F75.001
-rw-r--r-- 1 bjb2chen nooijen   58848 Nov 25 23:44 /home/bjb2chen/gmsscr//ph3_cct_gmcpt_D3h_3st_diab_mode11_+0.05x2.F76
-rw-r--r-- 1 bjb2chen nooijen   58848 Nov 25 23:44 /home/bjb2chen/gmsscr//ph3_cct_gmcpt_D3h_3st_diab_mode11_+0.05x2.F76.001
-rw-r--r-- 1 bjb2chen nooijen       0 Nov 25 23:42 /home/bjb2chen/gmsscr//ph3_cct_gmcpt_D3h_3st_diab_mode11_+0.05x2.F77
-rw-r--r-- 1 bjb2chen nooijen       0 Nov 25 23:42 /home/bjb2chen/gmsscr//ph3_cct_gmcpt_D3h_3st_diab_mode11_+0.05x2.F77.001
-rw-r--r-- 1 bjb2chen nooijen    5128 Nov 25 23:44 /home/bjb2chen/gmsscr//ph3_cct_gmcpt_D3h_3st_diab_mode11_+0.05x2.F78
-rw-r--r-- 1 bjb2chen nooijen    5128 Nov 25 23:44 /home/bjb2chen/gmsscr//ph3_cct_gmcpt_D3h_3st_diab_mode11_+0.05x2.F78.001
-rw-r--r-- 1 bjb2chen nooijen   39208 Nov 25 23:44 /home/bjb2chen/gmsscr//ph3_cct_gmcpt_D3h_3st_diab_mode11_+0.05x2.F79
-rw-r--r-- 1 bjb2chen nooijen   39208 Nov 25 23:44 /home/bjb2chen/gmsscr//ph3_cct_gmcpt_D3h_3st_diab_mode11_+0.05x2.F79.001
-rw-r--r-- 1 bjb2chen nooijen     104 Nov 25 23:44 /home/bjb2chen/gmsscr//ph3_cct_gmcpt_D3h_3st_diab_mode11_+0.05x2.F80
-rw-r--r-- 1 bjb2chen nooijen     104 Nov 25 23:44 /home/bjb2chen/gmsscr//ph3_cct_gmcpt_D3h_3st_diab_mode11_+0.05x2.F80.001
-rw-r--r-- 1 bjb2chen nooijen  102416 Nov 25 23:44 /home/bjb2chen/gmsscr//ph3_cct_gmcpt_D3h_3st_diab_mode11_+0.05x2.F81
-rw-r--r-- 1 bjb2chen nooijen  102416 Nov 25 23:44 /home/bjb2chen/gmsscr//ph3_cct_gmcpt_D3h_3st_diab_mode11_+0.05x2.F81.001
-rw-r--r-- 1 bjb2chen nooijen     136 Nov 25 23:44 /home/bjb2chen/gmsscr//ph3_cct_gmcpt_D3h_3st_diab_mode11_+0.05x2.F82
-rw-r--r-- 1 bjb2chen nooijen     136 Nov 25 23:44 /home/bjb2chen/gmsscr//ph3_cct_gmcpt_D3h_3st_diab_mode11_+0.05x2.F82.001
-rw-r--r-- 1 bjb2chen nooijen   19216 Nov 25 23:44 /home/bjb2chen/gmsscr//ph3_cct_gmcpt_D3h_3st_diab_mode11_+0.05x2.F83
-rw-r--r-- 1 bjb2chen nooijen   19216 Nov 25 23:44 /home/bjb2chen/gmsscr//ph3_cct_gmcpt_D3h_3st_diab_mode11_+0.05x2.F83.001
-rw-r--r-- 1 bjb2chen nooijen  154896 Nov 25 23:44 /home/bjb2chen/gmsscr//ph3_cct_gmcpt_D3h_3st_diab_mode11_+0.05x2.F84
-rw-r--r-- 1 bjb2chen nooijen  154896 Nov 25 23:44 /home/bjb2chen/gmsscr//ph3_cct_gmcpt_D3h_3st_diab_mode11_+0.05x2.F84.001
-rw-r--r-- 1 bjb2chen nooijen  832264 Nov 25 23:44 /home/bjb2chen/gmsscr//ph3_cct_gmcpt_D3h_3st_diab_mode11_+0.05x2.F85
-rw-r--r-- 1 bjb2chen nooijen  832264 Nov 25 23:44 /home/bjb2chen/gmsscr//ph3_cct_gmcpt_D3h_3st_diab_mode11_+0.05x2.F85.001
-rw-r--r-- 1 bjb2chen nooijen 3241432 Nov 25 23:44 /home/bjb2chen/gmsscr//ph3_cct_gmcpt_D3h_3st_diab_mode11_+0.05x2.F86
-rw-r--r-- 1 bjb2chen nooijen 2927480 Nov 25 23:44 /home/bjb2chen/gmsscr//ph3_cct_gmcpt_D3h_3st_diab_mode11_+0.05x2.F86.001
-rw-r--r-- 1 bjb2chen nooijen     656 Nov 25 23:44 /home/bjb2chen/gmsscr//ph3_cct_gmcpt_D3h_3st_diab_mode11_+0.05x2.F87
-rw-r--r-- 1 bjb2chen nooijen     656 Nov 25 23:44 /home/bjb2chen/gmsscr//ph3_cct_gmcpt_D3h_3st_diab_mode11_+0.05x2.F87.001
-rw-r--r-- 1 bjb2chen nooijen   16912 Nov 25 23:44 /home/bjb2chen/gmsscr//ph3_cct_gmcpt_D3h_3st_diab_mode11_+0.05x2.F88
-rw-r--r-- 1 bjb2chen nooijen   16912 Nov 25 23:44 /home/bjb2chen/gmsscr//ph3_cct_gmcpt_D3h_3st_diab_mode11_+0.05x2.F88.001
-rw-r--r-- 1 bjb2chen nooijen     648 Nov 25 23:44 /home/bjb2chen/gmsscr//ph3_cct_gmcpt_D3h_3st_diab_mode11_+0.05x2.F89
-rw-r--r-- 1 bjb2chen nooijen     648 Nov 25 23:44 /home/bjb2chen/gmsscr//ph3_cct_gmcpt_D3h_3st_diab_mode11_+0.05x2.F89.001
-rw-r--r-- 1 bjb2chen nooijen       0 Nov 25 23:42 /home/bjb2chen/gmsscr//ph3_cct_gmcpt_D3h_3st_diab_mode11_+0.05x2.F90
-rw-r--r-- 1 bjb2chen nooijen       0 Nov 25 23:42 /home/bjb2chen/gmsscr//ph3_cct_gmcpt_D3h_3st_diab_mode11_+0.05x2.F90.001
-rw-r--r-- 1 bjb2chen nooijen   13760 Nov 25 23:44 /home/bjb2chen/gmsscr//ph3_cct_gmcpt_D3h_3st_diab_mode11_+0.05x2.F91
-rw-r--r-- 1 bjb2chen nooijen   13760 Nov 25 23:44 /home/bjb2chen/gmsscr//ph3_cct_gmcpt_D3h_3st_diab_mode11_+0.05x2.F91.001
-rw-r--r-- 1 bjb2chen nooijen   22776 Nov 25 23:44 /home/bjb2chen/gmsscr//ph3_cct_gmcpt_D3h_3st_diab_mode11_+0.05x2.F92
-rw-r--r-- 1 bjb2chen nooijen   22776 Nov 25 23:44 /home/bjb2chen/gmsscr//ph3_cct_gmcpt_D3h_3st_diab_mode11_+0.05x2.F92.001
-rw-r--r-- 1 bjb2chen nooijen   23168 Nov 25 23:44 /home/bjb2chen/gmsscr//ph3_cct_gmcpt_D3h_3st_diab_mode11_+0.05x2.F93
-rw-r--r-- 1 bjb2chen nooijen   23168 Nov 25 23:44 /home/bjb2chen/gmsscr//ph3_cct_gmcpt_D3h_3st_diab_mode11_+0.05x2.F93.001
-rw-r--r-- 1 bjb2chen nooijen   22776 Nov 25 23:44 /home/bjb2chen/gmsscr//ph3_cct_gmcpt_D3h_3st_diab_mode11_+0.05x2.F94
-rw-r--r-- 1 bjb2chen nooijen   22776 Nov 25 23:44 /home/bjb2chen/gmsscr//ph3_cct_gmcpt_D3h_3st_diab_mode11_+0.05x2.F94.001
-rw-r--r-- 1 bjb2chen nooijen   13760 Nov 25 23:44 /home/bjb2chen/gmsscr//ph3_cct_gmcpt_D3h_3st_diab_mode11_+0.05x2.F95
-rw-r--r-- 1 bjb2chen nooijen   13760 Nov 25 23:44 /home/bjb2chen/gmsscr//ph3_cct_gmcpt_D3h_3st_diab_mode11_+0.05x2.F95.001
-rw-r--r-- 1 bjb2chen nooijen   29440 Nov 25 23:44 /home/bjb2chen/gmsscr//ph3_cct_gmcpt_D3h_3st_diab_mode11_+0.05x2.F96
-rw-r--r-- 1 bjb2chen nooijen   29440 Nov 25 23:44 /home/bjb2chen/gmsscr//ph3_cct_gmcpt_D3h_3st_diab_mode11_+0.05x2.F96.001
-rw-r--r-- 1 bjb2chen nooijen    1184 Nov 25 23:44 /home/bjb2chen/gmsscr//ph3_cct_gmcpt_D3h_3st_diab_mode11_+0.05x2.F97
-rw-r--r-- 1 bjb2chen nooijen    1184 Nov 25 23:44 /home/bjb2chen/gmsscr//ph3_cct_gmcpt_D3h_3st_diab_mode11_+0.05x2.F97.001
-rw-r--r-- 1 bjb2chen nooijen    9808 Nov 25 23:44 /home/bjb2chen/gmsscr//ph3_cct_gmcpt_D3h_3st_diab_mode11_+0.05x2.F98
-rw-r--r-- 1 bjb2chen nooijen    9808 Nov 25 23:44 /home/bjb2chen/gmsscr//ph3_cct_gmcpt_D3h_3st_diab_mode11_+0.05x2.F98.001
-rw-r--r-- 1 bjb2chen nooijen   30264 Nov 25 23:44 /home/bjb2chen/gmsscr//ph3_cct_gmcpt_D3h_3st_diab_mode11_+0.05x2.F99
-rw-r--r-- 1 bjb2chen nooijen   30264 Nov 25 23:44 /home/bjb2chen/gmsscr//ph3_cct_gmcpt_D3h_3st_diab_mode11_+0.05x2.F99.001
ls: No match.
ls: No match.
ls: No match.
Sat 25 Nov 2023 11:44:17 PM EST
0.339u 0.054s 1:45.96 0.3%	0+0k 264+472io 0pf+0w
