----- GAMESS execution script 'rungms' -----
This job is running on host io003
under operating system Linux at Sat 25 Nov 2023 11:42:31 PM EST
Available scratch disk space (Kbyte units) at beginning of the job is
Filesystem             1K-blocks       Used Available Use% Mounted on
helmholtz.nlogn:/home 6391504896 5219979264 849386496  87% /home
GAMESS temporary binary files will be written to /home/bjb2chen/gmsscr/
GAMESS supplementary output files will be written to /home/bjb2chen/gamess/vibronics/Toby_automate/ph3/python
Copying input file ph3_cct_gmcpt_D3h_3st_diab_mode11_+0.05.inp to your run's scratch directory...
cp ph3_cct_gmcpt_D3h_3st_diab_mode11_+0.05.inp /home/bjb2chen/gmsscr//ph3_cct_gmcpt_D3h_3st_diab_mode11_+0.05.F05
unset echo
 
Assuming a single but multicore node.
 
/home/bjb2chen/gamess/ddikick.x /home/bjb2chen/gamess/gamess.00.x ph3_cct_gmcpt_D3h_3st_diab_mode11_+0.05 -ddi 1 2 io003:cpus=2 -scr /home/bjb2chen/gmsscr/

 Distributed Data Interface kickoff program.
 Initiating 2 compute processes on 1 nodes to run the following command:
 /home/bjb2chen/gamess/gamess.00.x ph3_cct_gmcpt_D3h_3st_diab_mode11_+0.05 

          ******************************************************
          *         GAMESS VERSION = 02 AUG 2018 (R2)         *
          *             FROM IOWA STATE UNIVERSITY             *
          * M.W.SCHMIDT, K.K.BALDRIDGE, J.A.BOATZ, S.T.ELBERT, *
          *   M.S.GORDON, J.H.JENSEN, S.KOSEKI, N.MATSUNAGA,   *
          *          K.A.NGUYEN, S.J.SU, T.L.WINDUS,           *
          *       TOGETHER WITH M.DUPUIS, J.A.MONTGOMERY       *
          *         J.COMPUT.CHEM.  14, 1347-1363(1993)        *
          **************** 64 BIT LINUX VERSION ****************

  SINCE 1993, STUDENTS AND POSTDOCS WORKING AT IOWA STATE UNIVERSITY
  AND ALSO IN THEIR VARIOUS JOBS AFTER LEAVING ISU HAVE MADE IMPORTANT
  CONTRIBUTIONS TO THE CODE:
     IVANA ADAMOVIC, CHRISTINE AIKENS, YURI ALEXEEV, POOJA ARORA,
     ANDREY ASADCHEV, ROB BELL, PRADIPTA BANDYOPADHYAY, JONATHAN BENTZ,
     BRETT BODE, KURT BRORSEN, CALEB CARLIN, GALINA CHABAN, WEI CHEN,
     CHEOL HO CHOI, PAUL DAY, ALBERT DEFUSCO, NUWAN DESILVA, TIM DUDLEY,
     DMITRI FEDOROV, ALEX FINDLATER, GRAHAM FLETCHER, MARK FREITAG,
     KURT GLAESEMANN, ANASTASIA GUININA,
     DAN KEMP, GRANT MERRILL, NORIYUKI MINEZAWA, JONATHAN MULLIN,
     TAKESHI NAGATA, SEAN NEDD, HEATHER NETZLOFF, BOSILJKA NJEGIC, RYAN OLSON,
     MIKE PAK, BUU PHAM,
     SPENCER PRUITT, LUKE ROSKOP, JIM SHOEMAKER, LYUDMILA SLIPCHENKO,
     TONY SMITH, SAROM SOK LEANG, JIE SONG, TETSUYA TAKETSUGU, SIMON WEBB,
     PENG XU, SOOHAENG YOO, FEDERICO ZAHARIEV

  ADDITIONAL CODE HAS BEEN PROVIDED BY COLLABORATORS IN OTHER GROUPS:
     IOWA STATE UNIVERSITY:
          JOE IVANIC, AARON WEST, LAIMUTIS BYTAUTAS, KLAUS RUEDENBERG
     UNIVERSITY OF TOKYO: KIMIHIKO HIRAO, TAKAHITO NAKAJIMA,
          TAKAO TSUNEDA, MUNEAKI KAMIYA, SUSUMU YANAGISAWA,
          KIYOSHI YAGI, MAHITO CHIBA, SEIKEN TOKURA, NAOAKI KAWAKAMI
     UNIVERSITY OF AARHUS: FRANK JENSEN
     UNIVERSITY OF IOWA: VISVALDAS KAIRYS, HUI LI
     NATIONAL INST. OF STANDARDS AND TECHNOLOGY: WALT STEVENS, DAVID GARMER
     UNIVERSITY OF PISA: BENEDETTA MENNUCCI, JACOPO TOMASI
     UNIVERSITY OF MEMPHIS: HENRY KURTZ, PRAKASHAN KORAMBATH
     UNIVERSITY OF ALBERTA: TOBY ZENG, MARIUSZ KLOBUKOWSKI
     UNIVERSITY OF NEW ENGLAND: MARK SPACKMAN
     MIE UNIVERSITY: HIROAKI UMEDA
     NAT. INST. OF ADVANCED INDUSTRIAL SCIENCE AND TECHNOLOGY: KAZUO KITAURA
     MICHIGAN STATE UNIVERSITY:
          KAROL KOWALSKI, MARTA WLOCH, JEFFREY GOUR, JESSE LUTZ,
          WEI LI, JUN SHEN, J. EMILIANO DEUSTUA, PIOTR PIECUCH
     UNIVERSITY OF MINNESOTA:
          YINAN SHU
     UNIVERSITY OF SILESIA: MONIKA MUSIAL, STANISLAW KUCHARSKI
     FACULTES UNIVERSITAIRES NOTRE-DAME DE LA PAIX:
          OLIVIER QUINET, BENOIT CHAMPAGNE
     UNIVERSITY OF CALIFORNIA - SANTA BARBARA: BERNARD KIRTMAN
     INSTITUTE FOR MOLECULAR SCIENCE:
          KAZUYA ISHIMURA, MICHIO KATOUDA, AND SHIGERU NAGASE
     UNIVERSITY OF NOTRE DAME: ANNA POMOGAEVA, DAN CHIPMAN
     KYUSHU UNIVERSITY:
          HARUYUKI NAKANO,
          FENG LONG GU, JACEK KORCHOWIEC, MARCIN MAKOWSKI, AND YURIKO AOKI,
          HIROTOSHI MORI AND EISAKU MIYOSHI
     PENNSYLVANIA STATE UNIVERSITY:
          TZVETELIN IORDANOV, CHET SWALINA, JONATHAN SKONE,
          SHARON HAMMES-SCHIFFER
     WASEDA UNIVERSITY:
          MASATO KOBAYASHI, TOMOKO AKAMA, TSUGUKI TOUMA,
          TAKESHI YOSHIKAWA, YASUHIRO IKABATA, JUNJI SEINO,
          YUYA NAKAJIMA, HIROMI NAKAI
     NANJING UNIVERSITY: SHUHUA LI
     UNIVERSITY OF NEBRASKA:
          PEIFENG SU, DEJUN SI, NANDUN THELLAMUREGE, YALI WANG, HUI LI
     UNIVERSITY OF ZURICH: ROBERTO PEVERATI, KIM BALDRIDGE
     N. COPERNICUS UNIVERSITY AND JACKSON STATE UNIVERSITY:
          MARIA BARYSZ
     UNIVERSITY OF COPENHAGEN: Jimmy Kromann, CASPER STEINMANN
     TOKYO INSTITUTE OF TECHNOLOGY: HIROYA NAKATA
     NAGOYA UNIVERSITY: YOSHIO NISHIMOTO, STEPHAN IRLE
     MOSCOW STATE UNIVERSITY: VLADIMIR MIRONOV


 PARALLEL VERSION RUNNING ON        2 PROCESSORS IN        1 NODES.

 EXECUTION OF GAMESS BEGUN Sat Nov 25 23:42:31 2023

            ECHO OF THE FIRST FEW INPUT CARDS -
 INPUT CARD> !Step 2: single point gmcpt calculation averaging 3 states                     
 INPUT CARD> !        for PH3+ at PH3 structure.                                            
 INPUT CARD> $system kdiag=3 mwords=100 memddi=1000 parall=.t. $end                         
 INPUT CARD> $contrl runtyp=energy ispher=1 $end                                            
 INPUT CARD> $contrl icut=9 itol=20 inttyp=rysquad qmttol=1.0d-05 nosym=1 $end              
 INPUT CARD> $scf    npunch=2 conv=1.0d-06 dirscf=.t.      $end                             
 INPUT CARD> $contrl scftyp=mcscf  mult=2 maxit=200 icharg=1 mplevl=2 $end                  
 INPUT CARD> $guess  guess=moread norb=81 purify=.t. $end                                   
 INPUT CARD> $basis  gbasis=cct $end                                                        
 INPUT CARD> $mcscf  cistep=gmcci fullnr=.t. finci=mos                                      
 INPUT CARD>         acurcy=1.d-6 maxit=100 $end                                            
 INPUT CARD> $trans  dirtrf=.t. $end                                                        
 INPUT CARD> $mrmp   mrpt=gmcpt rdvecs=.f. $end                                             
 INPUT CARD> $gmcpt  nmofzc=1 nmodoc=4 nmoact=7 nelact=7 stsym(1)=A                         
 INPUT CARD>         reftyp=ormas nspace=1 mstart(1)=6 mine(1)=7 maxe(1)=7                  
 INPUT CARD>         kstate(1)=1,1,1                                                        
 INPUT CARD>         wstate(1)=1,1,1                                                        
 INPUT CARD>         iwgt=0 thrwgt=-1.0 krot=.f. kszdoe=.f. knospn=.f.                      
 INPUT CARD>         thrde=-1.0 edshft=0.02 $end                                            
 INPUT CARD> --- Semi-canonical MOs --- generated at Wed Oct 25 14:28:45 2023               
 INPUT CARD> $VEC                                                                           
 INPUT CARD> 1  1 1.00014026E+00 2.12288233E-04 2.35259310E-04-9.69987525E-04-1.56061240E-04
 INPUT CARD> 1  2 2.24704850E-11 1.08104557E-11 0.00000000E+00 5.27654619E-11 2.51315613E-11
 INPUT CARD> 1  3 0.00000000E+00 0.00000000E+00 0.00000000E+00 0.00000000E+00 4.84975230E-11
 INPUT CARD> 1  4 0.00000000E+00 0.00000000E+00 5.97478244E-06 5.97478789E-06-1.19495703E-05
 INPUT CARD> 1  5 0.00000000E+00 0.00000000E+00 0.00000000E+00 1.39699393E-05 1.39699024E-05
 INPUT CARD> 1  6-2.79398417E-05-1.35074126E-11 0.00000000E+00 0.00000000E+00 1.67531508E-05
 INPUT CARD> 1  7 0.00000000E+00 0.00000000E+00 0.00000000E+00 0.00000000E+00-2.24766870E-05
 INPUT CARD> 1  8 0.00000000E+00-2.30057367E-11 0.00000000E+00 0.00000000E+00-1.16832778E-06
 INPUT CARD> 1  9-1.16830452E-06 2.33663231E-06 0.00000000E+00 0.00000000E+00 0.00000000E+00
 INPUT CARD> 1 10 5.17768380E-06-4.27232609E-05 3.09734201E-05 1.40215208E-06-2.42859932E-06
 INPUT CARD> 1 11 0.00000000E+00-1.09877526E-05 1.90313097E-05 0.00000000E+00-9.67969422E-07
 INPUT CARD> 1 12 5.86741647E-06-4.89944705E-06-6.83538926E-06 0.00000000E+00 0.00000000E+00
 INPUT CARD> 1 13 5.17767961E-06-4.27232159E-05 3.09734322E-05 1.40215234E-06 2.42859905E-06
 INPUT CARD> 1 14 0.00000000E+00-1.09877418E-05-1.90312875E-05 0.00000000E+00-9.67970307E-07
 INPUT CARD> 1 15 5.86741940E-06-4.89944909E-06 6.83539284E-06 0.00000000E+00 0.00000000E+00
 INPUT CARD> 1 16 5.17766201E-06-4.27232844E-05 3.09734099E-05-2.80427679E-06 0.00000000E+00
 INPUT CARD> 1 17 0.00000000E+00 2.19754740E-05 0.00000000E+00 0.00000000E+00 9.28508813E-06
 INPUT CARD> 1 18-4.38566624E-06-4.89942190E-06 0.00000000E+00 0.00000000E+00 0.00000000E+00
 INPUT CARD> 2  1-5.33920981E-04 9.53778939E-01-4.19196922E-03 6.30276435E-02 2.61399638E-03
 INPUT CARD> 2  2 6.28974787E-11 9.96812470E-11-0.00000000E+00 1.02891712E-10 2.05126344E-10
 INPUT CARD> 2  3-0.00000000E+00-0.00000000E+00-2.38713249E-11-0.00000000E+00 6.64911093E-11
 INPUT CARD> 2  4 6.27034786E-11-0.00000000E+00 9.65793100E-05 9.65794243E-05-1.93158734E-04
 INPUT CARD> 2  5-2.69954090E-11-0.00000000E+00-0.00000000E+00-1.78396631E-04-1.78396545E-04
 INPUT CARD> 2  6 3.56793176E-04-1.04925850E-10-0.00000000E+00-0.00000000E+00 1.01826168E-04
 INPUT CARD> 2  7 2.20823880E-11-0.00000000E+00-0.00000000E+00-0.00000000E+00-1.36614181E-04
 INPUT CARD> 2  8-0.00000000E+00 4.29651361E-11-3.02789776E-11-0.00000000E+00 2.38139809E-04
 INPUT CARD> 2  9 2.38139912E-04-4.76279721E-04-0.00000000E+00-0.00000000E+00-0.00000000E+00
 INPUT CARD> 2 10-1.82868827E-04 1.39177203E-04-5.45492220E-04-2.22000393E-05 3.84515667E-05
 INPUT CARD> 2 11-0.00000000E+00 8.78319684E-05-1.52129428E-04-0.00000000E+00 2.62487215E-06
  100000000 WORDS OF MEMORY AVAILABLE

     BASIS OPTIONS
     -------------
     GBASIS=CCT          IGAUSS=       0      POLAR=NONE    
     NDFUNC=       0     NFFUNC=       0     DIFFSP=       F
     NPFUNC=       0      DIFFS=       F     BASNAM=        


     RUN TITLE
     ---------
  PH3+ 3 states calculation at PH3 structure.                                    

 THE POINT GROUP OF THE MOLECULE IS C1      
 THE ORDER OF THE PRINCIPAL AXIS IS     0

 ATOM      ATOMIC                      COORDINATES (BOHR)
           CHARGE         X                   Y                   Z
 P          15.0    -0.0004047214        0.0000000000        0.0000000000
 H           1.0    -1.2953373806        2.2435253860        0.0000000000
 H           1.0    -1.2953373804       -2.2435253858        0.0000000000
 H           1.0     2.6031133684        0.0000000000        0.0000000000

          INTERNUCLEAR DISTANCES (ANGS.)
          ------------------------------

                1 P          2 H          3 H          4 H     

   1 P       0.0000000    1.3707894 *  1.3707894 *  1.3777225 *
   2 H       1.3707894 *  0.0000000    2.3744452 *  2.3801993 *
   3 H       1.3707894 *  2.3744452 *  0.0000000    2.3801993 *
   4 H       1.3777225 *  2.3801993 *  2.3801993 *  0.0000000  

  * ... LESS THAN  3.000


     ATOMIC BASIS SET
     ----------------
 THE CONTRACTED PRIMITIVE FUNCTIONS HAVE BEEN UNNORMALIZED
 THE CONTRACTED BASIS FUNCTIONS ARE NOW NORMALIZED TO UNITY

  SHELL TYPE  PRIMITIVE        EXPONENT          CONTRACTION COEFFICIENT(S)

 P         

      1   S       1        312400.0000000    0.000057689641
      1   S       2         46800.0000000    0.000448246591
      1   S       3         10650.0000000    0.002349131061
      1   S       4          3018.0000000    0.009781571802
      1   S       5           986.8000000    0.034142936511
      1   S       6           357.4000000    0.100192955985
      1   S       7           139.6000000    0.234346168617
      1   S       8            57.6300000    0.382391849918
      1   S       9            24.6000000    0.318052941833
      1   S      10            10.1200000    0.070770999093
      1   S      11             4.2830000   -0.001817789630
      1   S      12             1.8050000    0.002161561737
      1   S      13             0.2782000    0.000432249354

      2   S      14        312400.0000000   -0.000016380204
      2   S      15         46800.0000000   -0.000127233535
      2   S      16         10650.0000000   -0.000668625166
      2   S      17          3018.0000000   -0.002795303744
      2   S      18           986.8000000   -0.009928227435
      2   S      19           357.4000000   -0.030244566456
      2   S      20           139.6000000   -0.077884705328
      2   S      21            57.6300000   -0.156724571545
      2   S      22            24.6000000   -0.198042753651
      2   S      23            10.1200000    0.037971251521
      2   S      24             4.2830000    0.552751544147
      2   S      25             1.8050000    0.542611452452
      2   S      26             0.2782000   -0.009675942874

      3   S      27        312400.0000000    0.000006865735
      3   S      28         46800.0000000    0.000053281983
      3   S      29         10650.0000000    0.000280421002
      3   S      30          3018.0000000    0.001170789768
      3   S      31           986.8000000    0.004173591138
      3   S      32           357.4000000    0.012720496749
      3   S      33           139.6000000    0.033152766352
      3   S      34            57.6300000    0.067671246836
      3   S      35            24.6000000    0.089831018862
      3   S      36            10.1200000   -0.020305232360
      3   S      37             4.2830000   -0.313280408979
      3   S      38             1.8050000   -0.563687905527
      3   S      39             0.2782000    1.117494073734

      4   S      40             0.6158000    1.000000000000

      5   S      41             0.1055000    1.000000000000

      6   P      42           504.9000000    0.002433660431
      6   P      43           119.4000000    0.019305559477
      6   P      44            37.9600000    0.088473106893
      6   P      45            13.9500000    0.254701981099
      6   P      46             5.4570000    0.440199242653
      6   P      47             2.1770000    0.383632006272
      6   P      48             0.2877000   -0.003946337074

      7   P      49           504.9000000   -0.000954298933
      7   P      50           119.4000000   -0.007664025747
      7   P      51            37.9600000   -0.035465925259
      7   P      52            13.9500000   -0.106164716437
      7   P      53             5.4570000   -0.187210586037
      7   P      54             2.1770000   -0.181495819791
      7   P      55             0.2877000    0.991672644618

      8   P      56             0.8010000    1.000000000000

      9   P      57             0.0971400    1.000000000000

     10   D      58             0.6480000    1.000000000000

     11   D      59             0.2180000    1.000000000000

     12   F      60             0.4520000    1.000000000000

     13   D      61             3.1200000    1.000000000000

 H         

     14   S      62            33.8700000    0.025494863235
     14   S      63             5.0950000    0.190362765893
     14   S      64             1.1590000    0.852162022245

     15   S      65             0.3258000    1.000000000000

     16   S      66             0.1027000    1.000000000000

     17   P      67             1.4070000    1.000000000000

     18   P      68             0.3880000    1.000000000000

     19   D      69             1.0570000    1.000000000000

 H         

     20   S      70            33.8700000    0.025494863235
     20   S      71             5.0950000    0.190362765893
     20   S      72             1.1590000    0.852162022245

     21   S      73             0.3258000    1.000000000000

     22   S      74             0.1027000    1.000000000000

     23   P      75             1.4070000    1.000000000000

     24   P      76             0.3880000    1.000000000000

     25   D      77             1.0570000    1.000000000000

 H         

     26   S      78            33.8700000    0.025494863235
     26   S      79             5.0950000    0.190362765893
     26   S      80             1.1590000    0.852162022245

     27   S      81             0.3258000    1.000000000000

     28   S      82             0.1027000    1.000000000000

     29   P      83             1.4070000    1.000000000000

     30   P      84             0.3880000    1.000000000000

     31   D      85             1.0570000    1.000000000000

 TOTAL NUMBER OF BASIS SET SHELLS             =   31
 NUMBER OF CARTESIAN GAUSSIAN BASIS FUNCTIONS =   90
 NOTE: THIS RUN WILL RESTRICT THE MO VARIATION SPACE TO SPHERICAL HARMONICS.
 THE NUMBER OF ORBITALS KEPT IN THE VARIATIONAL SPACE WILL BE PRINTED LATER.
 NUMBER OF ELECTRONS                          =   17
 CHARGE OF MOLECULE                           =    1
 SPIN MULTIPLICITY                            =    2
 NUMBER OF OCCUPIED ORBITALS (ALPHA)          =    9
 NUMBER OF OCCUPIED ORBITALS (BETA )          =    8
 TOTAL NUMBER OF ATOMS                        =    4
 THE NUCLEAR REPULSION ENERGY IS       18.0100979537

     $CONTRL OPTIONS
     ---------------
 SCFTYP=MCSCF        RUNTYP=ENERGY       EXETYP=RUN     
 MPLEVL=       2     CITYP =NONE         CCTYP =NONE         VBTYP =NONE    
 DFTTYP=NONE         TDDFT =NONE    
 MULT  =       2     ICHARG=       1     NZVAR =       0     COORD =UNIQUE  
 PP    =NONE         RELWFN=NONE         LOCAL =NONE         NUMGRD=       F
 ISPHER=       1     NOSYM =       1     MAXIT =     200     UNITS =ANGS    
 PLTORB=       F     MOLPLT=       F     AIMPAC=       F     FRIEND=        
 NPRINT=       7     IREST =       0     GEOM  =INPUT   
 NORMF =       0     NORMP =       0     ITOL  =      20     ICUT  =       9
 INTTYP=RYSQUAD      GRDTYP=BEST         QMTTOL= 1.0E-05

     $SYSTEM OPTIONS
     ---------------
  REPLICATED MEMORY=   100000000 WORDS (ON EVERY NODE).
 DISTRIBUTED MEMDDI=        1000 MILLION WORDS IN AGGREGATE,
 MEMDDI DISTRIBUTED OVER   2 PROCESSORS IS   500000000 WORDS/PROCESSOR.
 TOTAL MEMORY REQUESTED ON EACH PROCESSOR=   600000000 WORDS.
 TIMLIM=      525600.00 MINUTES, OR     365.0 DAYS.
 PARALL= T  BALTYP=  DLB     KDIAG=    3  COREFL= F
 MXSEQ2=     300 MXSEQ3=     150  mem10=         0

          ----------------
          PROPERTIES INPUT
          ----------------

     MOMENTS            FIELD           POTENTIAL          DENSITY
 IEMOM =       1   IEFLD =       0   IEPOT =       0   IEDEN =       0
 WHERE =COMASS     WHERE =NUCLEI     WHERE =NUCLEI     WHERE =NUCLEI  
 OUTPUT=BOTH       OUTPUT=BOTH       OUTPUT=BOTH       OUTPUT=BOTH    
 IEMINT=       0   IEFINT=       0                     IEDINT=       0
                                                       MORB  =       0

     -------------------------------
     INTEGRAL TRANSFORMATION OPTIONS
     -------------------------------
     NWORD  =            0
     CUTOFF = 1.0E-09     MPTRAN =       0
     DIRTRF =       T     AOINTS =DUP     

          ----------------------
          MCSCF INPUT PARAMETERS
          ----------------------
 CONVERGER SELECTION: FOCAS = F  SOSCF = F  FULLNR = T  QUD = F  JACOBI = F
 SECULAR EQUATION METHOD CISTEP = GMCCI   
 --- GENERAL INPUT OPTIONS:
 MAXIT =     100  MICIT =       1  ACURCY= 1.000E-06
 DAMP  =   0.000  CANONC=       T  ENGTOL= 1.000E-10
 EKT   =       F  NPUNCH=       2  NWORD =         0
 REGENERATE CI AFTER CONVERGENCE = NONE    
 DIABATIZATION AFTER CONVERGENCE =        F
 --- INPUT FOR FULLNR CONVERGER:
 METHOD=DM2       FORS  =       F  DROPC =       T
 LINSER=       F  FCORE =       F  NORB  =      90

          ----------------------
          INTEGRAL INPUT OPTIONS
          ----------------------
 NOPK  =       1 NORDER=       0 SCHWRZ=       T

 ------------------------------------------
 MULTIREFERENCE PERTURBATION THEORY CONTROL
 ------------------------------------------
 MRPT=GMCPT    READ CONVERGED MCSCF VECTORS= F


     ------------------------------------------
     THE POINT GROUP IS C1 , NAXIS= 1, ORDER= 1
     ------------------------------------------

 -- VARIATIONAL SPACE WILL BE RESTRICTED TO PURE SPHERICAL HARMONICS ONLY --
 AFTER EXCLUDING CONTAMINANT COMBINATIONS FROM THE CARTESIAN GAUSSIAN BASIS
 SET, THE NUMBER OF SPHERICAL HARMONICS KEPT IN THE VARIATION SPACE IS   81

     DIMENSIONS OF THE SYMMETRY SUBSPACES ARE
 A   =   81

 ..... DONE SETTING UP THE RUN .....
 CPU     0: STEP CPU TIME=     0.17 TOTAL CPU TIME=          0.2 (      0.0 MIN)
 TOTAL WALL CLOCK TIME=          0.3 SECONDS, CPU UTILIZATION IS    51.52%

          ********************
          1 ELECTRON INTEGRALS
          ********************
 TIME TO DO   DIPOLE INTEGRALS=      0.01
 ...... END OF ONE-ELECTRON INTEGRALS ......
 CPU     0: STEP CPU TIME=     0.01 TOTAL CPU TIME=          0.2 (      0.0 MIN)
 TOTAL WALL CLOCK TIME=          0.3 SECONDS, CPU UTILIZATION IS    51.43%

          -------------
          GUESS OPTIONS
          -------------
          GUESS =MOREAD            NORB  =      81          NORDER=       0
          MIX   =       F          PRTMO =       F          PUNMO =       F
          TOLZ  = 1.0E-08          TOLE  = 1.0E-05
          SYMDEN=       F          PURIFY=       T

 INITIAL GUESS ORBITALS GENERATED BY MOREAD   ROUTINE.

 STATISTICS FOR GENERATION OF SYMMETRY ORBITAL -Q- MATRIX
 NUMBER OF CARTESIAN ATOMIC ORBITALS=         90
 NUMBER OF SPHERICAL CONTAMINANTS DROPPED=     9
 NUMBER OF LINEARLY DEPENDENT MOS DROPPED=     0
 TOTAL NUMBER OF MOS IN VARIATION SPACE=      81
 ORBITAL PURIFICATION WILL OCCUR

 SYMMETRIES FOR INITIAL GUESS ORBITALS FOLLOW.   BOTH SET(S).
     9 ORBITALS ARE OCCUPIED (    5 CORE ORBITALS).
     1=A        2=A        3=A        4=A        5=A        6=A        7=A   
     8=A        9=A       10=A       11=A       12=A       13=A       14=A   
    15=A       16=A       17=A       18=A       19=A       20=A       21=A   
    22=A       23=A       24=A       25=A       26=A       27=A       28=A   
    29=A       30=A       31=A       32=A       33=A       34=A       35=A   
    36=A       37=A       38=A       39=A       40=A       41=A       42=A   
    43=A       44=A       45=A       46=A       47=A       48=A       49=A   
    50=A       51=A       52=A       53=A       54=A       55=A       56=A   
    57=A       58=A       59=A       60=A       61=A       62=A       63=A   
    64=A       65=A       66=A       67=A       68=A       69=A       70=A   
    71=A       72=A       73=A       74=A       75=A       76=A       77=A   
    78=A       79=A       80=A       81=A   
 ...... END OF INITIAL ORBITAL SELECTION ......
 CPU     0: STEP CPU TIME=     0.08 TOTAL CPU TIME=          0.3 (      0.0 MIN)
 TOTAL WALL CLOCK TIME=          0.4 SECONDS, CPU UTILIZATION IS    60.47%

                    ----------------------
                    AO INTEGRAL TECHNOLOGY
                    ----------------------
     S,P,L SHELL ROTATED AXIS INTEGRALS, REPROGRAMMED BY
        KAZUYA ISHIMURA (IMS) AND JOSE SIERRA (SYNSTAR).
     S,P,D,L SHELL ROTATED AXIS INTEGRALS PROGRAMMED BY
        KAZUYA ISHIMURA (INSTITUTE FOR MOLECULAR SCIENCE).
     S,P,D,F,G SHELL TO TOTAL QUARTET ANGULAR MOMENTUM SUM 5,
        ERIC PROGRAM BY GRAHAM FLETCHER (ELORET AND NASA ADVANCED
        SUPERCOMPUTING DIVISION, AMES RESEARCH CENTER).
     S,P,D,F,G,L SHELL GENERAL RYS QUADRATURE PROGRAMMED BY
        MICHEL DUPUIS (PACIFIC NORTHWEST NATIONAL LABORATORY).

          --------------------
          2 ELECTRON INTEGRALS
          --------------------

 DIRECT SCF METHOD SKIPS INTEGRAL STORAGE ON DISK.
 DIRECT TRANSFORMATION SKIPS AO INTEGRAL STORAGE ON DISK.
  ...... END OF TWO-ELECTRON INTEGRALS .....
 STEP CPU TIME =     0.03 TOTAL CPU TIME =          0.3 (      0.0 MIN)
 TOTAL WALL CLOCK TIME=          0.5 SECONDS, CPU UTILIZATION IS    63.04%
 DDI: Creating Array [0] - 8100 x 78 = 631800 words.
 DDI: Creating Array [1] - 69 x 936 = 64584 words.
 DDI: Creating Array [2] - 78 x 78 = 6084 words.
 DDI: Creating Array [3] - 4095 x 78 = 319410 words.

          -----------------
          MCSCF CALCULATION
          -----------------

 ----- NUCLEAR ENERGY ----- =        18.0100979537

     -------------------------------------------------
     GMC-PT/GMC-QDPT or general MCSCF input parameters
     -------------------------------------------------
 # of frozen core orbs. =         1 ->         0
 # of doubly occ. orbs. =         4
 # of active      orbs. =         7
 # of virtual     orbs. =        69
 # of active electrons  =         7
 # of states in CI      =         3
 Highest state in CI    =         3
 kstate =  1 1 1
 avecoe =  0.333 0.333 0.333
 State symmetry           = A           
 Assigned symmetry number = 1

 <<<Act. MO sym.: 1111111

 <<<Division of 1-ext.:  0 0
 <<<Division of 2-ext.:  0 1

 *** Reference space

 Reference type: ORMAS (= Occupation restricted multiple active space)
 # of orbitals          =  7
 # of minimum electrons =  7
 # of maximum electrons =  7
 State symmetry    =    1 (input)
 2*Sz              =    1 (input)
 Spin multiplicity =    2 (input)
 Dimension of reference space =      1225  (from      3432 walks)

 Dimension of reference space =      1225  (from      1225 walks)

 <<<Ionized spaces for Ref-CI:
      0:         1225 /   -1-0:         1960 /  0-1-0:         2891

 EVALUATING EXCHANGE INTEGRALS FOR DIRECT INTEGRAL TRANSFORMATION
 SCHWARZ INEQUALITY OVERHEAD:      4095 INTEGRALS, T=        0.02

     --------------------------------------------
     PARTIAL TWO ELECTRON INTEGRAL TRANSFORMATION
     --------------------------------------------

 NUMBER OF CORE MOLECULAR ORBITALS     =    5
 NUMBER OF OCCUPIED MOLECULAR ORBITALS =   12
 TOTAL NUMBER OF MOLECULAR ORBITALS    =   81
 TOTAL NUMBER OF ATOMIC ORBITALS       =   90
 THRESHOLD FOR KEEPING TRANSFORMED 2E- INTEGRALS = 1.000E-09

 -------------------------------     ------------------------------
 DISTRIBUTED DATA TRANSFORMATION     PROGRAM WRITTEN BY G. FLETCHER
 -------------------------------     ------------------------------

 THE DISTRIBUTED MEMORY REQUIRED FOR THIS STEP IS MEMDDI=         2 MWORDS
 CREATING DISTRIBUTED STORAGE FOR [VIR OCC|VIR OCC] INTEGRALS
 CREATING DISTRIBUTED STORAGE FOR [VIR OCC|OCC OCC] INTEGRALS
 CREATING DISTRIBUTED STORAGE FOR [OCC OCC|OCC OCC] INTEGRALS
 CREATING DISTRIBUTED STORAGE FOR [VIR VIR|OCC OCC] INTEGRALS
 FOR    2 PROCESSORS, THE REPLICATED MEMORY NEEDED IS      340708 WORDS.
 SCHWARZ INEQUALITY OVERHEAD:      4095 INTEGRALS, T=        0.02

      DIRECT 4-INDEX TRANSFORMATION 
      SCHWARZ INEQUALITY TEST SKIPPED        168 INTEGRAL BLOCKS
 ----- FROZEN CORE ENERGY =      -345.9219395527
 ... END OF INTEGRAL TRANSFORMATION ...
 CPU     0: STEP CPU TIME=     2.63 TOTAL CPU TIME=          2.9 (      0.0 MIN)
 TOTAL WALL CLOCK TIME=          3.2 SECONDS, CPU UTILIZATION IS    91.82%

     --------------------------------     -----------------------------
     MCHF NEWTON-RAPHSON OPTIMIZATION     CODE WRITTEN BY MICHEL DUPUIS
     --------------------------------     -----------------------------
     PARALLEL VERSION WRITTEN BY G. FLETCHER (ELORET)
     NASA ADVANCED SUPERCOMPUTING DIVISION, AMES RESEARCH CENTER

 NUMBER OF INDEPENDENT ORBITAL ROTATION PARAMETERS =   512
 ..... DONE SOLVING NEWTON-RAPHSON EQUATIONS .....
 CPU     0: STEP CPU TIME=     0.31 TOTAL CPU TIME=          3.2 (      0.1 MIN)
 TOTAL WALL CLOCK TIME=          3.8 SECONDS, CPU UTILIZATION IS    85.68%
 ..... DONE WITH NTN-RPH ORBITAL ROTATIONS ..... 
 CPU     0: STEP CPU TIME=     0.00 TOTAL CPU TIME=          3.2 (      0.1 MIN)
 TOTAL WALL CLOCK TIME=          3.8 SECONDS, CPU UTILIZATION IS    85.68%
 MAXIMUM MEMORY USED BY NTN-RPH CODE WAS    135813 WORDS.

 ITER     TOTAL ENERGY      DEL(E)  LAGRANGIAN ASYMMETRY   SQCDF  MICIT   DAMP
   1     -342.038867996 -0.038867996  0.000880   47    6 1.381E-05  1   0.0000
   2     -342.038870959 -0.000002963  0.000118   16    9 5.123E-06  1   0.0000
   3     -342.038871386 -0.000000427  0.000108   16    9 3.390E-06  1   0.0000
   4     -342.038871659 -0.000000273  0.000089   16    9 2.290E-06  1   0.0000
   5     -342.038871840 -0.000000181  0.000072   16    9 1.534E-06  1   0.0000
   6     -342.038871961 -0.000000121  0.000059   16    9 1.025E-06  1   0.0000
   7     -342.038872042 -0.000000081  0.000048   16    9 6.837E-07  1   0.0000
   8     -342.038872096 -0.000000054  0.000039   16    9 4.564E-07  1   0.0000
   9     -342.038872132 -0.000000036  0.000032   16    9 3.046E-07  1   0.0000
  10     -342.038872156 -0.000000024  0.000026   16    9 2.036E-07  1   0.0000
  11     -342.038872172 -0.000000016  0.000021   16    9 1.361E-07  1   0.0000
  12     -342.038872182 -0.000000011  0.000017   16    9 9.106E-08  1   0.0000
  13     -342.038872190 -0.000000007  0.000014   16    9 6.092E-08  1   0.0000
  14     -342.038872194 -0.000000005  0.000012   16    9 4.077E-08  1   0.0000
  15     -342.038872198 -0.000000003  0.000010   16    9 2.729E-08  1   0.0000
  16     -342.038872200 -0.000000002  0.000008   16    9 1.816E-08  1   0.0000
  17     -342.038872201 -0.000000001  0.000006   16    9 1.223E-08  1   0.0000
  18     -342.038872202 -0.000000001  0.000005   16    9 8.203E-09  1   0.0000
  19     -342.038872203 -0.000000001  0.000004   16    9 5.497E-09  1   0.0000
  20     -342.038872203 -0.000000000  0.000004   16    9 3.682E-09  1   0.0000
  21     -342.038872204 -0.000000000  0.000003   16    9 2.467E-09  1   0.0000
  22     -342.038872204 -0.000000000  0.000002   16    9 1.653E-09  1   0.0000
  23     -342.038872204 -0.000000000  0.000002   16    9 1.107E-09  1   0.0000
  24     -342.038872204 -0.000000000  0.000002   16    9 7.418E-10  1   0.0000

          ----------------
          ENERGY CONVERGED
          ----------------

 FINAL MCSCF ENERGY IS     -342.0388722040 AFTER  24 ITERATIONS

 -MCCI- BASED ON OPTIMIZED ORBITALS
 ----------------------------------

 PLEASE NOTE: IF THE ACTIVE ORBITALS ARE CANONICALIZED BELOW,
 THE FOLLOWING CI EXPANSION COEFFICIENTS AND THE DENSITY DO NOT
 CORRESPOND TO THE PRINTED ORBITALS.  THE PRINTED EXPANSIONS MATCH
 THE ORBITALS USED DURING THE LAST ITERATION.  IF YOU WISH TO SEE
 CI EXPANSIONS BASED ON THE CANONICAL (OR NATURAL) ORBITALS, YOU
 MUST RUN A CI CALCULATION WITH THAT ORBITAL CHOICE READ IN $VEC.

 Averaged energy =    -342.038872204

 State #    1  Energy =    -342.207459616  S =  0.500

      Det      Coef    Occupancy (Ignoring core)
      ---      ----    --------- --------- -----
        1    0.977736  11110001110000
      107   -0.076257  11101000111000
      143    0.052269  11011001100100
      179    0.052793  10111001010100
      393    0.055490  10110101010010
      717    0.055160  11010011100001

 State #    2  Energy =    -341.955241436  S =  0.500

      Det      Coef    Occupancy (Ignoring core)
      ---      ----    --------- --------- -----
        6    0.120164  11100101110000
       36    0.139505  11110001101000
       38    0.082871  11011001101000
       71    0.944377  11110001011000
       74   -0.086114  10111001011000
       78   -0.076597  10110101011000
      109    0.057677  10111000111000
      113    0.054547  10110100111000
      122    0.054586  11010010111000
      177   -0.113234  11101001010100
      248   -0.056672  11011001001100
      822   -0.052028  11010011001001

 State #    3  Energy =    -341.953915560  S =  0.500

      Det      Coef    Occupancy (Ignoring core)
      ---      ----    --------- --------- -----
       16    0.116874  11100011110000
       36   -0.944990  11110001101000
       39   -0.085773  10111001101000
       52   -0.076575  11010011101000
       71    0.139595  11110001011000
       73   -0.084609  11011001011000
      108   -0.057263  11011000111000
      112    0.055034  11010100111000
      123   -0.054687  10110010111000
      142    0.112428  11101001100100
      249   -0.057003  10111001001100
      463   -0.052346  10110101001010

 DENSITY MATRIX OVER ACTIVE MO-S

             1           2           3           4           5

    1    1.9768395
    2   -0.0034289   1.6444385
    3    0.0005065   0.0000416   1.6447140
    4    0.0000000  -0.0000000  -0.0000000   1.6277252
    5    0.0044882   0.0016739  -0.0002473  -0.0000000   0.0545981
    6    0.0004607   0.0033632  -0.0003720  -0.0000000   0.0015641
    7   -0.0000200   0.0002691   0.0028289  -0.0000000  -0.0000681

             6           7

    6    0.0261319
    7   -0.0000252   0.0255529

 FORMING THE "STANDARD FOCK OPERATOR" IN DIRECT AO INTEGRAL MODE...
 ONLY THE    5 CORE AND   69 VIRTUAL ORBITALS WILL BE CANONICALIZED

          ----------------------
          MCSCF NATURAL ORBITALS
          ----------------------

                      1          2          3          4          5
                  -80.2666    -7.8144    -5.7093    -5.7093    -5.7081
                     A          A          A          A          A   
    1  P  1  S    1.000140  -0.000534   0.000000  -0.000002  -0.000000
    2  P  1  S    0.000212   0.953779   0.000000  -0.000058  -0.000000
    3  P  1  S    0.000235  -0.004191   0.000000   0.000077  -0.000000
    4  P  1  S   -0.000970   0.063027  -0.000000   0.000030  -0.000000
    5  P  1  S   -0.000156   0.002614   0.000000   0.000035  -0.000000
    6  P  1  X    0.000001   0.000048   0.000001   0.958040  -0.000000
    7  P  1  Y   -0.000000   0.000000   0.958017  -0.000001  -0.000000
    8  P  1  Z   -0.000000  -0.000000   0.000000  -0.000000   0.961345
    9  P  1  X    0.000001   0.000007  -0.000000  -0.003345  -0.000000
   10  P  1  Y   -0.000000   0.000000  -0.003388   0.000000  -0.000000
   11  P  1  Z   -0.000000  -0.000000   0.000000  -0.000000  -0.000074
   12  P  1  X   -0.000001   0.000022   0.000000   0.079405  -0.000000
   13  P  1  Y   -0.000000  -0.000000   0.079403  -0.000000  -0.000000
   14  P  1  Z   -0.000000  -0.000000   0.000000  -0.000000   0.075516
   15  P  1  X    0.000000   0.000002   0.000000   0.001227  -0.000000
   16  P  1  Y   -0.000000   0.000000   0.001225  -0.000000  -0.000000
   17  P  1  Z   -0.000000  -0.000000   0.000000  -0.000000   0.001290
   18  P  1 XX    0.000006   0.000101   0.000000   0.000264  -0.000000
   19  P  1 YY    0.000006   0.000092  -0.000000  -0.000258  -0.000000
   20  P  1 ZZ   -0.000012  -0.000193   0.000000  -0.000006  -0.000000
   21  P  1 XY    0.000000   0.000000  -0.000290   0.000000  -0.000000
   22  P  1 XZ   -0.000000  -0.000000   0.000000  -0.000000   0.000002
   23  P  1 YZ   -0.000000  -0.000000   0.000000  -0.000000   0.000000
   24  P  1 XX    0.000014  -0.000178  -0.000000  -0.001468  -0.000000
   25  P  1 YY    0.000014  -0.000178   0.000000   0.001467  -0.000000
   26  P  1 ZZ   -0.000028   0.000357   0.000000   0.000001  -0.000000
   27  P  1 XY   -0.000000  -0.000000   0.001710  -0.000000  -0.000000
   28  P  1 XZ   -0.000000  -0.000000   0.000000  -0.000000   0.000002
   29  P  1 YZ   -0.000000  -0.000000   0.000000  -0.000000  -0.000000
   30  P  1 XXX   0.000017   0.000101  -0.000000  -0.000046  -0.000000
   31  P  1 YYY   0.000000   0.000000  -0.000045   0.000000  -0.000000
   32  P  1 ZZZ  -0.000000  -0.000000   0.000000  -0.000000  -0.000255
   33  P  1 XXY  -0.000000  -0.000000  -0.000022  -0.000000  -0.000000
   34  P  1 XXZ  -0.000000  -0.000000   0.000000  -0.000000   0.000170
   35  P  1 YYX  -0.000022  -0.000137  -0.000000  -0.000019  -0.000000
   36  P  1 YYZ  -0.000000  -0.000000   0.000000  -0.000000   0.000172
   37  P  1 ZZX  -0.000000   0.000001   0.000000   0.000080  -0.000000
   38  P  1 ZZY  -0.000000  -0.000000   0.000083  -0.000000  -0.000000
   39  P  1 XYZ  -0.000000  -0.000000   0.000000  -0.000000   0.000000
   40  P  1 XX   -0.000001   0.000241  -0.000000  -0.000256  -0.000000
   41  P  1 YY   -0.000001   0.000235   0.000000   0.000268  -0.000000
   42  P  1 ZZ    0.000002  -0.000476   0.000000  -0.000012  -0.000000
   43  P  1 XY   -0.000000  -0.000000   0.000330  -0.000000  -0.000000
   44  P  1 XZ   -0.000000  -0.000000   0.000000  -0.000000   0.000010
   45  P  1 YZ   -0.000000  -0.000000   0.000000  -0.000000  -0.000000
   46  H  2  S    0.000005  -0.000185   0.000517  -0.000288  -0.000000
   47  H  2  S   -0.000042   0.000140   0.003086  -0.001749  -0.000000
   48  H  2  S    0.000031  -0.000547  -0.000302   0.000174  -0.000000
   49  H  2  X    0.000001  -0.000022   0.000034   0.000089  -0.000000
   50  H  2  Y   -0.000003   0.000037   0.000048   0.000033  -0.000000
   51  H  2  Z   -0.000000  -0.000000   0.000000  -0.000000   0.000041
   52  H  2  X   -0.000011   0.000088   0.000606  -0.000412  -0.000000
   53  H  2  Y    0.000019  -0.000154  -0.001120   0.000599  -0.000000
   54  H  2  Z   -0.000000  -0.000000   0.000000  -0.000000   0.000119
   55  H  2 XX   -0.000001   0.000002  -0.000010   0.000038  -0.000000
   56  H  2 YY    0.000006   0.000019  -0.000037  -0.000011  -0.000000
   57  H  2 ZZ   -0.000005  -0.000021   0.000047  -0.000027  -0.000000
   58  H  2 XY   -0.000007  -0.000016  -0.000011  -0.000017  -0.000000
   59  H  2 XZ   -0.000000  -0.000000   0.000000  -0.000000  -0.000012
   60  H  2 YZ   -0.000000  -0.000000   0.000000  -0.000000   0.000020
   61  H  3  S    0.000005  -0.000185  -0.000517  -0.000288  -0.000000
   62  H  3  S   -0.000042   0.000140  -0.003086  -0.001749  -0.000000
   63  H  3  S    0.000031  -0.000547   0.000302   0.000174  -0.000000
   64  H  3  X    0.000001  -0.000022  -0.000034   0.000089  -0.000000
   65  H  3  Y    0.000003  -0.000037   0.000048  -0.000033  -0.000000
   66  H  3  Z   -0.000000  -0.000000   0.000000  -0.000000   0.000041
   67  H  3  X   -0.000011   0.000088  -0.000606  -0.000412  -0.000000
   68  H  3  Y   -0.000019   0.000154  -0.001120  -0.000599  -0.000000
   69  H  3  Z   -0.000000  -0.000000   0.000000  -0.000000   0.000119
   70  H  3 XX   -0.000001   0.000002   0.000010   0.000038  -0.000000
   71  H  3 YY    0.000006   0.000019   0.000037  -0.000011  -0.000000
   72  H  3 ZZ   -0.000005  -0.000021  -0.000047  -0.000027  -0.000000
   73  H  3 XY    0.000007   0.000016  -0.000011   0.000017  -0.000000
   74  H  3 XZ   -0.000000  -0.000000   0.000000  -0.000000  -0.000012
   75  H  3 YZ   -0.000000  -0.000000   0.000000  -0.000000  -0.000020
   76  H  4  S    0.000005  -0.000178  -0.000000   0.000592  -0.000000
   77  H  4  S   -0.000044   0.000138   0.000000   0.003499  -0.000000
   78  H  4  S    0.000031  -0.000542  -0.000000  -0.000349  -0.000000
   79  H  4  X   -0.000003   0.000046   0.000000   0.000034  -0.000000
   80  H  4  Y   -0.000000  -0.000000   0.000107  -0.000000  -0.000000
   81  H  4  Z   -0.000000  -0.000000   0.000000  -0.000000   0.000042
   82  H  4  X    0.000022  -0.000173  -0.000000  -0.001450  -0.000000
   83  H  4  Y   -0.000000   0.000000  -0.000069  -0.000000  -0.000000
   84  H  4  Z   -0.000000  -0.000000   0.000000  -0.000000   0.000116
   85  H  4 XX    0.000009   0.000018  -0.000000  -0.000043  -0.000000
   86  H  4 YY   -0.000004  -0.000001   0.000000  -0.000020  -0.000000
   87  H  4 ZZ   -0.000005  -0.000016   0.000000   0.000063  -0.000000
   88  H  4 XY   -0.000000  -0.000000  -0.000038  -0.000000  -0.000000
   89  H  4 XZ   -0.000000  -0.000000   0.000000  -0.000000   0.000023
   90  H  4 YZ   -0.000000  -0.000000   0.000000  -0.000000   0.000000

                      6          7          8          9         10
                    1.9769     1.6447     1.6444     1.6277     0.0547
                     A          A          A          A          A   
    1  P  1  S    0.001040   0.000000   0.000047   0.000000   0.011956
    2  P  1  S    0.002901   0.000000   0.000257   0.000000   0.111803
    3  P  1  S    0.549027   0.000000   0.005782   0.000000   0.570800
    4  P  1  S    0.057555   0.000000   0.000462   0.000000   0.092953
    5  P  1  S    0.220766   0.000000   0.003613   0.000000   0.416186
    6  P  1  X    0.000515  -0.000000  -0.036363   0.000000   0.007360
    7  P  1  Y    0.000000  -0.036777   0.000000   0.000000  -0.000000
    8  P  1  Z    0.000000   0.000000   0.000000   0.001467  -0.000000
    9  P  1  X   -0.003856   0.000000   0.377582   0.000000   0.043611
   10  P  1  Y    0.000000   0.377800  -0.000000   0.000000   0.000000
   11  P  1  Z    0.000000   0.000000   0.000000   0.598331  -0.000000
   12  P  1  X   -0.001393   0.000000   0.116175   0.000000   0.007406
   13  P  1  Y    0.000000   0.116512  -0.000000   0.000000   0.000000
   14  P  1  Z    0.000000   0.000000   0.000000   0.162446  -0.000000
   15  P  1  X   -0.000951   0.000000   0.108267   0.000000   0.023651
   16  P  1  Y    0.000000   0.107896  -0.000000   0.000000   0.000000
   17  P  1  Z    0.000000   0.000000   0.000000   0.364619  -0.000000
   18  P  1 XX    0.011134   0.000000   0.043679   0.000000  -0.099184
   19  P  1 YY    0.012214  -0.000000  -0.043965   0.000000  -0.085138
   20  P  1 ZZ   -0.023348   0.000000   0.000286   0.000000   0.184323
   21  P  1 XY    0.000000  -0.050881   0.000000   0.000000   0.000000
   22  P  1 XZ    0.000000   0.000000   0.000000   0.000452  -0.000000
   23  P  1 YZ    0.000000   0.000000   0.000000   0.000000  -0.000000
   24  P  1 XX    0.005199   0.000000   0.026826   0.000000  -0.098349
   25  P  1 YY    0.005670  -0.000000  -0.027381   0.000000  -0.091591
   26  P  1 ZZ   -0.010869   0.000000   0.000554   0.000000   0.189940
   27  P  1 XY   -0.000000  -0.031422   0.000000   0.000000  -0.000000
   28  P  1 XZ    0.000000   0.000000   0.000000   0.001021  -0.000000
   29  P  1 YZ    0.000000   0.000000   0.000000   0.000000  -0.000000
   30  P  1 XXX   0.011475   0.000000   0.008400   0.000000  -0.065414
   31  P  1 YYY   0.000000   0.008355  -0.000000   0.000000   0.000000
   32  P  1 ZZZ   0.000000   0.000000   0.000000  -0.011556  -0.000000
   33  P  1 XXY   0.000000   0.003769  -0.000000   0.000000   0.000000
   34  P  1 XXZ   0.000000   0.000000   0.000000   0.007802  -0.000000
   35  P  1 YYX  -0.015622   0.000000   0.003642   0.000000   0.083361
   36  P  1 YYZ   0.000000   0.000000   0.000000   0.007702  -0.000000
   37  P  1 ZZX   0.000226  -0.000000  -0.014913   0.000000   0.004401
   38  P  1 ZZY  -0.000000  -0.014978   0.000000   0.000000  -0.000000
   39  P  1 XYZ   0.000000   0.000000   0.000000  -0.000000  -0.000000
   40  P  1 XX    0.001925   0.000000   0.008423   0.000000  -0.011249
   41  P  1 YY    0.002163  -0.000000  -0.008477   0.000000  -0.009139
   42  P  1 ZZ   -0.004088   0.000000   0.000054   0.000000   0.020388
   43  P  1 XY    0.000000  -0.009844   0.000000   0.000000   0.000000
   44  P  1 XZ    0.000000   0.000000   0.000000   0.000061  -0.000000
   45  P  1 YZ    0.000000   0.000000   0.000000   0.000000  -0.000000
   46  H  2  S    0.081074   0.146956  -0.083980   0.000000  -0.186647
   47  H  2  S    0.116355   0.246975  -0.141388   0.000000  -0.348459
   48  H  2  S    0.003893   0.046027  -0.026787   0.000000  -0.050670
   49  H  2  X    0.003979   0.006805  -0.001865   0.000000  -0.005940
   50  H  2  Y   -0.006919  -0.009762   0.006713   0.000000   0.011325
   51  H  2  Z    0.000000   0.000000   0.000000   0.005099  -0.000000
   52  H  2  X    0.007994   0.014098  -0.001760   0.000000  -0.018683
   53  H  2  Y   -0.013958  -0.018073   0.013879   0.000000   0.036519
   54  H  2  Z    0.000000   0.000000   0.000000   0.024210  -0.000000
   55  H  2 XX    0.000025   0.000185   0.001439   0.000000  -0.001012
   56  H  2 YY    0.001963   0.002128  -0.002751   0.000000  -0.004861
   57  H  2 ZZ   -0.001988  -0.002314   0.001312   0.000000   0.005873
   58  H  2 XY   -0.001908  -0.003757   0.001106   0.000000   0.003188
   59  H  2 XZ    0.000000   0.000000   0.000000   0.001338  -0.000000
   60  H  2 YZ    0.000000   0.000000   0.000000  -0.002323  -0.000000
   61  H  3  S    0.081074  -0.146956  -0.083980   0.000000  -0.186647
   62  H  3  S    0.116355  -0.246975  -0.141388   0.000000  -0.348459
   63  H  3  S    0.003893  -0.046027  -0.026787   0.000000  -0.050670
   64  H  3  X    0.003979  -0.006805  -0.001865   0.000000  -0.005940
   65  H  3  Y    0.006919  -0.009762  -0.006713   0.000000  -0.011325
   66  H  3  Z    0.000000   0.000000   0.000000   0.005099  -0.000000
   67  H  3  X    0.007994  -0.014098  -0.001760   0.000000  -0.018683
   68  H  3  Y    0.013958  -0.018073  -0.013879   0.000000  -0.036519
   69  H  3  Z    0.000000   0.000000   0.000000   0.024210  -0.000000
   70  H  3 XX    0.000025  -0.000185   0.001439   0.000000  -0.001012
   71  H  3 YY    0.001963  -0.002128  -0.002751   0.000000  -0.004861
   72  H  3 ZZ   -0.001988   0.002314   0.001312   0.000000   0.005873
   73  H  3 XY    0.001908  -0.003757  -0.001106   0.000000  -0.003188
   74  H  3 XZ    0.000000   0.000000   0.000000   0.001338  -0.000000
   75  H  3 YZ    0.000000   0.000000   0.000000   0.002323  -0.000000
   76  H  4  S    0.077910   0.000000   0.169781   0.000000  -0.205066
   77  H  4  S    0.112023   0.000000   0.287330   0.000000  -0.401664
   78  H  4  S    0.003288   0.000000   0.053656   0.000000  -0.061400
   79  H  4  X   -0.007676  -0.000000  -0.013624   0.000000   0.014107
   80  H  4  Y   -0.000000   0.001972  -0.000000   0.000000  -0.000000
   81  H  4  Z    0.000000   0.000000   0.000000   0.005034  -0.000000
   82  H  4  X   -0.015735  -0.000000  -0.026772   0.000000   0.050431
   83  H  4  Y   -0.000000   0.006262  -0.000000   0.000000   0.000000
   84  H  4  Z    0.000000   0.000000   0.000000   0.024108  -0.000000
   85  H  4 XX    0.002802   0.000000   0.005180   0.000000  -0.007349
   86  H  4 YY   -0.000875  -0.000000  -0.002472   0.000000   0.000840
   87  H  4 ZZ   -0.001926  -0.000000  -0.002708   0.000000   0.006510
   88  H  4 XY    0.000000  -0.001752   0.000000   0.000000  -0.000000
   89  H  4 XZ    0.000000   0.000000   0.000000  -0.002648  -0.000000
   90  H  4 YZ    0.000000   0.000000   0.000000   0.000000  -0.000000

                     11         12
                    0.0260     0.0255
                     A          A   
    1  P  1  S   -0.001271   0.000000
    2  P  1  S   -0.011356   0.000000
    3  P  1  S   -0.043707   0.000000
    4  P  1  S   -0.008295   0.000000
    5  P  1  S   -0.016668   0.000000
    6  P  1  X    0.163345  -0.000000
    7  P  1  Y    0.000000   0.166519
    8  P  1  Z    0.000000  -0.000000
    9  P  1  X    0.859867  -0.000000
   10  P  1  Y    0.000000   0.867380
   11  P  1  Z    0.000000  -0.000000
   12  P  1  X    0.142589  -0.000000
   13  P  1  Y    0.000000   0.142940
   14  P  1  Z    0.000000  -0.000000
   15  P  1  X    0.341621  -0.000000
   16  P  1  Y    0.000000   0.342646
   17  P  1  Z    0.000000  -0.000000
   18  P  1 XX   -0.137771   0.000000
   19  P  1 YY    0.144529  -0.000000
   20  P  1 ZZ   -0.006757  -0.000000
   21  P  1 XY    0.000000   0.162622
   22  P  1 XZ    0.000000  -0.000000
   23  P  1 YZ    0.000000  -0.000000
   24  P  1 XX   -0.037544   0.000000
   25  P  1 YY    0.038964  -0.000000
   26  P  1 ZZ   -0.001420   0.000000
   27  P  1 XY    0.000000   0.042315
   28  P  1 XZ    0.000000  -0.000000
   29  P  1 YZ    0.000000  -0.000000
   30  P  1 XXX  -0.014511   0.000000
   31  P  1 YYY  -0.000000  -0.020249
   32  P  1 ZZZ   0.000000  -0.000000
   33  P  1 XXY  -0.000000  -0.008533
   34  P  1 XXZ   0.000000  -0.000000
   35  P  1 YYX  -0.016483   0.000000
   36  P  1 YYZ   0.000000  -0.000000
   37  P  1 ZZX   0.035952  -0.000000
   38  P  1 ZZY   0.000000   0.035700
   39  P  1 XYZ   0.000000  -0.000000
   40  P  1 XX   -0.016110   0.000000
   41  P  1 YY    0.016390  -0.000000
   42  P  1 ZZ   -0.000281  -0.000000
   43  P  1 XY    0.000000   0.018733
   44  P  1 XZ    0.000000  -0.000000
   45  P  1 YZ    0.000000  -0.000000
   46  H  2  S    0.147660  -0.231513
   47  H  2  S    0.350174  -0.568435
   48  H  2  S    0.021672  -0.038062
   49  H  2  X    0.018838  -0.007137
   50  H  2  Y   -0.008211   0.026496
   51  H  2  Z    0.000000  -0.000000
   52  H  2  X    0.080531  -0.045711
   53  H  2  Y   -0.048947   0.131510
   54  H  2  Z    0.000000  -0.000000
   55  H  2 XX    0.005287   0.005619
   56  H  2 YY    0.000894  -0.015256
   57  H  2 ZZ   -0.006181   0.009637
   58  H  2 XY   -0.012425   0.011221
   59  H  2 XZ    0.000000  -0.000000
   60  H  2 YZ    0.000000  -0.000000
   61  H  3  S    0.147660   0.231513
   62  H  3  S    0.350175   0.568435
   63  H  3  S    0.021672   0.038062
   64  H  3  X    0.018838   0.007137
   65  H  3  Y    0.008211   0.026496
   66  H  3  Z    0.000000  -0.000000
   67  H  3  X    0.080531   0.045711
   68  H  3  Y    0.048947   0.131510
   69  H  3  Z    0.000000  -0.000000
   70  H  3 XX    0.005287  -0.005619
   71  H  3 YY    0.000894   0.015256
   72  H  3 ZZ   -0.006181  -0.009637
   73  H  3 XY    0.012425   0.011221
   74  H  3 XZ    0.000000  -0.000000
   75  H  3 YZ    0.000000  -0.000000
   76  H  4  S   -0.248457   0.000000
   77  H  4  S   -0.626253   0.000000
   78  H  4  S   -0.047167   0.000000
   79  H  4  X    0.028232  -0.000000
   80  H  4  Y    0.000000   0.013986
   81  H  4  Z    0.000000  -0.000000
   82  H  4  X    0.150380  -0.000000
   83  H  4  Y    0.000000   0.052051
   84  H  4  Z    0.000000  -0.000000
   85  H  4 XX   -0.020052   0.000000
   86  H  4 YY    0.009766  -0.000000
   87  H  4 ZZ    0.010286  -0.000000
   88  H  4 XY   -0.000000  -0.009714
   89  H  4 XZ    0.000000  -0.000000
   90  H  4 YZ    0.000000  -0.000000

          ------------------------
          MCSCF OPTIMIZED ORBITALS
          ------------------------

                      1          2          3          4          5
                  -80.2666    -7.8144    -5.7093    -5.7093    -5.7081
                     A          A          A          A          A   
    1  P  1  S    1.000140  -0.000534   0.000000  -0.000002  -0.000000
    2  P  1  S    0.000212   0.953779   0.000000  -0.000058  -0.000000
    3  P  1  S    0.000235  -0.004191   0.000000   0.000077  -0.000000
    4  P  1  S   -0.000970   0.063027  -0.000000   0.000030  -0.000000
    5  P  1  S   -0.000156   0.002614   0.000000   0.000035  -0.000000
    6  P  1  X    0.000001   0.000048   0.000001   0.958040  -0.000000
    7  P  1  Y   -0.000000   0.000000   0.958017  -0.000001  -0.000000
    8  P  1  Z   -0.000000  -0.000000   0.000000  -0.000000   0.961345
    9  P  1  X    0.000001   0.000007  -0.000000  -0.003345  -0.000000
   10  P  1  Y   -0.000000   0.000000  -0.003388   0.000000  -0.000000
   11  P  1  Z   -0.000000  -0.000000   0.000000  -0.000000  -0.000074
   12  P  1  X   -0.000001   0.000022   0.000000   0.079405  -0.000000
   13  P  1  Y   -0.000000  -0.000000   0.079403  -0.000000  -0.000000
   14  P  1  Z   -0.000000  -0.000000   0.000000  -0.000000   0.075516
   15  P  1  X    0.000000   0.000002   0.000000   0.001227  -0.000000
   16  P  1  Y   -0.000000   0.000000   0.001225  -0.000000  -0.000000
   17  P  1  Z   -0.000000  -0.000000   0.000000  -0.000000   0.001290
   18  P  1 XX    0.000006   0.000101   0.000000   0.000264  -0.000000
   19  P  1 YY    0.000006   0.000092  -0.000000  -0.000258  -0.000000
   20  P  1 ZZ   -0.000012  -0.000193   0.000000  -0.000006  -0.000000
   21  P  1 XY    0.000000   0.000000  -0.000290   0.000000  -0.000000
   22  P  1 XZ   -0.000000  -0.000000   0.000000  -0.000000   0.000002
   23  P  1 YZ   -0.000000  -0.000000   0.000000  -0.000000   0.000000
   24  P  1 XX    0.000014  -0.000178  -0.000000  -0.001468  -0.000000
   25  P  1 YY    0.000014  -0.000178   0.000000   0.001467  -0.000000
   26  P  1 ZZ   -0.000028   0.000357   0.000000   0.000001  -0.000000
   27  P  1 XY   -0.000000  -0.000000   0.001710  -0.000000  -0.000000
   28  P  1 XZ   -0.000000  -0.000000   0.000000  -0.000000   0.000002
   29  P  1 YZ   -0.000000  -0.000000   0.000000  -0.000000  -0.000000
   30  P  1 XXX   0.000017   0.000101  -0.000000  -0.000046  -0.000000
   31  P  1 YYY   0.000000   0.000000  -0.000045   0.000000  -0.000000
   32  P  1 ZZZ  -0.000000  -0.000000   0.000000  -0.000000  -0.000255
   33  P  1 XXY  -0.000000  -0.000000  -0.000022  -0.000000  -0.000000
   34  P  1 XXZ  -0.000000  -0.000000   0.000000  -0.000000   0.000170
   35  P  1 YYX  -0.000022  -0.000137  -0.000000  -0.000019  -0.000000
   36  P  1 YYZ  -0.000000  -0.000000   0.000000  -0.000000   0.000172
   37  P  1 ZZX  -0.000000   0.000001   0.000000   0.000080  -0.000000
   38  P  1 ZZY  -0.000000  -0.000000   0.000083  -0.000000  -0.000000
   39  P  1 XYZ  -0.000000  -0.000000   0.000000  -0.000000   0.000000
   40  P  1 XX   -0.000001   0.000241  -0.000000  -0.000256  -0.000000
   41  P  1 YY   -0.000001   0.000235   0.000000   0.000268  -0.000000
   42  P  1 ZZ    0.000002  -0.000476   0.000000  -0.000012  -0.000000
   43  P  1 XY   -0.000000  -0.000000   0.000330  -0.000000  -0.000000
   44  P  1 XZ   -0.000000  -0.000000   0.000000  -0.000000   0.000010
   45  P  1 YZ   -0.000000  -0.000000   0.000000  -0.000000  -0.000000
   46  H  2  S    0.000005  -0.000185   0.000517  -0.000288  -0.000000
   47  H  2  S   -0.000042   0.000140   0.003086  -0.001749  -0.000000
   48  H  2  S    0.000031  -0.000547  -0.000302   0.000174  -0.000000
   49  H  2  X    0.000001  -0.000022   0.000034   0.000089  -0.000000
   50  H  2  Y   -0.000003   0.000037   0.000048   0.000033  -0.000000
   51  H  2  Z   -0.000000  -0.000000   0.000000  -0.000000   0.000041
   52  H  2  X   -0.000011   0.000088   0.000606  -0.000412  -0.000000
   53  H  2  Y    0.000019  -0.000154  -0.001120   0.000599  -0.000000
   54  H  2  Z   -0.000000  -0.000000   0.000000  -0.000000   0.000119
   55  H  2 XX   -0.000001   0.000002  -0.000010   0.000038  -0.000000
   56  H  2 YY    0.000006   0.000019  -0.000037  -0.000011  -0.000000
   57  H  2 ZZ   -0.000005  -0.000021   0.000047  -0.000027  -0.000000
   58  H  2 XY   -0.000007  -0.000016  -0.000011  -0.000017  -0.000000
   59  H  2 XZ   -0.000000  -0.000000   0.000000  -0.000000  -0.000012
   60  H  2 YZ   -0.000000  -0.000000   0.000000  -0.000000   0.000020
   61  H  3  S    0.000005  -0.000185  -0.000517  -0.000288  -0.000000
   62  H  3  S   -0.000042   0.000140  -0.003086  -0.001749  -0.000000
   63  H  3  S    0.000031  -0.000547   0.000302   0.000174  -0.000000
   64  H  3  X    0.000001  -0.000022  -0.000034   0.000089  -0.000000
   65  H  3  Y    0.000003  -0.000037   0.000048  -0.000033  -0.000000
   66  H  3  Z   -0.000000  -0.000000   0.000000  -0.000000   0.000041
   67  H  3  X   -0.000011   0.000088  -0.000606  -0.000412  -0.000000
   68  H  3  Y   -0.000019   0.000154  -0.001120  -0.000599  -0.000000
   69  H  3  Z   -0.000000  -0.000000   0.000000  -0.000000   0.000119
   70  H  3 XX   -0.000001   0.000002   0.000010   0.000038  -0.000000
   71  H  3 YY    0.000006   0.000019   0.000037  -0.000011  -0.000000
   72  H  3 ZZ   -0.000005  -0.000021  -0.000047  -0.000027  -0.000000
   73  H  3 XY    0.000007   0.000016  -0.000011   0.000017  -0.000000
   74  H  3 XZ   -0.000000  -0.000000   0.000000  -0.000000  -0.000012
   75  H  3 YZ   -0.000000  -0.000000   0.000000  -0.000000  -0.000020
   76  H  4  S    0.000005  -0.000178  -0.000000   0.000592  -0.000000
   77  H  4  S   -0.000044   0.000138   0.000000   0.003499  -0.000000
   78  H  4  S    0.000031  -0.000542  -0.000000  -0.000349  -0.000000
   79  H  4  X   -0.000003   0.000046   0.000000   0.000034  -0.000000
   80  H  4  Y   -0.000000  -0.000000   0.000107  -0.000000  -0.000000
   81  H  4  Z   -0.000000  -0.000000   0.000000  -0.000000   0.000042
   82  H  4  X    0.000022  -0.000173  -0.000000  -0.001450  -0.000000
   83  H  4  Y   -0.000000   0.000000  -0.000069  -0.000000  -0.000000
   84  H  4  Z   -0.000000  -0.000000   0.000000  -0.000000   0.000116
   85  H  4 XX    0.000009   0.000018  -0.000000  -0.000043  -0.000000
   86  H  4 YY   -0.000004  -0.000001   0.000000  -0.000020  -0.000000
   87  H  4 ZZ   -0.000005  -0.000016   0.000000   0.000063  -0.000000
   88  H  4 XY   -0.000000  -0.000000  -0.000038  -0.000000  -0.000000
   89  H  4 XZ   -0.000000  -0.000000   0.000000  -0.000000   0.000023
   90  H  4 YZ   -0.000000  -0.000000   0.000000  -0.000000   0.000000

                      6          7          8          9         10
                    0.0000     0.0000     0.0000     0.0000     0.0000
                     A          A          A          A          A   
    1  P  1  S    0.001012   0.000024  -0.000004   0.000000   0.012010
    2  P  1  S    0.002643   0.000116  -0.000017   0.000000   0.112263
    3  P  1  S    0.547722  -0.000516   0.000076   0.000000   0.573617
    4  P  1  S    0.057339  -0.000228   0.000034   0.000000   0.093401
    5  P  1  S    0.219816   0.000846  -0.000125   0.000000   0.416991
    6  P  1  X    0.000101  -0.036312   0.005364   0.000000  -0.001609
    7  P  1  Y    0.000000  -0.005417  -0.036671   0.000000  -0.000000
    8  P  1  Z    0.000000   0.000000   0.000000   0.001467   0.000000
    9  P  1  X   -0.000126   0.371768  -0.054918   0.000000  -0.002998
   10  P  1  Y    0.000000   0.054987   0.372238   0.000000   0.000000
   11  P  1  Z    0.000000   0.000000   0.000000   0.598331   0.000000
   12  P  1  X   -0.000218   0.114640  -0.016935   0.000000  -0.000267
   13  P  1  Y    0.000000   0.016990   0.115013   0.000000   0.000000
   14  P  1  Z    0.000000   0.000000   0.000000   0.162446   0.000000
   15  P  1  X    0.000082   0.106394  -0.015717   0.000000   0.005080
   16  P  1  Y    0.000000   0.015680   0.106143   0.000000   0.000000
   17  P  1  Z    0.000000   0.000000   0.000000   0.364619   0.000000
   18  P  1 XX    0.011837   0.043486  -0.006424   0.000000  -0.091440
   19  P  1 YY    0.011939  -0.043807   0.006471   0.000000  -0.092922
   20  P  1 ZZ   -0.023776   0.000321  -0.000047   0.000000   0.184362
   21  P  1 XY    0.000000  -0.007477  -0.050617   0.000000   0.000000
   22  P  1 XZ    0.000000   0.000000   0.000000   0.000452   0.000000
   23  P  1 YZ    0.000000   0.000000   0.000000   0.000000   0.000000
   24  P  1 XX    0.005713   0.026674  -0.003940   0.000000  -0.096111
   25  P  1 YY    0.005595  -0.027115   0.004005   0.000000  -0.093598
   26  P  1 ZZ   -0.011308   0.000441  -0.000065   0.000000   0.189709
   27  P  1 XY   -0.000000  -0.004603  -0.031158   0.000000  -0.000000
   28  P  1 XZ    0.000000   0.000000   0.000000   0.001021   0.000000
   29  P  1 YZ    0.000000   0.000000   0.000000   0.000000   0.000000
   30  P  1 XXX   0.011717   0.008297  -0.001226   0.000000  -0.064488
   31  P  1 YYY   0.000000   0.001226   0.008300   0.000000   0.000000
   32  P  1 ZZZ   0.000000   0.000000   0.000000  -0.011556   0.000000
   33  P  1 XXY   0.000000   0.000553   0.003743   0.000000   0.000000
   34  P  1 XXZ   0.000000   0.000000   0.000000   0.007802   0.000000
   35  P  1 YYX  -0.015777   0.003700  -0.000546   0.000000   0.084104
   36  P  1 YYZ   0.000000   0.000000   0.000000   0.007702   0.000000
   37  P  1 ZZX   0.000057  -0.014832   0.002191   0.000000   0.002416
   38  P  1 ZZY  -0.000000  -0.002198  -0.014879   0.000000  -0.000000
   39  P  1 XYZ   0.000000   0.000000   0.000000  -0.000000   0.000000
   40  P  1 XX    0.002040   0.008358  -0.001235   0.000000  -0.010339
   41  P  1 YY    0.002095  -0.008430   0.001245   0.000000  -0.010024
   42  P  1 ZZ   -0.004135   0.000073  -0.000011   0.000000   0.020364
   43  P  1 XY    0.000000  -0.001443  -0.009771   0.000000  -0.000000
   44  P  1 XZ    0.000000   0.000000   0.000000   0.000061   0.000000
   45  P  1 YZ    0.000000   0.000000   0.000000   0.000000   0.000000
   46  H  2  S    0.080616  -0.062452   0.158187   0.000000  -0.194333
   47  H  2  S    0.115655  -0.105119   0.266191   0.000000  -0.366942
   48  H  2  S    0.003731  -0.019786   0.049517   0.000000  -0.051798
   49  H  2  X    0.003971  -0.000920   0.007027   0.000000  -0.006953
   50  H  2  Y   -0.006874   0.005282  -0.010695   0.000000   0.011748
   51  H  2  Z    0.000000   0.000000   0.000000   0.005099   0.000000
   52  H  2  X    0.008010   0.000109   0.014316   0.000000  -0.023035
   53  H  2  Y   -0.013893   0.011253  -0.020165   0.000000   0.039119
   54  H  2  Z    0.000000   0.000000   0.000000   0.024210   0.000000
   55  H  2 XX    0.000042   0.001439  -0.000035   0.000000  -0.001298
   56  H  2 YY    0.001946  -0.002423   0.002536   0.000000  -0.004901
   57  H  2 ZZ   -0.001987   0.000983  -0.002501   0.000000   0.006198
   58  H  2 XY   -0.001902   0.000582  -0.003904   0.000000   0.003859
   59  H  2 XZ    0.000000   0.000000   0.000000   0.001338   0.000000
   60  H  2 YZ    0.000000   0.000000   0.000000  -0.002323   0.000000
   61  H  3  S    0.080616  -0.105521  -0.133373   0.000000  -0.194333
   62  H  3  S    0.115655  -0.177594  -0.224428   0.000000  -0.366942
   63  H  3  S    0.003731  -0.033258  -0.041681   0.000000  -0.051798
   64  H  3  X    0.003971  -0.002913  -0.006461   0.000000  -0.006953
   65  H  3  Y    0.006874  -0.008149  -0.008711   0.000000  -0.011748
   66  H  3  Z    0.000000   0.000000   0.000000   0.005099   0.000000
   67  H  3  X    0.008010  -0.004035  -0.013736   0.000000  -0.023035
   68  H  3  Y    0.013893  -0.016603  -0.016050   0.000000  -0.039119
   69  H  3  Z    0.000000   0.000000   0.000000   0.024210   0.000000
   70  H  3 XX    0.000042   0.001388  -0.000382   0.000000  -0.001298
   71  H  3 YY    0.001946  -0.003052  -0.001727   0.000000  -0.004901
   72  H  3 ZZ   -0.001987   0.001665   0.002110   0.000000   0.006198
   73  H  3 XY    0.001902  -0.001686  -0.003569   0.000000  -0.003859
   74  H  3 XZ    0.000000   0.000000   0.000000   0.001338   0.000000
   75  H  3 YZ    0.000000   0.000000   0.000000   0.002323   0.000000
   76  H  4  S    0.080182   0.167886  -0.024800   0.000000  -0.190827
   77  H  4  S    0.116021   0.284804  -0.042072   0.000000  -0.366294
   78  H  4  S    0.003996   0.053210  -0.007860   0.000000  -0.058667
   79  H  4  X   -0.007854  -0.013471   0.001990   0.000000   0.012512
   80  H  4  Y   -0.000000   0.000285   0.001926   0.000000  -0.000000
   81  H  4  Z    0.000000   0.000000   0.000000   0.005034   0.000000
   82  H  4  X   -0.016148  -0.026682   0.003942   0.000000   0.042078
   83  H  4  Y   -0.000000   0.000902   0.006105   0.000000   0.000000
   84  H  4  Z    0.000000   0.000000   0.000000   0.024108   0.000000
   85  H  4 XX    0.002875   0.005145  -0.000760   0.000000  -0.006231
   86  H  4 YY   -0.000904  -0.002457   0.000363   0.000000   0.000300
   87  H  4 ZZ   -0.001971  -0.002688   0.000397   0.000000   0.005931
   88  H  4 XY    0.000000  -0.000254  -0.001717   0.000000  -0.000000
   89  H  4 XZ    0.000000   0.000000   0.000000  -0.002648   0.000000
   90  H  4 YZ    0.000000   0.000000   0.000000   0.000000   0.000000

                     11         12         13         14         15
                    0.0000     0.0000    -0.0188     0.0442     0.0444
                     A          A          A          A          A   
    1  P  1  S   -0.000615   0.000027   0.016711   0.000000  -0.000135
    2  P  1  S   -0.005229   0.000228   0.123627   0.000000  -0.000886
    3  P  1  S   -0.012333   0.000537   0.402630   0.000000  -0.002002
    4  P  1  S   -0.003191   0.000139   0.012898  -0.000000   0.000189
    5  P  1  S    0.006130  -0.000267   1.666853  -0.000000   0.009668
    6  P  1  X    0.163272  -0.007105  -0.000386   0.000000  -0.145335
    7  P  1  Y    0.007236   0.166297  -0.000000   0.146078   0.000000
    8  P  1  Z    0.000000   0.000000   0.000000  -0.000000  -0.000000
    9  P  1  X    0.860940  -0.037464  -0.002432   0.000000  -0.579796
   10  P  1  Y    0.037737   0.867221  -0.000000   0.581952   0.000000
   11  P  1  Z    0.000000   0.000000   0.000000  -0.000000  -0.000000
   12  P  1  X    0.142888  -0.006218  -0.000600   0.000000  -0.034408
   13  P  1  Y    0.006223   0.143009  -0.000000   0.034888   0.000000
   14  P  1  Z    0.000000   0.000000   0.000000  -0.000000  -0.000000
   15  P  1  X    0.342304  -0.014895  -0.015762   0.000001  -0.840115
   16  P  1  Y    0.014904   0.342511  -0.000000   0.853429   0.000001
   17  P  1  Z    0.000000   0.000000   0.000000  -0.000000  -0.000000
   18  P  1 XX   -0.142752   0.006212   0.027042   0.000000  -0.046485
   19  P  1 YY    0.139443  -0.006068   0.026964  -0.000000   0.045774
   20  P  1 ZZ    0.003309  -0.000144  -0.054006  -0.000000   0.000711
   21  P  1 XY    0.007066   0.162379  -0.000000  -0.053005  -0.000000
   22  P  1 XZ    0.000000   0.000000   0.000000  -0.000000  -0.000000
   23  P  1 YZ    0.000000   0.000000   0.000000  -0.000000  -0.000000
   24  P  1 XX   -0.042759   0.001861   0.139473   0.000000  -0.269492
   25  P  1 YY    0.033817  -0.001472   0.141494  -0.000000   0.264865
   26  P  1 ZZ    0.008942  -0.000389  -0.280967  -0.000000   0.004627
   27  P  1 XY    0.001837   0.042220   0.000000  -0.307410  -0.000000
   28  P  1 XZ    0.000000   0.000000   0.000000  -0.000000  -0.000000
   29  P  1 YZ    0.000000   0.000000   0.000000  -0.000000  -0.000000
   30  P  1 XXX  -0.018024   0.000784   0.015759   0.000000  -0.014367
   31  P  1 YYY  -0.000880  -0.020215  -0.000000   0.014588   0.000000
   32  P  1 ZZZ   0.000000   0.000000   0.000000  -0.000000  -0.000000
   33  P  1 XXY  -0.000371  -0.008518  -0.000000   0.006597   0.000000
   34  P  1 XXZ   0.000000   0.000000   0.000000  -0.000000  -0.000000
   35  P  1 YYX  -0.011891   0.000517  -0.021162   0.000000  -0.006665
   36  P  1 YYZ   0.000000   0.000000   0.000000  -0.000000  -0.000000
   37  P  1 ZZX   0.036073  -0.001570   0.000020  -0.000000   0.025940
   38  P  1 ZZY   0.001551   0.035640   0.000000  -0.026168  -0.000000
   39  P  1 XYZ   0.000000   0.000000   0.000000  -0.000000  -0.000000
   40  P  1 XX   -0.016666   0.000725   0.007424   0.000000  -0.010094
   41  P  1 YY    0.015834  -0.000689   0.007391  -0.000000   0.009792
   42  P  1 ZZ    0.000831  -0.000036  -0.014815  -0.000000   0.000303
   43  P  1 XY    0.000814   0.018698  -0.000000  -0.011302  -0.000000
   44  P  1 XZ    0.000000   0.000000   0.000000  -0.000000  -0.000000
   45  P  1 YZ    0.000000   0.000000   0.000000  -0.000000  -0.000000
   46  H  2  S    0.126907  -0.236996   0.010499   0.016017   0.009221
   47  H  2  S    0.305350  -0.581826   0.214388   0.230465   0.132259
   48  H  2  S    0.017149  -0.038763  -1.208491  -1.870995  -1.071649
   49  H  2  X    0.018156  -0.007921   0.009046   0.011292   0.005092
   50  H  2  Y   -0.006410   0.026783  -0.015741  -0.018153  -0.011175
   51  H  2  Z    0.000000   0.000000   0.000000  -0.000000  -0.000000
   52  H  2  X    0.077327  -0.049095  -0.035281  -0.057561  -0.031027
   53  H  2  Y   -0.041094   0.133390   0.060845   0.098157   0.057225
   54  H  2  Z    0.000000   0.000000   0.000000  -0.000000  -0.000000
   55  H  2 XX    0.005466   0.005387  -0.000145   0.002289  -0.000274
   56  H  2 YY   -0.000042  -0.015265  -0.001633  -0.006573  -0.002197
   57  H  2 ZZ   -0.005425   0.009878   0.001778   0.004284   0.002472
   58  H  2 XY   -0.011731   0.011735   0.001518   0.007005   0.005084
   59  H  2 XZ    0.000000   0.000000   0.000000  -0.000000  -0.000000
   60  H  2 YZ    0.000000   0.000000   0.000000  -0.000000  -0.000000
   61  H  3  S    0.147015   0.225076   0.010499  -0.016017   0.009221
   62  H  3  S    0.354737   0.553102   0.214388  -0.230465   0.132259
   63  H  3  S    0.020451   0.037127  -1.208491   1.870997  -1.071646
   64  H  3  X    0.018775   0.006314   0.009046  -0.011292   0.005092
   65  H  3  Y    0.008712   0.026125   0.015741  -0.018153   0.011175
   66  H  3  Z    0.000000   0.000000   0.000000  -0.000000  -0.000000
   67  H  3  X    0.081300   0.042192  -0.035281   0.057561  -0.031027
   68  H  3  Y    0.052526   0.129317  -0.060845   0.098157  -0.057225
   69  H  3  Z    0.000000   0.000000   0.000000  -0.000000  -0.000000
   70  H  3 XX    0.004978  -0.005841  -0.000145  -0.002289  -0.000274
   71  H  3 YY    0.001285   0.015211  -0.001633   0.006573  -0.002197
   72  H  3 ZZ   -0.006263  -0.009370   0.001778  -0.004284   0.002472
   73  H  3 XY    0.012706   0.010672  -0.001518   0.007005  -0.005084
   74  H  3 XZ    0.000000   0.000000   0.000000  -0.000000  -0.000000
   75  H  3 YZ    0.000000   0.000000   0.000000  -0.000000  -0.000000
   76  H  4  S   -0.258665   0.011256   0.010404   0.000000  -0.018411
   77  H  4  S   -0.646009   0.028111   0.216483   0.000000  -0.274522
   78  H  4  S   -0.050288   0.002188  -1.175076  -0.000002   2.147356
   79  H  4  X    0.028903  -0.001258  -0.017826  -0.000000   0.024670
   80  H  4  Y    0.000608   0.013976   0.000000   0.001434   0.000000
   81  H  4  Z    0.000000   0.000000   0.000000  -0.000000  -0.000000
   82  H  4  X    0.152705  -0.006645   0.068556   0.000000  -0.129115
   83  H  4  Y    0.002263   0.052013  -0.000000  -0.002036  -0.000000
   84  H  4  Z    0.000000   0.000000   0.000000  -0.000000  -0.000000
   85  H  4 XX   -0.020392   0.000887  -0.002363  -0.000000   0.011091
   86  H  4 YY    0.009783  -0.000426   0.000613   0.000000  -0.006155
   87  H  4 ZZ    0.010610  -0.000462   0.001750   0.000000  -0.004936
   88  H  4 XY   -0.000422  -0.009708   0.000000  -0.001852  -0.000000
   89  H  4 XZ    0.000000   0.000000   0.000000  -0.000000  -0.000000
   90  H  4 YZ    0.000000   0.000000   0.000000  -0.000000  -0.000000

                     16         17         18         19         20
                    0.1345     0.1346     0.1759     0.2058     0.2058
                     A          A          A          A          A   
    1  P  1  S   -0.000000  -0.000000   0.000000   0.000438   0.000000
    2  P  1  S   -0.000000  -0.000000   0.000000   0.003304   0.000001
    3  P  1  S   -0.000000  -0.000000   0.000000   0.008408   0.000001
    4  P  1  S   -0.000000  -0.000000   0.000000   0.001817   0.000000
    5  P  1  S   -0.000000  -0.000000   0.000000  -0.055148  -0.000009
    6  P  1  X   -0.000000  -0.000000   0.000000  -0.082667  -0.000013
    7  P  1  Y   -0.000000  -0.000000   0.000000   0.000013  -0.078755
    8  P  1  Z   -0.000087   0.000000  -0.326643  -0.000000  -0.000000
    9  P  1  X   -0.000000  -0.000000   0.000000  -0.515209  -0.000084
   10  P  1  Y   -0.000000  -0.000000   0.000000   0.000082  -0.506064
   11  P  1  Z   -0.001188  -0.000000  -1.187578  -0.000000  -0.000000
   12  P  1  X   -0.000000  -0.000000   0.000000  -0.078917  -0.000013
   13  P  1  Y   -0.000000  -0.000000   0.000000   0.000013  -0.078889
   14  P  1  Z   -0.000203  -0.000000  -0.031150  -0.000000  -0.000000
   15  P  1  X   -0.000000  -0.000000   0.000000   3.581943   0.000583
   16  P  1  Y   -0.000000  -0.000000   0.000000  -0.000586   3.594304
   17  P  1  Z   -0.000143  -0.000000   1.398618  -0.000000  -0.000000
   18  P  1 XX   -0.000000  -0.000000   0.000000   0.040309   0.000007
   19  P  1 YY   -0.000000  -0.000000   0.000000  -0.040415  -0.000007
   20  P  1 ZZ   -0.000000  -0.000000   0.000000   0.000105   0.000000
   21  P  1 XY   -0.000000  -0.000000   0.000000   0.000008  -0.048153
   22  P  1 XZ    0.125939   0.000000  -0.000136  -0.000000  -0.000000
   23  P  1 YZ   -0.000000   0.126065   0.000000  -0.000000  -0.000000
   24  P  1 XX   -0.000000  -0.000000   0.000000   0.718629   0.000117
   25  P  1 YY   -0.000000  -0.000000   0.000000  -0.714486  -0.000116
   26  P  1 ZZ   -0.000000  -0.000000   0.000000  -0.004143  -0.000001
   27  P  1 XY   -0.000000  -0.000000   0.000000   0.000136  -0.833057
   28  P  1 XZ    0.804392   0.000000  -0.001025  -0.000000  -0.000000
   29  P  1 YZ   -0.000000   0.805132   0.000000  -0.000000  -0.000000
   30  P  1 XXX  -0.000000  -0.000000   0.000000   0.061888   0.000010
   31  P  1 YYY  -0.000000  -0.000000   0.000000  -0.000010   0.063899
   32  P  1 ZZZ   0.000087   0.000000  -0.003954  -0.000000  -0.000000
   33  P  1 XXY  -0.000000  -0.000000   0.000000  -0.000005   0.028736
   34  P  1 XXZ   0.004369   0.000000   0.002590  -0.000000  -0.000000
   35  P  1 YYX  -0.000000  -0.000000   0.000000   0.030706   0.000005
   36  P  1 YYZ  -0.004486  -0.000000   0.002716  -0.000000  -0.000000
   37  P  1 ZZX  -0.000000  -0.000000   0.000000  -0.113737  -0.000019
   38  P  1 ZZY  -0.000000  -0.000000   0.000000   0.000019  -0.114465
   39  P  1 XYZ   0.000000  -0.005192   0.000000  -0.000000  -0.000000
   40  P  1 XX   -0.000000  -0.000000   0.000000   0.007681   0.000001
   41  P  1 YY   -0.000000  -0.000000   0.000000  -0.007261  -0.000001
   42  P  1 ZZ   -0.000000  -0.000000   0.000000  -0.000420  -0.000000
   43  P  1 XY   -0.000000  -0.000000   0.000000   0.000001  -0.008718
   44  P  1 XZ    0.048855   0.000000  -0.000041  -0.000000  -0.000000
   45  P  1 YZ   -0.000000   0.048894   0.000000  -0.000000  -0.000000
   46  H  2  S   -0.000000  -0.000000   0.000000  -0.031841   0.054120
   47  H  2  S   -0.000000  -0.000000   0.000000   0.272747  -0.478295
   48  H  2  S   -0.000000  -0.000000   0.000000   1.365939  -2.349709
   49  H  2  X   -0.000000  -0.000000   0.000000  -0.004942   0.007333
   50  H  2  Y   -0.000000  -0.000000   0.000000   0.007374  -0.013390
   51  H  2  Z   -0.000287   0.000507   0.005401  -0.000000  -0.000000
   52  H  2  X   -0.000000  -0.000000   0.000000   0.127563  -0.142770
   53  H  2  Y   -0.000000  -0.000000   0.000000  -0.143991   0.291616
   54  H  2  Z   -0.061864   0.106936  -0.045819  -0.000000  -0.000000
   55  H  2 XX   -0.000000  -0.000000   0.000000   0.002149   0.003505
   56  H  2 YY   -0.000000  -0.000000   0.000000   0.001001  -0.008826
   57  H  2 ZZ   -0.000000  -0.000000   0.000000  -0.003150   0.005321
   58  H  2 XY   -0.000000  -0.000000   0.000000  -0.007176   0.007521
   59  H  2 XZ    0.002226  -0.001804   0.000046  -0.000000  -0.000000
   60  H  2 YZ   -0.001803   0.004336  -0.000086  -0.000000  -0.000000
   61  H  3  S   -0.000000  -0.000000   0.000000  -0.031823  -0.054130
   62  H  3  S   -0.000000  -0.000000   0.000000   0.272591   0.478384
   63  H  3  S   -0.000000  -0.000000   0.000000   1.365174   2.350154
   64  H  3  X   -0.000000  -0.000000   0.000000  -0.004940  -0.007335
   65  H  3  Y   -0.000000  -0.000000   0.000000  -0.007370  -0.013393
   66  H  3  Z   -0.000287  -0.000507   0.005401  -0.000000  -0.000000
   67  H  3  X   -0.000000  -0.000000   0.000000   0.127516   0.142812
   68  H  3  Y   -0.000000  -0.000000   0.000000   0.143896   0.291663
   69  H  3  Z   -0.061864  -0.106936  -0.045819  -0.000000  -0.000000
   70  H  3 XX   -0.000000  -0.000000   0.000000   0.002150  -0.003504
   71  H  3 YY   -0.000000  -0.000000   0.000000   0.000998   0.008826
   72  H  3 ZZ   -0.000000  -0.000000   0.000000  -0.003148  -0.005322
   73  H  3 XY   -0.000000  -0.000000   0.000000   0.007173   0.007523
   74  H  3 XZ    0.002226   0.001804   0.000046  -0.000000  -0.000000
   75  H  3 YZ    0.001803   0.004336   0.000086  -0.000000  -0.000000
   76  H  4  S   -0.000000  -0.000000   0.000000   0.061569   0.000010
   77  H  4  S   -0.000000  -0.000000   0.000000  -0.539043  -0.000088
   78  H  4  S   -0.000000  -0.000000   0.000000  -2.684933  -0.000437
   79  H  4  X   -0.000000  -0.000000   0.000000  -0.017995  -0.000003
   80  H  4  Y   -0.000000  -0.000000   0.000000   0.000000  -0.000741
   81  H  4  Z    0.000327   0.000000   0.005329  -0.000000  -0.000000
   82  H  4  X   -0.000000  -0.000000   0.000000   0.370546   0.000060
   83  H  4  Y   -0.000000  -0.000000   0.000000  -0.000007   0.044863
   84  H  4  Z    0.125370   0.000000  -0.045004  -0.000000  -0.000000
   85  H  4 XX   -0.000000  -0.000000   0.000000  -0.012822  -0.000002
   86  H  4 YY   -0.000000  -0.000000   0.000000   0.006913   0.000001
   87  H  4 ZZ   -0.000000  -0.000000   0.000000   0.005908   0.000001
   88  H  4 XY   -0.000000  -0.000000   0.000000   0.000001  -0.004759
   89  H  4 XZ    0.005381   0.000000  -0.000008  -0.000000  -0.000000
   90  H  4 YZ   -0.000000   0.001257   0.000000  -0.000000  -0.000000

                     21         22         23         24         25
                    0.2912     0.3827     0.5054     0.5071     0.5395
                     A          A          A          A          A   
    1  P  1  S   -0.080834  -0.004715   0.000788  -0.000000  -0.000000
    2  P  1  S   -0.604844  -0.044224   0.005770  -0.000000  -0.000000
    3  P  1  S   -1.299698  -0.040785   0.011042  -0.000000  -0.000000
    4  P  1  S   -0.454100  -0.260643   0.000223   0.000000   0.000000
    5  P  1  S    6.415929   2.862864   0.010319  -0.000000   0.000000
    6  P  1  X   -0.007769  -0.008082  -0.232253   0.000000   0.000000
    7  P  1  Y   -0.000000   0.000000   0.000000   0.241082   0.004586
    8  P  1  Z    0.000000   0.000000  -0.000000  -0.000000  -0.000000
    9  P  1  X   -0.023272  -0.013838  -0.780926   0.000000   0.000000
   10  P  1  Y    0.000000   0.000000   0.000000   0.803012   0.014428
   11  P  1  Z    0.000000   0.000000  -0.000000  -0.000000  -0.000000
   12  P  1  X   -0.001140   0.002441  -0.022475   0.000000  -0.000000
   13  P  1  Y    0.000000  -0.000000   0.000000   0.021476   0.000224
   14  P  1  Z    0.000000   0.000000  -0.000000  -0.000000  -0.000000
   15  P  1  X    0.019518  -0.031188  -1.092331   0.000000   0.000000
   16  P  1  Y   -0.000000   0.000000   0.000000   1.101212   0.006980
   17  P  1  Z    0.000000   0.000000  -0.000000  -0.000000  -0.000000
   18  P  1 XX    0.032272   0.055383  -0.091219   0.000000   0.000000
   19  P  1 YY    0.035195   0.059530   0.090839  -0.000000  -0.000000
   20  P  1 ZZ   -0.067466  -0.114913   0.000380  -0.000000   0.000000
   21  P  1 XY   -0.000000  -0.000000  -0.000000  -0.104520  -0.001706
   22  P  1 XZ    0.000000   0.000000  -0.000000  -0.000000  -0.000000
   23  P  1 YZ    0.000000   0.000000  -0.000000  -0.000000  -0.000000
   24  P  1 XX    0.267053   0.712463  -1.161086   0.000000   0.000000
   25  P  1 YY    0.266475   0.747399   1.165502  -0.000000  -0.000000
   26  P  1 ZZ   -0.533528  -1.459862  -0.004416   0.000000   0.000000
   27  P  1 XY    0.000000  -0.000000  -0.000000  -1.353022  -0.015269
   28  P  1 XZ    0.000000   0.000000  -0.000000  -0.000000  -0.000000
   29  P  1 YZ    0.000000   0.000000  -0.000000  -0.000000  -0.000000
   30  P  1 XXX   0.261045   0.131040   0.006775  -0.000000  -0.000000
   31  P  1 YYY  -0.000000   0.000000   0.000000  -0.007025   0.058473
   32  P  1 ZZZ   0.000000   0.000000  -0.000000  -0.000000  -0.000000
   33  P  1 XXY  -0.000000   0.000000   0.000000  -0.001484  -0.078381
   34  P  1 XXZ   0.000000   0.000000  -0.000000  -0.000000  -0.000000
   35  P  1 YYX  -0.350658  -0.178155   0.002857   0.000000   0.000000
   36  P  1 YYZ   0.000000   0.000000  -0.000000  -0.000000  -0.000000
   37  P  1 ZZX   0.000430   0.002346  -0.011946   0.000000  -0.000000
   38  P  1 ZZY   0.000000  -0.000000  -0.000000   0.010910  -0.000069
   39  P  1 XYZ   0.000000   0.000000  -0.000000  -0.000000  -0.000000
   40  P  1 XX   -0.006687   0.019635  -0.036668   0.000000   0.000000
   41  P  1 YY   -0.007149   0.019767   0.036543  -0.000000  -0.000000
   42  P  1 ZZ    0.013836  -0.039403   0.000125   0.000000  -0.000000
   43  P  1 XY    0.000000  -0.000000  -0.000000  -0.041881  -0.000767
   44  P  1 XZ    0.000000   0.000000  -0.000000  -0.000000  -0.000000
   45  P  1 YZ    0.000000   0.000000  -0.000000  -0.000000  -0.000000
   46  H  2  S    0.054107  -0.022590  -0.017214  -0.028735  -0.000347
   47  H  2  S   -0.574200  -1.216155  -0.867604  -1.505353  -0.020261
   48  H  2  S   -1.719216  -0.357608  -0.024513  -0.048144   0.005027
   49  H  2  X    0.002062  -0.005755  -0.006675  -0.001563   0.038271
   50  H  2  Y   -0.003506   0.010164   0.001169   0.007712   0.022229
[...]
      184   -0.022358   -0.022358  -+2+-+0
      159    0.022248   -0.022248  -2++-0+
     1051    0.021003    0.021003  2+++0--

 State #    2  Energy =    -342.180445031

      Det      Coef        Coefp    Occupancy (Ignoring core)
      ---      ----        ----    --------- --------- -----
       36    0.948462    0.948462  22+2000
       16    0.116971   -0.116971  222000+
       71    0.113996   -0.113996  2+22000
      142   -0.112872   -0.112872  22+0200
       39    0.084839    0.084839  2-+2+00
       73   -0.084008    0.084008  2+-2+00
       52   -0.076585    0.076585  220200+
      108    0.057521    0.057521  +2-2+00
      249   -0.057145    0.057145  20+2200
      112    0.054599    0.054599  +2-20+0
      123   -0.054343    0.054343  +-2200+
      463   -0.052566    0.052566  20+2020
       88   -0.045003    0.045003  202200+
      456    0.044187    0.044187  2++20-0
       77   -0.037575    0.037575  2+-20+0
      460    0.035632    0.035632  -++2+-0
       40   -0.031177    0.031177  -2+2+00
      876    0.030407    0.030407  ++2200-
      491   -0.029370    0.029370  +2+20-0
      288    0.028609    0.028609  +-+2-+0
       74    0.028018   -0.028018  2022+00
       38   -0.027933    0.027933  2202+00
      499   -0.027799    0.027799  02+2020
      859   -0.027676    0.027676  02+2002
      494   -0.027476    0.027476  +-+2+-0
      285   -0.027095    0.027095  02+2200
      823   -0.026710    0.026710  20+2002
      281   -0.026345    0.026345  +2+2-00
       44   -0.025229    0.025229  -2+20+0
      254   -0.024969    0.024969  -++2-+0
       89    0.023936    0.023936  -+2200+
      459    0.023398   -0.023398  20+2+-0
      808   -0.023382    0.023382  2+02+0-
      297   -0.023352    0.023352  +202-0+
      253   -0.022939   -0.022939  20+2-+0
      262    0.022629    0.022629  2+02-0+

 State #    3  Energy =    -342.181550997

      Det      Coef        Coefp    Occupancy (Ignoring core)
      ---      ----        ----    --------- --------- -----
       71    0.947756   -0.947756  2+22000
        6   -0.120304    0.120304  22200+0
       36   -0.113872   -0.113872  22+2000
      177   -0.113584    0.113584  2+20200
       74   -0.085405    0.085405  2022+00
       38    0.082238   -0.082238  2202+00
       78    0.076979   -0.076979  20220+0
      109    0.057839   -0.057839  +-22+00
      248   -0.056943    0.056943  2+02200
      113   -0.054401    0.054401  +-220+0
      122   -0.054297   -0.054297  +2-200+
      822   -0.052135    0.052135  2+02002
       42    0.044227   -0.044227  22020+0
      806    0.043048    0.043048  2++200-
       53   -0.036277   -0.036277  2-+200+
      810    0.035428    0.035428  -++2+0-
       75   -0.031455   -0.031455  -+22+00
      526    0.031296    0.031296  ++220-0
      841    0.030475   -0.030475  +2+200-
      332    0.028829   -0.028829  ++-2-0+
       39    0.027823    0.027823  2-+2+00
       73   -0.027800    0.027800  2+-2+00
      534   -0.027721   -0.027721  0+22020
      894   -0.027701   -0.027701  0+22002
      878   -0.027599   -0.027599  ++-2+0-
      320   -0.027064   -0.027064  0+22200
      462   -0.026621    0.026621  2+02020
      316   -0.026385   -0.026385  ++22-00
      264   -0.024815    0.024815  -++2-0+
       54    0.023822   -0.023822  -2+200+
        2    0.023634   -0.023634  2220+00
      458   -0.023555    0.023555  2+02+-0
      809   -0.023264    0.023264  20+2+0-
      323    0.023170   -0.023170  +022-+0
       79    0.023105    0.023105  -+220+0
      252    0.022904    0.022904  2+02-+0
      263    0.022862    0.022862  20+2-0+

 ---------------------------------------
      - DIABATIC STATES IN CMO -        
 ---------------------------------------

 State #    1  Energy =    -342.419358582

      Det      Coef        Coefp    Occupancy (Ignoring core)
      ---      ----        ----    --------- --------- -----
        1    0.977737   -0.977737  222+000
      107   -0.076175    0.076175  +22-+00
      179   -0.055895   -0.055895  202+200
      717   -0.055466   -0.055466  220+002
      393   -0.052687   -0.052687  202+020
        5    0.049881    0.049881  -22++00
      143   -0.049132   -0.049132  220+200
        8    0.037521   -0.037521  2-2+0+0
       17    0.036807    0.036807  22-+00+
      353    0.031505    0.031505  220++-0
       76   -0.031481   -0.031481  2+2-0+0
       51   -0.031321    0.031321  22+-00+
      215   -0.030821   -0.030821  022+200
      389   -0.030499   -0.030499  202++-0
      704    0.029676   -0.029676  2-+++0-
      357   -0.029253   -0.029253  220+020
      147   -0.028787    0.028787  220+-+0
      738   -0.028375   -0.028375  2+-++0-
      227   -0.028369   -0.028369  +2-+-0+
      742    0.028008    0.028008  2+-+0+-
      368    0.027954    0.027954  2-++0-+
      183    0.027849   -0.027849  202+-+0
      218   -0.027709    0.027709  +-2+-+0
      192    0.026981   -0.026981  2+-+-0+
      211    0.026294    0.026294  +22+-00
      753   -0.026087   -0.026087  202+002
      158   -0.025775   -0.025775  2-++-0+
       29   -0.025673   -0.025673  2--+0++
      705   -0.024561   -0.024561  -2+++0-
      773    0.024100   -0.024100  +2-++0-
      390   -0.023753    0.023753  -+2++-0
      429   -0.023685   -0.023685  022+020
      789   -0.023524   -0.023524  022+002
      424    0.023465    0.023465  +-2++-0
      159    0.022668   -0.022668  -2++-0+
      184    0.021954    0.021954  -+2+-+0
     1051   -0.020974   -0.020974  2+++0--

 State #    2  Energy =    -342.180445031

      Det      Coef        Coefp    Occupancy (Ignoring core)
      ---      ----        ----    --------- --------- -----
       36    0.954959    0.954959  22+2000
       16    0.116929   -0.116929  222000+
      142   -0.112418   -0.112418  22+0200
       39    0.089046    0.089046  2-+2+00
       73   -0.086005    0.086005  2+-2+00
       52   -0.076995    0.076995  220200+
      249   -0.060167    0.060167  20+2200
      112   -0.059192   -0.059192  +2-20+0
      123   -0.055891    0.055891  +-2200+
      108    0.055203    0.055203  +2-2+00
      463   -0.050211    0.050211  20+2020
       88   -0.044169    0.044169  202200+
      456   -0.043936   -0.043936  2++20-0
       77    0.042428   -0.042428  2+-20+0
      460   -0.034972   -0.034972  -++2+-0
      491    0.032914   -0.032914  +2+20-0
      876    0.031123    0.031123  ++2200-
       40   -0.030439    0.030439  -2+2+00
      499   -0.028547    0.028547  02+2020
      288   -0.028394   -0.028394  +-+2-+0
      859   -0.027815    0.027815  02+2002
      494    0.027287   -0.027287  +-+2+-0
      823   -0.026989    0.026989  20+2002
      285   -0.026783    0.026783  02+2200
       44    0.026278   -0.026278  -2+20+0
       71   -0.025766    0.025766  2+22000
       89    0.024767    0.024767  -+2200+
      281   -0.024764    0.024764  +2+2-00
      254    0.024328   -0.024328  -++2-+0
      459   -0.023887    0.023887  20+2+-0
      297   -0.023803    0.023803  +202-0+
      253    0.023350    0.023350  20+2-+0
      808   -0.022757    0.022757  2+02+0-
      262    0.022680    0.022680  2+02-0+
      812    0.020328   -0.020328  2+020+-
      843    0.020232    0.020232  +202+0-

 State #    3  Energy =    -342.181550997

      Det      Coef        Coefp    Occupancy (Ignoring core)
      ---      ----        ----    --------- --------- -----
       71    0.954249   -0.954249  2+22000
        6    0.118820   -0.118820  22200+0
      177   -0.115536    0.115536  2+20200
       74   -0.094748    0.094748  2022+00
       38    0.084194   -0.084194  2202+00
       78   -0.072716    0.072716  20220+0
      109    0.060724   -0.060724  +-22+00
      122   -0.055552   -0.055552  +2-200+
      248   -0.054628    0.054628  2+02200
      822   -0.052474    0.052474  2+02002
      113    0.052014   -0.052014  +-220+0
       42   -0.048466    0.048466  22020+0
      806    0.043172    0.043172  2++200-
       53   -0.036492   -0.036492  2-+200+
      810    0.035807    0.035807  -++2+0-
       75   -0.032513   -0.032513  -+22+00
      841    0.030979   -0.030979  +2+200-
        2    0.030217   -0.030217  2220+00
      462   -0.029512    0.029512  2+02020
      332    0.029413   -0.029413  ++-2-0+
      526   -0.029322   -0.029322  ++220-0
      316   -0.028211   -0.028211  ++22-00
      878   -0.028103   -0.028103  ++-2+0-
      894   -0.027884   -0.027884  0+22002
      320   -0.027657   -0.027657  0+22200
      534   -0.027507   -0.027507  0+22020
       36    0.025785    0.025785  22+2000
      458    0.025615   -0.025615  2+02+-0
      264   -0.025178    0.025178  -++2-0+
      252   -0.024930   -0.024930  2+02-+0
       54    0.024573   -0.024573  -2+200+
      323   -0.023309    0.023309  +022-+0
      809   -0.023211    0.023211  20+2+0-
       79   -0.022693   -0.022693  -+220+0
      263    0.022192    0.022192  20+2-0+
      473   -0.020223   -0.020223  20+20-+

 ---------------------------------------
    -DIABATIC STATES IN PROTOTYPES-     
 ---------------------------------------

     STATE:    1
 Group Ref#    Coefficients
     1    1    0.999010
     2    2   -0.000000
     3    3   -0.000000

WEIGHT OF LISTED PROTOTYPES:   99.80%

     STATE:    2
 Group Ref#    Coefficients
     1    1    0.000000
     2    2    0.997562
     3    3    0.000005

WEIGHT OF LISTED PROTOTYPES:   99.51%

     STATE:    3
 Group Ref#    Coefficients
     1    1    0.000000
     2    2    0.000005
     3    3    0.997120

WEIGHT OF LISTED PROTOTYPES:   99.42%

     DIRECT MAX. DIABATIZATION FINISHED    
 CPU     0: STEP CPU TIME=     0.23 TOTAL CPU TIME=         57.5 (      1.0 MIN)
 TOTAL WALL CLOCK TIME=         69.2 SECONDS, CPU UTILIZATION IS    83.07%

DIABATS FOR SPIN-ORBIT CALCULATION ARE READY

TRANSITION DIPOLES BETWEEN ADIABATS (in A.U.):

STATE PAIR      X         Y         Z
    1    1  0.007516 -0.000000  0.000000
    2    1  0.000000  0.000000 -0.008657
    2    2 -0.430622  0.000001 -0.000000
    3    1  0.000000  0.000000  0.000000
    3    2  0.000001  0.413489  0.000000
    3    3  0.432694 -0.000001 -0.000000


TRANSITION DIPOLES BETWEEN DIABATS (in A.U.):

STATE PAIR      X         Y         Z
    1    1  0.007516 -0.000000  0.000000
    2    1 -0.000000 -0.000000 -0.000234
    2    2  0.432065 -0.022313 -0.000000
    3    1 -0.000000 -0.000000  0.008654
    3    2  0.023293  0.412887  0.000000
    3    3 -0.429993  0.022313 -0.000000

TRANSITION DIPOLES BETWEEN DIRECT MAX. DIABATS (in A.U.):

STATE PAIR      X         Y         Z
    1    1  0.007516 -0.000000  0.000000
    2    1 -0.000000 -0.000000 -0.000234
    2    2  0.432065 -0.022313 -0.000000
    3    1 -0.000000 -0.000000  0.008654
    3    2  0.023293  0.412887  0.000000
    3    3 -0.429993  0.022313 -0.000000
 No $TRANST Group Found.
 Quit without doing spin-orbit coupling
 ..... DONE WITH MP2 ENERGY .....
 CPU     0: STEP CPU TIME=     0.01 TOTAL CPU TIME=         57.5 (      1.0 MIN)
 TOTAL WALL CLOCK TIME=         69.2 SECONDS, CPU UTILIZATION IS    83.09%
            100000000  WORDS OF DYNAMIC MEMORY USED
 EXECUTION OF GAMESS TERMINATED NORMALLY Sat Nov 25 23:43:41 2023
 DDI: 4351152 bytes (4.1 MB / 0 MWords) used by master data server.
Note: The following floating-point exceptions are signalling: IEEE_DENORMAL

 ----------------------------------------
 CPU timing information for all processes
 ========================================
 0: 57.141 + 0.347 = 57.489
 1: 56.307 + 0.229 = 56.536
 ----------------------------------------
Note: The following floating-point exceptions are signalling: IEEE_DENORMAL
 ddikick.x: exited gracefully.
unset echo
----- accounting info -----
Files used on the master node io003 were:
-rw-r--r-- 1 bjb2chen nooijen  134243 Nov 25 23:42 /home/bjb2chen/gmsscr//ph3_cct_gmcpt_D3h_3st_diab_mode11_+0.05.F05
-rw-r--r-- 1 bjb2chen nooijen 1106024 Nov 25 23:43 /home/bjb2chen/gmsscr//ph3_cct_gmcpt_D3h_3st_diab_mode11_+0.05.F09
-rw-r--r-- 1 bjb2chen nooijen 1260112 Nov 25 23:43 /home/bjb2chen/gmsscr//ph3_cct_gmcpt_D3h_3st_diab_mode11_+0.05.F09.001
-rw-r--r-- 1 bjb2chen nooijen 2715760 Nov 25 23:43 /home/bjb2chen/gmsscr//ph3_cct_gmcpt_D3h_3st_diab_mode11_+0.05.F10
-rw-r--r-- 1 bjb2chen nooijen  611616 Nov 25 23:43 /home/bjb2chen/gmsscr//ph3_cct_gmcpt_D3h_3st_diab_mode11_+0.05.F13
-rw-r--r-- 1 bjb2chen nooijen  611616 Nov 25 23:43 /home/bjb2chen/gmsscr//ph3_cct_gmcpt_D3h_3st_diab_mode11_+0.05.F13.001
-rw-r--r-- 1 bjb2chen nooijen  180648 Nov 25 23:43 /home/bjb2chen/gmsscr//ph3_cct_gmcpt_D3h_3st_diab_mode11_+0.05.F15
-rw-r--r-- 1 bjb2chen nooijen       0 Nov 25 23:42 /home/bjb2chen/gmsscr//ph3_cct_gmcpt_D3h_3st_diab_mode11_+0.05.F16
-rw-r--r-- 1 bjb2chen nooijen    9808 Nov 25 23:43 /home/bjb2chen/gmsscr//ph3_cct_gmcpt_D3h_3st_diab_mode11_+0.05.F70
-rw-r--r-- 1 bjb2chen nooijen    9808 Nov 25 23:43 /home/bjb2chen/gmsscr//ph3_cct_gmcpt_D3h_3st_diab_mode11_+0.05.F70.001
-rw-r--r-- 1 bjb2chen nooijen    9808 Nov 25 23:43 /home/bjb2chen/gmsscr//ph3_cct_gmcpt_D3h_3st_diab_mode11_+0.05.F71
-rw-r--r-- 1 bjb2chen nooijen    9808 Nov 25 23:43 /home/bjb2chen/gmsscr//ph3_cct_gmcpt_D3h_3st_diab_mode11_+0.05.F71.001
-rw-r--r-- 1 bjb2chen nooijen   19608 Nov 25 23:43 /home/bjb2chen/gmsscr//ph3_cct_gmcpt_D3h_3st_diab_mode11_+0.05.F72
-rw-r--r-- 1 bjb2chen nooijen   19608 Nov 25 23:43 /home/bjb2chen/gmsscr//ph3_cct_gmcpt_D3h_3st_diab_mode11_+0.05.F72.001
-rw-r--r-- 1 bjb2chen nooijen   19608 Nov 25 23:43 /home/bjb2chen/gmsscr//ph3_cct_gmcpt_D3h_3st_diab_mode11_+0.05.F73
-rw-r--r-- 1 bjb2chen nooijen   19608 Nov 25 23:43 /home/bjb2chen/gmsscr//ph3_cct_gmcpt_D3h_3st_diab_mode11_+0.05.F73.001
-rw-r--r-- 1 bjb2chen nooijen  961208 Nov 25 23:43 /home/bjb2chen/gmsscr//ph3_cct_gmcpt_D3h_3st_diab_mode11_+0.05.F74
-rw-r--r-- 1 bjb2chen nooijen  959640 Nov 25 23:43 /home/bjb2chen/gmsscr//ph3_cct_gmcpt_D3h_3st_diab_mode11_+0.05.F74.001
-rw-r--r-- 1 bjb2chen nooijen       0 Nov 25 23:42 /home/bjb2chen/gmsscr//ph3_cct_gmcpt_D3h_3st_diab_mode11_+0.05.F75
-rw-r--r-- 1 bjb2chen nooijen       0 Nov 25 23:42 /home/bjb2chen/gmsscr//ph3_cct_gmcpt_D3h_3st_diab_mode11_+0.05.F75.001
-rw-r--r-- 1 bjb2chen nooijen   58848 Nov 25 23:43 /home/bjb2chen/gmsscr//ph3_cct_gmcpt_D3h_3st_diab_mode11_+0.05.F76
-rw-r--r-- 1 bjb2chen nooijen   58848 Nov 25 23:43 /home/bjb2chen/gmsscr//ph3_cct_gmcpt_D3h_3st_diab_mode11_+0.05.F76.001
-rw-r--r-- 1 bjb2chen nooijen       0 Nov 25 23:42 /home/bjb2chen/gmsscr//ph3_cct_gmcpt_D3h_3st_diab_mode11_+0.05.F77
-rw-r--r-- 1 bjb2chen nooijen       0 Nov 25 23:42 /home/bjb2chen/gmsscr//ph3_cct_gmcpt_D3h_3st_diab_mode11_+0.05.F77.001
-rw-r--r-- 1 bjb2chen nooijen    5128 Nov 25 23:43 /home/bjb2chen/gmsscr//ph3_cct_gmcpt_D3h_3st_diab_mode11_+0.05.F78
-rw-r--r-- 1 bjb2chen nooijen    5128 Nov 25 23:43 /home/bjb2chen/gmsscr//ph3_cct_gmcpt_D3h_3st_diab_mode11_+0.05.F78.001
-rw-r--r-- 1 bjb2chen nooijen   39208 Nov 25 23:43 /home/bjb2chen/gmsscr//ph3_cct_gmcpt_D3h_3st_diab_mode11_+0.05.F79
-rw-r--r-- 1 bjb2chen nooijen   39208 Nov 25 23:43 /home/bjb2chen/gmsscr//ph3_cct_gmcpt_D3h_3st_diab_mode11_+0.05.F79.001
-rw-r--r-- 1 bjb2chen nooijen     104 Nov 25 23:43 /home/bjb2chen/gmsscr//ph3_cct_gmcpt_D3h_3st_diab_mode11_+0.05.F80
-rw-r--r-- 1 bjb2chen nooijen     104 Nov 25 23:43 /home/bjb2chen/gmsscr//ph3_cct_gmcpt_D3h_3st_diab_mode11_+0.05.F80.001
-rw-r--r-- 1 bjb2chen nooijen  102416 Nov 25 23:43 /home/bjb2chen/gmsscr//ph3_cct_gmcpt_D3h_3st_diab_mode11_+0.05.F81
-rw-r--r-- 1 bjb2chen nooijen  102416 Nov 25 23:43 /home/bjb2chen/gmsscr//ph3_cct_gmcpt_D3h_3st_diab_mode11_+0.05.F81.001
-rw-r--r-- 1 bjb2chen nooijen     136 Nov 25 23:43 /home/bjb2chen/gmsscr//ph3_cct_gmcpt_D3h_3st_diab_mode11_+0.05.F82
-rw-r--r-- 1 bjb2chen nooijen     136 Nov 25 23:43 /home/bjb2chen/gmsscr//ph3_cct_gmcpt_D3h_3st_diab_mode11_+0.05.F82.001
-rw-r--r-- 1 bjb2chen nooijen   19216 Nov 25 23:43 /home/bjb2chen/gmsscr//ph3_cct_gmcpt_D3h_3st_diab_mode11_+0.05.F83
-rw-r--r-- 1 bjb2chen nooijen   19216 Nov 25 23:43 /home/bjb2chen/gmsscr//ph3_cct_gmcpt_D3h_3st_diab_mode11_+0.05.F83.001
-rw-r--r-- 1 bjb2chen nooijen  154896 Nov 25 23:43 /home/bjb2chen/gmsscr//ph3_cct_gmcpt_D3h_3st_diab_mode11_+0.05.F84
-rw-r--r-- 1 bjb2chen nooijen  154896 Nov 25 23:43 /home/bjb2chen/gmsscr//ph3_cct_gmcpt_D3h_3st_diab_mode11_+0.05.F84.001
-rw-r--r-- 1 bjb2chen nooijen  842728 Nov 25 23:43 /home/bjb2chen/gmsscr//ph3_cct_gmcpt_D3h_3st_diab_mode11_+0.05.F85
-rw-r--r-- 1 bjb2chen nooijen  842728 Nov 25 23:43 /home/bjb2chen/gmsscr//ph3_cct_gmcpt_D3h_3st_diab_mode11_+0.05.F85.001
-rw-r--r-- 1 bjb2chen nooijen 3332344 Nov 25 23:43 /home/bjb2chen/gmsscr//ph3_cct_gmcpt_D3h_3st_diab_mode11_+0.05.F86
-rw-r--r-- 1 bjb2chen nooijen 3028632 Nov 25 23:43 /home/bjb2chen/gmsscr//ph3_cct_gmcpt_D3h_3st_diab_mode11_+0.05.F86.001
-rw-r--r-- 1 bjb2chen nooijen     656 Nov 25 23:43 /home/bjb2chen/gmsscr//ph3_cct_gmcpt_D3h_3st_diab_mode11_+0.05.F87
-rw-r--r-- 1 bjb2chen nooijen     656 Nov 25 23:43 /home/bjb2chen/gmsscr//ph3_cct_gmcpt_D3h_3st_diab_mode11_+0.05.F87.001
-rw-r--r-- 1 bjb2chen nooijen   16784 Nov 25 23:43 /home/bjb2chen/gmsscr//ph3_cct_gmcpt_D3h_3st_diab_mode11_+0.05.F88
-rw-r--r-- 1 bjb2chen nooijen   16784 Nov 25 23:43 /home/bjb2chen/gmsscr//ph3_cct_gmcpt_D3h_3st_diab_mode11_+0.05.F88.001
-rw-r--r-- 1 bjb2chen nooijen     648 Nov 25 23:43 /home/bjb2chen/gmsscr//ph3_cct_gmcpt_D3h_3st_diab_mode11_+0.05.F89
-rw-r--r-- 1 bjb2chen nooijen     648 Nov 25 23:43 /home/bjb2chen/gmsscr//ph3_cct_gmcpt_D3h_3st_diab_mode11_+0.05.F89.001
-rw-r--r-- 1 bjb2chen nooijen       0 Nov 25 23:42 /home/bjb2chen/gmsscr//ph3_cct_gmcpt_D3h_3st_diab_mode11_+0.05.F90
-rw-r--r-- 1 bjb2chen nooijen       0 Nov 25 23:42 /home/bjb2chen/gmsscr//ph3_cct_gmcpt_D3h_3st_diab_mode11_+0.05.F90.001
-rw-r--r-- 1 bjb2chen nooijen   13760 Nov 25 23:43 /home/bjb2chen/gmsscr//ph3_cct_gmcpt_D3h_3st_diab_mode11_+0.05.F91
-rw-r--r-- 1 bjb2chen nooijen   13760 Nov 25 23:43 /home/bjb2chen/gmsscr//ph3_cct_gmcpt_D3h_3st_diab_mode11_+0.05.F91.001
-rw-r--r-- 1 bjb2chen nooijen   22776 Nov 25 23:43 /home/bjb2chen/gmsscr//ph3_cct_gmcpt_D3h_3st_diab_mode11_+0.05.F92
-rw-r--r-- 1 bjb2chen nooijen   22776 Nov 25 23:43 /home/bjb2chen/gmsscr//ph3_cct_gmcpt_D3h_3st_diab_mode11_+0.05.F92.001
-rw-r--r-- 1 bjb2chen nooijen   23168 Nov 25 23:43 /home/bjb2chen/gmsscr//ph3_cct_gmcpt_D3h_3st_diab_mode11_+0.05.F93
-rw-r--r-- 1 bjb2chen nooijen   23168 Nov 25 23:43 /home/bjb2chen/gmsscr//ph3_cct_gmcpt_D3h_3st_diab_mode11_+0.05.F93.001
-rw-r--r-- 1 bjb2chen nooijen   22776 Nov 25 23:43 /home/bjb2chen/gmsscr//ph3_cct_gmcpt_D3h_3st_diab_mode11_+0.05.F94
-rw-r--r-- 1 bjb2chen nooijen   22776 Nov 25 23:43 /home/bjb2chen/gmsscr//ph3_cct_gmcpt_D3h_3st_diab_mode11_+0.05.F94.001
-rw-r--r-- 1 bjb2chen nooijen   13760 Nov 25 23:43 /home/bjb2chen/gmsscr//ph3_cct_gmcpt_D3h_3st_diab_mode11_+0.05.F95
-rw-r--r-- 1 bjb2chen nooijen   13760 Nov 25 23:43 /home/bjb2chen/gmsscr//ph3_cct_gmcpt_D3h_3st_diab_mode11_+0.05.F95.001
-rw-r--r-- 1 bjb2chen nooijen   29440 Nov 25 23:43 /home/bjb2chen/gmsscr//ph3_cct_gmcpt_D3h_3st_diab_mode11_+0.05.F96
-rw-r--r-- 1 bjb2chen nooijen   29440 Nov 25 23:43 /home/bjb2chen/gmsscr//ph3_cct_gmcpt_D3h_3st_diab_mode11_+0.05.F96.001
-rw-r--r-- 1 bjb2chen nooijen    1184 Nov 25 23:43 /home/bjb2chen/gmsscr//ph3_cct_gmcpt_D3h_3st_diab_mode11_+0.05.F97
-rw-r--r-- 1 bjb2chen nooijen    1184 Nov 25 23:43 /home/bjb2chen/gmsscr//ph3_cct_gmcpt_D3h_3st_diab_mode11_+0.05.F97.001
-rw-r--r-- 1 bjb2chen nooijen    9808 Nov 25 23:43 /home/bjb2chen/gmsscr//ph3_cct_gmcpt_D3h_3st_diab_mode11_+0.05.F98
-rw-r--r-- 1 bjb2chen nooijen    9808 Nov 25 23:43 /home/bjb2chen/gmsscr//ph3_cct_gmcpt_D3h_3st_diab_mode11_+0.05.F98.001
-rw-r--r-- 1 bjb2chen nooijen   30264 Nov 25 23:43 /home/bjb2chen/gmsscr//ph3_cct_gmcpt_D3h_3st_diab_mode11_+0.05.F99
-rw-r--r-- 1 bjb2chen nooijen   30264 Nov 25 23:43 /home/bjb2chen/gmsscr//ph3_cct_gmcpt_D3h_3st_diab_mode11_+0.05.F99.001
ls: No match.
ls: No match.
ls: No match.
Sat 25 Nov 2023 11:43:44 PM EST
0.331u 0.058s 1:12.75 0.5%	0+0k 264+472io 0pf+0w
