----- GAMESS execution script 'rungms' -----
This job is running on host io003
under operating system Linux at Thu 25 Jan 2024 04:55:44 PM EST
Available scratch disk space (Kbyte units) at beginning of the job is
Filesystem             1K-blocks       Used Available Use% Mounted on
helmholtz.nlogn:/home 6391504896 5248410624 820956160  87% /home
GAMESS temporary binary files will be written to /home/bjb2chen/gmsscr/
GAMESS supplementary output files will be written to /home/bjb2chen/gamess/vibronics/template_examples/H2O
Copying input file H2Ocat_ccd_rohf_C2v_mp2_gh.inp to your run's scratch directory...
cp H2Ocat_ccd_rohf_C2v_mp2_gh.inp /home/bjb2chen/gmsscr//H2Ocat_ccd_rohf_C2v_mp2_gh.F05
unset echo
 
Assuming a single but multicore node.
 
/home/bjb2chen/gamess/ddikick.x /home/bjb2chen/gamess/gamess.00.x H2Ocat_ccd_rohf_C2v_mp2_gh -ddi 1 12 io003:cpus=12 -scr /home/bjb2chen/gmsscr/

 Distributed Data Interface kickoff program.
 Initiating 12 compute processes on 1 nodes to run the following command:
 /home/bjb2chen/gamess/gamess.00.x H2Ocat_ccd_rohf_C2v_mp2_gh 

          ******************************************************
          *         GAMESS VERSION = 02 AUG 2018 (R2)         *
          *             FROM IOWA STATE UNIVERSITY             *
          * M.W.SCHMIDT, K.K.BALDRIDGE, J.A.BOATZ, S.T.ELBERT, *
          *   M.S.GORDON, J.H.JENSEN, S.KOSEKI, N.MATSUNAGA,   *
          *          K.A.NGUYEN, S.J.SU, T.L.WINDUS,           *
          *       TOGETHER WITH M.DUPUIS, J.A.MONTGOMERY       *
          *         J.COMPUT.CHEM.  14, 1347-1363(1993)        *
          **************** 64 BIT LINUX VERSION ****************

  SINCE 1993, STUDENTS AND POSTDOCS WORKING AT IOWA STATE UNIVERSITY
  AND ALSO IN THEIR VARIOUS JOBS AFTER LEAVING ISU HAVE MADE IMPORTANT
  CONTRIBUTIONS TO THE CODE:
     IVANA ADAMOVIC, CHRISTINE AIKENS, YURI ALEXEEV, POOJA ARORA,
     ANDREY ASADCHEV, ROB BELL, PRADIPTA BANDYOPADHYAY, JONATHAN BENTZ,
     BRETT BODE, KURT BRORSEN, CALEB CARLIN, GALINA CHABAN, WEI CHEN,
     CHEOL HO CHOI, PAUL DAY, ALBERT DEFUSCO, NUWAN DESILVA, TIM DUDLEY,
     DMITRI FEDOROV, ALEX FINDLATER, GRAHAM FLETCHER, MARK FREITAG,
     KURT GLAESEMANN, ANASTASIA GUININA,
     DAN KEMP, GRANT MERRILL, NORIYUKI MINEZAWA, JONATHAN MULLIN,
     TAKESHI NAGATA, SEAN NEDD, HEATHER NETZLOFF, BOSILJKA NJEGIC, RYAN OLSON,
     MIKE PAK, BUU PHAM,
     SPENCER PRUITT, LUKE ROSKOP, JIM SHOEMAKER, LYUDMILA SLIPCHENKO,
     TONY SMITH, SAROM SOK LEANG, JIE SONG, TETSUYA TAKETSUGU, SIMON WEBB,
     PENG XU, SOOHAENG YOO, FEDERICO ZAHARIEV

  ADDITIONAL CODE HAS BEEN PROVIDED BY COLLABORATORS IN OTHER GROUPS:
     IOWA STATE UNIVERSITY:
          JOE IVANIC, AARON WEST, LAIMUTIS BYTAUTAS, KLAUS RUEDENBERG
     UNIVERSITY OF TOKYO: KIMIHIKO HIRAO, TAKAHITO NAKAJIMA,
          TAKAO TSUNEDA, MUNEAKI KAMIYA, SUSUMU YANAGISAWA,
          KIYOSHI YAGI, MAHITO CHIBA, SEIKEN TOKURA, NAOAKI KAWAKAMI
     UNIVERSITY OF AARHUS: FRANK JENSEN
     UNIVERSITY OF IOWA: VISVALDAS KAIRYS, HUI LI
     NATIONAL INST. OF STANDARDS AND TECHNOLOGY: WALT STEVENS, DAVID GARMER
     UNIVERSITY OF PISA: BENEDETTA MENNUCCI, JACOPO TOMASI
     UNIVERSITY OF MEMPHIS: HENRY KURTZ, PRAKASHAN KORAMBATH
     UNIVERSITY OF ALBERTA: TOBY ZENG, MARIUSZ KLOBUKOWSKI
     UNIVERSITY OF NEW ENGLAND: MARK SPACKMAN
     MIE UNIVERSITY: HIROAKI UMEDA
     NAT. INST. OF ADVANCED INDUSTRIAL SCIENCE AND TECHNOLOGY: KAZUO KITAURA
     MICHIGAN STATE UNIVERSITY:
          KAROL KOWALSKI, MARTA WLOCH, JEFFREY GOUR, JESSE LUTZ,
          WEI LI, JUN SHEN, J. EMILIANO DEUSTUA, PIOTR PIECUCH
     UNIVERSITY OF MINNESOTA:
          YINAN SHU
     UNIVERSITY OF SILESIA: MONIKA MUSIAL, STANISLAW KUCHARSKI
     FACULTES UNIVERSITAIRES NOTRE-DAME DE LA PAIX:
          OLIVIER QUINET, BENOIT CHAMPAGNE
     UNIVERSITY OF CALIFORNIA - SANTA BARBARA: BERNARD KIRTMAN
     INSTITUTE FOR MOLECULAR SCIENCE:
          KAZUYA ISHIMURA, MICHIO KATOUDA, AND SHIGERU NAGASE
     UNIVERSITY OF NOTRE DAME: ANNA POMOGAEVA, DAN CHIPMAN
     KYUSHU UNIVERSITY:
          HARUYUKI NAKANO,
          FENG LONG GU, JACEK KORCHOWIEC, MARCIN MAKOWSKI, AND YURIKO AOKI,
          HIROTOSHI MORI AND EISAKU MIYOSHI
     PENNSYLVANIA STATE UNIVERSITY:
          TZVETELIN IORDANOV, CHET SWALINA, JONATHAN SKONE,
          SHARON HAMMES-SCHIFFER
     WASEDA UNIVERSITY:
          MASATO KOBAYASHI, TOMOKO AKAMA, TSUGUKI TOUMA,
          TAKESHI YOSHIKAWA, YASUHIRO IKABATA, JUNJI SEINO,
          YUYA NAKAJIMA, HIROMI NAKAI
     NANJING UNIVERSITY: SHUHUA LI
     UNIVERSITY OF NEBRASKA:
          PEIFENG SU, DEJUN SI, NANDUN THELLAMUREGE, YALI WANG, HUI LI
     UNIVERSITY OF ZURICH: ROBERTO PEVERATI, KIM BALDRIDGE
     N. COPERNICUS UNIVERSITY AND JACKSON STATE UNIVERSITY:
          MARIA BARYSZ
     UNIVERSITY OF COPENHAGEN: Jimmy Kromann, CASPER STEINMANN
     TOKYO INSTITUTE OF TECHNOLOGY: HIROYA NAKATA
     NAGOYA UNIVERSITY: YOSHIO NISHIMOTO, STEPHAN IRLE
     MOSCOW STATE UNIVERSITY: VLADIMIR MIRONOV


 PARALLEL VERSION RUNNING ON       12 PROCESSORS IN        1 NODES.

 EXECUTION OF GAMESS BEGUN Thu Jan 25 16:55:44 2024

            ECHO OF THE FIRST FEW INPUT CARDS -
 INPUT CARD> !############################################################################# 
 INPUT CARD> !                   D_3h RHF GEOMETRY OPTIMIZATION AND HESSIAN TEMPLATE        
 INPUT CARD> ! ---------------------------------------------------------------------------  
 INPUT CARD> ! Replace the symmetry-correct coordinates, should only be two atoms.          
 INPUT CARD> ! The hydrogen or fluorine should have only one non-zero x,y,z coordinate.     
 INPUT CARD> !                                                                              
 INPUT CARD> ! Basis set?   gbasis=ccd for 2nd row,                                         
 INPUT CARD> !                         cct 3rd/4th,                                         
 INPUT CARD> !                   SPKrTZP for heavy,                                         
 INPUT CARD> !                   SPKrTZC beyond 4th                                         
 INPUT CARD> !                                                                              
 INPUT CARD> !############################################################################# 
 INPUT CARD> $system kdiag=3 mwords=250 memddi=8000 parall=.t. $end                         
 INPUT CARD> $contrl runtyp=optimize ispher=1 $end                                          
 INPUT CARD> $contrl icut=9 itol=20 inttyp=rysquad qmttol=1.0d-05 nosym=0 $end              
 INPUT CARD> $contrl scftyp=rohf  mult=2 maxit=200 icharg=1 mplevl=2 $end                   
 INPUT CARD> $scf    npunch=2 conv=1.0d-06 dirscf=.t. $end                                  
 INPUT CARD> $force  method=seminum $end                                                    
 INPUT CARD> $trans  dirtrf=.t. $end                                                        
 INPUT CARD> $statpt hssend=.t. $end                                                        
 INPUT CARD> $basis  gbasis=ccd $end                                                        
 INPUT CARD> !############################################################################# 
 INPUT CARD> !                                                                              
 INPUT CARD> !                       TURN ON THIS SECTION IF HEAVY ATOM                     
 INPUT CARD> !                                                                              
 INPUT CARD> !############################################################################# 
 INPUT CARD> !                                                                              
 INPUT CARD> -contrl relwfn=LUT-IOTC $end                                                   
 INPUT CARD> -scf  diis=.t. soscf=.f. ethrsh=10.0 $end                                      
 INPUT CARD> -guess iorder(25)=27,25,26 $end                                                
 INPUT CARD> -gmcpt nsolut=100 $end                                                         
 INPUT CARD> !                                                                              
 INPUT CARD> !############################################################################# 
 INPUT CARD> !                                                                              
 INPUT CARD> !       TURN ON THIS SECTION IF GMCPT, CHANGE runtyp=energy, scftyp=mcscf      
 INPUT CARD> !                                                                              
 INPUT CARD> !############################################################################# 
 INPUT CARD> -guess  guess=moread norb=158 purify=.t. norder=1 $end                         
 INPUT CARD> -mcscf  cistep=gmcci fullnr=.t. finci=mos                                      
 INPUT CARD>         acurcy=1.d-6 maxit=100 $end                                            
 INPUT CARD> -mrmp   mrpt=gmcpt rdvecs=.f. $end                                             
 INPUT CARD> -gmcpt  nmofzc=27 nmodoc=0 nmoact=5 nelact=5 stsym(1)=A                        
 INPUT CARD>         reftyp=ormas nspace=1 mstart(1)=28 mine(1)=5 maxe(1)=5                 
 INPUT CARD>         kstate(1)=1                                                            
 INPUT CARD>         wstate(1)=1                                                            
 INPUT CARD>         iwgt=0 thrwgt=-1.0 krot=.f. kszdoe=.f. knospn=.f.                      
 INPUT CARD>         thrde=-1.0 edshft=0.02 $end                                            
 INPUT CARD> !if SOC: transt $end, add knospn=.t.                                           
 INPUT CARD> !############################################################################# 
 INPUT CARD> !                                                                              
  250000000 WORDS OF MEMORY AVAILABLE

     BASIS OPTIONS
     -------------
     GBASIS=CCD          IGAUSS=       0      POLAR=NONE    
     NDFUNC=       0     NFFUNC=       0     DIFFSP=       F
     NPFUNC=       0      DIFFS=       F     BASNAM=        


     RUN TITLE
     ---------
  H2O geometry optmization                                                       

 THE POINT GROUP OF THE MOLECULE IS CNV     
 THE ORDER OF THE PRINCIPAL AXIS IS     2

 ATOM      ATOMIC                      COORDINATES (BOHR)
           CHARGE         X                   Y                   Z
 O           8.0     0.0000000000        0.0000000000       -0.1342801303
 H           1.0     1.6972503472       -0.0000000000        1.0658569521
 H           1.0    -1.6972503472        0.0000000000        1.0658569521

          INTERNUCLEAR DISTANCES (ANGS.)
          ------------------------------

                1 O          2 H          3 H     

   1 O       0.0000000    1.1000000 *  1.1000000 *
   2 H       1.1000000 *  0.0000000    1.7962925 *
   3 H       1.1000000 *  1.7962925 *  0.0000000  

  * ... LESS THAN  3.000


     ATOMIC BASIS SET
     ----------------
 THE CONTRACTED PRIMITIVE FUNCTIONS HAVE BEEN UNNORMALIZED
 THE CONTRACTED BASIS FUNCTIONS ARE NOW NORMALIZED TO UNITY

  SHELL TYPE  PRIMITIVE        EXPONENT          CONTRACTION COEFFICIENT(S)

 O         

      1   S       1         11720.0000000    0.000709645947
      1   S       2          1759.0000000    0.005467272292
      1   S       3           400.8000000    0.027823118610
      1   S       4           113.7000000    0.104747739711
      1   S       5            37.0300000    0.282920846357
      1   S       6            13.2700000    0.448495238698
      1   S       7             5.0250000    0.270816885213
      1   S       8             1.0130000    0.015450291607

      2   S       9         11720.0000000   -0.000314443412
      2   S      10          1759.0000000   -0.002482137681
      2   S      11           400.8000000   -0.012316355382
      2   S      12           113.7000000   -0.050538917344
      2   S      13            37.0300000   -0.139384903316
      2   S      14            13.2700000   -0.325077494818
      2   S      15             5.0250000   -0.229848307588
      2   S      16             1.0130000    1.095379346788

      3   S      17             0.3023000    1.000000000000

      4   P      18            17.7000000    0.062679166282
      4   P      19             3.8540000    0.333536565879
      4   P      20             1.0460000    0.741239641640

      5   P      21             0.2753000    1.000000000000

      6   D      22             1.1850000    1.000000000000

 H         

     10   S      23            13.0100000    0.033498726390
     10   S      24             1.9620000    0.234800801174
     10   S      25             0.4446000    0.813682957883

     11   S      26             0.1220000    1.000000000000

     12   P      27             0.7270000    1.000000000000

 TOTAL NUMBER OF BASIS SET SHELLS             =   12
 NUMBER OF CARTESIAN GAUSSIAN BASIS FUNCTIONS =   25
 NOTE: THIS RUN WILL RESTRICT THE MO VARIATION SPACE TO SPHERICAL HARMONICS.
 THE NUMBER OF ORBITALS KEPT IN THE VARIATIONAL SPACE WILL BE PRINTED LATER.
 NUMBER OF ELECTRONS                          =    9
 CHARGE OF MOLECULE                           =    1
 SPIN MULTIPLICITY                            =    2
 NUMBER OF OCCUPIED ORBITALS (ALPHA)          =    5
 NUMBER OF OCCUPIED ORBITALS (BETA )          =    4
 TOTAL NUMBER OF ATOMS                        =    3
 THE NUCLEAR REPULSION ENERGY IS        7.9917178112

     $CONTRL OPTIONS
     ---------------
 SCFTYP=ROHF         RUNTYP=OPTIMIZE     EXETYP=RUN     
 MPLEVL=       2     CITYP =NONE         CCTYP =NONE         VBTYP =NONE    
 DFTTYP=NONE         TDDFT =NONE    
 MULT  =       2     ICHARG=       1     NZVAR =       0     COORD =UNIQUE  
 PP    =NONE         RELWFN=NONE         LOCAL =NONE         NUMGRD=       F
 ISPHER=       1     NOSYM =       0     MAXIT =     200     UNITS =ANGS    
 PLTORB=       F     MOLPLT=       F     AIMPAC=       F     FRIEND=        
 NPRINT=       7     IREST =       0     GEOM  =INPUT   
 NORMF =       0     NORMP =       0     ITOL  =      20     ICUT  =       9
 INTTYP=RYSQUAD      GRDTYP=BEST         QMTTOL= 1.0E-05

     $SYSTEM OPTIONS
     ---------------
  REPLICATED MEMORY=   250000000 WORDS (ON EVERY NODE).
 DISTRIBUTED MEMDDI=        8000 MILLION WORDS IN AGGREGATE,
 MEMDDI DISTRIBUTED OVER  12 PROCESSORS IS   666666666 WORDS/PROCESSOR.
 TOTAL MEMORY REQUESTED ON EACH PROCESSOR=   916666666 WORDS.
 TIMLIM=      525600.00 MINUTES, OR     365.0 DAYS.
 PARALL= T  BALTYP=  DLB     KDIAG=    3  COREFL= F
 MXSEQ2=     300 MXSEQ3=     150  mem10=         0

          ----------------
          PROPERTIES INPUT
          ----------------

     MOMENTS            FIELD           POTENTIAL          DENSITY
 IEMOM =       1   IEFLD =       0   IEPOT =       0   IEDEN =       0
 WHERE =COMASS     WHERE =NUCLEI     WHERE =NUCLEI     WHERE =NUCLEI  
 OUTPUT=BOTH       OUTPUT=BOTH       OUTPUT=BOTH       OUTPUT=BOTH    
 IEMINT=       0   IEFINT=       0                     IEDINT=       0
                                                       MORB  =       0
          EXTRAPOLATION IN EFFECT
          SOSCF IN EFFECT
 ORBITAL PRINTING OPTION: NPREO=     1    25     2     1

     -------------------------------
     INTEGRAL TRANSFORMATION OPTIONS
     -------------------------------
     NWORD  =            0
     CUTOFF = 1.0E-09     MPTRAN =       0
     DIRTRF =       T     AOINTS =DUP     

          ----------------------
          INTEGRAL INPUT OPTIONS
          ----------------------
 NOPK  =       1 NORDER=       0 SCHWRZ=       T

          -----------------------
          MP2 CONTROL INFORMATION
          -----------------------
          NACORE =        1  NBCORE =        1
          LMOMP2 =        F  AOINTS = DUP     
          METHOD =        2  NWORD  =               0
          MP2PRP =        F  OSPT   = ZAPT    
          CUTOFF = 1.00E-09  CPHFBS = BASISAO 
          CODE   = DDI     

          NUMBER OF CORE -A-  ORBITALS =     1
          NUMBER OF CORE -B-  ORBITALS =     1
          NUMBER OF OCC. -A-  ORBITALS =     5
          NUMBER OF OCC. -B-  ORBITALS =     4
          NUMBER OF MOLECULAR ORBITALS =    25
          NUMBER OF   BASIS  FUNCTIONS =    25


     ------------------------------------------
     THE POINT GROUP IS CNV, NAXIS= 2, ORDER= 4
     ------------------------------------------

 -- VARIATIONAL SPACE WILL BE RESTRICTED TO PURE SPHERICAL HARMONICS ONLY --
 AFTER EXCLUDING CONTAMINANT COMBINATIONS FROM THE CARTESIAN GAUSSIAN BASIS
 SET, THE NUMBER OF SPHERICAL HARMONICS KEPT IN THE VARIATION SPACE IS   24

     DIMENSIONS OF THE SYMMETRY SUBSPACES ARE
 A1  =   11     A2  =    2     B1  =    7     B2  =    4

 ..... DONE SETTING UP THE RUN .....
 CPU     0: STEP CPU TIME=     0.04 TOTAL CPU TIME=          0.0 (      0.0 MIN)
 TOTAL WALL CLOCK TIME=          0.1 SECONDS, CPU UTILIZATION IS    66.67%


          -----------------------------
          STATIONARY POINT LOCATION RUN
          -----------------------------

 OBTAINING INITIAL HESSIAN, HESS=GUESS   
 CARTESIAN COORDINATE OPTIMIZATION USING BADGER'S RULE FORCE CONSTANT GUESS

          PARAMETERS CONTROLLING GEOMETRY SEARCH ARE
          METHOD =QA                  UPHESS =BFGS    
          NNEG   =         0          NFRZ   =         0
          NSTEP  =        50          IFOLOW =         1
          HESS   =GUESS               RESTAR =         F
          IHREP  =         0          HSSEND =         T
          NPRT   =         0          NPUN   =         0
          OPTTOL = 1.000E-04          RMIN   = 1.500E-03
          RMAX   = 1.000E-01          RLIM   = 7.000E-02
          DXMAX  = 3.000E-01          PURIFY =         F
          MOVIE  =         F          TRUPD  =         T
          TRMAX  = 5.000E-01          TRMIN  = 5.000E-02
          ITBMAT =         5          STPT   =         F
          STSTEP = 1.000E-02          PROJCT=          T

 BEGINNING GEOMETRY SEARCH POINT NSERCH=   0 ...

 COORDINATES OF SYMMETRY UNIQUE ATOMS (ANGS)
   ATOM   CHARGE       X              Y              Z
 ------------------------------------------------------------
 O           8.0   0.0000000000   0.0000000000  -0.0710579900
 H           1.0  -0.8981462700   0.0000000000   0.5640272500
 COORDINATES OF ALL ATOMS ARE (ANGS)
   ATOM   CHARGE       X              Y              Z
 ------------------------------------------------------------
 O           8.0   0.0000000000   0.0000000000  -0.0710579900
 H           1.0   0.8981462700  -0.0000000000   0.5640272500
 H           1.0  -0.8981462700   0.0000000000   0.5640272500

          ********************
          1 ELECTRON INTEGRALS
          ********************
 ...... END OF ONE-ELECTRON INTEGRALS ......
 CPU     0: STEP CPU TIME=     0.00 TOTAL CPU TIME=          0.0 (      0.0 MIN)
 TOTAL WALL CLOCK TIME=          0.1 SECONDS, CPU UTILIZATION IS    57.14%

          -------------
          GUESS OPTIONS
          -------------
          GUESS =HUCKEL            NORB  =       0          NORDER=       0
          MIX   =       F          PRTMO =       F          PUNMO =       F
          TOLZ  = 1.0E-08          TOLE  = 1.0E-05
          SYMDEN=       F          PURIFY=       F

 INITIAL GUESS ORBITALS GENERATED BY HUCKEL   ROUTINE.
 HUCKEL GUESS REQUIRES      7030 WORDS.

 STATISTICS FOR GENERATION OF SYMMETRY ORBITAL -Q- MATRIX
 NUMBER OF CARTESIAN ATOMIC ORBITALS=         25
 NUMBER OF SPHERICAL CONTAMINANTS DROPPED=     1
 NUMBER OF LINEARLY DEPENDENT MOS DROPPED=     0
 TOTAL NUMBER OF MOS IN VARIATION SPACE=      24

 SYMMETRIES FOR INITIAL GUESS ORBITALS FOLLOW.  ALPHA SET(S).
     5 ORBITALS ARE OCCUPIED (    1 CORE ORBITALS).
     2=A1       3=B1       4=A1       5=B2       6=B1       7=A1       8=A1  
     9=A1      10=A1      11=A1      12=A1      13=A1      14=A1      15=A2  

 SYMMETRIES FOR INITIAL GUESS ORBITALS FOLLOW.   BETA SET(S).
     4 ORBITALS ARE OCCUPIED (    1 CORE ORBITALS).
     2=A1       3=B1       4=A1       5=B2       6=B1       7=A1       8=A1  
     9=A1      10=A1      11=A1      12=A1      13=A1      14=A1  
 ...... END OF INITIAL ORBITAL SELECTION ......
 CPU     0: STEP CPU TIME=     0.01 TOTAL CPU TIME=          0.0 (      0.0 MIN)
 TOTAL WALL CLOCK TIME=          0.1 SECONDS, CPU UTILIZATION IS    62.50%

                    ----------------------
                    AO INTEGRAL TECHNOLOGY
                    ----------------------
     S,P,L SHELL ROTATED AXIS INTEGRALS, REPROGRAMMED BY
        KAZUYA ISHIMURA (IMS) AND JOSE SIERRA (SYNSTAR).
     S,P,D,L SHELL ROTATED AXIS INTEGRALS PROGRAMMED BY
        KAZUYA ISHIMURA (INSTITUTE FOR MOLECULAR SCIENCE).
     S,P,D,F,G SHELL TO TOTAL QUARTET ANGULAR MOMENTUM SUM 5,
        ERIC PROGRAM BY GRAHAM FLETCHER (ELORET AND NASA ADVANCED
        SUPERCOMPUTING DIVISION, AMES RESEARCH CENTER).
     S,P,D,F,G,L SHELL GENERAL RYS QUADRATURE PROGRAMMED BY
        MICHEL DUPUIS (PACIFIC NORTHWEST NATIONAL LABORATORY).

          --------------------
          2 ELECTRON INTEGRALS
          --------------------

 DIRECT SCF METHOD SKIPS INTEGRAL STORAGE ON DISK.
 DIRECT TRANSFORMATION SKIPS AO INTEGRAL STORAGE ON DISK.
  ...... END OF TWO-ELECTRON INTEGRALS .....
 CPU     0: STEP CPU TIME=     0.02 TOTAL CPU TIME=          0.1 (      0.0 MIN)
 TOTAL WALL CLOCK TIME=          0.1 SECONDS, CPU UTILIZATION IS    63.64%

          ---------------------------
                 ROHF SCF CALCULATION
          ---------------------------

     NUCLEAR ENERGY =         7.9917178112
     MAXIT =200     NPUNCH=  2     MULT=  2
     EXTRAP=T  DAMP=F  SHIFT=F  RSTRCT=F  DIIS=F  SOSCF=T
     DENSITY MATRIX CONV=  2.00E-06
     ROHF CANONICALIZATION PARAMETERS
             C-C     O-O     V-V
     ALPHA -0.5000  0.5000  1.5000
     BETA   1.5000  0.5000 -0.5000
     SOSCF WILL OPTIMIZE      99 ORBITAL ROTATION ANGLES. SOGTOL= 2.500E-01
     MEMORY REQUIRED FOR UHF/ROHF ITERS=     52123 WORDS.

 DIRECT SCF CALCULATION, SCHWRZ=T   FDIFF=T
 SCHWARZ INEQUALITY OVERHEAD:       325 INTEGRALS, T=        0.00

                                                                                NONZERO     BLOCKS
 ITER EX      TOTAL ENERGY        E CHANGE  DENSITY CHANGE    ORB. GRAD       INTEGRALS    SKIPPED
   1  0      -75.2730076798   -75.2730076798   0.263809360   0.000000000          13863          0
          ---------------START SECOND ORDER SCF---------------
   2  1      -75.5655126638    -0.2925049839   0.250846318   0.150554838          13863          0
   3  2      -75.5990197345    -0.0335070708   0.074467051   0.070297228          13863          0
   4  3      -75.6115931419    -0.0125734073   0.008942984   0.004481738          13863          0
   5  4      -75.6117493642    -0.0001562223   0.005890013   0.002014583          13863          0
   6  5      -75.6117775598    -0.0000281956   0.000402442   0.000325545          13863          0
   7  6      -75.6117783177    -0.0000007579   0.000192647   0.000110515          13863          0
   8  7      -75.6117783969    -0.0000000792   0.000014177   0.000009753          13863          0
   9  8      -75.6117783974    -0.0000000005   0.000004662   0.000002517          13863          0
  10  9      -75.6117783975    -0.0000000001   0.000000330   0.000000219          13863          0
  11 10      -75.6117783974     0.0000000000   0.000000124   0.000000067          13853          2

          -----------------
          DENSITY CONVERGED
          -----------------
     TIME TO FORM FOCK OPERATORS=       0.1 SECONDS (       0.0 SEC/ITER)
     FOCK TIME ON FIRST ITERATION=       0.0, LAST ITERATION=       0.0
     TIME TO SOLVE SCF EQUATIONS=       0.0 SECONDS (       0.0 SEC/ITER)

 THE CONVERGED ORBITALS WILL UNDERGO GUEST/SAUNDERS
 CANONICALIZATION FOR ZAPT PERTURBATION THEORY.

 FINAL ROHF ENERGY IS      -75.6117783974 AFTER  11 ITERATIONS

          --------------------
          SPIN SZ   =    0.500
          S-SQUARED =    0.750
          --------------------

          ------------
          EIGENVECTORS
          ------------

                      1          2          3          4          5
                  -21.0970    -1.7449    -1.1096    -1.0117    -0.6628
                     A1         A1         B1         A1         B2  
    1  O  1  S    1.000758   0.007173   0.000000  -0.006977  -0.000000
    2  O  1  S    0.000586   0.493382   0.000000  -0.139493  -0.000000
    3  O  1  S   -0.003524   0.449537   0.000000  -0.219202  -0.000000
    4  O  1  X    0.000000  -0.000000   0.546888  -0.000000  -0.000000
    5  O  1  Y    0.000000  -0.000000   0.000000  -0.000000   0.716986
    6  O  1  Z    0.001363   0.065896   0.000000   0.612225  -0.000000
    7  O  1  X    0.000000  -0.000000   0.269367  -0.000000  -0.000000
    8  O  1  Y    0.000000  -0.000000   0.000000  -0.000000   0.413733
    9  O  1  Z   -0.000823   0.015535   0.000000   0.363990  -0.000000
   10  O  1 XX    0.000099   0.003524   0.000000  -0.006052  -0.000000
   11  O  1 YY   -0.000242  -0.005591   0.000000  -0.012374  -0.000000
   12  O  1 ZZ    0.000144   0.002068   0.000000   0.018426  -0.000000
   13  O  1 XY    0.000000  -0.000000   0.000000  -0.000000  -0.000000
   14  O  1 XZ    0.000000  -0.000000   0.023423  -0.000000  -0.000000
   15  O  1 YZ    0.000000  -0.000000   0.000000  -0.000000   0.018574
   16  H  2  S    0.000307   0.132184   0.277322   0.172052  -0.000000
   17  H  2  S    0.000467  -0.003712   0.032544   0.026164  -0.000000
   18  H  2  X    0.000145  -0.030491  -0.033034  -0.033813  -0.000000
   19  H  2  Y    0.000000  -0.000000   0.000000  -0.000000   0.018404
   20  H  2  Z    0.000195  -0.016897  -0.032603   0.001613  -0.000000
   21  H  3  S    0.000307   0.132184  -0.277322   0.172052  -0.000000
   22  H  3  S    0.000467  -0.003712  -0.032544   0.026164  -0.000000
   23  H  3  X   -0.000145   0.030491  -0.033034   0.033813  -0.000000
   24  H  3  Y    0.000000  -0.000000   0.000000  -0.000000   0.018404
   25  H  3  Z    0.000195  -0.016897   0.032603   0.001613  -0.000000

                      6          7          8          9         10
                   -0.1691    -0.0930     0.3560     0.3587     0.7445
                     A1         B1         B1         A1         A1  
    1  O  1  S   -0.017756  -0.000000  -0.000000  -0.066029   0.008851
    2  O  1  S    0.146245  -0.000000  -0.000000  -0.205386   0.107917
    3  O  1  S    0.747806  -0.000000  -0.000000   0.336394   0.380327
    4  O  1  X    0.000000  -0.362208   0.260945  -0.000000   0.000000
    5  O  1  Y    0.000000  -0.000000  -0.000000  -0.000000   0.000000
    6  O  1  Z    0.243918  -0.000000  -0.000000  -0.271587  -0.771701
    7  O  1  X    0.000000  -0.564785   0.147141  -0.000000   0.000000
    8  O  1  Y    0.000000  -0.000000  -0.000000  -0.000000   0.000000
    9  O  1  Z    0.294769  -0.000000  -0.000000  -0.009353   1.095065
   10  O  1 XX   -0.010259  -0.000000  -0.000000   0.080404  -0.037117
   11  O  1 YY    0.003958  -0.000000  -0.000000  -0.067883   0.006374
   12  O  1 ZZ    0.006301  -0.000000  -0.000000  -0.012522   0.030742
   13  O  1 XY    0.000000  -0.000000  -0.000000  -0.000000   0.000000
   14  O  1 XZ    0.000000   0.006083  -0.095672  -0.000000   0.000000
   15  O  1 YZ    0.000000  -0.000000  -0.000000  -0.000000   0.000000
   16  H  2  S   -0.206464   0.216997  -0.920396   0.883137  -0.303962
   17  H  2  S   -0.674803   1.006344   0.993445  -0.713313  -0.111591
   18  H  2  X   -0.010665   0.002301  -0.016895   0.153904   0.030164
   19  H  2  Y    0.000000  -0.000000  -0.000000  -0.000000   0.000000
   20  H  2  Z    0.000573   0.012987  -0.102936   0.004482   0.284319
   21  H  3  S   -0.206464  -0.216997   0.920396   0.883137  -0.303962
   22  H  3  S   -0.674803  -1.006344  -0.993445  -0.713313  -0.111591
   23  H  3  X    0.010665   0.002301  -0.016895  -0.153904  -0.030164
   24  H  3  Y    0.000000  -0.000000  -0.000000  -0.000000   0.000000
   25  H  3  Z    0.000573  -0.012987   0.102936   0.004482   0.284319

                     11         12         13         14         15
                    0.7606     0.8528     1.0414     1.1175     1.2811
                     B2         B1         A2         A1         B2  
    1  O  1  S   -0.000000   0.000000  -0.000000  -0.312280   0.000000
    2  O  1  S   -0.000000   0.000000  -0.000000  -0.759042   0.000000
    3  O  1  S   -0.000000   0.000000  -0.000000   0.873146   0.000000
    4  O  1  X   -0.000000  -0.748970  -0.000000  -0.000000   0.000000
    5  O  1  Y   -0.887973   0.000000  -0.000000  -0.000000   0.190618
    6  O  1  Z   -0.000000   0.000000  -0.000000   0.243844   0.000000
    7  O  1  X   -0.000000   1.607058  -0.000000  -0.000000   0.000000
    8  O  1  Y    0.977271   0.000000  -0.000000  -0.000000  -0.681881
    9  O  1  Z   -0.000000   0.000000  -0.000000  -0.623282   0.000000
   10  O  1 XX   -0.000000   0.000000  -0.000000  -0.115856   0.000000
   11  O  1 YY   -0.000000   0.000000  -0.000000  -0.036271   0.000000
   12  O  1 ZZ   -0.000000   0.000000  -0.000000   0.152127   0.000000
   13  O  1 XY   -0.000000   0.000000   0.161019  -0.000000   0.000000
   14  O  1 XZ   -0.000000  -0.020381  -0.000000  -0.000000   0.000000
   15  O  1 YZ    0.010316   0.000000  -0.000000  -0.000000   0.174516
   16  H  2  S   -0.000000  -0.284818  -0.000000   0.210266   0.000000
   17  H  2  S   -0.000000  -0.659074  -0.000000  -0.235382   0.000000
   18  H  2  X   -0.000000   0.332815  -0.000000  -0.301588   0.000000
   19  H  2  Y    0.119748   0.000000   0.673443  -0.000000   0.736024
   20  H  2  Z   -0.000000   0.038824  -0.000000   0.497789   0.000000
   21  H  3  S   -0.000000   0.284818  -0.000000   0.210266   0.000000
   22  H  3  S   -0.000000   0.659074  -0.000000  -0.235382   0.000000
   23  H  3  X   -0.000000   0.332815  -0.000000   0.301588   0.000000
   24  H  3  Y    0.119748   0.000000  -0.673443  -0.000000   0.736024
   25  H  3  Z   -0.000000  -0.038824  -0.000000   0.497789   0.000000

                     16         17         18         19         20
                    1.3978     1.4562     1.7384     1.7777     2.6659
                     B1         A1         B1         A1         B2  
    1  O  1  S    0.000000  -0.706537   0.000000  -0.104280   0.000000
    2  O  1  S    0.000000  -1.593926   0.000000  -0.066525   0.000000
    3  O  1  S    0.000000   2.290024   0.000000   1.374679   0.000000
    4  O  1  X   -0.252514  -0.000000   0.616776  -0.000000   0.000000
    5  O  1  Y    0.000000  -0.000000   0.000000  -0.000000  -0.053686
    6  O  1  Z    0.000000  -0.236664   0.000000   0.426077   0.000000
    7  O  1  X    0.996777  -0.000000   0.283974  -0.000000   0.000000
    8  O  1  Y    0.000000  -0.000000   0.000000  -0.000000   0.216051
    9  O  1  Z    0.000000   0.876636   0.000000   0.421977   0.000000
   10  O  1 XX    0.000000  -0.011285   0.000000  -0.152755   0.000000
   11  O  1 YY    0.000000   0.145005   0.000000   0.245613   0.000000
   12  O  1 ZZ    0.000000  -0.133721   0.000000  -0.092858   0.000000
   13  O  1 XY    0.000000  -0.000000   0.000000  -0.000000   0.000000
   14  O  1 XZ   -0.021272  -0.000000  -0.135629  -0.000000   0.000000
   15  O  1 YZ    0.000000  -0.000000   0.000000  -0.000000   1.006899
   16  H  2  S   -0.387388  -0.521744  -0.107732  -0.390604   0.000000
   17  H  2  S   -0.102795  -0.291101  -0.379691  -0.282004   0.000000
   18  H  2  X   -0.384525   0.218834   0.625722   0.808094   0.000000
   19  H  2  Y    0.000000  -0.000000   0.000000  -0.000000  -0.297889
   20  H  2  Z    0.646160  -0.218706   0.547570   0.409803   0.000000
   21  H  3  S    0.387388  -0.521744   0.107732  -0.390604   0.000000
   22  H  3  S    0.102795  -0.291101   0.379691  -0.282004   0.000000
   23  H  3  X   -0.384525  -0.218834   0.625722  -0.808094   0.000000
   24  H  3  Y    0.000000  -0.000000   0.000000  -0.000000  -0.297889
   25  H  3  Z   -0.646160  -0.218706  -0.547570   0.409803   0.000000

                     21         22         23         24
                    2.7360     2.8278     3.2799     3.5014
                     A2         A1         A1         B1  
    1  O  1  S    0.000000  -0.089882  -0.282806   0.000000
    2  O  1  S    0.000000  -0.165753  -0.477414   0.000000
    3  O  1  S    0.000000   0.471905   1.813100   0.000000
    4  O  1  X    0.000000  -0.000000  -0.000000   0.198010
    5  O  1  Y    0.000000  -0.000000  -0.000000   0.000000
    6  O  1  Z    0.000000  -0.037079   0.180194   0.000000
    7  O  1  X    0.000000  -0.000000  -0.000000   1.024119
    8  O  1  Y    0.000000  -0.000000  -0.000000   0.000000
    9  O  1  Z    0.000000   0.426524   0.722737   0.000000
   10  O  1 XX    0.000000  -0.538752   0.976350   0.000000
   11  O  1 YY    0.000000  -0.480470  -0.971014   0.000000
   12  O  1 ZZ    0.000000   1.019223  -0.005335   0.000000
   13  O  1 XY    1.024621  -0.000000  -0.000000   0.000000
   14  O  1 XZ    0.000000  -0.000000  -0.000000   1.231829
   15  O  1 YZ    0.000000  -0.000000  -0.000000   0.000000
   16  H  2  S    0.000000  -0.221152  -0.796053  -0.713555
   17  H  2  S    0.000000  -0.045240  -0.195396  -0.266775
   18  H  2  X    0.000000   0.325872   0.581634   0.541219
   19  H  2  Y   -0.304379  -0.000000  -0.000000   0.000000
   20  H  2  Z    0.000000  -0.239366   0.422871   0.412622
   21  H  3  S    0.000000  -0.221152  -0.796053   0.713555
   22  H  3  S    0.000000  -0.045240  -0.195396   0.266775
   23  H  3  X    0.000000  -0.325872  -0.581634   0.541219
   24  H  3  Y    0.304379  -0.000000  -0.000000   0.000000
   25  H  3  Z    0.000000  -0.239366   0.422871  -0.412622
 ...... END OF ROHF CALCULATION ......
 CPU     0: STEP CPU TIME=     0.07 TOTAL CPU TIME=          0.1 (      0.0 MIN)
 TOTAL WALL CLOCK TIME=          0.2 SECONDS, CPU UTILIZATION IS    56.00%

     ----------------------------------------------------------------
     PROPERTY VALUES FOR THE ROHF  SELF-CONSISTENT FIELD WAVEFUNCTION
     ----------------------------------------------------------------

          -----------------
          ENERGY COMPONENTS
          -----------------

         WAVEFUNCTION NORMALIZATION =       1.0000000000

                ONE ELECTRON ENERGY =    -116.1988031342
                TWO ELECTRON ENERGY =      32.5953069255
           NUCLEAR REPULSION ENERGY =       7.9917178112
                                      ------------------
                       TOTAL ENERGY =     -75.6117783974

 ELECTRON-ELECTRON POTENTIAL ENERGY =      32.5953069255
  NUCLEUS-ELECTRON POTENTIAL ENERGY =    -191.4684939519
   NUCLEUS-NUCLEUS POTENTIAL ENERGY =       7.9917178112
                                      ------------------
             TOTAL POTENTIAL ENERGY =    -150.8814692152
               TOTAL KINETIC ENERGY =      75.2696908177
                 VIRIAL RATIO (V/T) =       2.0045448251

  ...... PI ENERGY ANALYSIS ......

 ENERGY ANALYSIS:
            FOCK ENERGY=    -51.0081891885
          BARE H ENERGY=   -116.1988031342
     ELECTRONIC ENERGY =    -83.6034961614
         KINETIC ENERGY=     75.2696908177
          N-N REPULSION=      7.9917178112
           TOTAL ENERGY=    -75.6117783501
        SIGMA PART(1+2)=    -79.3837255432
               (K,V1,2)=     72.5850855510   -181.4263162208     29.4575051266
           PI PART(1+2)=     -4.2197706182
               (K,V1,2)=      2.6846052667    -10.0421777312      3.1378018462
  SIGMA SKELETON, ERROR=    -71.3920077319     -0.0000000000
             MIXED PART= 0.00000E+00 0.00000E+00 0.00000E+00 0.00000E+00
 ...... END OF PI ENERGY ANALYSIS ......

          ---------------------------------------
          MULLIKEN AND LOWDIN POPULATION ANALYSES
          ---------------------------------------

     ATOMIC MULLIKEN POPULATION IN EACH MOLECULAR ORBITAL

                      1          2          3          4          5

                  2.000000   2.000000   2.000000   2.000000   1.000000

    1             1.999904   1.726377   1.356056   1.756525   0.991148
    2             0.000048   0.136811   0.321972   0.121738   0.004426
    3             0.000048   0.136811   0.321972   0.121738   0.004426

          MULLIKEN SPHERICAL HARMONIC POPULATIONS
       ATOM           S       P       D      F      G      H      I    TOTAL
    1 O             1.91    2.50    0.00   0.00   0.00   0.00   0.00    4.41
    2 H             0.26    0.04    0.00   0.00   0.00   0.00   0.00    0.29
    3 H             0.26    0.04    0.00   0.00   0.00   0.00   0.00    0.29

          MULLIKEN SPHERICAL HARMONIC POPULATIONS
       ATOM           S       P       D      F      G      H      I    TOTAL
    1 O             1.91    1.51    0.00   0.00   0.00   0.00   0.00    3.42
    2 H             0.26    0.03    0.00   0.00   0.00   0.00   0.00    0.29
    3 H             0.26    0.03    0.00   0.00   0.00   0.00   0.00    0.29

     ATOMIC SPIN POPULATION (ALPHA MINUS BETA)
       ATOM         MULL.POP.                    LOW.POP.
    1 O             0.991148                     0.973164
    2 H             0.004426                     0.013418
    3 H             0.004426                     0.013418

               ----- POPULATIONS IN EACH AO -----
                             MULLIKEN      LOWDIN
              1  O  1  S      2.00155     1.90891
              2  O  1  S      0.92396     0.65563
              3  O  1  S      0.89030     0.52433
              4  O  1  X      0.89029     0.80075
              5  O  1  Y      0.66600     0.63879
              6  O  1  Z      1.06457     0.99853
              7  O  1  X      0.45969     0.53833
              8  O  1  Y      0.32471     0.33413
              9  O  1  Z      0.60064     0.65390
             10  O  1 XX      0.00098     0.19674
             11  O  1 YY      0.00080     0.18806
             12  O  1 ZZ      0.00000     0.18909
             13  O  1 XY      0.00607     0.00000
             14  O  1 XZ      0.00044     0.00866
             15  O  1 YZ      0.00000     0.00024
             16  H  2  S      0.49598     0.42389
             17  H  2  S      0.02235     0.13433
             18  H  2  X      0.04050     0.06752
             19  H  2  Y      0.00443     0.01342
             20  H  2  Z      0.02173     0.04279
             21  H  3  S      0.49598     0.42389
             22  H  3  S      0.02235     0.13433
             23  H  3  X      0.04050     0.06752
             24  H  3  Y      0.00443     0.01342
             25  H  3  Z      0.02173     0.04279

          ----- MULLIKEN ATOMIC OVERLAP POPULATIONS -----
          (OFF-DIAGONAL ELEMENTS NEED TO BE MULTIPLIED BY 2)

             1           2           3

    1    7.2373776
    2    0.2963160   0.2965601
    3    0.2963160  -0.0078808   0.2965601

          TOTAL MULLIKEN AND LOWDIN ATOMIC POPULATIONS
       ATOM         MULL.POP.    CHARGE          LOW.POP.     CHARGE
    1 O             7.830010    0.169990         7.636094    0.363906
    2 H             0.584995    0.415005         0.681953    0.318047
    3 H             0.584995    0.415005         0.681953    0.318047

          MULLIKEN SPHERICAL HARMONIC POPULATIONS
       ATOM           S       P       D      F      G      H      I    TOTAL
    1 O             3.82    4.01    0.01   0.00   0.00   0.00   0.00    7.83
    2 H             0.52    0.07    0.00   0.00   0.00   0.00   0.00    0.58
    3 H             0.52    0.07    0.00   0.00   0.00   0.00   0.00    0.58

          -------------------------------
          BOND ORDER AND VALENCE ANALYSIS     BOND ORDER THRESHOLD=0.050
          -------------------------------

                   BOND                       BOND                       BOND
  ATOM PAIR DIST  ORDER      ATOM PAIR DIST  ORDER      ATOM PAIR DIST  ORDER
    1   2  1.100  0.829        1   3  1.100  0.829

                       TOTAL       BONDED        FREE
      ATOM            VALENCE     VALENCE     VALENCE
    1 O                 2.640       1.658       0.982
    2 H                 0.838       0.838       0.000
    3 H                 0.838       0.838       0.000

          -----------------------------------------
          ATOMIC SPIN DENSITY AT THE NUCLEUS (A.U.)
          -----------------------------------------
                            SPIN DENS    ALPHA DENS     BETA DENS
    1  O            8.0     0.0000000     148.93874     148.93874
    2  H            1.0     0.0000000       0.11725       0.11725
    3  H            1.0     0.0000000       0.11725       0.11725

          ---------------------
          ELECTROSTATIC MOMENTS
          ---------------------

 POINT   1           X           Y           Z (BOHR)    CHARGE
                 0.000000   -0.000000    0.000033        1.00 (A.U.)
         DX          DY          DZ         /D/  (DEBYE)
     0.000000   -0.000000    2.854926    2.854926
 ...... END OF PROPERTY EVALUATION ......
 CPU     0: STEP CPU TIME=     0.01 TOTAL CPU TIME=          0.2 (      0.0 MIN)
 TOTAL WALL CLOCK TIME=          0.3 SECONDS, CPU UTILIZATION IS    55.56%



 -------------------------------     ----------------------------
 DISTRIBUTED DATA ZAPT2 GRADIENT     PROGRAM WRITTEN BY C. AIKENS
 -------------------------------     ----------------------------

 DDI: Creating Array [0] - 625 x 15 = 9375 words.
 DDI: Creating Array [1] - 19 x 75 = 1425 words.
 DDI: Creating Array [2] - 15 x 15 = 225 words.
 DDI: Creating Array [3] - 325 x 15 = 4875 words.
    THIS CALCULATION IS RUNNING WITH MWORDS=  250, MEMDDI=    8000, AND P=   12
 MEMORY USAGE PER CPU IS 8*(MWORDS + MEMDDI/P)/1024 =    7.2 GBYTES.

 MINIMAL REQUIREMENT FOR THIS RUN IS MWORDS=    1, MEMDDI=       1.
 FOR P=   12, THE MEMORY USAGE PER CPU(CORE) WOULD BE    0.0 GBYTES.


      DIRECT 4-INDEX TRANSFORMATION 
      SCHWARZ INEQUALITY TEST SKIPPED          0 INTEGRAL BLOCKS

      COMPUTING CONTRIBUTIONS TO THE 1-PARTICLE DENSITY MATRICES
                     E(SCF)=       -75.6117783974
                  ZAPT E(2)=        -0.1630429227
                     E(MP2)=       -75.7748213202

      COMPUTING THREE-VIRTUAL CONTRIBUTIONS TO THE LAGRANGIAN
      FORMING BACK-TRANSFORMED INTEGRALS
      COMPUTING (VV|VO) INTEGRAL CLASS 
      SCHWARZ INEQUALITY TEST SKIPPED          0 INTEGRAL BLOCKS
      RESTORING (VO|VO) INTEGRAL CLASS

      SOLVING FOR Z-VECTOR
 DDI: Creating Array [4] - 33 x 50 = 1650 words.

      ITERATION         TESTER  EXPANSION VECTOR NORM
      ===============================================

                                 0.000523664474605
         2        0.0005944524
                                 0.000186339936331
         3        0.0002775752
                                 0.000019187492399
         4        0.0000376831
                                 0.000002233030806
         5        0.0000053216
                                 0.000000278841020
         6        0.0000007845
                                 0.000000032138147
         7        0.0000001245
                                 0.000000003244255
         8        0.0000000164
                                 0.000000000249412
         9        0.0000000017
                                 0.000000000016368
        10        0.0000000001
                                 0.000000000001009
        11        0.0000000000

      CONVERGED - WAVEFUNCTIONS STATIONARY


      COMPUTING LAST CONTRIBUTIONS TO THE 1-PARTICLE DENSITY

 MP2 NATURAL ORBITAL OCCUPATION NUMBERS ARE
  2.0000 1.9855 1.9725 1.9693 0.9937 0.0230 0.0205 0.0087 0.0061 0.0043
  0.0041 0.0032 0.0031 0.0029 0.0008 0.0008 0.0004 0.0003 0.0003 0.0003
  0.0003 0.0002 0.0000 0.0000
 THERE ARE     8.9210 ELECTRONS IN PRINCIPAL MP2 NATURAL ORBITALS.
 THERE ARE     0.0790 ELECTRONS IN SECONDARY MP2 NATURAL ORBITALS.
 THE MP2 NATURAL ORBITALS HAVE BEEN PUNCHED.
 ..... DONE WITH MP2 ENERGY .....
 CPU     0: STEP CPU TIME=     0.05 TOTAL CPU TIME=          0.2 (      0.0 MIN)
 TOTAL WALL CLOCK TIME=          0.4 SECONDS, CPU UTILIZATION IS    55.56%

     -------------------------------------------------
     MP2 PROPERTIES...FOR THE FIRST ORDER WAVEFUNCTION
          USING THE RESPONSE (OR RELAXED) DENSITY
     -------------------------------------------------

          -----------------
          ENERGY COMPONENTS
          -----------------

         WAVEFUNCTION NORMALIZATION =       1.0000000000

                ONE ELECTRON ENERGY =    -115.9977262074
                TWO ELECTRON ENERGY =      32.2311870760
           NUCLEAR REPULSION ENERGY =       7.9917178112
                                      ------------------
                       TOTAL ENERGY =     -75.7748213202

 ELECTRON-ELECTRON POTENTIAL ENERGY =      32.2311870760
  NUCLEUS-ELECTRON POTENTIAL ENERGY =    -191.3705693847
   NUCLEUS-NUCLEUS POTENTIAL ENERGY =       7.9917178112
                                      ------------------
             TOTAL POTENTIAL ENERGY =    -151.1476644975
               TOTAL KINETIC ENERGY =      75.3728431773
                 VIRIAL RATIO (V/T) =       2.0053331960

          ---------------------------------------
          MULLIKEN AND LOWDIN POPULATION ANALYSES
          ---------------------------------------

          MULLIKEN SPHERICAL HARMONIC POPULATIONS
       ATOM           S       P       D      F      G      H      I    TOTAL
    1 O             1.90    1.98    0.01   0.00   0.00   0.00   0.00    3.89
    2 H             0.27    0.03    0.00   0.00   0.00   0.00   0.00    0.30
    3 H             0.27    0.03    0.00   0.00   0.00   0.00   0.00    0.30

          MULLIKEN SPHERICAL HARMONIC POPULATIONS
       ATOM           S       P       D      F      G      H      I    TOTAL
    1 O             1.90    1.98    0.01   0.00   0.00   0.00   0.00    3.89
    2 H             0.27    0.03    0.00   0.00   0.00   0.00   0.00    0.30
    3 H             0.27    0.03    0.00   0.00   0.00   0.00   0.00    0.30

     ATOMIC SPIN POPULATION (ALPHA MINUS BETA)
       ATOM         MULL.POP.                    LOW.POP.
    1 O             0.000000                     0.000000
    2 H             0.000000                     0.000000
    3 H             0.000000                     0.000000

               ----- POPULATIONS IN EACH AO -----
                             MULLIKEN      LOWDIN
              1  O  1  S      2.00165     1.90916
              2  O  1  S      0.92851     0.65874
              3  O  1  S      0.87910     0.52134
              4  O  1  X      0.89637     0.80475
              5  O  1  Y      0.65865     0.63233
              6  O  1  Z      1.05043     0.98474
              7  O  1  X      0.43204     0.52152
              8  O  1  Y      0.33061     0.33897
              9  O  1  Z      0.58742     0.64663
             10  O  1 XX      0.00410     0.19671
             11  O  1 YY      0.00362     0.19139
             12  O  1 ZZ      0.00264     0.18891
             13  O  1 XY      0.00862     0.00261
             14  O  1 XZ      0.00325     0.01188
             15  O  1 YZ      0.00000     0.00302
             16  H  2  S      0.51176     0.43431
             17  H  2  S      0.03016     0.13829
             18  H  2  X      0.03741     0.06381
             19  H  2  Y      0.00562     0.01472
             20  H  2  Z      0.02155     0.04251
             21  H  3  S      0.51176     0.43431
             22  H  3  S      0.03016     0.13829
             23  H  3  X      0.03741     0.06381
             24  H  3  Y      0.00562     0.01472
             25  H  3  Z      0.02155     0.04251

          ----- MULLIKEN ATOMIC OVERLAP POPULATIONS -----
          (OFF-DIAGONAL ELEMENTS NEED TO BE MULTIPLIED BY 2)

             1           2           3

    1    7.2155322
    2    0.2857385   0.3291967
    3    0.2857385  -0.0084397   0.3291967

          TOTAL MULLIKEN AND LOWDIN ATOMIC POPULATIONS
       ATOM         MULL.POP.    CHARGE          LOW.POP.     CHARGE
    1 O             7.787009    0.212991         7.612706    0.387294
    2 H             0.606495    0.393505         0.693647    0.306353
    3 H             0.606495    0.393505         0.693647    0.306353

          MULLIKEN SPHERICAL HARMONIC POPULATIONS
       ATOM           S       P       D      F      G      H      I    TOTAL
    1 O             3.81    3.96    0.02   0.00   0.00   0.00   0.00    7.79
    2 H             0.54    0.06    0.00   0.00   0.00   0.00   0.00    0.61
    3 H             0.54    0.06    0.00   0.00   0.00   0.00   0.00    0.61

          -------------------------------
          BOND ORDER AND VALENCE ANALYSIS     BOND ORDER THRESHOLD=0.050
          -------------------------------

                   BOND                       BOND                       BOND
  ATOM PAIR DIST  ORDER      ATOM PAIR DIST  ORDER      ATOM PAIR DIST  ORDER
    1   2  1.100  0.806        1   3  1.100  0.806

                       TOTAL       BONDED        FREE
      ATOM            VALENCE     VALENCE     VALENCE
    1 O                 2.822       1.612       1.210
    2 H                 0.861       0.816       0.045
    3 H                 0.861       0.816       0.045

          ---------------------
          ELECTROSTATIC MOMENTS
          ---------------------

 POINT   1           X           Y           Z (BOHR)    CHARGE
                 0.000000   -0.000000    0.000033        1.00 (A.U.)
         DX          DY          DZ         /D/  (DEBYE)
     0.000000   -0.000000    2.724092    2.724092
 ...... END OF PROPERTY EVALUATION ......
 CPU     0: STEP CPU TIME=     0.01 TOTAL CPU TIME=          0.2 (      0.0 MIN)
 TOTAL WALL CLOCK TIME=          0.4 SECONDS, CPU UTILIZATION IS    56.76%

 BEGINNING ONE ELECTRON GRADIENT...
 ..... END OF 1-ELECTRON GRADIENT ......
 CPU     0: STEP CPU TIME=     0.00 TOTAL CPU TIME=          0.2 (      0.0 MIN)
 TOTAL WALL CLOCK TIME=          0.4 SECONDS, CPU UTILIZATION IS    55.26%

      COMPUTING 2-PARTICLE GRADIENT
      FORMING BACK-TRANSFORMED AMPLITUDES

      BACK-TRANSFORMING CHI, Z-VECTOR, AND OTHER MATRICES TO AO BASIS
 THE COARSE/FINE SCHWARZ SCREENINGS SKIPPED          0/         0 BLOCKS.
 THE NUMBER OF GRADIENT INTEGRAL BLOCKS COMPUTED WAS      5202
 ..... DONE WITH MP2 GRADIENT .....
 CPU     0: STEP CPU TIME=     0.02 TOTAL CPU TIME=          0.2 (      0.0 MIN)
 TOTAL WALL CLOCK TIME=          0.4 SECONDS, CPU UTILIZATION IS    57.50%

          NSERCH=  0     ENERGY=     -75.7748213

                                 -----------------------
                                 GRADIENT (HARTREE/BOHR)
                                 -----------------------
        ATOM     ZNUC       DE/DX         DE/DY         DE/DZ
 --------------------------------------------------------------
    1  O            8.0     0.0000000     0.0000000    -0.0591385
    2  H            1.0     0.0485354     0.0000000     0.0295693
    3  H            1.0    -0.0485354     0.0000000     0.0295693

          MAXIMUM GRADIENT = 0.0591385    RMS GRADIENT = 0.0332623

 NSERCH:   0  E=      -75.7748213202  GRAD. MAX=  0.0591385  R.M.S.=  0.0332623

          FORCE CONSTANT MATRIX NOT UPDATED --- TAKING FIRST STEP
          MIN SEARCH, CORRECT HESSIAN, TRYING PURE NR STEP
               NR STEP HAS LENGTH         =   0.204664
          RADIUS OF STEP TAKEN=   0.20466  CURRENT TRUST RADIUS=   0.30000

 BEGINNING GEOMETRY SEARCH POINT NSERCH=   1 ...

 COORDINATES OF SYMMETRY UNIQUE ATOMS (ANGS)
   ATOM   CHARGE       X              Y              Z
 ------------------------------------------------------------
 O           8.0   0.0000000000   0.0000000000  -0.0045909847
 H           1.0  -0.8476348178   0.0000000000   0.5307937473
 COORDINATES OF ALL ATOMS ARE (ANGS)
   ATOM   CHARGE       X              Y              Z
 ------------------------------------------------------------
 O           8.0   0.0000000000   0.0000000000  -0.0045909847
 H           1.0   0.8476348178  -0.0000000000   0.5307937473
 H           1.0  -0.8476348178   0.0000000000   0.5307937473

          INTERNUCLEAR DISTANCES (ANGS.)
          ------------------------------

                1 O          2 H          3 H     

   1 O       0.0000000    1.0025575 *  1.0025575 *
   2 H       1.0025575 *  0.0000000    1.6952696 *
   3 H       1.0025575 *  1.6952696 *  0.0000000  

  * ... LESS THAN  3.000

 ...... END OF ONE-ELECTRON INTEGRALS ......
 CPU     0: STEP CPU TIME=     0.00 TOTAL CPU TIME=          0.2 (      0.0 MIN)
 TOTAL WALL CLOCK TIME=          0.4 SECONDS, CPU UTILIZATION IS    57.50%
  ...... END OF TWO-ELECTRON INTEGRALS .....
 CPU     0: STEP CPU TIME=     0.00 TOTAL CPU TIME=          0.2 (      0.0 MIN)
 TOTAL WALL CLOCK TIME=          0.4 SECONDS, CPU UTILIZATION IS    56.10%

          ---------------------------
                 ROHF SCF CALCULATION
          ---------------------------
     DENSITY MATRIX CONV=  4.00E-05

 DIRECT SCF CALCULATION, SCHWRZ=T   FDIFF=T

                                                                                NONZERO     BLOCKS
 ITER EX      TOTAL ENERGY        E CHANGE  DENSITY CHANGE    ORB. GRAD       INTEGRALS    SKIPPED
          ---------------START SECOND ORDER SCF---------------
   1  0      -75.6228155030   -75.6228155030   0.050198207   0.033141736          13863          0
   2  1      -75.6282719397    -0.0054564367   0.012350377   0.007240646          13863          0
   3  2      -75.6284972911    -0.0002253515   0.003173309   0.002221570          13863          0
   4  3      -75.6285183241    -0.0000210330   0.000616229   0.000551160          13863          0
   5  4      -75.6285194820    -0.0000011579   0.000181728   0.000109126          13863          0
   6  5      -75.6285195598    -0.0000000778   0.000043220   0.000014099          13863          0
   7  6      -75.6285195617    -0.0000000019   0.000008842   0.000003634          13863          0
   8  7      -75.6285195618    -0.0000000001   0.000000643   0.000000405          13863          0

          -----------------
          DENSITY CONVERGED
          -----------------
     TIME TO FORM FOCK OPERATORS=       0.0 SECONDS (       0.0 SEC/ITER)
     FOCK TIME ON FIRST ITERATION=       0.0, LAST ITERATION=       0.0
     TIME TO SOLVE SCF EQUATIONS=       0.0 SECONDS (       0.0 SEC/ITER)

 FINAL ROHF ENERGY IS      -75.6285195618 AFTER   8 ITERATIONS

          --------------------
          SPIN SZ   =    0.500
          S-SQUARED =    0.750
          --------------------
 ...... END OF ROHF CALCULATION ......
 CPU     0: STEP CPU TIME=     0.05 TOTAL CPU TIME=          0.3 (      0.0 MIN)
 TOTAL WALL CLOCK TIME=          0.5 SECONDS, CPU UTILIZATION IS    56.00%



 -------------------------------     ----------------------------
 DISTRIBUTED DATA ZAPT2 GRADIENT     PROGRAM WRITTEN BY C. AIKENS
 -------------------------------     ----------------------------

 DDI: Creating Array [0] - 625 x 15 = 9375 words.
 DDI: Creating Array [1] - 19 x 75 = 1425 words.
 DDI: Creating Array [2] - 15 x 15 = 225 words.
 DDI: Creating Array [3] - 325 x 15 = 4875 words.
    THIS CALCULATION IS RUNNING WITH MWORDS=  250, MEMDDI=    8000, AND P=   12
 MEMORY USAGE PER CPU IS 8*(MWORDS + MEMDDI/P)/1024 =    7.2 GBYTES.

 MINIMAL REQUIREMENT FOR THIS RUN IS MWORDS=    1, MEMDDI=       1.
 FOR P=   12, THE MEMORY USAGE PER CPU(CORE) WOULD BE    0.0 GBYTES.


      DIRECT 4-INDEX TRANSFORMATION 
      SCHWARZ INEQUALITY TEST SKIPPED          0 INTEGRAL BLOCKS

      COMPUTING CONTRIBUTIONS TO THE 1-PARTICLE DENSITY MATRICES
                     E(SCF)=       -75.6285195618
                  ZAPT E(2)=        -0.1566770947
                     E(MP2)=       -75.7851966565

      COMPUTING THREE-VIRTUAL CONTRIBUTIONS TO THE LAGRANGIAN
      FORMING BACK-TRANSFORMED INTEGRALS
      COMPUTING (VV|VO) INTEGRAL CLASS 
      SCHWARZ INEQUALITY TEST SKIPPED          0 INTEGRAL BLOCKS
      RESTORING (VO|VO) INTEGRAL CLASS

      SOLVING FOR Z-VECTOR
 DDI: Creating Array [4] - 33 x 50 = 1650 words.

      ITERATION         TESTER  EXPANSION VECTOR NORM
      ===============================================

                                 0.000388576032788
         2        0.0004297774
                                 0.000123475420621
         3        0.0001802966
                                 0.000009852808364
         4        0.0000183299
                                 0.000000974532334
         5        0.0000024081
                                 0.000000126301203
         6        0.0000003786
                                 0.000000017713701
         7        0.0000000656
                                 0.000000001768417
         8        0.0000000084
                                 0.000000000134000
         9        0.0000000008
                                 0.000000000008523
        10        0.0000000001

      CONVERGED - WAVEFUNCTIONS STATIONARY


      COMPUTING LAST CONTRIBUTIONS TO THE 1-PARTICLE DENSITY
 ..... DONE WITH MP2 ENERGY .....
 CPU     0: STEP CPU TIME=     0.04 TOTAL CPU TIME=          0.3 (      0.0 MIN)
 TOTAL WALL CLOCK TIME=          0.6 SECONDS, CPU UTILIZATION IS    54.24%
 ..... END OF 1-ELECTRON GRADIENT ......
 CPU     0: STEP CPU TIME=     0.00 TOTAL CPU TIME=          0.3 (      0.0 MIN)
 TOTAL WALL CLOCK TIME=          0.6 SECONDS, CPU UTILIZATION IS    54.24%

      COMPUTING 2-PARTICLE GRADIENT
      FORMING BACK-TRANSFORMED AMPLITUDES

      BACK-TRANSFORMING CHI, Z-VECTOR, AND OTHER MATRICES TO AO BASIS
 THE COARSE/FINE SCHWARZ SCREENINGS SKIPPED          0/         0 BLOCKS.
 THE NUMBER OF GRADIENT INTEGRAL BLOCKS COMPUTED WAS      5202
 ..... DONE WITH MP2 GRADIENT .....
 CPU     0: STEP CPU TIME=     0.02 TOTAL CPU TIME=          0.3 (      0.0 MIN)
 TOTAL WALL CLOCK TIME=          0.6 SECONDS, CPU UTILIZATION IS    55.74%

          NSERCH=  1     ENERGY=     -75.7851967

                                 -----------------------
                                 GRADIENT (HARTREE/BOHR)
                                 -----------------------
        ATOM     ZNUC       DE/DX         DE/DY         DE/DZ
 --------------------------------------------------------------
    1  O            8.0     0.0000000     0.0000000     0.0149132
    2  H            1.0     0.0050865     0.0000000    -0.0074566
    3  H            1.0    -0.0050865     0.0000000    -0.0074566

          MAXIMUM GRADIENT = 0.0149132    RMS GRADIENT = 0.0065434

 NSERCH:   1  E=      -75.7851966565  GRAD. MAX=  0.0149132  R.M.S.=  0.0065434

          HESSIAN UPDATED USING THE BFGS FORMULA
             ACTUAL ENERGY CHANGE WAS  -0.0103753363
          PREDICTED ENERGY CHANGE WAS  -0.0102038889 RATIO=  1.017
          MIN SEARCH, CORRECT HESSIAN, TRYING PURE NR STEP
               NR STEP HAS LENGTH         =   0.413498
          TRIM/QA LAMBDA FOR NON-TS MODES =  -0.00039800
          TRIM/QA STEP HAS LENGTH         =   0.409327
          RADIUS OF STEP TAKEN=   0.40933  CURRENT TRUST RADIUS=   0.40933

 BEGINNING GEOMETRY SEARCH POINT NSERCH=   2 ...

 COORDINATES OF SYMMETRY UNIQUE ATOMS (ANGS)
   ATOM   CHARGE       X              Y              Z
 ------------------------------------------------------------
 O           8.0   0.0000000000   0.0000000000  -0.1097196813
 H           1.0  -0.7244675195   0.0000000000   0.5833580956
 COORDINATES OF ALL ATOMS ARE (ANGS)
   ATOM   CHARGE       X              Y              Z
 ------------------------------------------------------------
 O           8.0   0.0000000000   0.0000000000  -0.1097196813
 H           1.0   0.7244675195  -0.0000000000   0.5833580956
 H           1.0  -0.7244675195   0.0000000000   0.5833580956

          INTERNUCLEAR DISTANCES (ANGS.)
          ------------------------------

                1 O          2 H          3 H     

   1 O       0.0000000    1.0026016 *  1.0026016 *
   2 H       1.0026016 *  0.0000000    1.4489350 *
   3 H       1.0026016 *  1.4489350 *  0.0000000  

  * ... LESS THAN  3.000

 ...... END OF ONE-ELECTRON INTEGRALS ......
 CPU     0: STEP CPU TIME=     0.00 TOTAL CPU TIME=          0.3 (      0.0 MIN)
 TOTAL WALL CLOCK TIME=          0.6 SECONDS, CPU UTILIZATION IS    55.74%
  ...... END OF TWO-ELECTRON INTEGRALS .....
 CPU     0: STEP CPU TIME=     0.00 TOTAL CPU TIME=          0.3 (      0.0 MIN)
 TOTAL WALL CLOCK TIME=          0.6 SECONDS, CPU UTILIZATION IS    54.84%

          ---------------------------
                 ROHF SCF CALCULATION
          ---------------------------
     DENSITY MATRIX CONV=  1.00E-05

 DIRECT SCF CALCULATION, SCHWRZ=T   FDIFF=T

                                                                                NONZERO     BLOCKS
 ITER EX      TOTAL ENERGY        E CHANGE  DENSITY CHANGE    ORB. GRAD       INTEGRALS    SKIPPED
          ---------------START SECOND ORDER SCF---------------
   1  0      -75.6130984363   -75.6130984363   0.059971793   0.036347606          13863          0
   2  1      -75.6213467389    -0.0082483027   0.014895634   0.007526760          13863          0
   3  2      -75.6217443674    -0.0003976284   0.004098626   0.002392460          13863          0
   4  3      -75.6217677722    -0.0000234048   0.001065238   0.000721054          13863          0
   5  4      -75.6217705178    -0.0000027456   0.000292661   0.000151173          13863          0
   6  5      -75.6217706392    -0.0000001215   0.000085003   0.000030750          13863          0
   7  6      -75.6217706489    -0.0000000097   0.000008660   0.000006987          13863          0
   8  7      -75.6217706491    -0.0000000002   0.000001404   0.000001189          13863          0

          -----------------
          DENSITY CONVERGED
          -----------------
     TIME TO FORM FOCK OPERATORS=       0.0 SECONDS (       0.0 SEC/ITER)
     FOCK TIME ON FIRST ITERATION=       0.0, LAST ITERATION=       0.0
     TIME TO SOLVE SCF EQUATIONS=       0.0 SECONDS (       0.0 SEC/ITER)

 FINAL ROHF ENERGY IS      -75.6217706491 AFTER   8 ITERATIONS

          --------------------
          SPIN SZ   =    0.500
          S-SQUARED =    0.750
          --------------------
 ...... END OF ROHF CALCULATION ......
 CPU     0: STEP CPU TIME=     0.05 TOTAL CPU TIME=          0.4 (      0.0 MIN)
 TOTAL WALL CLOCK TIME=          0.7 SECONDS, CPU UTILIZATION IS    54.17%



 -------------------------------     ----------------------------
 DISTRIBUTED DATA ZAPT2 GRADIENT     PROGRAM WRITTEN BY C. AIKENS
 -------------------------------     ----------------------------

 DDI: Creating Array [0] - 625 x 15 = 9375 words.
 DDI: Creating Array [1] - 19 x 75 = 1425 words.
 DDI: Creating Array [2] - 15 x 15 = 225 words.
 DDI: Creating Array [3] - 325 x 15 = 4875 words.
    THIS CALCULATION IS RUNNING WITH MWORDS=  250, MEMDDI=    8000, AND P=   12
 MEMORY USAGE PER CPU IS 8*(MWORDS + MEMDDI/P)/1024 =    7.2 GBYTES.

 MINIMAL REQUIREMENT FOR THIS RUN IS MWORDS=    1, MEMDDI=       1.
 FOR P=   12, THE MEMORY USAGE PER CPU(CORE) WOULD BE    0.0 GBYTES.


      DIRECT 4-INDEX TRANSFORMATION 
      SCHWARZ INEQUALITY TEST SKIPPED          0 INTEGRAL BLOCKS

      COMPUTING CONTRIBUTIONS TO THE 1-PARTICLE DENSITY MATRICES
                     E(SCF)=       -75.6217706491
                  ZAPT E(2)=        -0.1591870119
                     E(MP2)=       -75.7809576610

      COMPUTING THREE-VIRTUAL CONTRIBUTIONS TO THE LAGRANGIAN
      FORMING BACK-TRANSFORMED INTEGRALS
      COMPUTING (VV|VO) INTEGRAL CLASS 
      SCHWARZ INEQUALITY TEST SKIPPED          0 INTEGRAL BLOCKS
      RESTORING (VO|VO) INTEGRAL CLASS

      SOLVING FOR Z-VECTOR
 DDI: Creating Array [4] - 33 x 50 = 1650 words.

      ITERATION         TESTER  EXPANSION VECTOR NORM
      ===============================================

                                 0.000405546189371
         2        0.0004225494
                                 0.000120233337044
         3        0.0001613226
                                 0.000012731333082
         4        0.0000230132
                                 0.000001547582180
         5        0.0000033421
                                 0.000000208373973
         6        0.0000005500
                                 0.000000024532554
         7        0.0000000904
                                 0.000000002232334
         8        0.0000000106
                                 0.000000000168487
         9        0.0000000010
                                 0.000000000010478
        10        0.0000000001

      CONVERGED - WAVEFUNCTIONS STATIONARY


      COMPUTING LAST CONTRIBUTIONS TO THE 1-PARTICLE DENSITY
 ..... DONE WITH MP2 ENERGY .....
 CPU     0: STEP CPU TIME=     0.05 TOTAL CPU TIME=          0.4 (      0.0 MIN)
 TOTAL WALL CLOCK TIME=          0.8 SECONDS, CPU UTILIZATION IS    55.00%
 ..... END OF 1-ELECTRON GRADIENT ......
 CPU     0: STEP CPU TIME=     0.00 TOTAL CPU TIME=          0.4 (      0.0 MIN)
 TOTAL WALL CLOCK TIME=          0.8 SECONDS, CPU UTILIZATION IS    55.00%

      COMPUTING 2-PARTICLE GRADIENT
      FORMING BACK-TRANSFORMED AMPLITUDES

      BACK-TRANSFORMING CHI, Z-VECTOR, AND OTHER MATRICES TO AO BASIS
 THE COARSE/FINE SCHWARZ SCREENINGS SKIPPED          0/         0 BLOCKS.
 THE NUMBER OF GRADIENT INTEGRAL BLOCKS COMPUTED WAS      5202
 ..... DONE WITH MP2 GRADIENT .....
 CPU     0: STEP CPU TIME=     0.02 TOTAL CPU TIME=          0.5 (      0.0 MIN)
 TOTAL WALL CLOCK TIME=          0.8 SECONDS, CPU UTILIZATION IS    55.42%

          NSERCH=  2     ENERGY=     -75.7809577

                                 -----------------------
                                 GRADIENT (HARTREE/BOHR)
                                 -----------------------
        ATOM     ZNUC       DE/DX         DE/DY         DE/DZ
 --------------------------------------------------------------
    1  O            8.0     0.0000000     0.0000000    -0.0221587
    2  H            1.0    -0.0214995     0.0000000     0.0110793
    3  H            1.0     0.0214995     0.0000000     0.0110793

          MAXIMUM GRADIENT = 0.0221587    RMS GRADIENT = 0.0135850

 NSERCH:   2  E=      -75.7809576610  GRAD. MAX=  0.0221587  R.M.S.=  0.0135850

          HESSIAN UPDATED USING THE BFGS FORMULA
             ACTUAL ENERGY CHANGE WAS   0.0042389955
          PREDICTED ENERGY CHANGE WAS  -0.0034392765 RATIO= -1.233
          MIN SEARCH, CORRECT HESSIAN, TRYING PURE NR STEP
               NR STEP HAS LENGTH         =   0.293514
          TRIM/QA LAMBDA FOR NON-TS MODES =  -0.05951516
          TRIM/QA STEP HAS LENGTH         =   0.204664
          RADIUS OF STEP TAKEN=   0.20466  CURRENT TRUST RADIUS=   0.20466

 BEGINNING GEOMETRY SEARCH POINT NSERCH=   3 ...

 COORDINATES OF SYMMETRY UNIQUE ATOMS (ANGS)
   ATOM   CHARGE       X              Y              Z
 ------------------------------------------------------------
 O           8.0   0.0000000000   0.0000000000  -0.0591323631
 H           1.0  -0.7872807053   0.0000000000   0.5580644366
 COORDINATES OF ALL ATOMS ARE (ANGS)
   ATOM   CHARGE       X              Y              Z
 ------------------------------------------------------------
 O           8.0   0.0000000000   0.0000000000  -0.0591323631
 H           1.0   0.7872807053  -0.0000000000   0.5580644366
 H           1.0  -0.7872807053   0.0000000000   0.5580644366

          INTERNUCLEAR DISTANCES (ANGS.)
          ------------------------------

                1 O          2 H          3 H     

   1 O       0.0000000    1.0003713 *  1.0003713 *
   2 H       1.0003713 *  0.0000000    1.5745614 *
   3 H       1.0003713 *  1.5745614 *  0.0000000  

  * ... LESS THAN  3.000

 ...... END OF ONE-ELECTRON INTEGRALS ......
 CPU     0: STEP CPU TIME=     0.00 TOTAL CPU TIME=          0.5 (      0.0 MIN)
 TOTAL WALL CLOCK TIME=          0.8 SECONDS, CPU UTILIZATION IS    55.42%
  ...... END OF TWO-ELECTRON INTEGRALS .....
 CPU     0: STEP CPU TIME=     0.00 TOTAL CPU TIME=          0.5 (      0.0 MIN)
 TOTAL WALL CLOCK TIME=          0.8 SECONDS, CPU UTILIZATION IS    55.42%

          ---------------------------
                 ROHF SCF CALCULATION
          ---------------------------
     DENSITY MATRIX CONV=  1.00E-05

 DIRECT SCF CALCULATION, SCHWRZ=T   FDIFF=T

                                                                                NONZERO     BLOCKS
 ITER EX      TOTAL ENERGY        E CHANGE  DENSITY CHANGE    ORB. GRAD       INTEGRALS    SKIPPED
          ---------------START SECOND ORDER SCF---------------
   1  0      -75.6261243447   -75.6261243447   0.030667315   0.017044013          13863          0
   2  1      -75.6282735390    -0.0021491943   0.009376729   0.004983218          13863          0
   3  2      -75.6284204232    -0.0001468842   0.001391219   0.000767929          13863          0
   4  3      -75.6284239058    -0.0000034826   0.000469620   0.000316165          13863          0
   5  4      -75.6284244220    -0.0000005162   0.000062530   0.000088567          13863          0
   6  5      -75.6284244411    -0.0000000191   0.000024250   0.000016595          13863          0
   7  6      -75.6284244422    -0.0000000011   0.000004280   0.000002287          13863          0
   8  7      -75.6284244423    -0.0000000000   0.000000482   0.000000648          13863          0

          -----------------
          DENSITY CONVERGED
          -----------------
     TIME TO FORM FOCK OPERATORS=       0.0 SECONDS (       0.0 SEC/ITER)
     FOCK TIME ON FIRST ITERATION=       0.0, LAST ITERATION=       0.0
     TIME TO SOLVE SCF EQUATIONS=       0.0 SECONDS (       0.0 SEC/ITER)

 FINAL ROHF ENERGY IS      -75.6284244423 AFTER   8 ITERATIONS

          --------------------
          SPIN SZ   =    0.500
          S-SQUARED =    0.750
          --------------------
 ...... END OF ROHF CALCULATION ......
 CPU     0: STEP CPU TIME=     0.04 TOTAL CPU TIME=          0.5 (      0.0 MIN)
 TOTAL WALL CLOCK TIME=          0.9 SECONDS, CPU UTILIZATION IS    53.76%



 -------------------------------     ----------------------------
 DISTRIBUTED DATA ZAPT2 GRADIENT     PROGRAM WRITTEN BY C. AIKENS
 -------------------------------     ----------------------------

 DDI: Creating Array [0] - 625 x 15 = 9375 words.
 DDI: Creating Array [1] - 19 x 75 = 1425 words.
 DDI: Creating Array [2] - 15 x 15 = 225 words.
 DDI: Creating Array [3] - 325 x 15 = 4875 words.
    THIS CALCULATION IS RUNNING WITH MWORDS=  250, MEMDDI=    8000, AND P=   12
 MEMORY USAGE PER CPU IS 8*(MWORDS + MEMDDI/P)/1024 =    7.2 GBYTES.

 MINIMAL REQUIREMENT FOR THIS RUN IS MWORDS=    1, MEMDDI=       1.
 FOR P=   12, THE MEMORY USAGE PER CPU(CORE) WOULD BE    0.0 GBYTES.


      DIRECT 4-INDEX TRANSFORMATION 
      SCHWARZ INEQUALITY TEST SKIPPED          0 INTEGRAL BLOCKS

      COMPUTING CONTRIBUTIONS TO THE 1-PARTICLE DENSITY MATRICES
                     E(SCF)=       -75.6284244423
                  ZAPT E(2)=        -0.1576158770
                     E(MP2)=       -75.7860403193

      COMPUTING THREE-VIRTUAL CONTRIBUTIONS TO THE LAGRANGIAN
      FORMING BACK-TRANSFORMED INTEGRALS
      COMPUTING (VV|VO) INTEGRAL CLASS 
      SCHWARZ INEQUALITY TEST SKIPPED          0 INTEGRAL BLOCKS
      RESTORING (VO|VO) INTEGRAL CLASS

      SOLVING FOR Z-VECTOR
 DDI: Creating Array [4] - 33 x 50 = 1650 words.

      ITERATION         TESTER  EXPANSION VECTOR NORM
      ===============================================

                                 0.000389491224161
         2        0.0004224759
                                 0.000122388782500
         3        0.0001736395
                                 0.000011161209499
         4        0.0000206078
                                 0.000001148604010
         5        0.0000026394
                                 0.000000156931592
         6        0.0000004352
                                 0.000000021084709
         7        0.0000000775
                                 0.000000001984802
         8        0.0000000094
                                 0.000000000149011
         9        0.0000000009
                                 0.000000000009274
        10        0.0000000001

      CONVERGED - WAVEFUNCTIONS STATIONARY


      COMPUTING LAST CONTRIBUTIONS TO THE 1-PARTICLE DENSITY
 ..... DONE WITH MP2 ENERGY .....
 CPU     0: STEP CPU TIME=     0.05 TOTAL CPU TIME=          0.6 (      0.0 MIN)
 TOTAL WALL CLOCK TIME=          1.0 SECONDS, CPU UTILIZATION IS    54.46%
 ..... END OF 1-ELECTRON GRADIENT ......
 CPU     0: STEP CPU TIME=     0.00 TOTAL CPU TIME=          0.6 (      0.0 MIN)
 TOTAL WALL CLOCK TIME=          1.0 SECONDS, CPU UTILIZATION IS    53.92%

      COMPUTING 2-PARTICLE GRADIENT
      FORMING BACK-TRANSFORMED AMPLITUDES

      BACK-TRANSFORMING CHI, Z-VECTOR, AND OTHER MATRICES TO AO BASIS
 THE COARSE/FINE SCHWARZ SCREENINGS SKIPPED          0/         0 BLOCKS.
 THE NUMBER OF GRADIENT INTEGRAL BLOCKS COMPUTED WAS      5202
 ..... DONE WITH MP2 GRADIENT .....
 CPU     0: STEP CPU TIME=     0.02 TOTAL CPU TIME=          0.6 (      0.0 MIN)
 TOTAL WALL CLOCK TIME=          1.0 SECONDS, CPU UTILIZATION IS    54.81%

          NSERCH=  3     ENERGY=     -75.7860403

                                 -----------------------
                                 GRADIENT (HARTREE/BOHR)
                                 -----------------------
        ATOM     ZNUC       DE/DX         DE/DY         DE/DZ
 --------------------------------------------------------------
    1  O            8.0     0.0000000     0.0000000    -0.0028819
    2  H            1.0    -0.0067302     0.0000000     0.0014409
    3  H            1.0     0.0067302     0.0000000     0.0014409

          MAXIMUM GRADIENT = 0.0067302    RMS GRADIENT = 0.0033838

 NSERCH:   3  E=      -75.7860403193  GRAD. MAX=  0.0067302  R.M.S.=  0.0033838

          HESSIAN UPDATED USING THE BFGS FORMULA
             ACTUAL ENERGY CHANGE WAS  -0.0050826583
          PREDICTED ENERGY CHANGE WAS  -0.0053871666 RATIO=  0.943
          MIN SEARCH, CORRECT HESSIAN, TRYING PURE NR STEP
               NR STEP HAS LENGTH         =   0.068530
          RADIUS OF STEP TAKEN=   0.06853  CURRENT TRUST RADIUS=   0.40933

 BEGINNING GEOMETRY SEARCH POINT NSERCH=   4 ...

 COORDINATES OF SYMMETRY UNIQUE ATOMS (ANGS)
   ATOM   CHARGE       X              Y              Z
 ------------------------------------------------------------
 O           8.0   0.0000000000   0.0000000000  -0.0456534173
 H           1.0  -0.8101127641   0.0000000000   0.5513249637
 COORDINATES OF ALL ATOMS ARE (ANGS)
   ATOM   CHARGE       X              Y              Z
 ------------------------------------------------------------
 O           8.0   0.0000000000   0.0000000000  -0.0456534173
 H           1.0   0.8101127641  -0.0000000000   0.5513249637
 H           1.0  -0.8101127641   0.0000000000   0.5513249637

          INTERNUCLEAR DISTANCES (ANGS.)
          ------------------------------

                1 O          2 H          3 H     

   1 O       0.0000000    1.0063130 *  1.0063130 *
   2 H       1.0063130 *  0.0000000    1.6202255 *
   3 H       1.0063130 *  1.6202255 *  0.0000000  

  * ... LESS THAN  3.000

 ...... END OF ONE-ELECTRON INTEGRALS ......
 CPU     0: STEP CPU TIME=     0.00 TOTAL CPU TIME=          0.6 (      0.0 MIN)
 TOTAL WALL CLOCK TIME=          1.1 SECONDS, CPU UTILIZATION IS    54.29%
  ...... END OF TWO-ELECTRON INTEGRALS .....
 CPU     0: STEP CPU TIME=     0.00 TOTAL CPU TIME=          0.6 (      0.0 MIN)
 TOTAL WALL CLOCK TIME=          1.1 SECONDS, CPU UTILIZATION IS    54.29%

          ---------------------------
                 ROHF SCF CALCULATION
          ---------------------------
     DENSITY MATRIX CONV=  2.00E-06

 DIRECT SCF CALCULATION, SCHWRZ=T   FDIFF=T

                                                                                NONZERO     BLOCKS
 ITER EX      TOTAL ENERGY        E CHANGE  DENSITY CHANGE    ORB. GRAD       INTEGRALS    SKIPPED
          ---------------START SECOND ORDER SCF---------------
   1  0      -75.6285313936   -75.6285313936   0.009708231   0.006230165          13863          0
   2  1      -75.6287567125    -0.0002253189   0.002734690   0.001645692          13863          0
   3  2      -75.6287690785    -0.0000123660   0.000252257   0.000185955          13863          0
   4  3      -75.6287693251    -0.0000002466   0.000179127   0.000073536          13863          0
   5  4      -75.6287693594    -0.0000000343   0.000026660   0.000015178          13863          0
   6  5      -75.6287693609    -0.0000000015   0.000004896   0.000004791          13863          0
   7  6      -75.6287693610    -0.0000000001   0.000001806   0.000001025          13863          0
   8  7      -75.6287693610    -0.0000000000   0.000000146   0.000000169          13863          0

          -----------------
          DENSITY CONVERGED
          -----------------
     TIME TO FORM FOCK OPERATORS=       0.0 SECONDS (       0.0 SEC/ITER)
     FOCK TIME ON FIRST ITERATION=       0.0, LAST ITERATION=       0.0
     TIME TO SOLVE SCF EQUATIONS=       0.0 SECONDS (       0.0 SEC/ITER)

 FINAL ROHF ENERGY IS      -75.6287693610 AFTER   8 ITERATIONS

          --------------------
          SPIN SZ   =    0.500
          S-SQUARED =    0.750
          --------------------
 ...... END OF ROHF CALCULATION ......
 CPU     0: STEP CPU TIME=     0.05 TOTAL CPU TIME=          0.6 (      0.0 MIN)
 TOTAL WALL CLOCK TIME=          1.1 SECONDS, CPU UTILIZATION IS    54.39%



 -------------------------------     ----------------------------
 DISTRIBUTED DATA ZAPT2 GRADIENT     PROGRAM WRITTEN BY C. AIKENS
 -------------------------------     ----------------------------

 DDI: Creating Array [0] - 625 x 15 = 9375 words.
 DDI: Creating Array [1] - 19 x 75 = 1425 words.
 DDI: Creating Array [2] - 15 x 15 = 225 words.
 DDI: Creating Array [3] - 325 x 15 = 4875 words.
    THIS CALCULATION IS RUNNING WITH MWORDS=  250, MEMDDI=    8000, AND P=   12
 MEMORY USAGE PER CPU IS 8*(MWORDS + MEMDDI/P)/1024 =    7.2 GBYTES.

 MINIMAL REQUIREMENT FOR THIS RUN IS MWORDS=    1, MEMDDI=       1.
 FOR P=   12, THE MEMORY USAGE PER CPU(CORE) WOULD BE    0.0 GBYTES.


      DIRECT 4-INDEX TRANSFORMATION 
      SCHWARZ INEQUALITY TEST SKIPPED          0 INTEGRAL BLOCKS

      COMPUTING CONTRIBUTIONS TO THE 1-PARTICLE DENSITY MATRICES
                     E(SCF)=       -75.6287693610
                  ZAPT E(2)=        -0.1576216140
                     E(MP2)=       -75.7863909750

      COMPUTING THREE-VIRTUAL CONTRIBUTIONS TO THE LAGRANGIAN
      FORMING BACK-TRANSFORMED INTEGRALS
      COMPUTING (VV|VO) INTEGRAL CLASS 
      SCHWARZ INEQUALITY TEST SKIPPED          0 INTEGRAL BLOCKS
      RESTORING (VO|VO) INTEGRAL CLASS

      SOLVING FOR Z-VECTOR
 DDI: Creating Array [4] - 33 x 50 = 1650 words.

      ITERATION         TESTER  EXPANSION VECTOR NORM
      ===============================================

                                 0.000394292387592
         2        0.0004316566
                                 0.000125578304218
         3        0.0001801810
                                 0.000011098757405
         4        0.0000206092
                                 0.000001134761276
         5        0.0000026619
                                 0.000000153826215
         6        0.0000004352
                                 0.000000020956515
         7        0.0000000775
                                 0.000000002002347
         8        0.0000000096
                                 0.000000000149976
         9        0.0000000009
                                 0.000000000009325
        10        0.0000000001

      CONVERGED - WAVEFUNCTIONS STATIONARY


      COMPUTING LAST CONTRIBUTIONS TO THE 1-PARTICLE DENSITY
 ..... DONE WITH MP2 ENERGY .....
[...]
         9        0.0000000010
                                 0.000000000023893
        10        0.0000000007
                                 0.000000000006434
        11        0.0000000008
                                 0.000000000000495
        12        0.0000000000

      CONVERGED - WAVEFUNCTIONS STATIONARY


      COMPUTING LAST CONTRIBUTIONS TO THE 1-PARTICLE DENSITY
 ..... DONE WITH MP2 ENERGY .....
 CPU     0: STEP CPU TIME=     0.06 TOTAL CPU TIME=          2.4 (      0.0 MIN)
 TOTAL WALL CLOCK TIME=          4.6 SECONDS, CPU UTILIZATION IS    52.49%
 ..... END OF 1-ELECTRON GRADIENT ......
 CPU     0: STEP CPU TIME=     0.00 TOTAL CPU TIME=          2.4 (      0.0 MIN)
 TOTAL WALL CLOCK TIME=          4.6 SECONDS, CPU UTILIZATION IS    52.38%

      COMPUTING 2-PARTICLE GRADIENT
      FORMING BACK-TRANSFORMED AMPLITUDES

      BACK-TRANSFORMING CHI, Z-VECTOR, AND OTHER MATRICES TO AO BASIS
 THE COARSE/FINE SCHWARZ SCREENINGS SKIPPED          0/         0 BLOCKS.
 THE NUMBER OF GRADIENT INTEGRAL BLOCKS COMPUTED WAS     10368
 ..... DONE WITH MP2 GRADIENT .....
 CPU     0: STEP CPU TIME=     0.01 TOTAL CPU TIME=          2.4 (      0.0 MIN)
 TOTAL WALL CLOCK TIME=          4.7 SECONDS, CPU UTILIZATION IS    52.26%

 UNITS ARE HARTREE/BOHR    E'X               E'Y               E'Z 
    1 O                0.000009197       0.000000584      -0.000008408
    2 H                0.000002199      -0.000000258       0.000000839
    3 H               -0.000011396      -0.000000326       0.000007569
  $VIB   
          IVIB=   2 IATOM=   3 ICOORD=   2 E=      -75.7864001723
  9.197018145E-06 5.840709024E-07-8.408145028E-06 2.198610531E-06-2.584002061E-07
  8.391655522E-07-1.139562867E-05-3.256706964E-07 7.568979552E-06
 -7.608503678E-06-1.117851071E-02 2.504741201E+00
1   ATOM  3
                                        -------------------
   COORD  3                             NUCLEAR COORDINATES
                                        -------------------
     VIB  2

                       ATOM             X              Y              Z

                 1  O                0.000000       0.000000      -0.081091
                 2  H                1.531750      -0.000000       1.039263
                 3  H               -1.531750       0.000000       1.029263
 ...... END OF ONE-ELECTRON INTEGRALS ......
 CPU     0: STEP CPU TIME=     0.00 TOTAL CPU TIME=          2.4 (      0.0 MIN)
 TOTAL WALL CLOCK TIME=          4.7 SECONDS, CPU UTILIZATION IS    52.15%
  ...... END OF TWO-ELECTRON INTEGRALS .....
 CPU     0: STEP CPU TIME=     0.01 TOTAL CPU TIME=          2.4 (      0.0 MIN)
 TOTAL WALL CLOCK TIME=          4.7 SECONDS, CPU UTILIZATION IS    52.36%

          ---------------------------
                 ROHF SCF CALCULATION
          ---------------------------
     DENSITY MATRIX CONV=  2.00E-06

 DIRECT SCF CALCULATION, SCHWRZ=T   FDIFF=T

                                                                                NONZERO     BLOCKS
 ITER EX      TOTAL ENERGY        E CHANGE  DENSITY CHANGE    ORB. GRAD       INTEGRALS    SKIPPED
          ---------------START SECOND ORDER SCF---------------
   1  0      -75.6290492814   -75.6290492814   0.001681420   0.000716745          25965          0
   2  1      -75.6290541856    -0.0000049042   0.000388292   0.000147124          25965          0
   3  2      -75.6290544589    -0.0000002733   0.000076452   0.000039807          25965          0
   4  3      -75.6290544707    -0.0000000118   0.000019070   0.000016472          25965          0
   5  4      -75.6290544722    -0.0000000015   0.000005040   0.000003190          25965          0
   6  5      -75.6290544722    -0.0000000001   0.000000860   0.000000398          25965          0
   7  6      -75.6290544722     0.0000000000   0.000000214   0.000000114          25963          2

          -----------------
          DENSITY CONVERGED
          -----------------
     TIME TO FORM FOCK OPERATORS=       0.0 SECONDS (       0.0 SEC/ITER)
     FOCK TIME ON FIRST ITERATION=       0.0, LAST ITERATION=       0.0
     TIME TO SOLVE SCF EQUATIONS=       0.0 SECONDS (       0.0 SEC/ITER)

 FINAL ROHF ENERGY IS      -75.6290544722 AFTER   7 ITERATIONS

          --------------------
          SPIN SZ   =    0.500
          S-SQUARED =    0.750
          --------------------
 ...... END OF ROHF CALCULATION ......
 CPU     0: STEP CPU TIME=     0.06 TOTAL CPU TIME=          2.5 (      0.0 MIN)
 TOTAL WALL CLOCK TIME=          4.8 SECONDS, CPU UTILIZATION IS    52.52%



 -------------------------------     ----------------------------
 DISTRIBUTED DATA ZAPT2 GRADIENT     PROGRAM WRITTEN BY C. AIKENS
 -------------------------------     ----------------------------

 DDI: Creating Array [0] - 625 x 15 = 9375 words.
 DDI: Creating Array [1] - 19 x 75 = 1425 words.
 DDI: Creating Array [2] - 15 x 15 = 225 words.
 DDI: Creating Array [3] - 325 x 15 = 4875 words.
    THIS CALCULATION IS RUNNING WITH MWORDS=  250, MEMDDI=    8000, AND P=   12
 MEMORY USAGE PER CPU IS 8*(MWORDS + MEMDDI/P)/1024 =    7.2 GBYTES.

 MINIMAL REQUIREMENT FOR THIS RUN IS MWORDS=    1, MEMDDI=       1.
 FOR P=   12, THE MEMORY USAGE PER CPU(CORE) WOULD BE    0.0 GBYTES.


      DIRECT 4-INDEX TRANSFORMATION 
      SCHWARZ INEQUALITY TEST SKIPPED          0 INTEGRAL BLOCKS

      COMPUTING CONTRIBUTIONS TO THE 1-PARTICLE DENSITY MATRICES
                     E(SCF)=       -75.6290544722
                  ZAPT E(2)=        -0.1573373175
                     E(MP2)=       -75.7863917898

      COMPUTING THREE-VIRTUAL CONTRIBUTIONS TO THE LAGRANGIAN
      FORMING BACK-TRANSFORMED INTEGRALS
      COMPUTING (VV|VO) INTEGRAL CLASS 
      SCHWARZ INEQUALITY TEST SKIPPED          0 INTEGRAL BLOCKS
      RESTORING (VO|VO) INTEGRAL CLASS

      SOLVING FOR Z-VECTOR
 DDI: Creating Array [4] - 99 x 50 = 4950 words.

      ITERATION         TESTER  EXPANSION VECTOR NORM
      ===============================================

                                 0.000389947130831
         2        0.0004270705
                                 0.000123748535964
         3        0.0001777072
                                 0.000010767043304
         4        0.0000199583
                                 0.000001085610071
         5        0.0000025571
                                 0.000000146712384
         6        0.0000004171
                                 0.000000020252828
         7        0.0000000747
                                 0.000000001941722
         8        0.0000000092
                                 0.000000000146239
         9        0.0000000009
                                 0.000000000009881
        10        0.0000000001

      CONVERGED - WAVEFUNCTIONS STATIONARY


      COMPUTING LAST CONTRIBUTIONS TO THE 1-PARTICLE DENSITY
 ..... DONE WITH MP2 ENERGY .....
 CPU     0: STEP CPU TIME=     0.06 TOTAL CPU TIME=          2.6 (      0.0 MIN)
 TOTAL WALL CLOCK TIME=          4.9 SECONDS, CPU UTILIZATION IS    52.67%
 ..... END OF 1-ELECTRON GRADIENT ......
 CPU     0: STEP CPU TIME=     0.00 TOTAL CPU TIME=          2.6 (      0.0 MIN)
 TOTAL WALL CLOCK TIME=          4.9 SECONDS, CPU UTILIZATION IS    52.67%

      COMPUTING 2-PARTICLE GRADIENT
      FORMING BACK-TRANSFORMED AMPLITUDES

      BACK-TRANSFORMING CHI, Z-VECTOR, AND OTHER MATRICES TO AO BASIS
 THE COARSE/FINE SCHWARZ SCREENINGS SKIPPED          0/         0 BLOCKS.
 THE NUMBER OF GRADIENT INTEGRAL BLOCKS COMPUTED WAS     10368
 ..... DONE WITH MP2 GRADIENT .....
 CPU     0: STEP CPU TIME=     0.02 TOTAL CPU TIME=          2.6 (      0.0 MIN)
 TOTAL WALL CLOCK TIME=          4.9 SECONDS, CPU UTILIZATION IS    52.65%

 UNITS ARE HARTREE/BOHR    E'X               E'Y               E'Z 
    1 O               -0.002083260       0.000000000       0.001846516
    2 H                0.000217655       0.000000000      -0.000167469
    3 H                0.001865605       0.000000000      -0.001679047
  $VIB   
          IVIB=   2 IATOM=   3 ICOORD=   3 E=      -75.7863917898
 -2.083260259E-03 0.000000000E+00 1.846516243E-03 2.176552819E-04 0.000000000E+00
 -1.674693330E-04 1.865604977E-03 0.000000000E+00-1.679046910E-03
  1.702177473E-03-1.005457165E-16 2.495264228E+00
 ...... END OF NUMERICAL HESSIAN CALCULATION ......
 CPU     0: STEP CPU TIME=     0.00 TOTAL CPU TIME=          2.6 (      0.0 MIN)
 TOTAL WALL CLOCK TIME=          4.9 SECONDS, CPU UTILIZATION IS    52.65%

          ---------------
          ENERGY GRADIENT
          ---------------

 UNITS ARE HARTREE/BOHR    E'X               E'Y               E'Z 
    1 O                0.000000000       0.000000000      -0.000001685
    2 H                0.000002318       0.000000000       0.000000843
    3 H               -0.000002318       0.000000000       0.000000843

          -------------------------------
          CARTESIAN FORCE CONSTANT MATRIX
          -------------------------------

                                   1                          2
                               O                          H         
                          X        Y        Z        X        Y        Z
  1   O            X 0.563432 0.000000-0.000000-0.281727 0.000000-0.206060
                   Y 0.000000 0.000028-0.000000 0.000000-0.000037 0.000000
                   Z-0.000000-0.000000 0.368542-0.163151 0.000000-0.184272
  2   H            X-0.281727 0.000000-0.163151 0.302373-0.000000 0.184600
                   Y 0.000000-0.000037 0.000000-0.000000 0.000033-0.000000
                   Z-0.206060 0.000000-0.184272 0.184600-0.000000 0.167486
  3   H            X-0.281727-0.000000 0.163151-0.020635 0.000000 0.021450
                   Y 0.000000-0.000037-0.000000 0.000000 0.000026-0.000000
                   Z 0.206060 0.000000-0.184272-0.021450 0.000000 0.016787

                                   3
                               H         
                          X        Y        Z
  3   H            X 0.302373-0.000000-0.184600
                   Y-0.000000 0.000033 0.000000
                   Z-0.184600 0.000000 0.167486

          ------------------------          ----------------
          DIPOLE DERIVATIVE TENSOR          (DEBYE/ANGSTROM)
          ------------------------          ----------------

        ATOM                 MU-X           MU-Y           MU-Z
     O          D/DX    -5.105368847    0.000000000   -0.000000064
                D/DY     0.000000000   -4.224819498    0.000000000
                D/DZ     0.000000000    0.000000000   -3.586878506
     H          D/DX     2.552838946   -0.000000000    0.376305038
                D/DY    -0.000000021    2.112432966    0.000000105
                D/DZ     0.322074750   -0.000000000    1.793450640
     H          D/DX     2.552838946    0.000000000   -0.376305038
                D/DY    -0.000000021    2.112432966   -0.000000105
                D/DZ    -0.322074750    0.000000000    1.793450640

          --------------------------------------------------------
          NORMAL COORDINATE ANALYSIS IN THE HARMONIC APPROXIMATION
          --------------------------------------------------------

          ATOMIC WEIGHTS (AMU)

    1     O                15.99491
    2     H                 1.00782
    3     H                 1.00782

 MODES    1 TO    6 ARE TAKEN AS ROTATIONS AND TRANSLATIONS.

 ANALYZING SYMMETRY OF NORMAL MODES...

 --- SYMMETRY FOR NORMAL MODES ---
 INCLUDING TRANSLATION AND ROTATION
    3*A1     1*A2     3*B1     2*B2  
 EXCLUDING TRANSLATION AND ROTATION (SAYVETZ < 0.01)
    2*A1     0*A2     1*B1     0*B2  

     FREQUENCIES IN CM**-1, IR INTENSITIES IN DEBYE**2/AMU-ANGSTROM**2,
     REDUCED MASSES IN AMU.

                            1           2           3           4           5
       FREQUENCY:        10.84        5.18        0.01       12.18       13.17  
        SYMMETRY:         B1          B2          A1          B1          A2  
    REDUCED MASS:      2.84594     9.59995     6.00359     1.29213     1.00782
    IR INTENSITY:      1.41881     0.16210     0.00000     1.79250     0.00000

  1   O            X  0.20759394  0.00000011 -0.00000000  0.12116589  0.00000000
                   Y -0.00000009  0.24437525  0.00000000 -0.00000006 -0.00000000
                   Z -0.00000000 -0.00000000  0.23563343  0.00000000  0.00000000
  2   H            X -0.07435167  0.00000007  0.00000166  0.43804860  0.00000003
                   Y -0.00000013  0.14907710  0.00000000  0.00000005  0.70435636
                   Z  0.38550407  0.00000006  0.23563092 -0.43327923 -0.00000001
  3   H            X -0.07435167  0.00000007 -0.00000167  0.43804860 -0.00000003
                   Y -0.00000013  0.14907710 -0.00000000  0.00000005 -0.70435636
                   Z -0.38550407 -0.00000006  0.23563091  0.43327924 -0.00000001

 TRANS. SAYVETZ    X  3.17057949  0.00000191 -0.00000001  2.82099020  0.00000000
                   Y -0.00000173  4.20924738  0.00000000 -0.00000089  0.00000000
                   Z -0.00000000  0.00000000  4.24388501  0.00000002 -0.00000000
               TOTAL  3.17057949  4.20924738  4.24388501  2.82099020  0.00000000

   ROT. SAYVETZ    X  0.00000007  0.19112143  0.00000000 -0.00000023  0.00000000
                   Y -1.75567794 -0.00000025 -0.00000001  1.97324913 -0.00000000
                   Z -0.00000000 -0.00000000  0.00000000  0.00000000  2.17468068
               TOTAL  1.75567794  0.19112143  0.00000001  1.97324913  2.17468068

                            6           7           8           9
       FREQUENCY:        40.28     1472.94     3426.36     3502.72  
        SYMMETRY:         B2          A1          A1          B1  
    REDUCED MASS:      1.05198     1.08254     1.04529     1.08496
    IR INTENSITY:      9.80928     3.47886     3.98949    11.55689

  1   O            X  0.00000000 -0.00000000 -0.00000000 -0.06887286
                   Y -0.05292094 -0.00000000  0.00000000  0.00000000
                   Z -0.00000000 -0.06786359 -0.04890100  0.00000000
  2   H            X -0.00000005 -0.41177238  0.57145551  0.54653739
                   Y  0.68839952  0.00000002 -0.00000002 -0.00000002
                   Z  0.00000010  0.53853073  0.38804718  0.39971688
  3   H            X -0.00000005  0.41177238 -0.57145548  0.54653742
                   Y  0.68839952 -0.00000002  0.00000002 -0.00000002
                   Z -0.00000010  0.53853073  0.38804716 -0.39971690

 TRANS. SAYVETZ    X -0.00000005 -0.00000001  0.00000002  0.00001294
                   Y  0.54110675 -0.00000000  0.00000000 -0.00000004
                   Z -0.00000000  0.00001747  0.00000022  0.00000000
               TOTAL  0.54110675  0.00001747  0.00000022  0.00001294

   ROT. SAYVETZ    X -1.48672583 -0.00000000  0.00000000  0.00000004
                   Y -0.00000042  0.00000000 -0.00000000  0.00009683
                   Z  0.00000000  0.00000006 -0.00000005  0.00000000
               TOTAL  1.48672583  0.00000006  0.00000005  0.00009683

 REFERENCE ON SAYVETZ CONDITIONS - A. SAYVETZ, J.CHEM.PHYS., 7, 383-389(1939).

 NOTE - THE MODES J,K ARE ORTHONORMALIZED ACCORDING TO
 SUM ON I   M(I) * (X(I,J)*X(I,K) + Y(I,J)*Y(I,K) + Z(I,J)*Z(I,K)) = DELTA(J,K)

  MODE FREQ(CM**-1)  SYMMETRY  RED. MASS  IR INTENS.
     1      10.839    B1       2.845935    1.418807
     2       5.178    B2       9.599949    0.162095
     3       0.006    A1       6.003591    0.000000
     4      12.182    B1       1.292130    1.792498
     5      13.170    A2       1.007825    0.000000
     6      40.281    B2       1.051980    9.809281
     7    1472.936    A1       1.082545    3.478863
     8    3426.359    A1       1.045287    3.989495
     9    3502.724    B1       1.084955   11.556891

     -------------------------------
     THERMOCHEMISTRY AT T=  298.15 K
     -------------------------------

 USING IDEAL GAS, RIGID ROTOR, HARMONIC NORMAL MODE APPROXIMATIONS.
 P=  1.01325E+05 PASCAL.
 ALL FREQUENCIES ARE SCALED BY   1.00000
 THE MOMENTS OF INERTIA ARE (IN AMU*BOHR**2)
      2.24688     4.72924     6.97612
 THE ROTATIONAL SYMMETRY NUMBER IS  2.0
 THE ROTATIONAL CONSTANTS ARE (IN GHZ)
    802.48495   381.26417   258.46588
      7 -      9 VIBRATIONAL MODES ARE USED IN THERMOCHEMISTRY.
 THE HARMONIC ZERO POINT ENERGY IS (SCALED BY   1.000)
        0.019141 HARTREE/MOLECULE     4201.009395 CM**-1/MOLECULE 
       12.011301 KCAL/MOL               50.255282 KJ/MOL

               Q               LN Q
 ELEC.     2.00000E+00       0.693147
 TRANS.    3.00431E+06      14.915558
 ROT.      4.87308E+01       3.886312
 VIB.      1.00082E+00       0.000819
 TOT.      2.93045E+08      19.495836

              E         H         G         CV        CP        S
           KJ/MOL    KJ/MOL    KJ/MOL   J/MOL-K   J/MOL-K   J/MOL-K
 ELEC.      0.000     0.000    -1.718     0.000     0.000     5.763
 TRANS.     3.718     6.197   -36.975    12.472    20.786   144.800
 ROT.       3.718     3.718    -9.634    12.472    12.472    44.784
 VIB.      50.270    50.270    50.253     0.345     0.345     0.055
 TOTAL     57.707    60.185     1.926    25.288    33.602   195.402
 VIB. THERMAL CORRECTION E(T)-E(0) = H(T)-H(0) =    14.440 J/MOL

              E         H         G         CV        CP        S
         KCAL/MOL  KCAL/MOL  KCAL/MOL CAL/MOL-K CAL/MOL-K CAL/MOL-K
 ELEC.      0.000     0.000    -0.411     0.000     0.000     1.377
 TRANS.     0.889     1.481    -8.837     2.981     4.968    34.608
 ROT.       0.889     0.889    -2.303     2.981     2.981    10.704
 VIB.      12.015    12.015    12.011     0.082     0.082     0.013
 TOTAL     13.792    14.385     0.460     6.044     8.031    46.702
 VIB. THERMAL CORRECTION E(T)-E(0) = H(T)-H(0) =     3.451 CAL/MOL
 ......END OF NORMAL COORDINATE ANALYSIS......
 CPU     0: STEP CPU TIME=     0.01 TOTAL CPU TIME=          2.6 (      0.0 MIN)
 TOTAL WALL CLOCK TIME=          4.9 SECONDS, CPU UTILIZATION IS    52.75%
               580000  WORDS OF DYNAMIC MEMORY USED
 EXECUTION OF GAMESS TERMINATED NORMALLY Thu Jan 25 16:55:49 2024
 DDI: 284104 bytes (0.3 MB / 0 MWords) used by master data server.
Note: The following floating-point exceptions are signalling: IEEE_DENORMAL
Note: The following floating-point exceptions are signalling: IEEE_DENORMAL
Note: The following floating-point exceptions are signalling: IEEE_DENORMAL
Note: The following floating-point exceptions are signalling: IEEE_DENORMAL
Note: The following floating-point exceptions are signalling: IEEE_DENORMAL
Note: The following floating-point exceptions are signalling: IEEE_DENORMAL
Note: The following floating-point exceptions are signalling: IEEE_DENORMAL
Note: The following floating-point exceptions are signalling: IEEE_DENORMAL
Note: The following floating-point exceptions are signalling: IEEE_DENORMAL
Note: The following floating-point exceptions are signalling: IEEE_DENORMAL

 ----------------------------------------
 CPU timing information for all processes
 ========================================
 0: 1.811 + 0.789 = 2.601
 1: 1.291 + 0.563 = 1.855
 2: 1.133 + 0.447 = 1.581
 3: 1.649 + 0.596 = 2.245
 4: 1.280 + 0.541 = 1.822
 5: 1.107 + 0.403 = 1.511
 6: 1.620 + 0.518 = 2.138
 7: 1.231 + 0.415 = 1.647
 8: 1.178 + 0.257 = 1.435
 9: 1.425 + 0.418 = 1.844
 10: 1.158 + 0.439 = 1.597
 11: 1.77 + 0.276 = 1.353
 ----------------------------------------
Note: The following floating-point exceptions are signalling: IEEE_DENORMAL
Note: The following floating-point exceptions are signalling: IEEE_DENORMAL
 ddikick.x: exited gracefully.
unset echo
----- accounting info -----
Files used on the master node io003 were:
-rwxr-xr-x 1 bjb2chen nooijen    2474 Jan 25 16:55 /home/bjb2chen/gmsscr//H2Ocat_ccd_rohf_C2v_mp2_gh.F05*
-rw-r--r-- 1 bjb2chen nooijen 2486720 Jan 25 16:55 /home/bjb2chen/gmsscr//H2Ocat_ccd_rohf_C2v_mp2_gh.F10
ls: No match.
ls: No match.
ls: No match.
Thu 25 Jan 2024 04:55:53 PM EST
0.336u 0.112s 0:08.60 5.1%	0+0k 8+208io 0pf+0w
