----- GAMESS execution script 'rungms' -----
This job is running on host io002
under operating system Linux at Thu 25 Jan 2024 05:20:23 PM EST
Available scratch disk space (Kbyte units) at beginning of the job is
Filesystem             1K-blocks       Used Available Use% Mounted on
helmholtz.nlogn:/home 6391504896 5248412672 820954112  87% /home
GAMESS temporary binary files will be written to /home/bjb2chen/gmsscr/
GAMESS supplementary output files will be written to /home/bjb2chen/gamess/vibronics/template_examples/H2O
Copying input file H2Ocat_cct_gmcpt_C1_3st_diab_mode8_+0.05_mode7_+0.05.inp to your run's scratch directory...
cp H2Ocat_cct_gmcpt_C1_3st_diab_mode8_+0.05_mode7_+0.05.inp /home/bjb2chen/gmsscr//H2Ocat_cct_gmcpt_C1_3st_diab_mode8_+0.05_mode7_+0.05.F05
unset echo
 
Assuming a single but multicore node.
 
/home/bjb2chen/gamess/ddikick.x /home/bjb2chen/gamess/gamess.00.x H2Ocat_cct_gmcpt_C1_3st_diab_mode8_+0.05_mode7_+0.05 -ddi 1 2 io002:cpus=2 -scr /home/bjb2chen/gmsscr/

 Distributed Data Interface kickoff program.
 Initiating 2 compute processes on 1 nodes to run the following command:
 /home/bjb2chen/gamess/gamess.00.x H2Ocat_cct_gmcpt_C1_3st_diab_mode8_+0.05_mode7_+0.05 

          ******************************************************
          *         GAMESS VERSION = 02 AUG 2018 (R2)         *
          *             FROM IOWA STATE UNIVERSITY             *
          * M.W.SCHMIDT, K.K.BALDRIDGE, J.A.BOATZ, S.T.ELBERT, *
          *   M.S.GORDON, J.H.JENSEN, S.KOSEKI, N.MATSUNAGA,   *
          *          K.A.NGUYEN, S.J.SU, T.L.WINDUS,           *
          *       TOGETHER WITH M.DUPUIS, J.A.MONTGOMERY       *
          *         J.COMPUT.CHEM.  14, 1347-1363(1993)        *
          **************** 64 BIT LINUX VERSION ****************

  SINCE 1993, STUDENTS AND POSTDOCS WORKING AT IOWA STATE UNIVERSITY
  AND ALSO IN THEIR VARIOUS JOBS AFTER LEAVING ISU HAVE MADE IMPORTANT
  CONTRIBUTIONS TO THE CODE:
     IVANA ADAMOVIC, CHRISTINE AIKENS, YURI ALEXEEV, POOJA ARORA,
     ANDREY ASADCHEV, ROB BELL, PRADIPTA BANDYOPADHYAY, JONATHAN BENTZ,
     BRETT BODE, KURT BRORSEN, CALEB CARLIN, GALINA CHABAN, WEI CHEN,
     CHEOL HO CHOI, PAUL DAY, ALBERT DEFUSCO, NUWAN DESILVA, TIM DUDLEY,
     DMITRI FEDOROV, ALEX FINDLATER, GRAHAM FLETCHER, MARK FREITAG,
     KURT GLAESEMANN, ANASTASIA GUININA,
     DAN KEMP, GRANT MERRILL, NORIYUKI MINEZAWA, JONATHAN MULLIN,
     TAKESHI NAGATA, SEAN NEDD, HEATHER NETZLOFF, BOSILJKA NJEGIC, RYAN OLSON,
     MIKE PAK, BUU PHAM,
     SPENCER PRUITT, LUKE ROSKOP, JIM SHOEMAKER, LYUDMILA SLIPCHENKO,
     TONY SMITH, SAROM SOK LEANG, JIE SONG, TETSUYA TAKETSUGU, SIMON WEBB,
     PENG XU, SOOHAENG YOO, FEDERICO ZAHARIEV

  ADDITIONAL CODE HAS BEEN PROVIDED BY COLLABORATORS IN OTHER GROUPS:
     IOWA STATE UNIVERSITY:
          JOE IVANIC, AARON WEST, LAIMUTIS BYTAUTAS, KLAUS RUEDENBERG
     UNIVERSITY OF TOKYO: KIMIHIKO HIRAO, TAKAHITO NAKAJIMA,
          TAKAO TSUNEDA, MUNEAKI KAMIYA, SUSUMU YANAGISAWA,
          KIYOSHI YAGI, MAHITO CHIBA, SEIKEN TOKURA, NAOAKI KAWAKAMI
     UNIVERSITY OF AARHUS: FRANK JENSEN
     UNIVERSITY OF IOWA: VISVALDAS KAIRYS, HUI LI
     NATIONAL INST. OF STANDARDS AND TECHNOLOGY: WALT STEVENS, DAVID GARMER
     UNIVERSITY OF PISA: BENEDETTA MENNUCCI, JACOPO TOMASI
     UNIVERSITY OF MEMPHIS: HENRY KURTZ, PRAKASHAN KORAMBATH
     UNIVERSITY OF ALBERTA: TOBY ZENG, MARIUSZ KLOBUKOWSKI
     UNIVERSITY OF NEW ENGLAND: MARK SPACKMAN
     MIE UNIVERSITY: HIROAKI UMEDA
     NAT. INST. OF ADVANCED INDUSTRIAL SCIENCE AND TECHNOLOGY: KAZUO KITAURA
     MICHIGAN STATE UNIVERSITY:
          KAROL KOWALSKI, MARTA WLOCH, JEFFREY GOUR, JESSE LUTZ,
          WEI LI, JUN SHEN, J. EMILIANO DEUSTUA, PIOTR PIECUCH
     UNIVERSITY OF MINNESOTA:
          YINAN SHU
     UNIVERSITY OF SILESIA: MONIKA MUSIAL, STANISLAW KUCHARSKI
     FACULTES UNIVERSITAIRES NOTRE-DAME DE LA PAIX:
          OLIVIER QUINET, BENOIT CHAMPAGNE
     UNIVERSITY OF CALIFORNIA - SANTA BARBARA: BERNARD KIRTMAN
     INSTITUTE FOR MOLECULAR SCIENCE:
          KAZUYA ISHIMURA, MICHIO KATOUDA, AND SHIGERU NAGASE
     UNIVERSITY OF NOTRE DAME: ANNA POMOGAEVA, DAN CHIPMAN
     KYUSHU UNIVERSITY:
          HARUYUKI NAKANO,
          FENG LONG GU, JACEK KORCHOWIEC, MARCIN MAKOWSKI, AND YURIKO AOKI,
          HIROTOSHI MORI AND EISAKU MIYOSHI
     PENNSYLVANIA STATE UNIVERSITY:
          TZVETELIN IORDANOV, CHET SWALINA, JONATHAN SKONE,
          SHARON HAMMES-SCHIFFER
     WASEDA UNIVERSITY:
          MASATO KOBAYASHI, TOMOKO AKAMA, TSUGUKI TOUMA,
          TAKESHI YOSHIKAWA, YASUHIRO IKABATA, JUNJI SEINO,
          YUYA NAKAJIMA, HIROMI NAKAI
     NANJING UNIVERSITY: SHUHUA LI
     UNIVERSITY OF NEBRASKA:
          PEIFENG SU, DEJUN SI, NANDUN THELLAMUREGE, YALI WANG, HUI LI
     UNIVERSITY OF ZURICH: ROBERTO PEVERATI, KIM BALDRIDGE
     N. COPERNICUS UNIVERSITY AND JACKSON STATE UNIVERSITY:
          MARIA BARYSZ
     UNIVERSITY OF COPENHAGEN: Jimmy Kromann, CASPER STEINMANN
     TOKYO INSTITUTE OF TECHNOLOGY: HIROYA NAKATA
     NAGOYA UNIVERSITY: YOSHIO NISHIMOTO, STEPHAN IRLE
     MOSCOW STATE UNIVERSITY: VLADIMIR MIRONOV


 PARALLEL VERSION RUNNING ON        2 PROCESSORS IN        1 NODES.

 EXECUTION OF GAMESS BEGUN Thu Jan 25 17:20:24 2024

            ECHO OF THE FIRST FEW INPUT CARDS -
 INPUT CARD> !############################################################################# 
 INPUT CARD> !                   D_3h RHF GEOMETRY OPTIMIZATION AND HESSIAN TEMPLATE        
 INPUT CARD> ! ---------------------------------------------------------------------------  
 INPUT CARD> ! Replace the symmetry-correct coordinates, should only be two atoms.          
 INPUT CARD> ! The hydrogen or fluorine should have only one non-zero x,y,z coordinate.     
 INPUT CARD> !                                                                              
 INPUT CARD> ! Basis set?   gbasis=ccd for 2nd row,                                         
 INPUT CARD> !                         cct 3rd/4th,                                         
 INPUT CARD> !                   SPKrTZP for heavy,                                         
 INPUT CARD> !                   SPKrTZC beyond 4th                                         
 INPUT CARD> !                                                                              
 INPUT CARD> !############################################################################# 
 INPUT CARD> $system kdiag=3 mwords=250 memddi=8000 parall=.t. $end                         
 INPUT CARD> $contrl runtyp=energy ispher=1 $end                                            
 INPUT CARD> $contrl icut=9 itol=20 inttyp=rysquad qmttol=1.0d-05 nosym=1 $end              
 INPUT CARD> $contrl scftyp=mcscf  mult=2 maxit=200 icharg=1 mplevl=2 $end                  
 INPUT CARD> $scf    npunch=2 conv=1.0d-06 dirscf=.t. $end                                  
 INPUT CARD> $force  method=seminum $end                                                    
 INPUT CARD> $trans  dirtrf=.t. $end                                                        
 INPUT CARD> $statpt hssend=.t. $end                                                        
 INPUT CARD> $basis  gbasis=ccd $end                                                        
 INPUT CARD> !############################################################################# 
 INPUT CARD> !                                                                              
 INPUT CARD> !                       TURN ON THIS SECTION IF HEAVY ATOM                     
 INPUT CARD> !                                                                              
 INPUT CARD> !############################################################################# 
 INPUT CARD> !                                                                              
 INPUT CARD> -contrl relwfn=LUT-IOTC $end                                                   
 INPUT CARD> -scf  diis=.t. soscf=.f. ethrsh=10.0 $end                                      
 INPUT CARD> -guess iorder(25)=27,25,26 $end                                                
 INPUT CARD> -gmcpt nsolut=100 $end                                                         
 INPUT CARD> !                                                                              
 INPUT CARD> !############################################################################# 
 INPUT CARD> !                                                                              
 INPUT CARD> !       TURN ON THIS SECTION IF GMCPT, CHANGE runtyp=energy, scftyp=mcscf      
 INPUT CARD> !                                                                              
 INPUT CARD> !############################################################################# 
 INPUT CARD> $guess  guess=moread norb=24 purify=.t. norder=1 $end                          
 INPUT CARD> $mcscf  cistep=gmcci fullnr=.t. finci=mos                                      
 INPUT CARD>         acurcy=1.d-6 maxit=100 $end                                            
 INPUT CARD> $mrmp   mrpt=gmcpt rdvecs=.f. $end                                             
 INPUT CARD> $gmcpt  nmofzc=0 nmodoc=1 nmoact=6 nelact=7 stsym(1)=A                         
 INPUT CARD>         reftyp=ormas nspace=1 mstart(1)=2 mine(1)=7 maxe(1)=7                  
 INPUT CARD>         kstate(1)=1,1,1                                                        
 INPUT CARD>         wstate(1)=1,1,1                                                        
 INPUT CARD>         iwgt=0 thrwgt=-1.0 krot=.f. kszdoe=.f. knospn=.f.                      
 INPUT CARD>         thrde=-1.0 edshft=0.02 $end                                            
 INPUT CARD> !if SOC: transt $end, add knospn=.t.                                           
 INPUT CARD> !############################################################################# 
 INPUT CARD> !                                                                              
  250000000 WORDS OF MEMORY AVAILABLE

     BASIS OPTIONS
     -------------
     GBASIS=CCD          IGAUSS=       0      POLAR=NONE    
     NDFUNC=       0     NFFUNC=       0     DIFFSP=       F
     NPFUNC=       0      DIFFS=       F     BASNAM=        


     RUN TITLE
     ---------
  H2O cation diabatization 3 states                                              

 THE POINT GROUP OF THE MOLECULE IS C1      
 THE ORDER OF THE PRINCIPAL AXIS IS     0

 ATOM      ATOMIC                      COORDINATES (BOHR)
           CHARGE         X                   Y                   Z
 O           8.0     0.0000000000        0.0000000000       -0.0825197321
 H           1.0     1.5312198919        0.0000000001        1.0505979821
 H           1.0    -1.5312198916       -0.0000000001        1.0505979819

          INTERNUCLEAR DISTANCES (ANGS.)
          ------------------------------

                1 O          2 H          3 H     

   1 O       0.0000000    1.0080223 *  1.0080223 *
   2 H       1.0080223 *  0.0000000    1.6205735 *
   3 H       1.0080223 *  1.6205735 *  0.0000000  

  * ... LESS THAN  3.000


     ATOMIC BASIS SET
     ----------------
 THE CONTRACTED PRIMITIVE FUNCTIONS HAVE BEEN UNNORMALIZED
 THE CONTRACTED BASIS FUNCTIONS ARE NOW NORMALIZED TO UNITY

  SHELL TYPE  PRIMITIVE        EXPONENT          CONTRACTION COEFFICIENT(S)

 O         

      1   S       1         11720.0000000    0.000709645947
      1   S       2          1759.0000000    0.005467272292
      1   S       3           400.8000000    0.027823118610
      1   S       4           113.7000000    0.104747739711
      1   S       5            37.0300000    0.282920846357
      1   S       6            13.2700000    0.448495238698
      1   S       7             5.0250000    0.270816885213
      1   S       8             1.0130000    0.015450291607

      2   S       9         11720.0000000   -0.000314443412
      2   S      10          1759.0000000   -0.002482137681
      2   S      11           400.8000000   -0.012316355382
      2   S      12           113.7000000   -0.050538917344
      2   S      13            37.0300000   -0.139384903316
      2   S      14            13.2700000   -0.325077494818
      2   S      15             5.0250000   -0.229848307588
      2   S      16             1.0130000    1.095379346788

      3   S      17             0.3023000    1.000000000000

      4   P      18            17.7000000    0.062679166282
      4   P      19             3.8540000    0.333536565879
      4   P      20             1.0460000    0.741239641640

      5   P      21             0.2753000    1.000000000000

      6   D      22             1.1850000    1.000000000000

 H         

      7   S      23            13.0100000    0.033498726390
      7   S      24             1.9620000    0.234800801174
      7   S      25             0.4446000    0.813682957883

      8   S      26             0.1220000    1.000000000000

      9   P      27             0.7270000    1.000000000000

 H         

     10   S      28            13.0100000    0.033498726390
     10   S      29             1.9620000    0.234800801174
     10   S      30             0.4446000    0.813682957883

     11   S      31             0.1220000    1.000000000000

     12   P      32             0.7270000    1.000000000000

 TOTAL NUMBER OF BASIS SET SHELLS             =   12
 NUMBER OF CARTESIAN GAUSSIAN BASIS FUNCTIONS =   25
 NOTE: THIS RUN WILL RESTRICT THE MO VARIATION SPACE TO SPHERICAL HARMONICS.
 THE NUMBER OF ORBITALS KEPT IN THE VARIATIONAL SPACE WILL BE PRINTED LATER.
 NUMBER OF ELECTRONS                          =    9
 CHARGE OF MOLECULE                           =    1
 SPIN MULTIPLICITY                            =    2
 NUMBER OF OCCUPIED ORBITALS (ALPHA)          =    5
 NUMBER OF OCCUPIED ORBITALS (BETA )          =    4
 TOTAL NUMBER OF ATOMS                        =    3
 THE NUCLEAR REPULSION ENERGY IS        8.7259904589

     $CONTRL OPTIONS
     ---------------
 SCFTYP=MCSCF        RUNTYP=ENERGY       EXETYP=RUN     
 MPLEVL=       2     CITYP =NONE         CCTYP =NONE         VBTYP =NONE    
 DFTTYP=NONE         TDDFT =NONE    
 MULT  =       2     ICHARG=       1     NZVAR =       0     COORD =UNIQUE  
 PP    =NONE         RELWFN=NONE         LOCAL =NONE         NUMGRD=       F
 ISPHER=       1     NOSYM =       1     MAXIT =     200     UNITS =ANGS    
 PLTORB=       F     MOLPLT=       F     AIMPAC=       F     FRIEND=        
 NPRINT=       7     IREST =       0     GEOM  =INPUT   
 NORMF =       0     NORMP =       0     ITOL  =      20     ICUT  =       9
 INTTYP=RYSQUAD      GRDTYP=BEST         QMTTOL= 1.0E-05

     $SYSTEM OPTIONS
     ---------------
  REPLICATED MEMORY=   250000000 WORDS (ON EVERY NODE).
 DISTRIBUTED MEMDDI=        8000 MILLION WORDS IN AGGREGATE,
 MEMDDI DISTRIBUTED OVER   2 PROCESSORS IS  4000000000 WORDS/PROCESSOR.
 TOTAL MEMORY REQUESTED ON EACH PROCESSOR=  4250000000 WORDS.
 TIMLIM=      525600.00 MINUTES, OR     365.0 DAYS.
 PARALL= T  BALTYP=  DLB     KDIAG=    3  COREFL= F
 MXSEQ2=     300 MXSEQ3=     150  mem10=         0

          ----------------
          PROPERTIES INPUT
          ----------------

     MOMENTS            FIELD           POTENTIAL          DENSITY
 IEMOM =       1   IEFLD =       0   IEPOT =       0   IEDEN =       0
 WHERE =COMASS     WHERE =NUCLEI     WHERE =NUCLEI     WHERE =NUCLEI  
 OUTPUT=BOTH       OUTPUT=BOTH       OUTPUT=BOTH       OUTPUT=BOTH    
 IEMINT=       0   IEFINT=       0                     IEDINT=       0
                                                       MORB  =       0

     -------------------------------
     INTEGRAL TRANSFORMATION OPTIONS
     -------------------------------
     NWORD  =            0
     CUTOFF = 1.0E-09     MPTRAN =       0
     DIRTRF =       T     AOINTS =DUP     

          ----------------------
          MCSCF INPUT PARAMETERS
          ----------------------
 CONVERGER SELECTION: FOCAS = F  SOSCF = F  FULLNR = T  QUD = F  JACOBI = F
 SECULAR EQUATION METHOD CISTEP = GMCCI   
 --- GENERAL INPUT OPTIONS:
 MAXIT =     100  MICIT =       1  ACURCY= 1.000E-06
 DAMP  =   0.000  CANONC=       T  ENGTOL= 1.000E-10
 EKT   =       F  NPUNCH=       2  NWORD =         0
 REGENERATE CI AFTER CONVERGENCE = NONE    
 DIABATIZATION AFTER CONVERGENCE =        F
 --- INPUT FOR FULLNR CONVERGER:
 METHOD=DM2       FORS  =       F  DROPC =       T
 LINSER=       F  FCORE =       F  NORB  =      25

          ----------------------
          INTEGRAL INPUT OPTIONS
          ----------------------
 NOPK  =       1 NORDER=       0 SCHWRZ=       T

 ------------------------------------------
 MULTIREFERENCE PERTURBATION THEORY CONTROL
 ------------------------------------------
 MRPT=GMCPT    READ CONVERGED MCSCF VECTORS= F


     ------------------------------------------
     THE POINT GROUP IS C1 , NAXIS= 1, ORDER= 1
     ------------------------------------------

 -- VARIATIONAL SPACE WILL BE RESTRICTED TO PURE SPHERICAL HARMONICS ONLY --
 AFTER EXCLUDING CONTAMINANT COMBINATIONS FROM THE CARTESIAN GAUSSIAN BASIS
 SET, THE NUMBER OF SPHERICAL HARMONICS KEPT IN THE VARIATION SPACE IS   24

     DIMENSIONS OF THE SYMMETRY SUBSPACES ARE
 A   =   24

 ..... DONE SETTING UP THE RUN .....
 CPU     0: STEP CPU TIME=     0.04 TOTAL CPU TIME=          0.0 (      0.0 MIN)
 TOTAL WALL CLOCK TIME=          0.3 SECONDS, CPU UTILIZATION IS    13.79%

          ********************
          1 ELECTRON INTEGRALS
          ********************
 TIME TO DO   DIPOLE INTEGRALS=      0.00
 ...... END OF ONE-ELECTRON INTEGRALS ......
 CPU     0: STEP CPU TIME=     0.00 TOTAL CPU TIME=          0.0 (      0.0 MIN)
 TOTAL WALL CLOCK TIME=          0.3 SECONDS, CPU UTILIZATION IS    13.79%

          -------------
          GUESS OPTIONS
          -------------
          GUESS =MOREAD            NORB  =      24          NORDER=       1
          MIX   =       F          PRTMO =       F          PUNMO =       F
          TOLZ  = 1.0E-08          TOLE  = 1.0E-05
          SYMDEN=       F          PURIFY=       T

 INITIAL GUESS ORBITALS GENERATED BY MOREAD   ROUTINE.

 STATISTICS FOR GENERATION OF SYMMETRY ORBITAL -Q- MATRIX
 NUMBER OF CARTESIAN ATOMIC ORBITALS=         25
 NUMBER OF SPHERICAL CONTAMINANTS DROPPED=     1
 NUMBER OF LINEARLY DEPENDENT MOS DROPPED=     0
 TOTAL NUMBER OF MOS IN VARIATION SPACE=      24
 ORBITAL PURIFICATION WILL OCCUR

 SYMMETRIES FOR INITIAL GUESS ORBITALS FOLLOW.   BOTH SET(S).
     5 ORBITALS ARE OCCUPIED (    1 CORE ORBITALS).
     1=A        2=A        3=A        4=A        5=A        6=A        7=A   
     8=A        9=A       10=A       11=A       12=A       13=A       14=A   
    15=A       16=A       17=A       18=A       19=A       20=A       21=A   
    22=A       23=A       24=A   
 ...... END OF INITIAL ORBITAL SELECTION ......
 CPU     0: STEP CPU TIME=     0.01 TOTAL CPU TIME=          0.0 (      0.0 MIN)
 TOTAL WALL CLOCK TIME=          0.3 SECONDS, CPU UTILIZATION IS    16.67%

                    ----------------------
                    AO INTEGRAL TECHNOLOGY
                    ----------------------
     S,P,L SHELL ROTATED AXIS INTEGRALS, REPROGRAMMED BY
        KAZUYA ISHIMURA (IMS) AND JOSE SIERRA (SYNSTAR).
     S,P,D,L SHELL ROTATED AXIS INTEGRALS PROGRAMMED BY
        KAZUYA ISHIMURA (INSTITUTE FOR MOLECULAR SCIENCE).
     S,P,D,F,G SHELL TO TOTAL QUARTET ANGULAR MOMENTUM SUM 5,
        ERIC PROGRAM BY GRAHAM FLETCHER (ELORET AND NASA ADVANCED
        SUPERCOMPUTING DIVISION, AMES RESEARCH CENTER).
     S,P,D,F,G,L SHELL GENERAL RYS QUADRATURE PROGRAMMED BY
        MICHEL DUPUIS (PACIFIC NORTHWEST NATIONAL LABORATORY).

          --------------------
          2 ELECTRON INTEGRALS
          --------------------

 DIRECT SCF METHOD SKIPS INTEGRAL STORAGE ON DISK.
 DIRECT TRANSFORMATION SKIPS AO INTEGRAL STORAGE ON DISK.
  ...... END OF TWO-ELECTRON INTEGRALS .....
 STEP CPU TIME =     0.02 TOTAL CPU TIME =          0.1 (      0.0 MIN)
 TOTAL WALL CLOCK TIME=          0.3 SECONDS, CPU UTILIZATION IS    21.21%
 DDI: Creating Array [0] - 625 x 28 = 17500 words.
 DDI: Creating Array [1] - 17 x 196 = 3332 words.
 DDI: Creating Array [2] - 28 x 28 = 784 words.
 DDI: Creating Array [3] - 325 x 28 = 9100 words.

          -----------------
          MCSCF CALCULATION
          -----------------

 ----- NUCLEAR ENERGY ----- =         8.7259904589

     -------------------------------------------------
     GMC-PT/GMC-QDPT or general MCSCF input parameters
     -------------------------------------------------
 # of frozen core orbs. =         0 ->         0
 # of doubly occ. orbs. =         1
 # of active      orbs. =         6
 # of virtual     orbs. =        17
 # of active electrons  =         7
 # of states in CI      =         3
 Highest state in CI    =         3
 kstate =  1 1 1
 avecoe =  0.333 0.333 0.333
 State symmetry           = A           
 Assigned symmetry number = 1

 <<<Act. MO sym.: 111111

 <<<Division of 1-ext.:  0 0
 <<<Division of 2-ext.:  0 1

 *** Reference space

 Reference type: ORMAS (= Occupation restricted multiple active space)
 # of orbitals          =  6
 # of minimum electrons =  7
 # of maximum electrons =  7
 State symmetry    =    1 (input)
 2*Sz              =    1 (input)
 Spin multiplicity =    2 (input)
 Dimension of reference space =       300  (from       792 walks)

 Dimension of reference space =       300  (from       300 walks)

 <<<Ionized spaces for Ref-CI:
      0:          300 /   -1-0:          625 /  0-1-0:          690

 EVALUATING EXCHANGE INTEGRALS FOR DIRECT INTEGRAL TRANSFORMATION
 SCHWARZ INEQUALITY OVERHEAD:       325 INTEGRALS, T=        0.00

     --------------------------------------------
     PARTIAL TWO ELECTRON INTEGRAL TRANSFORMATION
     --------------------------------------------

 NUMBER OF CORE MOLECULAR ORBITALS     =    1
 NUMBER OF OCCUPIED MOLECULAR ORBITALS =    7
 TOTAL NUMBER OF MOLECULAR ORBITALS    =   24
 TOTAL NUMBER OF ATOMIC ORBITALS       =   25
 THRESHOLD FOR KEEPING TRANSFORMED 2E- INTEGRALS = 1.000E-09

 -------------------------------     ------------------------------
 DISTRIBUTED DATA TRANSFORMATION     PROGRAM WRITTEN BY G. FLETCHER
 -------------------------------     ------------------------------

 THE DISTRIBUTED MEMORY REQUIRED FOR THIS STEP IS MEMDDI=         1 MWORDS
 CREATING DISTRIBUTED STORAGE FOR [VIR OCC|VIR OCC] INTEGRALS
 CREATING DISTRIBUTED STORAGE FOR [VIR OCC|OCC OCC] INTEGRALS
 CREATING DISTRIBUTED STORAGE FOR [OCC OCC|OCC OCC] INTEGRALS
 CREATING DISTRIBUTED STORAGE FOR [VIR VIR|OCC OCC] INTEGRALS
 FOR    2 PROCESSORS, THE REPLICATED MEMORY NEEDED IS       62207 WORDS.
 SCHWARZ INEQUALITY OVERHEAD:       325 INTEGRALS, T=        0.01

      DIRECT 4-INDEX TRANSFORMATION 
      SCHWARZ INEQUALITY TEST SKIPPED          0 INTEGRAL BLOCKS
 ----- FROZEN CORE ENERGY =       -61.2068981519
 ... END OF INTEGRAL TRANSFORMATION ...
 CPU     0: STEP CPU TIME=     0.05 TOTAL CPU TIME=          0.1 (      0.0 MIN)
 TOTAL WALL CLOCK TIME=          0.4 SECONDS, CPU UTILIZATION IS    29.27%

     --------------------------------     -----------------------------
     MCHF NEWTON-RAPHSON OPTIMIZATION     CODE WRITTEN BY MICHEL DUPUIS
     --------------------------------     -----------------------------
     PARALLEL VERSION WRITTEN BY G. FLETCHER (ELORET)
     NASA ADVANCED SUPERCOMPUTING DIVISION, AMES RESEARCH CENTER

 NUMBER OF INDEPENDENT ORBITAL ROTATION PARAMETERS =    44
 ..... DONE SOLVING NEWTON-RAPHSON EQUATIONS .....
 CPU     0: STEP CPU TIME=     0.07 TOTAL CPU TIME=          0.2 (      0.0 MIN)
 TOTAL WALL CLOCK TIME=          0.5 SECONDS, CPU UTILIZATION IS    38.00%
 ..... DONE WITH NTN-RPH ORBITAL ROTATIONS ..... 
 CPU     0: STEP CPU TIME=     0.01 TOTAL CPU TIME=          0.2 (      0.0 MIN)
 TOTAL WALL CLOCK TIME=          0.5 SECONDS, CPU UTILIZATION IS    40.00%
 MAXIMUM MEMORY USED BY NTN-RPH CODE WAS     51289 WORDS.

 ITER     TOTAL ENERGY      DEL(E)  LAGRANGIAN ASYMMETRY   SQCDF  MICIT   DAMP
   1      -75.569011484 -0.569011484  0.003398   11    3 8.975E-06  1   0.0000
   2      -75.569021423 -0.000009939  0.000061   18    4 2.852E-07  1   0.0000
   3      -75.569021449 -0.000000026  0.000018   18    4 4.981E-08  1   0.0000
   4      -75.569021453 -0.000000004  0.000006   18    4 8.642E-09  1   0.0000
   5      -75.569021453 -0.000000001  0.000002   18    4 1.464E-09  1   0.0000
   6      -75.569021453 -0.000000000  0.000001   18    4 2.527E-10  1   0.0000

          --------------------
          LAGRANGIAN CONVERGED
          --------------------

 FINAL MCSCF ENERGY IS      -75.5690214535 AFTER   6 ITERATIONS

 -MCCI- BASED ON OPTIMIZED ORBITALS
 ----------------------------------

 PLEASE NOTE: IF THE ACTIVE ORBITALS ARE CANONICALIZED BELOW,
 THE FOLLOWING CI EXPANSION COEFFICIENTS AND THE DENSITY DO NOT
 CORRESPOND TO THE PRINTED ORBITALS.  THE PRINTED EXPANSIONS MATCH
 THE ORBITALS USED DURING THE LAST ITERATION.  IF YOU WISH TO SEE
 CI EXPANSIONS BASED ON THE CANONICAL (OR NATURAL) ORBITALS, YOU
 MUST RUN A CI CALCULATION WITH THAT ORBITAL CHOICE READ IN $VEC.

 Averaged energy =     -75.569021453

 State #    1  Energy =     -75.682568490  S =  0.500

      Det      Coef    Occupancy (Ignoring core)
      ---      ----    --------- --------- -----
        1    0.986864  111100111000
      173    0.076597  101101101001

 State #    2  Energy =     -75.592102357  S =  0.500

      Det      Coef    Occupancy (Ignoring core)
      ---      ----    --------- --------- -----
       16    0.988865  111100110100
      203    0.078024  101101100101

 State #    3  Energy =     -75.432393514  S =  0.500

      Det      Coef    Occupancy (Ignoring core)
      ---      ----    --------- --------- -----
       31    0.990566  111100101100

 DENSITY MATRIX OVER ACTIVE MO-S

             1           2           3           4           5

    1    1.9895899
    2   -0.0000000   1.6502147
    3    0.0067758  -0.0000000   1.6560699
    4    0.0000000  -0.0000000   0.0000000   1.6655533
    5   -0.0033101   0.0000000   0.0126466  -0.0000000   0.0186165
    6   -0.0000000   0.0204649   0.0000000  -0.0000000   0.0000000

             6

    6    0.0199556

 FORMING THE "STANDARD FOCK OPERATOR" IN DIRECT AO INTEGRAL MODE...
 ONLY THE    1 CORE AND   17 VIRTUAL ORBITALS WILL BE CANONICALIZED

          ----------------------
          MCSCF NATURAL ORBITALS
          ----------------------

                      1          2          3          4          5
                  -21.0900     1.9897     1.6656     1.6560     1.6505
                     A          A          A          A          A   
    1  O  1  S    1.000772   0.015451   0.000000  -0.007394  -0.000000
    2  O  1  S   -0.003363   0.482689   0.000000  -0.170408  -0.000000
    3  O  1  S   -0.006806   0.388678   0.000000  -0.292611  -0.000000
    4  O  1  X    0.000000  -0.000000  -0.000000  -0.000000   0.548253
    5  O  1  Y    0.000000   0.000000   0.692989   0.000000   0.000000
    6  O  1  Z    0.000421   0.092886   0.000000   0.607048   0.000000
    7  O  1  X    0.000000  -0.000000  -0.000000  -0.000000   0.222149
    8  O  1  Y    0.000000   0.000000   0.431869   0.000000   0.000000
    9  O  1  Z   -0.000611   0.007975   0.000000   0.322122   0.000000
   10  O  1 XX    0.000032   0.002668   0.000000  -0.007769   0.000000
   11  O  1 YY   -0.000003  -0.004280   0.000000  -0.009871   0.000000
   12  O  1 ZZ   -0.000029   0.001612   0.000000   0.017640   0.000000
   13  O  1 XY    0.000000  -0.000000   0.000000   0.000000   0.000000
   14  O  1 XZ    0.000000   0.000000   0.000000  -0.000000   0.022459
   15  O  1 YZ    0.000000   0.000000   0.018025   0.000000  -0.000000
   16  H  2  S   -0.001492   0.172625  -0.000000   0.198661   0.313729
   17  H  2  S    0.000502  -0.004516   0.000000   0.022465   0.022093
   18  H  2  X    0.000693  -0.037929   0.000000  -0.038243  -0.031641
   19  H  2  Y   -0.000000   0.000000   0.028257   0.000000   0.000000
   20  H  2  Z    0.000501  -0.019563   0.000000   0.003782  -0.035893
   21  H  3  S   -0.001492   0.172625   0.000000   0.198661  -0.313729
   22  H  3  S    0.000502  -0.004516  -0.000000   0.022465  -0.022093
   23  H  3  X   -0.000693   0.037929   0.000000   0.038243  -0.031641
   24  H  3  Y    0.000000  -0.000000   0.028257  -0.000000   0.000000
   25  H  3  Z    0.000501  -0.019563   0.000000   0.003782   0.035893

                      6          7
                    0.0197     0.0185
                     A          A   
    1  O  1  S   -0.000000   0.176408
    2  O  1  S   -0.000000   0.587701
    3  O  1  S   -0.000000   0.159431
    4  O  1  X    0.870214   0.000000
    5  O  1  Y    0.000000  -0.000000
    6  O  1  Z   -0.000000   0.745242
    7  O  1  X    0.022070   0.000000
    8  O  1  Y    0.000000  -0.000000
    9  O  1  Z   -0.000000  -0.092895
   10  O  1 XX   -0.000000   0.007291
   11  O  1 YY    0.000000   0.011112
   12  O  1 ZZ    0.000000  -0.018404
   13  O  1 XY    0.000000  -0.000000
   14  O  1 XZ   -0.029282   0.000000
   15  O  1 YZ    0.000000  -0.000000
   16  H  2  S   -0.637889  -0.615725
   17  H  2  S   -0.072457  -0.049366
   18  H  2  X    0.066626   0.116444
   19  H  2  Y   -0.000000   0.000000
   20  H  2  Z    0.047904   0.011107
   21  H  3  S    0.637889  -0.615725
   22  H  3  S    0.072457  -0.049366
   23  H  3  X    0.066626  -0.116444
   24  H  3  Y   -0.000000  -0.000000
   25  H  3  Z   -0.047904   0.011107

          ------------------------
          MCSCF OPTIMIZED ORBITALS
          ------------------------

                      1          2          3          4          5
                  -21.0900     0.0000     0.0000     0.0000     0.0000
                     A          A          A          A          A   
    1  O  1  S    1.000772   0.015899  -0.000000  -0.008443  -0.000000
    2  O  1  S   -0.003363   0.487039  -0.000000  -0.165139  -0.000000
    3  O  1  S   -0.006806   0.394790   0.000000  -0.285906   0.000000
    4  O  1  X    0.000000   0.000000   0.537288  -0.000000  -0.000000
    5  O  1  Y    0.000000   0.000000  -0.000000   0.000000   0.692989
    6  O  1  Z    0.000421   0.081856   0.000000   0.603025   0.000000
    7  O  1  X    0.000000  -0.000000   0.221854  -0.000000  -0.000000
    8  O  1  Y    0.000000  -0.000000  -0.000000  -0.000000   0.431869
    9  O  1  Z   -0.000611   0.001298   0.000000   0.322926  -0.000000
   10  O  1 XX    0.000032   0.002837   0.000000  -0.007769  -0.000000
   11  O  1 YY   -0.000003  -0.004061   0.000000  -0.010042  -0.000000
   12  O  1 ZZ   -0.000029   0.001224  -0.000000   0.017811   0.000000
   13  O  1 XY    0.000000  -0.000000  -0.000000   0.000000   0.000000
   14  O  1 XZ    0.000000  -0.000000   0.022825  -0.000000   0.000000
   15  O  1 YZ    0.000000   0.000000  -0.000000   0.000000   0.018025
   16  H  2  S   -0.001492   0.167520   0.321710   0.206868   0.000000
   17  H  2  S    0.000502  -0.005054   0.023001   0.022750   0.000000
   18  H  2  X    0.000693  -0.036949  -0.032475  -0.039902  -0.000000
   19  H  2  Y   -0.000000   0.000000   0.000000   0.000000   0.028257
   20  H  2  Z    0.000501  -0.019617  -0.036491   0.003299  -0.000000
   21  H  3  S   -0.001492   0.167520  -0.321710   0.206868  -0.000000
   22  H  3  S    0.000502  -0.005054  -0.023001   0.022750  -0.000000
   23  H  3  X   -0.000693   0.036949  -0.032475   0.039902  -0.000000
   24  H  3  Y    0.000000  -0.000000   0.000000  -0.000000   0.028257
   25  H  3  Z    0.000501  -0.019617   0.036491   0.003299   0.000000

                      6          7          8          9         10
                    0.0000     0.0000     0.1331     0.1708     0.6613
                     A          A          A          A          A   
    1  O  1  S    0.176321  -0.000000   0.097473  -0.000000  -0.013765
    2  O  1  S    0.585612  -0.000000   0.128140  -0.000000   0.104059
    3  O  1  S    0.156552  -0.000000  -0.962194  -0.000000   0.577443
    4  O  1  X    0.000000   0.877026  -0.000000  -0.078098   0.000000
    5  O  1  Y   -0.000000   0.000000  -0.000000   0.000000  -0.000000
    6  O  1  Z    0.749787  -0.000000   0.193674   0.000000  -0.526806
    7  O  1  X    0.000000   0.024857   0.000000   0.433841  -0.000000
    8  O  1  Y   -0.000000   0.000000  -0.000000  -0.000000  -0.000000
    9  O  1  Z   -0.090404   0.000000  -0.396151  -0.000000   1.077515
   10  O  1 XX    0.007227  -0.000000  -0.046398  -0.000000  -0.067014
   11  O  1 YY    0.011042   0.000000   0.056120   0.000000   0.033299
   12  O  1 ZZ   -0.018269   0.000000  -0.009722  -0.000000   0.033715
   13  O  1 XY   -0.000000  -0.000000  -0.000000  -0.000000  -0.000000
   14  O  1 XZ    0.000000  -0.028997  -0.000000   0.077035  -0.000000
   15  O  1 YZ    0.000000   0.000000  -0.000000   0.000000  -0.000000
   16  H  2  S   -0.614431  -0.633902  -0.399630   0.501292  -0.718789
   17  H  2  S   -0.049183  -0.072174   0.990760  -1.560971   0.031057
   18  H  2  X    0.116202   0.066224  -0.101037   0.040670  -0.088715
   19  H  2  Y    0.000000  -0.000000   0.000000  -0.000000  -0.000000
   20  H  2  Z    0.011167   0.047450  -0.056754   0.074276   0.242099
   21  H  3  S   -0.614431   0.633902  -0.399630  -0.501292  -0.718789
   22  H  3  S   -0.049183   0.072174   0.990760   1.560971   0.031057
   23  H  3  X   -0.116202   0.066224   0.101037   0.040670   0.088715
   24  H  3  Y   -0.000000  -0.000000  -0.000000  -0.000000   0.000000
   25  H  3  Z    0.011167  -0.047450  -0.056754  -0.074276   0.242099

                     11         12         13         14         15
                    0.7334     0.7559     1.0362     1.0396     1.2623
                     A          A          A          A          A   
    1  O  1  S    0.000000  -0.000000   0.000000   0.276394   0.000000
    2  O  1  S    0.000000  -0.000000   0.000000   0.678876   0.000000
    3  O  1  S   -0.000000  -0.000000  -0.000000  -0.670373   0.000000
    4  O  1  X   -0.526288  -0.000000  -0.000000  -0.000000  -0.000000
    5  O  1  Y    0.000000  -0.921217  -0.000000  -0.000000   0.083258
    6  O  1  Z   -0.000000  -0.000000  -0.000000  -0.310300   0.000000
    7  O  1  X    1.766480   0.000000  -0.000000   0.000000  -0.000000
    8  O  1  Y   -0.000000   1.004852   0.000000  -0.000000  -0.675819
    9  O  1  Z    0.000000  -0.000000   0.000000   0.819727   0.000000
   10  O  1 XX   -0.000000  -0.000000   0.000000   0.098081   0.000000
   11  O  1 YY    0.000000  -0.000000   0.000000   0.037869   0.000000
   12  O  1 ZZ    0.000000  -0.000000  -0.000000  -0.135950   0.000000
   13  O  1 XY    0.000000   0.000000  -0.154143   0.000000   0.000000
   14  O  1 XZ   -0.029804  -0.000000  -0.000000  -0.000000  -0.000000
   15  O  1 YZ   -0.000000   0.004927  -0.000000  -0.000000   0.182153
   16  H  2  S   -0.672723  -0.000000  -0.000000  -0.228838   0.000000
   17  H  2  S   -0.591804  -0.000000   0.000000   0.194104   0.000000
   18  H  2  X    0.220351   0.000000   0.000000   0.365581  -0.000000
   19  H  2  Y   -0.000000   0.069768  -0.674854   0.000000   0.751078
   20  H  2  Z    0.017365  -0.000000  -0.000000  -0.441430  -0.000000
   21  H  3  S    0.672723   0.000000  -0.000000  -0.228838  -0.000000
   22  H  3  S    0.591804   0.000000   0.000000   0.194104  -0.000000
   23  H  3  X    0.220351   0.000000  -0.000000  -0.365581  -0.000000
   24  H  3  Y   -0.000000   0.069768   0.674854  -0.000000   0.751078
   25  H  3  Z   -0.017365  -0.000000  -0.000000  -0.441430   0.000000

                     16         17         18         19         20
                    1.4186     1.4560     1.7918     1.7938     2.7340
                     A          A          A          A          A   
    1  O  1  S   -0.707855  -0.000000  -0.000000   0.001810   0.000000
    2  O  1  S   -1.549032  -0.000000   0.000000   0.107004   0.000000
    3  O  1  S    2.585810   0.000000   0.000000   1.436867   0.000000
    4  O  1  X   -0.000000  -0.104045   0.519891  -0.000000   0.000000
    5  O  1  Y    0.000000  -0.000000  -0.000000   0.000000  -0.032478
    6  O  1  Z    0.016281   0.000000   0.000000   0.385900   0.000000
    7  O  1  X   -0.000000   0.974360   0.342535  -0.000000  -0.000000
    8  O  1  Y    0.000000   0.000000  -0.000000   0.000000   0.283652
    9  O  1  Z    0.886768   0.000000   0.000000   0.447386   0.000000
   10  O  1 XX   -0.022661  -0.000000  -0.000000  -0.121946   0.000000
   11  O  1 YY    0.160900   0.000000   0.000000   0.189701   0.000000
   12  O  1 ZZ   -0.138240  -0.000000  -0.000000  -0.067755   0.000000
   13  O  1 XY    0.000000   0.000000  -0.000000  -0.000000   0.000000
   14  O  1 XZ    0.000000  -0.027517  -0.097298   0.000000  -0.000000
   15  O  1 YZ    0.000000   0.000000  -0.000000   0.000000   1.023677
   16  H  2  S   -0.735205  -0.400606  -0.076843  -0.383459   0.000000
   17  H  2  S   -0.310660  -0.115949  -0.463939  -0.303804  -0.000000
   18  H  2  X    0.258755  -0.416573   0.729213   0.816043   0.000000
   19  H  2  Y    0.000000  -0.000000   0.000000   0.000000  -0.368674
   20  H  2  Z   -0.206271   0.688395   0.565671   0.552649   0.000000
   21  H  3  S   -0.735205   0.400606   0.076843  -0.383459  -0.000000
   22  H  3  S   -0.310660   0.115949   0.463939  -0.303804   0.000000
   23  H  3  X   -0.258755  -0.416573   0.729213  -0.816043   0.000000
   24  H  3  Y   -0.000000  -0.000000   0.000000  -0.000000  -0.368674
   25  H  3  Z   -0.206271  -0.688395  -0.565671   0.552649   0.000000

                     21         22         23         24
                    2.8004     2.9356     3.3219     3.5747
                     A          A          A          A   
    1  O  1  S    0.000000  -0.087487  -0.234228   0.000000
    2  O  1  S    0.000000  -0.158752  -0.384482  -0.000000
    3  O  1  S   -0.000000   0.550000   2.130158  -0.000000
    4  O  1  X    0.000000  -0.000000  -0.000000   0.304614
    5  O  1  Y    0.000000  -0.000000  -0.000000  -0.000000
    6  O  1  Z    0.000000   0.000815   0.243160  -0.000000
    7  O  1  X    0.000000   0.000000   0.000000   1.131552
    8  O  1  Y   -0.000000  -0.000000  -0.000000   0.000000
    9  O  1  Z   -0.000000   0.513524   0.868482  -0.000000
   10  O  1 XX   -0.000000  -0.627348   0.970282  -0.000000
   11  O  1 YY    0.000000  -0.427950  -1.044767   0.000000
   12  O  1 ZZ   -0.000000   1.055298   0.074485  -0.000000
   13  O  1 XY    1.048115   0.000000   0.000000   0.000000
   14  O  1 XZ    0.000000  -0.000000   0.000000   1.297269
   15  O  1 YZ   -0.000000  -0.000000  -0.000000   0.000000
   16  H  2  S    0.000000  -0.286456  -1.022000  -0.904590
   17  H  2  S   -0.000000  -0.044049  -0.203084  -0.291726
   18  H  2  X    0.000000   0.356707   0.599370   0.578808
   19  H  2  Y   -0.353436  -0.000000   0.000000   0.000000
   20  H  2  Z    0.000000  -0.292301   0.462790   0.455492
   21  H  3  S    0.000000  -0.286456  -1.022000   0.904590
   22  H  3  S   -0.000000  -0.044049  -0.203084   0.291726
   23  H  3  X   -0.000000  -0.356707  -0.599370   0.578808
   24  H  3  Y    0.353436   0.000000  -0.000000   0.000000
   25  H  3  Z    0.000000  -0.292301   0.462790  -0.455492
 .....DONE WITH MCSCF ITERATIONS.....
 CPU     0: STEP CPU TIME=     0.58 TOTAL CPU TIME=          0.8 (      0.0 MIN)
 TOTAL WALL CLOCK TIME=          1.9 SECONDS, CPU UTILIZATION IS    41.27%

     ----------------------------------------------------------------
     PROPERTY VALUES FOR THE MCSCF SELF-CONSISTENT FIELD WAVEFUNCTION
     ----------------------------------------------------------------

          -----------------
          ENERGY COMPONENTS
          -----------------

         WAVEFUNCTION NORMALIZATION =       1.0000000000

                ONE ELECTRON ENERGY =    -117.2735849978
                TWO ELECTRON ENERGY =      32.9785730854
           NUCLEAR REPULSION ENERGY =       8.7259904589
                                      ------------------
                       TOTAL ENERGY =     -75.5690214535

 ELECTRON-ELECTRON POTENTIAL ENERGY =      32.9785730854
  NUCLEUS-ELECTRON POTENTIAL ENERGY =    -192.8898789554
   NUCLEUS-NUCLEUS POTENTIAL ENERGY =       8.7259904589
                                      ------------------
             TOTAL POTENTIAL ENERGY =    -151.1853154111
               TOTAL KINETIC ENERGY =      75.6162939577
                 VIRIAL RATIO (V/T) =       1.9993748371

          ---------------------------------------
          MULLIKEN AND LOWDIN POPULATION ANALYSES
          ---------------------------------------

     ATOMIC MULLIKEN POPULATION IN EACH MOLECULAR ORBITAL

                      1          2          3          4          5

                  2.000000   1.989732   1.665553   1.656031   1.650472

    1             2.000423   1.581221   1.636790   1.442163   1.058773
    2            -0.000212   0.204256   0.014381   0.106934   0.295849
    3            -0.000212   0.204256   0.014381   0.106934   0.295849

                      6          7

                  0.019699   0.018513

    1             0.009553   0.009011
    2             0.005073   0.004751
    3             0.005073   0.004751
 WARNING! MCSCF POPULATIONS SHOWN ABOVE ARE FOR THE NATURAL ORBITALS.
 IGNORE THE ABOVE DATA FOR MCSCF FUNCTIONS WHICH ARE NOT OF -FORS- TYPE.
 THE FOLLOWING POPULATIONS ARE CORRECT FOR ANY MCSCF WAVEFUNCTION.

               ----- POPULATIONS IN EACH AO -----
                             MULLIKEN      LOWDIN
              1  O  1  S      2.00177     1.90532
              2  O  1  S      0.90679     0.63210
              3  O  1  S      0.79652     0.48204
              4  O  1  X      0.75549     0.67877
              5  O  1  Y      1.06062     1.01381
              6  O  1  Z      0.89438     0.83528
              7  O  1  X      0.30706     0.40916
              8  O  1  Y      0.57534     0.57458
              9  O  1  Z      0.43182     0.51012
             10  O  1 XX      0.00101     0.18855
             11  O  1 YY      0.00054     0.17462
             12  O  1 ZZ      0.00000     0.17920
             13  O  1 XY      0.00577     0.00000
             14  O  1 XZ      0.00083     0.01170
             15  O  1 YZ      0.00000     0.00030
             16  H  2  S      0.54323     0.43484
             17  H  2  S      0.00886     0.11802
             18  H  2  X      0.04154     0.06407
             19  H  2  Y      0.01438     0.03843
             20  H  2  Z      0.02302     0.04685
             21  H  3  S      0.54323     0.43484
             22  H  3  S      0.00886     0.11802
             23  H  3  X      0.04154     0.06407
             24  H  3  Y      0.01438     0.03843
             25  H  3  Z      0.02302     0.04685

          ----- MULLIKEN ATOMIC OVERLAP POPULATIONS -----
          (OFF-DIAGONAL ELEMENTS NEED TO BE MULTIPLIED BY 2)

             1           2           3

    1    7.1508562
    2    0.2935395   0.3412183
    3    0.2935395  -0.0037254   0.3412183

          TOTAL MULLIKEN AND LOWDIN ATOMIC POPULATIONS
       ATOM         MULL.POP.    CHARGE          LOW.POP.     CHARGE
    1 O             7.737935    0.262065         7.595560    0.404440
    2 H             0.631032    0.368968         0.702220    0.297780
    3 H             0.631032    0.368968         0.702220    0.297780

          MULLIKEN SPHERICAL HARMONIC POPULATIONS
       ATOM           S       P       D      F      G      H      I    TOTAL
    1 O             3.71    4.02    0.01   0.00   0.00   0.00   0.00    7.74
    2 H             0.55    0.08    0.00   0.00   0.00   0.00   0.00    0.63
    3 H             0.55    0.08    0.00   0.00   0.00   0.00   0.00    0.63

          ---------------------
          ELECTROSTATIC MOMENTS
          ---------------------

 POINT   1           X           Y           Z (BOHR)    CHARGE
                 0.000000    0.000000    0.044293        1.00 (A.U.)
         DX          DY          DZ         /D/  (DEBYE)
     0.000000   -0.000000    2.521247    2.521247
 ...... END OF PROPERTY EVALUATION ......
 CPU     0: STEP CPU TIME=     0.01 TOTAL CPU TIME=          0.8 (      0.0 MIN)
 TOTAL WALL CLOCK TIME=          1.9 SECONDS, CPU UTILIZATION IS    41.36%

     -------------------------------------------------
     GMC-PT/GMC-QDPT or general MCSCF input parameters
     -------------------------------------------------
 # of frozen core orbs. =         0 ->         0
 # of doubly occ. orbs. =         1
 # of active      orbs. =         6
 # of virtual     orbs. =        17
 # of active electrons  =         7
 # of states in CI      =         3
 Highest state in CI    =         3
 kstate =  1 1 1
 avecoe =  0.333 0.333 0.333
 State symmetry           = A           
 Assigned symmetry number = 1

 <<<Act. MO sym.: 111111

 <<<Division of 1-ext.:  0 0
 <<<Division of 2-ext.:  0 1

     ------------------------
     Orbital canonicalization
     ------------------------

 MOs are canonicalized for core, virtual, and invariant-active orbital spaces.
 This is a part of the GMC-QDPT calculation.
 SCHWARZ INEQUALITY OVERHEAD:       325 INTEGRALS, T=        0.00
 DIRECT TRANSFORMATION SKIPS AO INTEGRAL STORAGE ON DISK.

 Averaged energy =     -75.569021453

 State #    1  Energy =     -75.682568490  S =  0.500
 State #    2  Energy =     -75.592102357  S =  0.500
 State #    3  Energy =     -75.432393514  S =  0.500

 Orbital energies for filled orbital space
  -21.090006
 Orbital energies for active orbital space
   -1.788701  -1.072224  -0.947688  -0.885205   0.377357
    0.351069
 Orbital energies for external orbital space
    0.133117   0.170821   0.661262   0.733375   0.755861
    1.036238   1.039553   1.262255   1.418582   1.456001
    1.791800   1.793775   2.734024   2.800437   2.935636
    3.321865   3.574696

 Zero values mean non-canonical orbitals.
 ... done with orbital canonicalization ...
 CPU     0: STEP CPU TIME=     0.13 TOTAL CPU TIME=          0.9 (      0.0 MIN)
 TOTAL WALL CLOCK TIME=          2.2 SECONDS, CPU UTILIZATION IS    42.01%

     --------------------------------------------
     PARTIAL TWO ELECTRON INTEGRAL TRANSFORMATION
     --------------------------------------------

 NUMBER OF CORE MOLECULAR ORBITALS     =    0
 NUMBER OF OCCUPIED MOLECULAR ORBITALS =    7
 TOTAL NUMBER OF MOLECULAR ORBITALS    =   24
 TOTAL NUMBER OF ATOMIC ORBITALS       =   25
 THRESHOLD FOR KEEPING TRANSFORMED 2E- INTEGRALS = 1.000E-09
 AO INTEGRALS WILL BE CALCULATED IN DIRECT MODE...
 DIRECT TRANSFORMATION SKIPS AO INTEGRAL STORAGE ON DISK.
 SCHWARZ INEQUALITY OVERHEAD:       325 INTEGRALS, T=        0.00

 PLAN A: REQUIREMENTS FOR FULLY IN-MEMORY TRANSFORMATION:
 # OF WORDS AVAILABLE =            250000000
 # OF WORDS NEEDED    =               165605

 PARALLEL ONLY WORKS WITH THE SEGMENTED ALGORITHM.
 ADJUSTING MEMORY TO USE SEGMENTED ALGORITHM.


 PLAN B: REQUIREMENTS FOR THE SEGMENTED TRANSFORMATION:
       MINIMUM=         116855 WORDS FOR 1 MOLECULAR ORBITAL PER PASS
       MAXIMUM=         141230 WORDS FOR ALL MOLECULAR ORBITALS IN 1 PASS
              (           8125 EXTRA WORDS INCLUDES 1 EXTRA ORBITAL/PASS)
 THIS RUN USES=         141230 WORDS,
 DISTRIBUTING   2 PASSES EACH CONTAINING     4 ORBITALS OVER   2 PROCESSORS.

 CHOOSING SEGMENTED PARTIAL TRANSFORMATION...
 DIRECT TRANSFORMATION SKIPS AO INTEGRAL STORAGE ON DISK.
 PASS #   1 TOOK        0.05 SECONDS.
 ASSIGNING PASS #   2 TO A DIFFERENT PROCESSOR.
 TOTAL NUMBER OF TRANSFORMED 2E- INTEGRALS KEPT =         4651
 ... END OF INTEGRAL TRANSFORMATION ...
 CPU     0: STEP CPU TIME=     0.05 TOTAL CPU TIME=          1.0 (      0.0 MIN)
 TOTAL WALL CLOCK TIME=          2.3 SECONDS, CPU UTILIZATION IS    41.99%

     --------     ------------------------------------------
     GMC-QDPT     Program written by H.Nakano (Kyushu Univ.)
     --------     ------------------------------------------

 *** Reference space

 Reference type: ORMAS (= Occupation restricted multiple active space)
 # of orbitals          =  6
 # of minimum electrons =  7
 # of maximum electrons =  7
 State symmetry    =    1 (input)
 2*Sz              =    1 (input)
 Spin multiplicity =    2 (input)
 Dimension of reference space =       300  (from       792 walks)

 Dimension of reference space =       300  (from       300 walks)

 <<<Ionized spaces for Ref-CI:
      0:          300 /   -1-0:          625 /  0-1-0:          690

 ***                    ***
 *** Reference space CI ***
 ***                    ***

 Reference wavefunctions:

 State #    1  Energy =     -75.682568490  S =  0.500

      Det      Coef    Occupancy (Ignoring core)
      ---      ----    --------- --------- -----
        1   -0.986814  111100111000
      173   -0.076596  101101101001

 State #    2  Energy =     -75.592102357  S =  0.500

      Det      Coef    Occupancy (Ignoring core)
      ---      ----    --------- --------- -----
       16    0.988782  111100110100
      203    0.078024  101101100101

 State #    3  Energy =     -75.432393514  S =  0.500

      Det      Coef    Occupancy (Ignoring core)
      ---      ----    --------- --------- -----
       31    0.990610  111100101100

 Diagonalization: CPU/Wall time =           0.04 /           0.08 sec.

 Oscillator strength (invalid if E(1)/=E(GS)):
 -----------------------------------------
   State                        f
 -----------------------------------------
     2     F(REF-CI)=        0.0016340702
     3     F(REF-CI)=        0.0000000000
 -----------------------------------------

 Dipole moment matrix elements, x, y, z, in A.U.

 Dimension of ionized spaces for PT:
 (N-2) space:          690 /  (N-1) space:          886 /  N space:          690
 (N+1) space:          480 /  (N+2) space:          200

 <<<Ionized spaces for internal:
         0:          300 /      -1-0:          625 /     0-1-0:          690
  -1-0-1-0:          886 / 0-1-0-1-0:          786

 Diagonal elements of averaged one-particle density matrix:
       2       3       4       5       6       7
  0.9962  0.9899  0.9931  0.9988  0.0103  0.0116
  0.9934  0.6603  0.6629  0.6668  0.0083  0.0083

 Orbital energies:
 -------- Doubly-occupied orbitals (highest several orbs.) -------
             1
 -2.109001D+01
 -------- Active orbitals ----------------------------------------
             2            3            4            5            6
 -1.788701D+00-1.072224D+00-9.476882D-01-8.852049D-01 3.773569D-01
             7
  3.510687D-01
 -------- External orbitals (lowest several orbs.) ---------------
             8            9           10           11           12
  1.331173D-01 1.708205D-01 6.612625D-01 7.333752D-01 7.558607D-01
            13           14           15           16           17
  1.036238D+00 1.039553D+00 1.262255D+00 1.418582D+00 1.456001D+00

 *** Quasi-degeneracy checking

 === Det (|Ci| > 1.0D-01 and dE < 5.0D-03)

 # of small denominators (single excitations)
 State       dEmin  dE < 5.0D-03  dE < 5.0D-04  dE < 5.0D-05  dE < 5.0D-06
 ----- ----------- ------------- ------------- ------------- -------------
     1    5.00D-03             0             0             0             0
     2    5.00D-03             0             0             0             0
     3    5.00D-03             0             0             0             0

 # of small denominators (double excitations)
 State       dEmin  dE < 5.0D-03  dE < 5.0D-04  dE < 5.0D-05  dE < 5.0D-06
 ----- ----------- ------------- ------------- ------------- -------------
     1    5.00D-03             0             0             0             0
     2    5.00D-03             0             0             0             0
     3    5.00D-03             0             0             0             0

 *** Zeroth-Order Setup (Granovsky's zeroth-order vectors)
 Zeroth-order effective Hamiltonian
  (= Sum_i e(i)*<I|a+(i)a(i)|J> ):
                   1            2            3
     1 -8.428756D+00
     2 -2.169706D-16-8.379200D+00
     3  1.375792D-11-5.476375D-10-8.265693D+00

 Zeroth-order vectors:
 State #    1
       MC st            1           2           2
       Coeff    1.000D+00   0.000D+00   0.000D+00
 State #    2
       MC st            2           3           1
       Coeff   -1.000D+00  -4.825D-09   0.000D+00
 State #    3
       MC st            3           2           1
       Coeff    1.000D+00  -4.825D-09   0.000D+00

 *** GMC-QDPT computation

 (Integral reading:  CPU/Wall time =           0.00 /           0.00 sec.)

 One-external:
   0 -ionized terms: CPU/Wall time =           0.00 /           0.00 sec.
 (-1)-ionized terms: CPU/Wall time =           0.02 /           0.03 sec.
 (+1)-ionized terms: CPU/Wall time =           0.00 /           0.00 sec.
 (+1)-ionized terms: CPU/Wall time =           0.00 /           0.00 sec.
 (+2)-ionized terms: CPU/Wall time =           0.00 /           0.00 sec.

 Internal:
 # of macro loops for internal contribution =         1 (input)
 Loop:    1
 Dimension of internal CISD space     =         0  (after screening)
 Space construction: CPU/Wall time =           0.00 /           0.02 sec.
 Internal terms:     CPU/Wall time =           0.00 /           0.00 sec.

 Two-external:
   0 -ionized terms: CPU/Wall time =           0.00 /           0.00 sec.
 (-1)-ionized terms: CPU/Wall time =           0.02 /           0.03 sec.
 (-2)-ionized terms: CPU/Wall time =           0.03 /           0.04 sec.

 Total time:         CPU/Wall time =           0.07 /           0.12 sec.

 ***                  ***
 *** GMC-QDPT Results ***
 ***                  ***

 Diagonal elements of effective Hamiltonian:
 Heff(  1) =   -75.80249292
 Heff(  2) =   -75.72200326
 Heff(  3) =   -75.56921291

 Off-diagonal elements of effective Hamiltonian:
                   1            2
     2  1.373633D-17
     3  1.062655D-10-7.812131D-10

 ******** GMC-QDPT energies ********
 ----------------------------------------------------------------------------
   State                        1st order                           2nd order
 ----------------------------------------------------------------------------
     1     E(REF-CI)=      -75.6825684895   E(GMC-QDPT2)=      -75.8024929230
     2     E(REF-CI)=      -75.5921023567   E(GMC-QDPT2)=      -75.7220032636
     3     E(REF-CI)=      -75.4323935141   E(GMC-QDPT2)=      -75.5692129089
 ----------------------------------------------------------------------------

 Excitation energies (invalid if E(1)/=E(GS)):
 ----------------------------------------------------------------------------
   State                        1st order                           2nd order
 ----------------------------------------------------------------------------

     TZ Sorted GMC-PT ENERGIES:
         1      -75.8024929230
         2      -75.7220032636
         3      -75.5692129089
     2     E(REF-CI)=        2.4617101 eV   E(GMC-QDPT2)=        2.1902363 eV
     3     E(REF-CI)=        6.8076113 eV   E(GMC-QDPT2)=        6.3478758 eV
 ----------------------------------------------------------------------------

 Main characters of perturbed GMC-QDPT states:

 State #    1  Energy =     -75.802492923  S =  0.500

      Det      Coef    Occupancy (Ignoring core)
      ---      ----    --------- --------- -----
        1   -0.986814  111100111000
      173   -0.076596  101101101001

 State #    2  Energy =     -75.722003264  S =  0.500

      Det      Coef    Occupancy (Ignoring core)
      ---      ----    --------- --------- -----
       16    0.988782  111100110100
      203    0.078024  101101100101

 State #    3  Energy =     -75.569212909  S =  0.500

      Det      Coef    Occupancy (Ignoring core)
      ---      ----    --------- --------- -----
       31    0.990610  111100101100

 <<<Max |V/de| = 4.655D-02  Thresh = 1.000D+00

 Oscillator strength (invalid if E(1)/=E(GS)):
 ----------------------------------------------------------------------------
   State                        1st order                           2nd order
 ----------------------------------------------------------------------------
     2     F(REF-CI)=        0.0016340702     F(GMC-PT2)=        0.0014538673
     3     F(REF-CI)=        0.0000000000     F(GMC-PT2)=        0.0000000000
 ----------------------------------------------------------------------------

 Dipole moment matrix elements, x, y, z, in A.U.
States    1    1        0.0000000008        0.0000000000        0.2730547677
States    1    2       -0.0000000005        0.1646030871        0.0000000000
States    1    3        0.0000000000        0.0000000001        0.0000000004
States    2    1       -0.0000000005        0.1646030871        0.0000000000
States    2    2        0.0000000032       -0.0000000000        0.4569167459
States    2    3        0.1249784437        0.0000000001        0.0000000008
States    3    1        0.0000000000        0.0000000001        0.0000000004
States    3    2        0.1249784437        0.0000000001        0.0000000008
States    3    3       -0.0000000024       -0.0000000000        0.0492907202

 Oscillator strength (valid only when positive): 
 ----------------------------------------------------------------------------
  States                        1st order                           2nd order
 ----------------------------------------------------------------------------
  1  1     F(REF-CI)=        0.0000000000     F(GMC-PT2)=        0.0000000000
  1  2     F(REF-CI)=       -0.0016340702     F(GMC-PT2)=       -0.0014538673
  1  3     F(REF-CI)=       -0.0000000000     F(GMC-PT2)=       -0.0000000000
  2  1     F(REF-CI)=        0.0016340702     F(GMC-PT2)=        0.0014538673
  2  2     F(REF-CI)=        0.0000000000     F(GMC-PT2)=        0.0000000000
  2  3     F(REF-CI)=       -0.0016630600     F(GMC-PT2)=       -0.0015910173
  3  1     F(REF-CI)=        0.0000000000     F(GMC-PT2)=        0.0000000000
  3  2     F(REF-CI)=        0.0016630600     F(GMC-PT2)=        0.0015910173
  3  3     F(REF-CI)=        0.0000000000     F(GMC-PT2)=        0.0000000000
 CPU     0: STEP CPU TIME=     0.14 TOTAL CPU TIME=          1.1 (      0.0 MIN)
 TOTAL WALL CLOCK TIME=          2.7 SECONDS, CPU UTILIZATION IS    41.26%

     !!! DIABATIZATION FOR REF CI STATES !!!

 *******************************************************
          $DMO GROUP FOUND IN THE INPUT.
        DIABATIZATION OF ADIABATIC STATES BEGINS.
     PROGRAMMED BY TAO ZENG (CARLETON UNIVERSITY).
               Email: toby.zeng@carleton.ca
     See T. Zeng, J. Chem. Phys. 2017, 146, 144103
 *******************************************************

 *************************************************************************
     STEP 1: TRANSFORMATION OF ADIABATIC STATES TO THE DMO REPRESENTATION
         See Atchity and Ruedenberg, J. Chem. Phys. 1999, 111, 2910
 *************************************************************************

Read in Diabatic Molecualr Orbitals:

                      1          2          3          4          5

    1  O  1  S    0.015878  -0.000000  -0.008727   0.000000   0.178914
    2  O  1  S    0.487244  -0.000000  -0.165140   0.000000   0.591558
    3  O  1  S    0.393189  -0.000000  -0.285720   0.000000   0.156384
    4  O  1  X    0.000000   0.537196  -0.000000   0.000000   0.000000
    5  O  1  Y    0.000000  -0.000000  -0.000000   0.692976   0.000000
    6  O  1  Z    0.081813  -0.000000   0.603221   0.000000   0.749592
    7  O  1  X    0.000000   0.219567  -0.000000   0.000000   0.000000
    8  O  1  Y    0.000000  -0.000000  -0.000000   0.431611   0.000000
    9  O  1  Z    0.000497  -0.000000   0.323888   0.000000  -0.091342
   10  O  1 XX    0.002930  -0.000000  -0.007755   0.000000   0.006467
   11  O  1 YY   -0.004055  -0.000000  -0.010061   0.000000   0.010826
   12  O  1 ZZ    0.001125  -0.000000   0.017816   0.000000  -0.017293
   13  O  1 XY    0.000000  -0.000000  -0.000000   0.000000   0.000000
   14  O  1 XZ    0.000000   0.022805  -0.000000   0.000000   0.000000
   15  O  1 YZ    0.000000  -0.000000  -0.000000   0.017991   0.000000
   16  H  2  S    0.168156   0.322747   0.206861   0.000000  -0.617218
   17  H  2  S   -0.005178   0.022298   0.022370   0.000000  -0.048357
   18  H  2  X   -0.037236  -0.032785  -0.039991   0.000000   0.117245
   19  H  2  Y    0.000000  -0.000000  -0.000000   0.028405   0.000000
   20  H  2  Z   -0.019504  -0.036419   0.003670   0.000000   0.011059
   21  H  3  S    0.168156  -0.322747   0.206861   0.000000  -0.617218
   22  H  3  S   -0.005178  -0.022298   0.022370   0.000000  -0.048357
   23  H  3  X    0.037236  -0.032785   0.039991   0.000000  -0.117245
   24  H  3  Y    0.000000  -0.000000  -0.000000   0.028405   0.000000
   25  H  3  Z   -0.019504   0.036419   0.003670   0.000000   0.011059

                      6

    1  O  1  S   -0.000000
    2  O  1  S   -0.000000
    3  O  1  S   -0.000000
    4  O  1  X   -0.879968
    5  O  1  Y   -0.000000
    6  O  1  Z   -0.000000
    7  O  1  X   -0.026245
    8  O  1  Y   -0.000000
    9  O  1  Z   -0.000000
   10  O  1 XX   -0.000000
   11  O  1 YY   -0.000000
   12  O  1 ZZ   -0.000000
   13  O  1 XY   -0.000000
   14  O  1 XZ    0.028582
   15  O  1 YZ   -0.000000
   16  H  2  S    0.636798
   17  H  2  S    0.071096
   18  H  2  X   -0.067134
   19  H  2  Y   -0.000000
   20  H  2  Z   -0.047320
   21  H  3  S   -0.636798
   22  H  3  S   -0.071096
   23  H  3  X   -0.067134
   24  H  3  Y   -0.000000
   25  H  3  Z    0.047320

NUMBER OF SUB ACTIVE SPACES:   1
ROTATE ACTIVE MOS TO DMOS IN EACH SUB-SPACE

SPACE  1:

OVERLAP BETWEEN ORTHONORMAL AND PRE-ORTHONORMAL REF. DMOS

             1           2           3           4           5

    1    0.9992026  -0.0000000  -0.0000842   0.0000000   0.0011585
    2   -0.0000000   0.9987436   0.0000000   0.0000000  -0.0000000
    3   -0.0000842   0.0000000   1.0009599  -0.0000000  -0.0020250
    4    0.0000000   0.0000000  -0.0000000   0.9998709   0.0000000
    5    0.0011585  -0.0000000  -0.0020250   0.0000000   1.0030760
    6   -0.0000000  -0.0005318   0.0000000   0.0000000  -0.0000000

             6

    1   -0.0000000
    2   -0.0005318
    3    0.0000000
    4    0.0000000
    5   -0.0000000
    6    1.0028612
REFERENCE DMOS AFTER ORTHONORMALIZATION:

                      1          2          3          4          5

    1  O  1  S    0.015683   0.000000  -0.008356   0.000000   0.178330
    2  O  1  S    0.486936   0.000000  -0.163750   0.000000   0.588851
    3  O  1  S    0.393299   0.000000  -0.285100   0.000000   0.154874
    4  O  1  X    0.000000   0.537405  -0.000000   0.000000  -0.000000
    5  O  1  Y    0.000000   0.000000   0.000000   0.693065   0.000000
    6  O  1  Z    0.081062   0.000000   0.604164   0.000000   0.748419
    7  O  1  X    0.000000   0.219829  -0.000000   0.000000  -0.000000
    8  O  1  Y    0.000000   0.000000   0.000000   0.431667   0.000000
    9  O  1  Z    0.000629  -0.000000   0.323394   0.000000  -0.090410
   10  O  1 XX    0.002924   0.000000  -0.007735   0.000000   0.006428
   11  O  1 YY   -0.004071   0.000000  -0.010030   0.000000   0.010778
   12  O  1 ZZ    0.001147  -0.000000   0.017764   0.000000  -0.017206
   13  O  1 XY    0.000000   0.000000   0.000000   0.000000   0.000000
   14  O  1 XZ   -0.000000   0.022849   0.000000   0.000000   0.000000
   15  O  1 YZ    0.000000   0.000000   0.000000   0.017994   0.000000
   16  H  2  S    0.169021   0.323491   0.205433   0.000000  -0.615105
   17  H  2  S   -0.005124   0.022363   0.022251   0.000000  -0.048158
   18  H  2  X   -0.037404  -0.032862  -0.039719   0.000000   0.116848
   19  H  2  Y    0.000000   0.000000   0.000000   0.028409   0.000000
   20  H  2  Z   -0.019532  -0.036490   0.003687   0.000000   0.011055
   21  H  3  S    0.169021  -0.323491   0.205433   0.000000  -0.615105
   22  H  3  S   -0.005124  -0.022363   0.022251   0.000000  -0.048158
   23  H  3  X    0.037404  -0.032862   0.039719   0.000000  -0.116848
   24  H  3  Y    0.000000   0.000000   0.000000   0.028409   0.000000
   25  H  3  Z   -0.019532   0.036490   0.003687   0.000000   0.011055

                      6

    1  O  1  S    0.000000
    2  O  1  S    0.000000
    3  O  1  S    0.000000
    4  O  1  X   -0.877173
    5  O  1  Y    0.000000
    6  O  1  Z    0.000000
    7  O  1  X   -0.026054
    8  O  1  Y    0.000000
    9  O  1  Z   -0.000000
   10  O  1 XX    0.000000
   11  O  1 YY    0.000000
   12  O  1 ZZ   -0.000000
   13  O  1 XY    0.000000
   14  O  1 XZ    0.028513
   15  O  1 YZ    0.000000
   16  H  2  S    0.635153
   17  H  2  S    0.070905
   18  H  2  X   -0.066960
   19  H  2  Y    0.000000
   20  H  2  Z   -0.047204
   21  H  3  S   -0.635153
   22  H  3  S   -0.070905
   23  H  3  X   -0.066960
   24  H  3  Y    0.000000
   25  H  3  Z    0.047204

 -------------------------------------------
       MAXIMIZING MORMO OVERLAP TERM        
 -------------------------------------------
   SWEEP    VALUE       PROGRESS
     0     5.99996
     1     5.99999     0.00003235
     2     5.99999     0.00000000
     3     5.99999     0.00000000
 THE ROTATION IS DONE
FLIPPING SIGN FOR ORBITAL   6
ACTIVE ORBITALS AFTER MORMO:

                      1          2          3          4          5

    1  O  1  S    0.015693  -0.000000  -0.008088   0.000000   0.176356
    2  O  1  S    0.486346   0.000000  -0.163996   0.000000   0.586509
    3  O  1  S    0.394583   0.000000  -0.285622   0.000000   0.157588
    4  O  1  X   -0.000000   0.536821   0.000000  -0.000000  -0.000000
    5  O  1  Y    0.000000   0.000000   0.000000   0.692989   0.000000
    6  O  1  Z    0.081039  -0.000000   0.604534   0.000000   0.748661
    7  O  1  X   -0.000000   0.221841   0.000000  -0.000000   0.000000
    8  O  1  Y    0.000000   0.000000   0.000000   0.431869   0.000000
    9  O  1  Z    0.001431  -0.000000   0.322742   0.000000  -0.091055
   10  O  1 XX    0.002828   0.000000  -0.007755   0.000000   0.007246
   11  O  1 YY   -0.004074   0.000000  -0.010019   0.000000   0.011058
   12  O  1 ZZ    0.001247  -0.000000   0.017774   0.000000  -0.018303
   13  O  1 XY   -0.000000   0.000000   0.000000   0.000000  -0.000000
   14  O  1 XZ   -0.000000   0.022840   0.000000   0.000000   0.000000
   15  O  1 YZ    0.000000  -0.000000   0.000000   0.018025   0.000000
   16  H  2  S    0.168250   0.322047   0.205611   0.000000  -0.614654
   17  H  2  S   -0.004995   0.023039   0.022651   0.000000  -0.049235
   18  H  2  X   -0.037087  -0.032510  -0.039664  -0.000000   0.116240
   19  H  2  Y    0.000000   0.000000   0.000000   0.028257   0.000000
   20  H  2  Z   -0.019630  -0.036516   0.003323  -0.000000   0.011137
   21  H  3  S    0.168250  -0.322047   0.205611   0.000000  -0.614654
   22  H  3  S   -0.004995  -0.023039   0.022651  -0.000000  -0.049235
   23  H  3  X    0.037087  -0.032510   0.039664  -0.000000  -0.116240
   24  H  3  Y   -0.000000   0.000000  -0.000000   0.028257  -0.000000
   25  H  3  Z   -0.019630   0.036516   0.003323   0.000000   0.011137

                      6

    1  O  1  S   -0.000000
    2  O  1  S   -0.000000
    3  O  1  S   -0.000000
    4  O  1  X   -0.877312
    5  O  1  Y   -0.000000
    6  O  1  Z   -0.000000
    7  O  1  X   -0.024975
    8  O  1  Y   -0.000000
    9  O  1  Z    0.000000
   10  O  1 XX   -0.000000
   11  O  1 YY   -0.000000
   12  O  1 ZZ    0.000000
   13  O  1 XY   -0.000000
   14  O  1 XZ    0.028985
   15  O  1 YZ   -0.000000
   16  H  2  S    0.633730
   17  H  2  S    0.072162
   18  H  2  X   -0.066206
   19  H  2  Y    0.000000
   20  H  2  Z   -0.047430
   21  H  3  S   -0.633730
   22  H  3  S   -0.072162
   23  H  3  X   -0.066206
   24  H  3  Y    0.000000
   25  H  3  Z    0.047430

Actually Used Diabatic Molecualr Orbitals:

                      1          2          3          4          5

    1  O  1  S    0.015693  -0.000000  -0.008088   0.000000   0.176356
    2  O  1  S    0.486346   0.000000  -0.163996   0.000000   0.586509
    3  O  1  S    0.394583   0.000000  -0.285622   0.000000   0.157588
    4  O  1  X   -0.000000   0.536821   0.000000  -0.000000  -0.000000
    5  O  1  Y    0.000000   0.000000   0.000000   0.692989   0.000000
    6  O  1  Z    0.081039  -0.000000   0.604534   0.000000   0.748661
    7  O  1  X   -0.000000   0.221841   0.000000  -0.000000   0.000000
    8  O  1  Y    0.000000   0.000000   0.000000   0.431869   0.000000
    9  O  1  Z    0.001431  -0.000000   0.322742   0.000000  -0.091055
   10  O  1 XX    0.002828   0.000000  -0.007755   0.000000   0.007246
   11  O  1 YY   -0.004074   0.000000  -0.010019   0.000000   0.011058
   12  O  1 ZZ    0.001247  -0.000000   0.017774   0.000000  -0.018303
   13  O  1 XY   -0.000000   0.000000   0.000000   0.000000  -0.000000
   14  O  1 XZ   -0.000000   0.022840   0.000000   0.000000   0.000000
   15  O  1 YZ    0.000000  -0.000000   0.000000   0.018025   0.000000
   16  H  2  S    0.168250   0.322047   0.205611   0.000000  -0.614654
   17  H  2  S   -0.004995   0.023039   0.022651   0.000000  -0.049235
   18  H  2  X   -0.037087  -0.032510  -0.039664  -0.000000   0.116240
   19  H  2  Y    0.000000   0.000000   0.000000   0.028257   0.000000
   20  H  2  Z   -0.019630  -0.036516   0.003323  -0.000000   0.011137
   21  H  3  S    0.168250  -0.322047   0.205611   0.000000  -0.614654
   22  H  3  S   -0.004995  -0.023039   0.022651  -0.000000  -0.049235
   23  H  3  X    0.037087  -0.032510   0.039664  -0.000000  -0.116240
   24  H  3  Y   -0.000000   0.000000  -0.000000   0.028257  -0.000000
   25  H  3  Z   -0.019630   0.036516   0.003323   0.000000   0.011137

                      6

    1  O  1  S   -0.000000
    2  O  1  S   -0.000000
    3  O  1  S   -0.000000
    4  O  1  X   -0.877312
    5  O  1  Y   -0.000000
    6  O  1  Z   -0.000000
    7  O  1  X   -0.024975
    8  O  1  Y   -0.000000
    9  O  1  Z    0.000000
   10  O  1 XX   -0.000000
   11  O  1 YY   -0.000000
   12  O  1 ZZ    0.000000
   13  O  1 XY   -0.000000
   14  O  1 XZ    0.028985
   15  O  1 YZ   -0.000000
   16  H  2  S    0.633730
   17  H  2  S    0.072162
   18  H  2  X   -0.066206
   19  H  2  Y    0.000000
   20  H  2  Z   -0.047430
   21  H  3  S   -0.633730
   22  H  3  S   -0.072162
   23  H  3  X   -0.066206
   24  H  3  Y    0.000000
   25  H  3  Z    0.047430

     ------------------------------------------------
        ADIABATIC STATES IN TRANSFORMED ORBITALS:
      !! USE Coefp TO PREPARE DIABATIC REFERENCES !!
     ------------------------------------------------

 State #    1  Energy =     -75.682568490  S =  0.500

      Det      Coef        Coefp    Occupancy (Ignoring core)
      ---      ----        ----    --------- --------- -----
        1    0.986909   -0.986909  222+00
      173   -0.076582   -0.076582  202+02
      168   -0.043473   -0.043473  2+-++-
       63   -0.042360   -0.042360  220+20
       68   -0.041969   -0.041969  2-++-+
        8   -0.037347    0.037347  2-2+0+
       47   -0.032939    0.032939  +22-+0
       98    0.032853   -0.032853  +-2+-+
       93    0.032538   -0.032538  +2-+20
       65   -0.031093   -0.031093  -2++20
      170    0.030942   -0.030942  -+2++-
       95   -0.030619   -0.030619  022+20
       79   -0.029094   -0.029094  202+20
       36    0.026927    0.026927  2+2-0+
      157   -0.026507   -0.026507  220+02
        3    0.023419    0.023419  22-++0
      154    0.023087   -0.023087  2-+++-
       82    0.022572   -0.022572  2+-+-+
      184   -0.020600   -0.020600  +-2++-
        5    0.020523    0.020523  -22++0
      241    0.020343    0.020343  2+++--
       84   -0.020285   -0.020285  -+2+-+

 State #    2  Energy =     -75.592102357  S =  0.500

      Det      Coef        Coefp    Occupancy (Ignoring core)
      ---      ----        ----    --------- --------- -----
       16    0.988927    0.988927  22+200
      203   -0.078009    0.078009  20+202
      198   -0.042823    0.042823  2+02+-
       46   -0.037477   -0.037477  +22200
       53   -0.035669    0.035669  +-220+
      200    0.034567    0.034567  -++2+-
      128    0.033136    0.033136  +-+2-+
       18    0.033125   -0.033125  2202+0
      123    0.032097    0.032097  +20220
      125   -0.031690    0.031690  02+220
      109   -0.028339    0.028339  20+220
       23   -0.025360   -0.025360  2-+20+
      112    0.021839    0.021839  2+02-+
       28    0.020984   -0.020984  2-02++
      214   -0.020157    0.020157  +-+2+-
       34   -0.020118    0.020118  2022+0

 State #    3  Energy =     -75.432393514  S =  0.500

      Det      Coef        Coefp    Occupancy (Ignoring core)
      ---      ----        ----    --------- --------- -----
       31   -0.990501    0.990501  2+2200
      113   -0.048377   -0.048377  20+2-+
      108    0.047594   -0.047594  2+0220
       52    0.046998    0.046998  +2-20+
      143   -0.032149    0.032149  +022-+
      110   -0.032084   -0.032084  -++220
       33   -0.031565    0.031565  2+-2+0
      138    0.031363    0.031363  ++-220
      140    0.031053    0.031053  0+2220
      202    0.029163   -0.029163  2+0202
        6    0.028550   -0.028550  22200+
       43    0.027911   -0.027911  20-2++
      211   -0.025791    0.025791  +2+20-
       19    0.024321    0.024321  2-+2+0
       24   -0.021207    0.021207  -2+20+
      199    0.020466   -0.020466  20+2+-
      234    0.020196    0.020196  0+2202

         ----------------------------------------------------
          Transformation matrix between Active CMOs and DMOs
                    Row for CMO and Column for DMO
         ----------------------------------------------------

             1           2           3           4           5

    1    0.9999981   0.0000000  -0.0009332   0.0000000   0.0017349
    2    0.0000000   0.9999998   0.0000000   0.0000000  -0.0000000
    3    0.0009391   0.0000000   0.9999937   0.0000000  -0.0034357
    4    0.0000000   0.0000000   0.0000000   1.0000000   0.0000000
    5   -0.0017317  -0.0000000   0.0034373   0.0000000   0.9999926
    6    0.0000000  -0.0006962  -0.0000000  -0.0000000  -0.0000000

             6

    1   -0.0000000
    2   -0.0006962
    3    0.0000000
    4    0.0000000
    5    0.0000000
    6   -0.9999998

     $REFDET GROUP FOUND

 *************************************************************************
     STEP 2: DIABATIZATION USING CONFIGURATION UNIFORMITY
  See Atchity and Ruedenberg, Theor. Chem. Acc. 1997, 97, 47
 *************************************************************************

READ-IN LIST OF DIABATIC PROTOTYPES:

     THE SAME NUMBER OF PROTOTYPE GROUPS & ADIABATS

     THE ADIABS SHOULD HAVE FULLY COVER THE PROTOTYPES

 Approximated Overlap Matrix for truncated adiabats:
   0.9978818796   0.0000000000   0.0000000000
   0.0000000000   0.9967569437   0.0000000001
   0.0000000000   0.0000000001   0.9978757062


 -------------------------------------------
   - DIABATIC HAMILTONIAN MATRIX ELEMENTS - 
 -------------------------------------------
                                            
 --- DIABATIC ENERGIES (DIAGONAL ELEMENT) ---       HARTREE            EV
 STATE #  1'S GMC-CI-LEVEL DIABATIC ENERGY=     -75.682568490       0.000000000
 STATE #  2'S GMC-CI-LEVEL DIABATIC ENERGY=     -75.592102357       2.461708860
 STATE #  3'S GMC-CI-LEVEL DIABATIC ENERGY=     -75.432393514       6.807607824

 --- DIABATIC COUPLINGS (OFF DIAGONAL ELEMENTS)---  HATREE            EV
 STATE #  1 &  2'S GMC-CI-LEVEL COUPLING  =       0.000000000       0.000000000
 STATE #  1 &  3'S GMC-CI-LEVEL COUPLING  =       0.000000001       0.000000036
 STATE #  2 &  3'S GMC-CI-LEVEL COUPLING  =      -0.000000005      -0.000000123

 ---------------------------------------
     - ROTATION TO DIABATIC STATES -    
 ---------------------------------------
 ROWS=ADIABATIC, COLUMNS=DIABATIC STATES

             1           2           3

    1    1.0000000  -0.0000000   0.0000000
    2    0.0000000  -1.0000000   0.0000000
    3    0.0000000  -0.0000000  -1.0000000

 ---------------------------------------
          - DIABATIC STATES -           
 ---------------------------------------

 State #    1  Energy =     -75.682568490

      Det      Coef        Coefp    Occupancy (Ignoring core)
      ---      ----        ----    --------- --------- -----
        1    0.986909   -0.986909  222+00
      173   -0.076582   -0.076582  202+02
      168   -0.043473   -0.043473  2+-++-
       63   -0.042360   -0.042360  220+20
       68   -0.041969   -0.041969  2-++-+
        8   -0.037347    0.037347  2-2+0+
       47   -0.032939    0.032939  +22-+0
       98    0.032853   -0.032853  +-2+-+
       93    0.032538   -0.032538  +2-+20
       65   -0.031093   -0.031093  -2++20
      170    0.030942   -0.030942  -+2++-
       95   -0.030619   -0.030619  022+20
       79   -0.029094   -0.029094  202+20
       36    0.026927    0.026927  2+2-0+
      157   -0.026507   -0.026507  220+02
        3    0.023419    0.023419  22-++0
      154    0.023087   -0.023087  2-+++-
       82    0.022572   -0.022572  2+-+-+
      184   -0.020600   -0.020600  +-2++-
        5    0.020523    0.020523  -22++0
      241    0.020343    0.020343  2+++--
       84   -0.020285   -0.020285  -+2+-+

 State #    2  Energy =     -75.592102357

      Det      Coef        Coefp    Occupancy (Ignoring core)
      ---      ----        ----    --------- --------- -----
       16   -0.988927   -0.988927  22+200
      203    0.078009   -0.078009  20+202
      198    0.042823   -0.042823  2+02+-
       46    0.037477    0.037477  +22200
       53    0.035669   -0.035669  +-220+
      200   -0.034567   -0.034567  -++2+-
      128   -0.033136   -0.033136  +-+2-+
       18   -0.033125    0.033125  2202+0
      123   -0.032097   -0.032097  +20220
      125    0.031690   -0.031690  02+220
      109    0.028339   -0.028339  20+220
       23    0.025360    0.025360  2-+20+
      112   -0.021839   -0.021839  2+02-+
       28   -0.020984    0.020984  2-02++
      214    0.020157   -0.020157  +-+2+-
       34    0.020118   -0.020118  2022+0

 State #    3  Energy =     -75.432393514

      Det      Coef        Coefp    Occupancy (Ignoring core)
      ---      ----        ----    --------- --------- -----
       31    0.990501   -0.990501  2+2200
      113    0.048377    0.048377  20+2-+
      108   -0.047594    0.047594  2+0220
       52   -0.046998   -0.046998  +2-20+
      143    0.032149   -0.032149  +022-+
      110    0.032084    0.032084  -++220
       33    0.031565   -0.031565  2+-2+0
      138   -0.031363   -0.031363  ++-220
      140   -0.031053   -0.031053  0+2220
      202   -0.029163    0.029163  2+0202
        6   -0.028550    0.028550  22200+
       43   -0.027911    0.027911  20-2++
      211    0.025791   -0.025791  +2+20-
       19   -0.024321   -0.024321  2-+2+0
       24    0.021207   -0.021207  -2+20+
      199   -0.020466    0.020466  20+2+-
      234   -0.020196   -0.020196  0+2202

 ---------------------------------------
      - DIABATIC STATES IN CMO -        
 ---------------------------------------

 State #    1  Energy =     -75.682568490

      Det      Coef        Coefp    Occupancy (Ignoring core)
      ---      ----        ----    --------- --------- -----
        1    0.986814   -0.986814  222+00
      173   -0.076596   -0.076596  202+02
      168    0.043480    0.043480  2+-++-
       63   -0.042286   -0.042286  220+20
       68    0.041876    0.041876  2-++-+
        8    0.036741   -0.036741  2-2+0+
       47   -0.032926    0.032926  +22-+0
       98   -0.032863    0.032863  +-2+-+
       93    0.032619   -0.032619  +2-+20
       65   -0.031044   -0.031044  -2++20
      170   -0.030929    0.030929  -+2++-
       95   -0.030572   -0.030572  022+20
       79   -0.029094   -0.029094  202+20
       36   -0.026917   -0.026917  2+2-0+
        3    0.026874    0.026874  22-++0
      157   -0.026511   -0.026511  220+02
      154   -0.023105    0.023105  2-+++-
[...]
      211   -0.025775    0.025775  +2+20-
       19   -0.024320   -0.024320  2-+2+0
       24   -0.021200    0.021200  -2+20+
      199    0.020500   -0.020500  20+2+-
      234   -0.020197   -0.020197  0+2202

 ---------------------------------------
    -DIABATIC STATES IN PROTOTYPES-     
 ---------------------------------------

     STATE:    1
 Group Ref#    Coefficients
     1    1    0.998940
     2    2   -0.000000
     3    3   -0.000000

WEIGHT OF LISTED PROTOTYPES:   99.79%

     STATE:    2
 Group Ref#    Coefficients
     1    1    0.000000
     2    2    0.998377
     3    3    0.000000

WEIGHT OF LISTED PROTOTYPES:   99.68%

     STATE:    3
 Group Ref#    Coefficients
     1    1   -0.000000
     2    2    0.000000
     3    3    0.998937

WEIGHT OF LISTED PROTOTYPES:   99.79%

 --------------------------------------------------
 IN DIRECT MAX. DIABATIZATION FOR GMC-QDPT

 DIRECT MAXIMIZATION (DM) WITHOUT TRUNCATING ADIABATS
 EXPANSIONS INTO THE REFERENCE CONFIGURATION SPACE
 --------------------------------------------------

 -------------------------------------------
 - DM DIABT PT HAMILTONIAN MATRIX ELEMENTS -
 -------------------------------------------
                                            
 --- DIABATIC ENERGIES (DIAGONAL ELEMENT) ---       HARTREE            EV
 STATE #  1'S GMC-PT-LEVEL DIABATIC ENERGY=     -75.802492923       0.000000000
 STATE #  2'S GMC-PT-LEVEL DIABATIC ENERGY=     -75.722003264       2.190235190
 STATE #  3'S GMC-PT-LEVEL DIABATIC ENERGY=     -75.569212909       6.347872509

 --- DIABATIC COUPLINGS (OFF DIAGONAL ELEMENTS)---  HATREE            EV
 STATE #  1 &  2'S GMC-PT-LEVEL COUPLING  =       0.000000000       0.000000000
 STATE #  1 &  3'S GMC-PT-LEVEL COUPLING  =       0.000000001       0.000000033
 STATE #  2 &  3'S GMC-PT-LEVEL COUPLING  =      -0.000000005      -0.000000127

 ---------------------------------------
     - ROTATION TO DIABATIC STATES -    
 ---------------------------------------
 ROWS=ADIABATIC, COLUMNS=DIABATIC STATES

             1           2           3

    1    1.0000000  -0.0000000   0.0000000
    2    0.0000000  -1.0000000   0.0000000
    3    0.0000000  -0.0000000  -1.0000000

 ---------------------------------------
          - DIABATIC STATES -           
 ---------------------------------------

 State #    1  Energy =     -75.802492923

      Det      Coef        Coefp    Occupancy (Ignoring core)
      ---      ----        ----    --------- --------- -----
        1    0.986909   -0.986909  222+00
      173   -0.076582   -0.076582  202+02
      168   -0.043473   -0.043473  2+-++-
       63   -0.042360   -0.042360  220+20
       68   -0.041969   -0.041969  2-++-+
        8   -0.037347    0.037347  2-2+0+
       47   -0.032939    0.032939  +22-+0
       98    0.032853   -0.032853  +-2+-+
       93    0.032538   -0.032538  +2-+20
       65   -0.031093   -0.031093  -2++20
      170    0.030942   -0.030942  -+2++-
       95   -0.030619   -0.030619  022+20
       79   -0.029094   -0.029094  202+20
       36    0.026927    0.026927  2+2-0+
      157   -0.026507   -0.026507  220+02
        3    0.023419    0.023419  22-++0
      154    0.023087   -0.023087  2-+++-
       82    0.022572   -0.022572  2+-+-+
      184   -0.020600   -0.020600  +-2++-
        5    0.020523    0.020523  -22++0
      241    0.020343    0.020343  2+++--
       84   -0.020285   -0.020285  -+2+-+

 State #    2  Energy =     -75.722003264

      Det      Coef        Coefp    Occupancy (Ignoring core)
      ---      ----        ----    --------- --------- -----
       16   -0.988927   -0.988927  22+200
      203    0.078009   -0.078009  20+202
      198    0.042823   -0.042823  2+02+-
       46    0.037477    0.037477  +22200
       53    0.035669   -0.035669  +-220+
      200   -0.034567   -0.034567  -++2+-
      128   -0.033136   -0.033136  +-+2-+
       18   -0.033125    0.033125  2202+0
      123   -0.032097   -0.032097  +20220
      125    0.031690   -0.031690  02+220
      109    0.028339   -0.028339  20+220
       23    0.025360    0.025360  2-+20+
      112   -0.021839   -0.021839  2+02-+
       28   -0.020984    0.020984  2-02++
      214    0.020157   -0.020157  +-+2+-
       34    0.020118   -0.020118  2022+0

 State #    3  Energy =     -75.569212909

      Det      Coef        Coefp    Occupancy (Ignoring core)
      ---      ----        ----    --------- --------- -----
       31    0.990501   -0.990501  2+2200
      113    0.048377    0.048377  20+2-+
      108   -0.047594    0.047594  2+0220
       52   -0.046998   -0.046998  +2-20+
      143    0.032149   -0.032149  +022-+
      110    0.032084    0.032084  -++220
       33    0.031565   -0.031565  2+-2+0
      138   -0.031363   -0.031363  ++-220
      140   -0.031053   -0.031053  0+2220
      202   -0.029163    0.029163  2+0202
        6   -0.028550    0.028550  22200+
       43   -0.027911    0.027911  20-2++
      211    0.025791   -0.025791  +2+20-
       19   -0.024321   -0.024321  2-+2+0
       24    0.021207   -0.021207  -2+20+
      199   -0.020466    0.020466  20+2+-
      234   -0.020196   -0.020196  0+2202

 ---------------------------------------
      - DIABATIC STATES IN CMO -        
 ---------------------------------------

 State #    1  Energy =     -75.802492923

      Det      Coef        Coefp    Occupancy (Ignoring core)
      ---      ----        ----    --------- --------- -----
        1    0.986814   -0.986814  222+00
      173   -0.076596   -0.076596  202+02
      168    0.043480    0.043480  2+-++-
       63   -0.042286   -0.042286  220+20
       68    0.041876    0.041876  2-++-+
        8    0.036741   -0.036741  2-2+0+
       47   -0.032926    0.032926  +22-+0
       98   -0.032863    0.032863  +-2+-+
       93    0.032619   -0.032619  +2-+20
       65   -0.031044   -0.031044  -2++20
      170   -0.030929    0.030929  -+2++-
       95   -0.030572   -0.030572  022+20
       79   -0.029094   -0.029094  202+20
       36   -0.026917   -0.026917  2+2-0+
        3    0.026874    0.026874  22-++0
      157   -0.026511   -0.026511  220+02
      154   -0.023105    0.023105  2-+++-
       82   -0.022590    0.022590  2+-+-+
      184    0.020576    0.020576  +-2++-
      241   -0.020326   -0.020326  2+++--
       84    0.020263    0.020263  -+2+-+

 State #    2  Energy =     -75.722003264

      Det      Coef        Coefp    Occupancy (Ignoring core)
      ---      ----        ----    --------- --------- -----
       16   -0.988782   -0.988782  22+200
      203    0.078024   -0.078024  20+202
      198   -0.042845    0.042845  2+02+-
       46    0.038392    0.038392  +22200
       18   -0.036406    0.036406  2202+0
       53   -0.035769    0.035769  +-220+
      200    0.034541    0.034541  -++2+-
      128    0.033045    0.033045  +-+2-+
      123   -0.032160   -0.032160  +20220
      125    0.031676   -0.031676  02+220
      109    0.028270   -0.028270  20+220
       23   -0.024571   -0.024571  2-+20+
      112    0.021895    0.021895  2+02-+
       28    0.020950   -0.020950  2-02++
       34    0.020214   -0.020214  2022+0
      214   -0.020157    0.020157  +-+2+-

 State #    3  Energy =     -75.569212909

      Det      Coef        Coefp    Occupancy (Ignoring core)
      ---      ----        ----    --------- --------- -----
       31    0.990610   -0.990610  2+2200
      113   -0.048458   -0.048458  20+2-+
      108   -0.047773    0.047773  2+0220
       52    0.046975    0.046975  +2-20+
      143   -0.032092    0.032092  +022-+
      110    0.032088    0.032088  -++220
      138   -0.031268   -0.031268  ++-220
      140   -0.030991   -0.030991  0+2220
      202   -0.029159    0.029159  2+0202
        6    0.028543   -0.028543  22200+
       33    0.028079   -0.028079  2+-2+0
       43    0.027958   -0.027958  20-2++
      211   -0.025775    0.025775  +2+20-
       19   -0.024320   -0.024320  2-+2+0
       24   -0.021200    0.021200  -2+20+
      199    0.020500   -0.020500  20+2+-
      234   -0.020197   -0.020197  0+2202

 ---------------------------------------
    -DIABATIC STATES IN PROTOTYPES-     
 ---------------------------------------

     STATE:    1
 Group Ref#    Coefficients
     1    1    0.998940
     2    2   -0.000000
     3    3   -0.000000

WEIGHT OF LISTED PROTOTYPES:   99.79%

     STATE:    2
 Group Ref#    Coefficients
     1    1    0.000000
     2    2    0.998377
     3    3    0.000000

WEIGHT OF LISTED PROTOTYPES:   99.68%

     STATE:    3
 Group Ref#    Coefficients
     1    1   -0.000000
     2    2    0.000000
     3    3    0.998937

WEIGHT OF LISTED PROTOTYPES:   99.79%

     DIRECT MAX. DIABATIZATION FINISHED    
 CPU     0: STEP CPU TIME=     0.06 TOTAL CPU TIME=          1.2 (      0.0 MIN)
 TOTAL WALL CLOCK TIME=          2.8 SECONDS, CPU UTILIZATION IS    42.09%

DIABATS FOR SPIN-ORBIT CALCULATION ARE READY

TRANSITION DIPOLES BETWEEN ADIABATS (in A.U.):

STATE PAIR      X         Y         Z
    1    1  0.000000  0.000000  0.273055
    2    1 -0.000000  0.164603  0.000000
    2    2  0.000000 -0.000000  0.456917
    3    1  0.000000  0.000000  0.000000
    3    2  0.124978  0.000000  0.000000
    3    3 -0.000000 -0.000000  0.049291


TRANSITION DIPOLES BETWEEN DIABATS (in A.U.):

STATE PAIR      X         Y         Z
    1    1  0.000000  0.000000  0.273055
    2    1  0.000000 -0.164603 -0.000000
    2    2  0.000000 -0.000000  0.456917
    3    1 -0.000000  0.000000 -0.000000
    3    2  0.124978  0.000000 -0.000000
    3    3 -0.000000 -0.000000  0.049291

TRANSITION DIPOLES BETWEEN DIRECT MAX. DIABATS (in A.U.):

STATE PAIR      X         Y         Z
    1    1  0.000000  0.000000  0.273055
    2    1  0.000000 -0.164603 -0.000000
    2    2  0.000000 -0.000000  0.456917
    3    1 -0.000000  0.000000 -0.000000
    3    2  0.124978  0.000000 -0.000000
    3    3 -0.000000 -0.000000  0.049291
 No $TRANST Group Found.
 Quit without doing spin-orbit coupling
 ..... DONE WITH MP2 ENERGY .....
 CPU     0: STEP CPU TIME=     0.00 TOTAL CPU TIME=          1.2 (      0.0 MIN)
 TOTAL WALL CLOCK TIME=          2.8 SECONDS, CPU UTILIZATION IS    42.09%
            250000000  WORDS OF DYNAMIC MEMORY USED
 EXECUTION OF GAMESS TERMINATED NORMALLY Thu Jan 25 17:20:26 2024
 DDI: 386504 bytes (0.4 MB / 0 MWords) used by master data server.

 ----------------------------------------
 CPU timing information for all processes
 ========================================
 0: 1.61 + 0.111 = 1.172
 1: 0.963 + 0.87 = 1.50
 ----------------------------------------
Note: The following floating-point exceptions are signalling: IEEE_DENORMAL
Note: The following floating-point exceptions are signalling: IEEE_DENORMAL
 ddikick.x: exited gracefully.
unset echo
----- accounting info -----
Files used on the master node io002 were:
-rwxr-xr-x 1 bjb2chen nooijen   16379 Jan 25 17:20 /home/bjb2chen/gmsscr//H2Ocat_cct_gmcpt_C1_3st_diab_mode8_+0.05_mode7_+0.05.F05*
-rw-r--r-- 1 bjb2chen nooijen  182424 Jan 25 17:20 /home/bjb2chen/gmsscr//H2Ocat_cct_gmcpt_C1_3st_diab_mode8_+0.05_mode7_+0.05.F09
-rw-r--r-- 1 bjb2chen nooijen  180016 Jan 25 17:20 /home/bjb2chen/gmsscr//H2Ocat_cct_gmcpt_C1_3st_diab_mode8_+0.05_mode7_+0.05.F09.001
-rw-r--r-- 1 bjb2chen nooijen 1995920 Jan 25 17:20 /home/bjb2chen/gmsscr//H2Ocat_cct_gmcpt_C1_3st_diab_mode8_+0.05_mode7_+0.05.F10
-rw-r--r-- 1 bjb2chen nooijen   33168 Jan 25 17:20 /home/bjb2chen/gmsscr//H2Ocat_cct_gmcpt_C1_3st_diab_mode8_+0.05_mode7_+0.05.F13
-rw-r--r-- 1 bjb2chen nooijen   33168 Jan 25 17:20 /home/bjb2chen/gmsscr//H2Ocat_cct_gmcpt_C1_3st_diab_mode8_+0.05_mode7_+0.05.F13.001
-rw-r--r-- 1 bjb2chen nooijen  180248 Jan 25 17:20 /home/bjb2chen/gmsscr//H2Ocat_cct_gmcpt_C1_3st_diab_mode8_+0.05_mode7_+0.05.F15
-rw-r--r-- 1 bjb2chen nooijen       0 Jan 25 17:20 /home/bjb2chen/gmsscr//H2Ocat_cct_gmcpt_C1_3st_diab_mode8_+0.05_mode7_+0.05.F16
-rw-r--r-- 1 bjb2chen nooijen    2408 Jan 25 17:20 /home/bjb2chen/gmsscr//H2Ocat_cct_gmcpt_C1_3st_diab_mode8_+0.05_mode7_+0.05.F70
-rw-r--r-- 1 bjb2chen nooijen    2408 Jan 25 17:20 /home/bjb2chen/gmsscr//H2Ocat_cct_gmcpt_C1_3st_diab_mode8_+0.05_mode7_+0.05.F70.001
-rw-r--r-- 1 bjb2chen nooijen    2408 Jan 25 17:20 /home/bjb2chen/gmsscr//H2Ocat_cct_gmcpt_C1_3st_diab_mode8_+0.05_mode7_+0.05.F71
-rw-r--r-- 1 bjb2chen nooijen    2408 Jan 25 17:20 /home/bjb2chen/gmsscr//H2Ocat_cct_gmcpt_C1_3st_diab_mode8_+0.05_mode7_+0.05.F71.001
-rw-r--r-- 1 bjb2chen nooijen    4808 Jan 25 17:20 /home/bjb2chen/gmsscr//H2Ocat_cct_gmcpt_C1_3st_diab_mode8_+0.05_mode7_+0.05.F72
-rw-r--r-- 1 bjb2chen nooijen    4808 Jan 25 17:20 /home/bjb2chen/gmsscr//H2Ocat_cct_gmcpt_C1_3st_diab_mode8_+0.05_mode7_+0.05.F72.001
-rw-r--r-- 1 bjb2chen nooijen    4808 Jan 25 17:20 /home/bjb2chen/gmsscr//H2Ocat_cct_gmcpt_C1_3st_diab_mode8_+0.05_mode7_+0.05.F73
-rw-r--r-- 1 bjb2chen nooijen    4808 Jan 25 17:20 /home/bjb2chen/gmsscr//H2Ocat_cct_gmcpt_C1_3st_diab_mode8_+0.05_mode7_+0.05.F73.001
-rw-r--r-- 1 bjb2chen nooijen  184824 Jan 25 17:20 /home/bjb2chen/gmsscr//H2Ocat_cct_gmcpt_C1_3st_diab_mode8_+0.05_mode7_+0.05.F74
-rw-r--r-- 1 bjb2chen nooijen  184824 Jan 25 17:20 /home/bjb2chen/gmsscr//H2Ocat_cct_gmcpt_C1_3st_diab_mode8_+0.05_mode7_+0.05.F74.001
-rw-r--r-- 1 bjb2chen nooijen  720024 Jan 25 17:20 /home/bjb2chen/gmsscr//H2Ocat_cct_gmcpt_C1_3st_diab_mode8_+0.05_mode7_+0.05.F75
-rw-r--r-- 1 bjb2chen nooijen  720024 Jan 25 17:20 /home/bjb2chen/gmsscr//H2Ocat_cct_gmcpt_C1_3st_diab_mode8_+0.05_mode7_+0.05.F75.001
-rw-r--r-- 1 bjb2chen nooijen   14448 Jan 25 17:20 /home/bjb2chen/gmsscr//H2Ocat_cct_gmcpt_C1_3st_diab_mode8_+0.05_mode7_+0.05.F76
-rw-r--r-- 1 bjb2chen nooijen   14448 Jan 25 17:20 /home/bjb2chen/gmsscr//H2Ocat_cct_gmcpt_C1_3st_diab_mode8_+0.05_mode7_+0.05.F76.001
-rw-r--r-- 1 bjb2chen nooijen       0 Jan 25 17:20 /home/bjb2chen/gmsscr//H2Ocat_cct_gmcpt_C1_3st_diab_mode8_+0.05_mode7_+0.05.F77
-rw-r--r-- 1 bjb2chen nooijen       0 Jan 25 17:20 /home/bjb2chen/gmsscr//H2Ocat_cct_gmcpt_C1_3st_diab_mode8_+0.05_mode7_+0.05.F77.001
-rw-r--r-- 1 bjb2chen nooijen    1544 Jan 25 17:20 /home/bjb2chen/gmsscr//H2Ocat_cct_gmcpt_C1_3st_diab_mode8_+0.05_mode7_+0.05.F78
-rw-r--r-- 1 bjb2chen nooijen    1544 Jan 25 17:20 /home/bjb2chen/gmsscr//H2Ocat_cct_gmcpt_C1_3st_diab_mode8_+0.05_mode7_+0.05.F78.001
-rw-r--r-- 1 bjb2chen nooijen    9608 Jan 25 17:20 /home/bjb2chen/gmsscr//H2Ocat_cct_gmcpt_C1_3st_diab_mode8_+0.05_mode7_+0.05.F79
-rw-r--r-- 1 bjb2chen nooijen    9608 Jan 25 17:20 /home/bjb2chen/gmsscr//H2Ocat_cct_gmcpt_C1_3st_diab_mode8_+0.05_mode7_+0.05.F79.001
-rw-r--r-- 1 bjb2chen nooijen     104 Jan 25 17:20 /home/bjb2chen/gmsscr//H2Ocat_cct_gmcpt_C1_3st_diab_mode8_+0.05_mode7_+0.05.F80
-rw-r--r-- 1 bjb2chen nooijen     104 Jan 25 17:20 /home/bjb2chen/gmsscr//H2Ocat_cct_gmcpt_C1_3st_diab_mode8_+0.05_mode7_+0.05.F80.001
-rw-r--r-- 1 bjb2chen nooijen    9232 Jan 25 17:20 /home/bjb2chen/gmsscr//H2Ocat_cct_gmcpt_C1_3st_diab_mode8_+0.05_mode7_+0.05.F81
-rw-r--r-- 1 bjb2chen nooijen    9232 Jan 25 17:20 /home/bjb2chen/gmsscr//H2Ocat_cct_gmcpt_C1_3st_diab_mode8_+0.05_mode7_+0.05.F81.001
-rw-r--r-- 1 bjb2chen nooijen      16 Jan 25 17:20 /home/bjb2chen/gmsscr//H2Ocat_cct_gmcpt_C1_3st_diab_mode8_+0.05_mode7_+0.05.F82
-rw-r--r-- 1 bjb2chen nooijen      16 Jan 25 17:20 /home/bjb2chen/gmsscr//H2Ocat_cct_gmcpt_C1_3st_diab_mode8_+0.05_mode7_+0.05.F82.001
-rw-r--r-- 1 bjb2chen nooijen   10376 Jan 25 17:20 /home/bjb2chen/gmsscr//H2Ocat_cct_gmcpt_C1_3st_diab_mode8_+0.05_mode7_+0.05.F83
-rw-r--r-- 1 bjb2chen nooijen   10376 Jan 25 17:20 /home/bjb2chen/gmsscr//H2Ocat_cct_gmcpt_C1_3st_diab_mode8_+0.05_mode7_+0.05.F83.001
-rw-r--r-- 1 bjb2chen nooijen   18832 Jan 25 17:20 /home/bjb2chen/gmsscr//H2Ocat_cct_gmcpt_C1_3st_diab_mode8_+0.05_mode7_+0.05.F84
-rw-r--r-- 1 bjb2chen nooijen   18832 Jan 25 17:20 /home/bjb2chen/gmsscr//H2Ocat_cct_gmcpt_C1_3st_diab_mode8_+0.05_mode7_+0.05.F84.001
-rw-r--r-- 1 bjb2chen nooijen   66960 Jan 25 17:20 /home/bjb2chen/gmsscr//H2Ocat_cct_gmcpt_C1_3st_diab_mode8_+0.05_mode7_+0.05.F85
-rw-r--r-- 1 bjb2chen nooijen   66960 Jan 25 17:20 /home/bjb2chen/gmsscr//H2Ocat_cct_gmcpt_C1_3st_diab_mode8_+0.05_mode7_+0.05.F85.001
-rw-r--r-- 1 bjb2chen nooijen   66616 Jan 25 17:20 /home/bjb2chen/gmsscr//H2Ocat_cct_gmcpt_C1_3st_diab_mode8_+0.05_mode7_+0.05.F86
-rw-r--r-- 1 bjb2chen nooijen   63384 Jan 25 17:20 /home/bjb2chen/gmsscr//H2Ocat_cct_gmcpt_C1_3st_diab_mode8_+0.05_mode7_+0.05.F86.001
-rw-r--r-- 1 bjb2chen nooijen     656 Jan 25 17:20 /home/bjb2chen/gmsscr//H2Ocat_cct_gmcpt_C1_3st_diab_mode8_+0.05_mode7_+0.05.F87
-rw-r--r-- 1 bjb2chen nooijen     656 Jan 25 17:20 /home/bjb2chen/gmsscr//H2Ocat_cct_gmcpt_C1_3st_diab_mode8_+0.05_mode7_+0.05.F87.001
-rw-r--r-- 1 bjb2chen nooijen    5296 Jan 25 17:20 /home/bjb2chen/gmsscr//H2Ocat_cct_gmcpt_C1_3st_diab_mode8_+0.05_mode7_+0.05.F88
-rw-r--r-- 1 bjb2chen nooijen    5296 Jan 25 17:20 /home/bjb2chen/gmsscr//H2Ocat_cct_gmcpt_C1_3st_diab_mode8_+0.05_mode7_+0.05.F88.001
-rw-r--r-- 1 bjb2chen nooijen     200 Jan 25 17:20 /home/bjb2chen/gmsscr//H2Ocat_cct_gmcpt_C1_3st_diab_mode8_+0.05_mode7_+0.05.F89
-rw-r--r-- 1 bjb2chen nooijen     200 Jan 25 17:20 /home/bjb2chen/gmsscr//H2Ocat_cct_gmcpt_C1_3st_diab_mode8_+0.05_mode7_+0.05.F89.001
-rw-r--r-- 1 bjb2chen nooijen       0 Jan 25 17:20 /home/bjb2chen/gmsscr//H2Ocat_cct_gmcpt_C1_3st_diab_mode8_+0.05_mode7_+0.05.F90
-rw-r--r-- 1 bjb2chen nooijen       0 Jan 25 17:20 /home/bjb2chen/gmsscr//H2Ocat_cct_gmcpt_C1_3st_diab_mode8_+0.05_mode7_+0.05.F90.001
-rw-r--r-- 1 bjb2chen nooijen    5560 Jan 25 17:20 /home/bjb2chen/gmsscr//H2Ocat_cct_gmcpt_C1_3st_diab_mode8_+0.05_mode7_+0.05.F91
-rw-r--r-- 1 bjb2chen nooijen    5560 Jan 25 17:20 /home/bjb2chen/gmsscr//H2Ocat_cct_gmcpt_C1_3st_diab_mode8_+0.05_mode7_+0.05.F91.001
-rw-r--r-- 1 bjb2chen nooijen    7128 Jan 25 17:20 /home/bjb2chen/gmsscr//H2Ocat_cct_gmcpt_C1_3st_diab_mode8_+0.05_mode7_+0.05.F92
-rw-r--r-- 1 bjb2chen nooijen    7128 Jan 25 17:20 /home/bjb2chen/gmsscr//H2Ocat_cct_gmcpt_C1_3st_diab_mode8_+0.05_mode7_+0.05.F92.001
-rw-r--r-- 1 bjb2chen nooijen    5560 Jan 25 17:20 /home/bjb2chen/gmsscr//H2Ocat_cct_gmcpt_C1_3st_diab_mode8_+0.05_mode7_+0.05.F93
-rw-r--r-- 1 bjb2chen nooijen    5560 Jan 25 17:20 /home/bjb2chen/gmsscr//H2Ocat_cct_gmcpt_C1_3st_diab_mode8_+0.05_mode7_+0.05.F93.001
-rw-r--r-- 1 bjb2chen nooijen    3880 Jan 25 17:20 /home/bjb2chen/gmsscr//H2Ocat_cct_gmcpt_C1_3st_diab_mode8_+0.05_mode7_+0.05.F94
-rw-r--r-- 1 bjb2chen nooijen    3880 Jan 25 17:20 /home/bjb2chen/gmsscr//H2Ocat_cct_gmcpt_C1_3st_diab_mode8_+0.05_mode7_+0.05.F94.001
-rw-r--r-- 1 bjb2chen nooijen    1640 Jan 25 17:20 /home/bjb2chen/gmsscr//H2Ocat_cct_gmcpt_C1_3st_diab_mode8_+0.05_mode7_+0.05.F95
-rw-r--r-- 1 bjb2chen nooijen    1640 Jan 25 17:20 /home/bjb2chen/gmsscr//H2Ocat_cct_gmcpt_C1_3st_diab_mode8_+0.05_mode7_+0.05.F95.001
-rw-r--r-- 1 bjb2chen nooijen    7240 Jan 25 17:20 /home/bjb2chen/gmsscr//H2Ocat_cct_gmcpt_C1_3st_diab_mode8_+0.05_mode7_+0.05.F96
-rw-r--r-- 1 bjb2chen nooijen    7240 Jan 25 17:20 /home/bjb2chen/gmsscr//H2Ocat_cct_gmcpt_C1_3st_diab_mode8_+0.05_mode7_+0.05.F96.001
-rw-r--r-- 1 bjb2chen nooijen     872 Jan 25 17:20 /home/bjb2chen/gmsscr//H2Ocat_cct_gmcpt_C1_3st_diab_mode8_+0.05_mode7_+0.05.F97
-rw-r--r-- 1 bjb2chen nooijen     872 Jan 25 17:20 /home/bjb2chen/gmsscr//H2Ocat_cct_gmcpt_C1_3st_diab_mode8_+0.05_mode7_+0.05.F97.001
-rw-r--r-- 1 bjb2chen nooijen    2408 Jan 25 17:20 /home/bjb2chen/gmsscr//H2Ocat_cct_gmcpt_C1_3st_diab_mode8_+0.05_mode7_+0.05.F98
-rw-r--r-- 1 bjb2chen nooijen    2408 Jan 25 17:20 /home/bjb2chen/gmsscr//H2Ocat_cct_gmcpt_C1_3st_diab_mode8_+0.05_mode7_+0.05.F98.001
-rw-r--r-- 1 bjb2chen nooijen    6024 Jan 25 17:20 /home/bjb2chen/gmsscr//H2Ocat_cct_gmcpt_C1_3st_diab_mode8_+0.05_mode7_+0.05.F99
-rw-r--r-- 1 bjb2chen nooijen    6024 Jan 25 17:20 /home/bjb2chen/gmsscr//H2Ocat_cct_gmcpt_C1_3st_diab_mode8_+0.05_mode7_+0.05.F99.001
ls: No match.
ls: No match.
ls: No match.
Thu 25 Jan 2024 05:20:33 PM EST
0.380u 0.069s 0:09.17 4.7%	0+0k 32+240io 0pf+0w
