----- GAMESS execution script 'rungms' -----
This job is running on host io003
under operating system Linux at Thu 25 Jan 2024 05:20:23 PM EST
Available scratch disk space (Kbyte units) at beginning of the job is
Filesystem             1K-blocks       Used Available Use% Mounted on
helmholtz.nlogn:/home 6391504896 5248412672 820953088  87% /home
GAMESS temporary binary files will be written to /home/bjb2chen/gmsscr/
GAMESS supplementary output files will be written to /home/bjb2chen/gamess/vibronics/template_examples/H2O
Copying input file H2Ocat_cct_gmcpt_C1_3st_diab_mode9_-0.05_mode7_+0.05.inp to your run's scratch directory...
cp H2Ocat_cct_gmcpt_C1_3st_diab_mode9_-0.05_mode7_+0.05.inp /home/bjb2chen/gmsscr//H2Ocat_cct_gmcpt_C1_3st_diab_mode9_-0.05_mode7_+0.05.F05
unset echo
 
Assuming a single but multicore node.
 
/home/bjb2chen/gamess/ddikick.x /home/bjb2chen/gamess/gamess.00.x H2Ocat_cct_gmcpt_C1_3st_diab_mode9_-0.05_mode7_+0.05 -ddi 1 2 io003:cpus=2 -scr /home/bjb2chen/gmsscr/

 Distributed Data Interface kickoff program.
 Initiating 2 compute processes on 1 nodes to run the following command:
 /home/bjb2chen/gamess/gamess.00.x H2Ocat_cct_gmcpt_C1_3st_diab_mode9_-0.05_mode7_+0.05 

          ******************************************************
          *         GAMESS VERSION = 02 AUG 2018 (R2)         *
          *             FROM IOWA STATE UNIVERSITY             *
          * M.W.SCHMIDT, K.K.BALDRIDGE, J.A.BOATZ, S.T.ELBERT, *
          *   M.S.GORDON, J.H.JENSEN, S.KOSEKI, N.MATSUNAGA,   *
          *          K.A.NGUYEN, S.J.SU, T.L.WINDUS,           *
          *       TOGETHER WITH M.DUPUIS, J.A.MONTGOMERY       *
          *         J.COMPUT.CHEM.  14, 1347-1363(1993)        *
          **************** 64 BIT LINUX VERSION ****************

  SINCE 1993, STUDENTS AND POSTDOCS WORKING AT IOWA STATE UNIVERSITY
  AND ALSO IN THEIR VARIOUS JOBS AFTER LEAVING ISU HAVE MADE IMPORTANT
  CONTRIBUTIONS TO THE CODE:
     IVANA ADAMOVIC, CHRISTINE AIKENS, YURI ALEXEEV, POOJA ARORA,
     ANDREY ASADCHEV, ROB BELL, PRADIPTA BANDYOPADHYAY, JONATHAN BENTZ,
     BRETT BODE, KURT BRORSEN, CALEB CARLIN, GALINA CHABAN, WEI CHEN,
     CHEOL HO CHOI, PAUL DAY, ALBERT DEFUSCO, NUWAN DESILVA, TIM DUDLEY,
     DMITRI FEDOROV, ALEX FINDLATER, GRAHAM FLETCHER, MARK FREITAG,
     KURT GLAESEMANN, ANASTASIA GUININA,
     DAN KEMP, GRANT MERRILL, NORIYUKI MINEZAWA, JONATHAN MULLIN,
     TAKESHI NAGATA, SEAN NEDD, HEATHER NETZLOFF, BOSILJKA NJEGIC, RYAN OLSON,
     MIKE PAK, BUU PHAM,
     SPENCER PRUITT, LUKE ROSKOP, JIM SHOEMAKER, LYUDMILA SLIPCHENKO,
     TONY SMITH, SAROM SOK LEANG, JIE SONG, TETSUYA TAKETSUGU, SIMON WEBB,
     PENG XU, SOOHAENG YOO, FEDERICO ZAHARIEV

  ADDITIONAL CODE HAS BEEN PROVIDED BY COLLABORATORS IN OTHER GROUPS:
     IOWA STATE UNIVERSITY:
          JOE IVANIC, AARON WEST, LAIMUTIS BYTAUTAS, KLAUS RUEDENBERG
     UNIVERSITY OF TOKYO: KIMIHIKO HIRAO, TAKAHITO NAKAJIMA,
          TAKAO TSUNEDA, MUNEAKI KAMIYA, SUSUMU YANAGISAWA,
          KIYOSHI YAGI, MAHITO CHIBA, SEIKEN TOKURA, NAOAKI KAWAKAMI
     UNIVERSITY OF AARHUS: FRANK JENSEN
     UNIVERSITY OF IOWA: VISVALDAS KAIRYS, HUI LI
     NATIONAL INST. OF STANDARDS AND TECHNOLOGY: WALT STEVENS, DAVID GARMER
     UNIVERSITY OF PISA: BENEDETTA MENNUCCI, JACOPO TOMASI
     UNIVERSITY OF MEMPHIS: HENRY KURTZ, PRAKASHAN KORAMBATH
     UNIVERSITY OF ALBERTA: TOBY ZENG, MARIUSZ KLOBUKOWSKI
     UNIVERSITY OF NEW ENGLAND: MARK SPACKMAN
     MIE UNIVERSITY: HIROAKI UMEDA
     NAT. INST. OF ADVANCED INDUSTRIAL SCIENCE AND TECHNOLOGY: KAZUO KITAURA
     MICHIGAN STATE UNIVERSITY:
          KAROL KOWALSKI, MARTA WLOCH, JEFFREY GOUR, JESSE LUTZ,
          WEI LI, JUN SHEN, J. EMILIANO DEUSTUA, PIOTR PIECUCH
     UNIVERSITY OF MINNESOTA:
          YINAN SHU
     UNIVERSITY OF SILESIA: MONIKA MUSIAL, STANISLAW KUCHARSKI
     FACULTES UNIVERSITAIRES NOTRE-DAME DE LA PAIX:
          OLIVIER QUINET, BENOIT CHAMPAGNE
     UNIVERSITY OF CALIFORNIA - SANTA BARBARA: BERNARD KIRTMAN
     INSTITUTE FOR MOLECULAR SCIENCE:
          KAZUYA ISHIMURA, MICHIO KATOUDA, AND SHIGERU NAGASE
     UNIVERSITY OF NOTRE DAME: ANNA POMOGAEVA, DAN CHIPMAN
     KYUSHU UNIVERSITY:
          HARUYUKI NAKANO,
          FENG LONG GU, JACEK KORCHOWIEC, MARCIN MAKOWSKI, AND YURIKO AOKI,
          HIROTOSHI MORI AND EISAKU MIYOSHI
     PENNSYLVANIA STATE UNIVERSITY:
          TZVETELIN IORDANOV, CHET SWALINA, JONATHAN SKONE,
          SHARON HAMMES-SCHIFFER
     WASEDA UNIVERSITY:
          MASATO KOBAYASHI, TOMOKO AKAMA, TSUGUKI TOUMA,
          TAKESHI YOSHIKAWA, YASUHIRO IKABATA, JUNJI SEINO,
          YUYA NAKAJIMA, HIROMI NAKAI
     NANJING UNIVERSITY: SHUHUA LI
     UNIVERSITY OF NEBRASKA:
          PEIFENG SU, DEJUN SI, NANDUN THELLAMUREGE, YALI WANG, HUI LI
     UNIVERSITY OF ZURICH: ROBERTO PEVERATI, KIM BALDRIDGE
     N. COPERNICUS UNIVERSITY AND JACKSON STATE UNIVERSITY:
          MARIA BARYSZ
     UNIVERSITY OF COPENHAGEN: Jimmy Kromann, CASPER STEINMANN
     TOKYO INSTITUTE OF TECHNOLOGY: HIROYA NAKATA
     NAGOYA UNIVERSITY: YOSHIO NISHIMOTO, STEPHAN IRLE
     MOSCOW STATE UNIVERSITY: VLADIMIR MIRONOV


 PARALLEL VERSION RUNNING ON        2 PROCESSORS IN        1 NODES.

 EXECUTION OF GAMESS BEGUN Thu Jan 25 17:20:24 2024

            ECHO OF THE FIRST FEW INPUT CARDS -
 INPUT CARD> !############################################################################# 
 INPUT CARD> !                   D_3h RHF GEOMETRY OPTIMIZATION AND HESSIAN TEMPLATE        
 INPUT CARD> ! ---------------------------------------------------------------------------  
 INPUT CARD> ! Replace the symmetry-correct coordinates, should only be two atoms.          
 INPUT CARD> ! The hydrogen or fluorine should have only one non-zero x,y,z coordinate.     
 INPUT CARD> !                                                                              
 INPUT CARD> ! Basis set?   gbasis=ccd for 2nd row,                                         
 INPUT CARD> !                         cct 3rd/4th,                                         
 INPUT CARD> !                   SPKrTZP for heavy,                                         
 INPUT CARD> !                   SPKrTZC beyond 4th                                         
 INPUT CARD> !                                                                              
 INPUT CARD> !############################################################################# 
 INPUT CARD> $system kdiag=3 mwords=250 memddi=8000 parall=.t. $end                         
 INPUT CARD> $contrl runtyp=energy ispher=1 $end                                            
 INPUT CARD> $contrl icut=9 itol=20 inttyp=rysquad qmttol=1.0d-05 nosym=1 $end              
 INPUT CARD> $contrl scftyp=mcscf  mult=2 maxit=200 icharg=1 mplevl=2 $end                  
 INPUT CARD> $scf    npunch=2 conv=1.0d-06 dirscf=.t. $end                                  
 INPUT CARD> $force  method=seminum $end                                                    
 INPUT CARD> $trans  dirtrf=.t. $end                                                        
 INPUT CARD> $statpt hssend=.t. $end                                                        
 INPUT CARD> $basis  gbasis=ccd $end                                                        
 INPUT CARD> !############################################################################# 
 INPUT CARD> !                                                                              
 INPUT CARD> !                       TURN ON THIS SECTION IF HEAVY ATOM                     
 INPUT CARD> !                                                                              
 INPUT CARD> !############################################################################# 
 INPUT CARD> !                                                                              
 INPUT CARD> -contrl relwfn=LUT-IOTC $end                                                   
 INPUT CARD> -scf  diis=.t. soscf=.f. ethrsh=10.0 $end                                      
 INPUT CARD> -guess iorder(25)=27,25,26 $end                                                
 INPUT CARD> -gmcpt nsolut=100 $end                                                         
 INPUT CARD> !                                                                              
 INPUT CARD> !############################################################################# 
 INPUT CARD> !                                                                              
 INPUT CARD> !       TURN ON THIS SECTION IF GMCPT, CHANGE runtyp=energy, scftyp=mcscf      
 INPUT CARD> !                                                                              
 INPUT CARD> !############################################################################# 
 INPUT CARD> $guess  guess=moread norb=24 purify=.t. norder=1 $end                          
 INPUT CARD> $mcscf  cistep=gmcci fullnr=.t. finci=mos                                      
 INPUT CARD>         acurcy=1.d-6 maxit=100 $end                                            
 INPUT CARD> $mrmp   mrpt=gmcpt rdvecs=.f. $end                                             
 INPUT CARD> $gmcpt  nmofzc=0 nmodoc=1 nmoact=6 nelact=7 stsym(1)=A                         
 INPUT CARD>         reftyp=ormas nspace=1 mstart(1)=2 mine(1)=7 maxe(1)=7                  
 INPUT CARD>         kstate(1)=1,1,1                                                        
 INPUT CARD>         wstate(1)=1,1,1                                                        
 INPUT CARD>         iwgt=0 thrwgt=-1.0 krot=.f. kszdoe=.f. knospn=.f.                      
 INPUT CARD>         thrde=-1.0 edshft=0.02 $end                                            
 INPUT CARD> !if SOC: transt $end, add knospn=.t.                                           
 INPUT CARD> !############################################################################# 
 INPUT CARD> !                                                                              
  250000000 WORDS OF MEMORY AVAILABLE

     BASIS OPTIONS
     -------------
     GBASIS=CCD          IGAUSS=       0      POLAR=NONE    
     NDFUNC=       0     NFFUNC=       0     DIFFSP=       F
     NPFUNC=       0      DIFFS=       F     BASNAM=        


     RUN TITLE
     ---------
  H2O cation diabatization 3 states                                              

 THE POINT GROUP OF THE MOLECULE IS C1      
 THE ORDER OF THE PRINCIPAL AXIS IS     0

 ATOM      ATOMIC                      COORDINATES (BOHR)
           CHARGE         X                   Y                   Z
 O           8.0     0.0006384514        0.0000000000       -0.0820613964
 H           1.0     1.5207973945        0.0000000005        1.0432555468
 H           1.0    -1.5309301975       -0.0000000001        1.0506662976

          INTERNUCLEAR DISTANCES (ANGS.)
          ------------------------------

                1 O          2 H          3 H     

   1 O       0.0000000    1.0008617 *  1.0080479 *
   2 H       1.0008617 *  0.0000000    1.6149096 *
   3 H       1.0080479 *  1.6149096 *  0.0000000  

  * ... LESS THAN  3.000


     ATOMIC BASIS SET
     ----------------
 THE CONTRACTED PRIMITIVE FUNCTIONS HAVE BEEN UNNORMALIZED
 THE CONTRACTED BASIS FUNCTIONS ARE NOW NORMALIZED TO UNITY

  SHELL TYPE  PRIMITIVE        EXPONENT          CONTRACTION COEFFICIENT(S)

 O         

      1   S       1         11720.0000000    0.000709645947
      1   S       2          1759.0000000    0.005467272292
      1   S       3           400.8000000    0.027823118610
      1   S       4           113.7000000    0.104747739711
      1   S       5            37.0300000    0.282920846357
      1   S       6            13.2700000    0.448495238698
      1   S       7             5.0250000    0.270816885213
      1   S       8             1.0130000    0.015450291607

      2   S       9         11720.0000000   -0.000314443412
      2   S      10          1759.0000000   -0.002482137681
      2   S      11           400.8000000   -0.012316355382
      2   S      12           113.7000000   -0.050538917344
      2   S      13            37.0300000   -0.139384903316
      2   S      14            13.2700000   -0.325077494818
      2   S      15             5.0250000   -0.229848307588
      2   S      16             1.0130000    1.095379346788

      3   S      17             0.3023000    1.000000000000

      4   P      18            17.7000000    0.062679166282
      4   P      19             3.8540000    0.333536565879
      4   P      20             1.0460000    0.741239641640

      5   P      21             0.2753000    1.000000000000

      6   D      22             1.1850000    1.000000000000

 H         

      7   S      23            13.0100000    0.033498726390
      7   S      24             1.9620000    0.234800801174
      7   S      25             0.4446000    0.813682957883

      8   S      26             0.1220000    1.000000000000

      9   P      27             0.7270000    1.000000000000

 H         

     10   S      28            13.0100000    0.033498726390
     10   S      29             1.9620000    0.234800801174
     10   S      30             0.4446000    0.813682957883

     11   S      31             0.1220000    1.000000000000

     12   P      32             0.7270000    1.000000000000

 TOTAL NUMBER OF BASIS SET SHELLS             =   12
 NUMBER OF CARTESIAN GAUSSIAN BASIS FUNCTIONS =   25
 NOTE: THIS RUN WILL RESTRICT THE MO VARIATION SPACE TO SPHERICAL HARMONICS.
 THE NUMBER OF ORBITALS KEPT IN THE VARIATIONAL SPACE WILL BE PRINTED LATER.
 NUMBER OF ELECTRONS                          =    9
 CHARGE OF MOLECULE                           =    1
 SPIN MULTIPLICITY                            =    2
 NUMBER OF OCCUPIED ORBITALS (ALPHA)          =    5
 NUMBER OF OCCUPIED ORBITALS (BETA )          =    4
 TOTAL NUMBER OF ATOMS                        =    3
 THE NUCLEAR REPULSION ENERGY IS        8.7570753957

     $CONTRL OPTIONS
     ---------------
 SCFTYP=MCSCF        RUNTYP=ENERGY       EXETYP=RUN     
 MPLEVL=       2     CITYP =NONE         CCTYP =NONE         VBTYP =NONE    
 DFTTYP=NONE         TDDFT =NONE    
 MULT  =       2     ICHARG=       1     NZVAR =       0     COORD =UNIQUE  
 PP    =NONE         RELWFN=NONE         LOCAL =NONE         NUMGRD=       F
 ISPHER=       1     NOSYM =       1     MAXIT =     200     UNITS =ANGS    
 PLTORB=       F     MOLPLT=       F     AIMPAC=       F     FRIEND=        
 NPRINT=       7     IREST =       0     GEOM  =INPUT   
 NORMF =       0     NORMP =       0     ITOL  =      20     ICUT  =       9
 INTTYP=RYSQUAD      GRDTYP=BEST         QMTTOL= 1.0E-05

     $SYSTEM OPTIONS
     ---------------
  REPLICATED MEMORY=   250000000 WORDS (ON EVERY NODE).
 DISTRIBUTED MEMDDI=        8000 MILLION WORDS IN AGGREGATE,
 MEMDDI DISTRIBUTED OVER   2 PROCESSORS IS  4000000000 WORDS/PROCESSOR.
 TOTAL MEMORY REQUESTED ON EACH PROCESSOR=  4250000000 WORDS.
 TIMLIM=      525600.00 MINUTES, OR     365.0 DAYS.
 PARALL= T  BALTYP=  DLB     KDIAG=    3  COREFL= F
 MXSEQ2=     300 MXSEQ3=     150  mem10=         0

          ----------------
          PROPERTIES INPUT
          ----------------

     MOMENTS            FIELD           POTENTIAL          DENSITY
 IEMOM =       1   IEFLD =       0   IEPOT =       0   IEDEN =       0
 WHERE =COMASS     WHERE =NUCLEI     WHERE =NUCLEI     WHERE =NUCLEI  
 OUTPUT=BOTH       OUTPUT=BOTH       OUTPUT=BOTH       OUTPUT=BOTH    
 IEMINT=       0   IEFINT=       0                     IEDINT=       0
                                                       MORB  =       0

     -------------------------------
     INTEGRAL TRANSFORMATION OPTIONS
     -------------------------------
     NWORD  =            0
     CUTOFF = 1.0E-09     MPTRAN =       0
     DIRTRF =       T     AOINTS =DUP     

          ----------------------
          MCSCF INPUT PARAMETERS
          ----------------------
 CONVERGER SELECTION: FOCAS = F  SOSCF = F  FULLNR = T  QUD = F  JACOBI = F
 SECULAR EQUATION METHOD CISTEP = GMCCI   
 --- GENERAL INPUT OPTIONS:
 MAXIT =     100  MICIT =       1  ACURCY= 1.000E-06
 DAMP  =   0.000  CANONC=       T  ENGTOL= 1.000E-10
 EKT   =       F  NPUNCH=       2  NWORD =         0
 REGENERATE CI AFTER CONVERGENCE = NONE    
 DIABATIZATION AFTER CONVERGENCE =        F
 --- INPUT FOR FULLNR CONVERGER:
 METHOD=DM2       FORS  =       F  DROPC =       T
 LINSER=       F  FCORE =       F  NORB  =      25

          ----------------------
          INTEGRAL INPUT OPTIONS
          ----------------------
 NOPK  =       1 NORDER=       0 SCHWRZ=       T

 ------------------------------------------
 MULTIREFERENCE PERTURBATION THEORY CONTROL
 ------------------------------------------
 MRPT=GMCPT    READ CONVERGED MCSCF VECTORS= F


     ------------------------------------------
     THE POINT GROUP IS C1 , NAXIS= 1, ORDER= 1
     ------------------------------------------

 -- VARIATIONAL SPACE WILL BE RESTRICTED TO PURE SPHERICAL HARMONICS ONLY --
 AFTER EXCLUDING CONTAMINANT COMBINATIONS FROM THE CARTESIAN GAUSSIAN BASIS
 SET, THE NUMBER OF SPHERICAL HARMONICS KEPT IN THE VARIATION SPACE IS   24

     DIMENSIONS OF THE SYMMETRY SUBSPACES ARE
 A   =   24

 ..... DONE SETTING UP THE RUN .....
 CPU     0: STEP CPU TIME=     0.07 TOTAL CPU TIME=          0.1 (      0.0 MIN)
 TOTAL WALL CLOCK TIME=          0.4 SECONDS, CPU UTILIZATION IS    17.50%

          ********************
          1 ELECTRON INTEGRALS
          ********************
 TIME TO DO   DIPOLE INTEGRALS=      0.00
 ...... END OF ONE-ELECTRON INTEGRALS ......
 CPU     0: STEP CPU TIME=     0.00 TOTAL CPU TIME=          0.1 (      0.0 MIN)
 TOTAL WALL CLOCK TIME=          0.4 SECONDS, CPU UTILIZATION IS    17.50%

          -------------
          GUESS OPTIONS
          -------------
          GUESS =MOREAD            NORB  =      24          NORDER=       1
          MIX   =       F          PRTMO =       F          PUNMO =       F
          TOLZ  = 1.0E-08          TOLE  = 1.0E-05
          SYMDEN=       F          PURIFY=       T

 INITIAL GUESS ORBITALS GENERATED BY MOREAD   ROUTINE.

 STATISTICS FOR GENERATION OF SYMMETRY ORBITAL -Q- MATRIX
 NUMBER OF CARTESIAN ATOMIC ORBITALS=         25
 NUMBER OF SPHERICAL CONTAMINANTS DROPPED=     1
 NUMBER OF LINEARLY DEPENDENT MOS DROPPED=     0
 TOTAL NUMBER OF MOS IN VARIATION SPACE=      24
 ORBITAL PURIFICATION WILL OCCUR

 SYMMETRIES FOR INITIAL GUESS ORBITALS FOLLOW.   BOTH SET(S).
     5 ORBITALS ARE OCCUPIED (    1 CORE ORBITALS).
     1=A        2=A        3=A        4=A        5=A        6=A        7=A   
     8=A        9=A       10=A       11=A       12=A       13=A       14=A   
    15=A       16=A       17=A       18=A       19=A       20=A       21=A   
    22=A       23=A       24=A   
 ...... END OF INITIAL ORBITAL SELECTION ......
 CPU     0: STEP CPU TIME=     0.00 TOTAL CPU TIME=          0.1 (      0.0 MIN)
 TOTAL WALL CLOCK TIME=          0.4 SECONDS, CPU UTILIZATION IS    17.07%

                    ----------------------
                    AO INTEGRAL TECHNOLOGY
                    ----------------------
     S,P,L SHELL ROTATED AXIS INTEGRALS, REPROGRAMMED BY
        KAZUYA ISHIMURA (IMS) AND JOSE SIERRA (SYNSTAR).
     S,P,D,L SHELL ROTATED AXIS INTEGRALS PROGRAMMED BY
        KAZUYA ISHIMURA (INSTITUTE FOR MOLECULAR SCIENCE).
     S,P,D,F,G SHELL TO TOTAL QUARTET ANGULAR MOMENTUM SUM 5,
        ERIC PROGRAM BY GRAHAM FLETCHER (ELORET AND NASA ADVANCED
        SUPERCOMPUTING DIVISION, AMES RESEARCH CENTER).
     S,P,D,F,G,L SHELL GENERAL RYS QUADRATURE PROGRAMMED BY
        MICHEL DUPUIS (PACIFIC NORTHWEST NATIONAL LABORATORY).

          --------------------
          2 ELECTRON INTEGRALS
          --------------------

 DIRECT SCF METHOD SKIPS INTEGRAL STORAGE ON DISK.
 DIRECT TRANSFORMATION SKIPS AO INTEGRAL STORAGE ON DISK.
  ...... END OF TWO-ELECTRON INTEGRALS .....
 STEP CPU TIME =     0.03 TOTAL CPU TIME =          0.1 (      0.0 MIN)
 TOTAL WALL CLOCK TIME=          0.4 SECONDS, CPU UTILIZATION IS    23.26%
 DDI: Creating Array [0] - 625 x 28 = 17500 words.
 DDI: Creating Array [1] - 17 x 196 = 3332 words.
 DDI: Creating Array [2] - 28 x 28 = 784 words.
 DDI: Creating Array [3] - 325 x 28 = 9100 words.

          -----------------
          MCSCF CALCULATION
          -----------------

 ----- NUCLEAR ENERGY ----- =         8.7570753957

     -------------------------------------------------
     GMC-PT/GMC-QDPT or general MCSCF input parameters
     -------------------------------------------------
 # of frozen core orbs. =         0 ->         0
 # of doubly occ. orbs. =         1
 # of active      orbs. =         6
 # of virtual     orbs. =        17
 # of active electrons  =         7
 # of states in CI      =         3
 Highest state in CI    =         3
 kstate =  1 1 1
 avecoe =  0.333 0.333 0.333
 State symmetry           = A           
 Assigned symmetry number = 1

 <<<Act. MO sym.: 111111

 <<<Division of 1-ext.:  0 0
 <<<Division of 2-ext.:  0 1

 *** Reference space

 Reference type: ORMAS (= Occupation restricted multiple active space)
 # of orbitals          =  6
 # of minimum electrons =  7
 # of maximum electrons =  7
 State symmetry    =    1 (input)
 2*Sz              =    1 (input)
 Spin multiplicity =    2 (input)
 Dimension of reference space =       300  (from       792 walks)

 Dimension of reference space =       300  (from       300 walks)

 <<<Ionized spaces for Ref-CI:
      0:          300 /   -1-0:          625 /  0-1-0:          690

 EVALUATING EXCHANGE INTEGRALS FOR DIRECT INTEGRAL TRANSFORMATION
 SCHWARZ INEQUALITY OVERHEAD:       325 INTEGRALS, T=        0.00

     --------------------------------------------
     PARTIAL TWO ELECTRON INTEGRAL TRANSFORMATION
     --------------------------------------------

 NUMBER OF CORE MOLECULAR ORBITALS     =    1
 NUMBER OF OCCUPIED MOLECULAR ORBITALS =    7
 TOTAL NUMBER OF MOLECULAR ORBITALS    =   24
 TOTAL NUMBER OF ATOMIC ORBITALS       =   25
 THRESHOLD FOR KEEPING TRANSFORMED 2E- INTEGRALS = 1.000E-09

 -------------------------------     ------------------------------
 DISTRIBUTED DATA TRANSFORMATION     PROGRAM WRITTEN BY G. FLETCHER
 -------------------------------     ------------------------------

 THE DISTRIBUTED MEMORY REQUIRED FOR THIS STEP IS MEMDDI=         1 MWORDS
 CREATING DISTRIBUTED STORAGE FOR [VIR OCC|VIR OCC] INTEGRALS
 CREATING DISTRIBUTED STORAGE FOR [VIR OCC|OCC OCC] INTEGRALS
 CREATING DISTRIBUTED STORAGE FOR [OCC OCC|OCC OCC] INTEGRALS
 CREATING DISTRIBUTED STORAGE FOR [VIR VIR|OCC OCC] INTEGRALS
 FOR    2 PROCESSORS, THE REPLICATED MEMORY NEEDED IS       62207 WORDS.
 SCHWARZ INEQUALITY OVERHEAD:       325 INTEGRALS, T=        0.00

      DIRECT 4-INDEX TRANSFORMATION 
      SCHWARZ INEQUALITY TEST SKIPPED          0 INTEGRAL BLOCKS
 ----- FROZEN CORE ENERGY =       -61.2143852666
 ... END OF INTEGRAL TRANSFORMATION ...
 CPU     0: STEP CPU TIME=     0.06 TOTAL CPU TIME=          0.2 (      0.0 MIN)
 TOTAL WALL CLOCK TIME=          0.6 SECONDS, CPU UTILIZATION IS    26.23%

     --------------------------------     -----------------------------
     MCHF NEWTON-RAPHSON OPTIMIZATION     CODE WRITTEN BY MICHEL DUPUIS
     --------------------------------     -----------------------------
     PARALLEL VERSION WRITTEN BY G. FLETCHER (ELORET)
     NASA ADVANCED SUPERCOMPUTING DIVISION, AMES RESEARCH CENTER

 NUMBER OF INDEPENDENT ORBITAL ROTATION PARAMETERS =    82
 ..... DONE SOLVING NEWTON-RAPHSON EQUATIONS .....
 CPU     0: STEP CPU TIME=     0.07 TOTAL CPU TIME=          0.2 (      0.0 MIN)
 TOTAL WALL CLOCK TIME=          0.8 SECONDS, CPU UTILIZATION IS    30.67%
 ..... DONE WITH NTN-RPH ORBITAL ROTATIONS ..... 
 CPU     0: STEP CPU TIME=     0.00 TOTAL CPU TIME=          0.2 (      0.0 MIN)
 TOTAL WALL CLOCK TIME=          0.8 SECONDS, CPU UTILIZATION IS    30.67%
 MAXIMUM MEMORY USED BY NTN-RPH CODE WAS     51289 WORDS.

 ITER     TOTAL ENERGY      DEL(E)  LAGRANGIAN ASYMMETRY   SQCDF  MICIT   DAMP
   1      -75.568574865 -0.568574865  0.002290   11    2 8.234E-06  1   0.0000
   2      -75.568584987 -0.000010123  0.000060   12    5 1.855E-07  1   0.0000
   3      -75.568585012 -0.000000025  0.000017   12    5 2.699E-08  1   0.0000
   4      -75.568585015 -0.000000003  0.000006   10    4 4.589E-09  1   0.0000
   5      -75.568585015 -0.000000000  0.000002   18    4 7.988E-10  1   0.0000
   6      -75.568585015 -0.000000000  0.000001   10    4 1.371E-10  1   0.0000

          --------------------
          LAGRANGIAN CONVERGED
          --------------------

 FINAL MCSCF ENERGY IS      -75.5685850155 AFTER   6 ITERATIONS

 -MCCI- BASED ON OPTIMIZED ORBITALS
 ----------------------------------

 PLEASE NOTE: IF THE ACTIVE ORBITALS ARE CANONICALIZED BELOW,
 THE FOLLOWING CI EXPANSION COEFFICIENTS AND THE DENSITY DO NOT
 CORRESPOND TO THE PRINTED ORBITALS.  THE PRINTED EXPANSIONS MATCH
 THE ORBITALS USED DURING THE LAST ITERATION.  IF YOU WISH TO SEE
 CI EXPANSIONS BASED ON THE CANONICAL (OR NATURAL) ORBITALS, YOU
 MUST RUN A CI CALCULATION WITH THAT ORBITAL CHOICE READ IN $VEC.

 Averaged energy =     -75.568585015

 State #    1  Energy =     -75.682495147  S =  0.500

      Det      Coef    Occupancy (Ignoring core)
      ---      ----    --------- --------- -----
        1   -0.986990  111100111000
      173   -0.076208  101101101001

 State #    2  Energy =     -75.592026816  S =  0.500

      Det      Coef    Occupancy (Ignoring core)
      ---      ----    --------- --------- -----
       16   -0.988894  111100110100
      203   -0.077618  101101100101

 State #    3  Energy =     -75.431233084  S =  0.500

      Det      Coef    Occupancy (Ignoring core)
      ---      ----    --------- --------- -----
       31   -0.990678  111100101100

 DENSITY MATRIX OVER ACTIVE MO-S

             1           2           3           4           5

    1    1.9896318
    2    0.0009754   1.6503998
    3    0.0071863   0.0001675   1.6562206
    4    0.0000000  -0.0000000   0.0000000   1.6655643
    5   -0.0040693   0.0001432   0.0134628  -0.0000000   0.0184244
    6   -0.0010311   0.0204512   0.0000635  -0.0000000  -0.0001630

             6

    6    0.0197590

 FORMING THE "STANDARD FOCK OPERATOR" IN DIRECT AO INTEGRAL MODE...
 ONLY THE    1 CORE AND   17 VIRTUAL ORBITALS WILL BE CANONICALIZED

          ----------------------
          MCSCF NATURAL ORBITALS
          ----------------------

                      1          2          3          4          5
                  -21.0904     1.9898     1.6656     1.6562     1.6506
                     A          A          A          A          A   
    1  O  1  S    1.000777   0.015366  -0.000000  -0.007419   0.000142
    2  O  1  S   -0.003340   0.482396  -0.000000  -0.170759   0.003308
    3  O  1  S   -0.006763   0.386363   0.000000  -0.294145   0.004571
    4  O  1  X   -0.000000   0.001349  -0.000000   0.015016   0.548271
    5  O  1  Y    0.000000   0.000000   0.693044  -0.000000   0.000000
    6  O  1  Z    0.000427   0.093412   0.000000   0.607070  -0.016482
    7  O  1  X    0.000011  -0.000331  -0.000000   0.005527   0.220801
    8  O  1  Y   -0.000000  -0.000000   0.431510  -0.000000   0.000000
    9  O  1  Z   -0.000597   0.007349   0.000000   0.321233  -0.009687
   10  O  1 XX    0.000037   0.002671   0.000000  -0.007793   0.000255
   11  O  1 YY   -0.000010  -0.004277  -0.000000  -0.009867   0.000246
   12  O  1 ZZ   -0.000028   0.001606   0.000000   0.017660  -0.000501
   13  O  1 XY   -0.000000  -0.000000   0.000045   0.000000  -0.000000
   14  O  1 XZ    0.000008   0.000110   0.000000   0.000681   0.022548
   15  O  1 YZ   -0.000000  -0.000000   0.018067   0.000000   0.000000
   16  H  2  S   -0.001545   0.175843  -0.000000   0.207532   0.309336
   17  H  2  S    0.000505  -0.004726   0.000000   0.022306   0.020649
   18  H  2  X    0.000716  -0.038455   0.000000  -0.039220  -0.030495
   19  H  2  Y   -0.000000  -0.000000   0.028603  -0.000000   0.000000
   20  H  2  Z    0.000517  -0.019880   0.000000   0.003030  -0.036123
   21  H  3  S   -0.001488   0.172147   0.000000   0.189901  -0.319361
   22  H  3  S    0.000500  -0.004513  -0.000000   0.021826  -0.022520
   23  H  3  X   -0.000695   0.037998   0.000000   0.037425  -0.032749
   24  H  3  Y   -0.000000   0.000000   0.028272   0.000000  -0.000000
   25  H  3  Z    0.000500  -0.019471   0.000000   0.004760   0.035834

                      6          7
                    0.0195     0.0183
                     A          A   
    1  O  1  S   -0.022574   0.176345
    2  O  1  S   -0.076185   0.586023
    3  O  1  S   -0.019063   0.161497
    4  O  1  X    0.863839   0.117934
    5  O  1  Y    0.000000   0.000000
    6  O  1  Z   -0.098357   0.739936
    7  O  1  X    0.022681   0.003476
    8  O  1  Y   -0.000000   0.000000
    9  O  1  Z    0.012620  -0.090908
   10  O  1 XX   -0.000786   0.007527
   11  O  1 YY   -0.001797   0.010975
   12  O  1 ZZ    0.002582  -0.018502
   13  O  1 XY    0.000000   0.000000
   14  O  1 XZ   -0.029294  -0.003706
   15  O  1 YZ    0.000000   0.000000
   16  H  2  S   -0.554153  -0.702107
   17  H  2  S   -0.064078  -0.057175
   18  H  2  X    0.051171   0.126002
   19  H  2  Y    0.000000  -0.000000
   20  H  2  Z    0.046326   0.017664
   21  H  3  S    0.714973  -0.525548
   22  H  3  S    0.078020  -0.039014
   23  H  3  X    0.081682  -0.107317
   24  H  3  Y    0.000000  -0.000000
   25  H  3  Z   -0.049265   0.004530

          ------------------------
          MCSCF OPTIMIZED ORBITALS
          ------------------------

                      1          2          3          4          5
                  -21.0904     0.0000     0.0000     0.0000     0.0000
                     A          A          A          A          A   
    1  O  1  S    1.000777   0.015895  -0.000050  -0.008551  -0.000000
    2  O  1  S   -0.003340   0.487188  -0.000015  -0.165251   0.000000
    3  O  1  S   -0.006763   0.392931  -0.002293  -0.287129   0.000000
    4  O  1  X   -0.000000   0.000242   0.537503   0.000228  -0.000000
    5  O  1  Y    0.000000   0.000000  -0.000000  -0.000000   0.693044
    6  O  1  Z    0.000427   0.081932   0.000015   0.602996  -0.000000
    7  O  1  X    0.000011  -0.000937   0.220563  -0.000439  -0.000000
    8  O  1  Y   -0.000000  -0.000000  -0.000000   0.000000   0.431510
    9  O  1  Z   -0.000597   0.000266  -0.001015   0.322206   0.000000
   10  O  1 XX    0.000037   0.002853   0.000049  -0.007800  -0.000000
   11  O  1 YY   -0.000010  -0.004041  -0.000029  -0.010051  -0.000000
   12  O  1 ZZ   -0.000028   0.001188  -0.000020   0.017851   0.000000
   13  O  1 XY   -0.000000  -0.000000  -0.000000  -0.000000   0.000045
   14  O  1 XZ    0.000008   0.000030   0.022927   0.000073   0.000000
   15  O  1 YZ   -0.000000  -0.000000  -0.000000  -0.000000   0.018067
   16  H  2  S   -0.001545   0.168994   0.323418   0.207966  -0.000000
   17  H  2  S    0.000505  -0.005389   0.022124   0.022031   0.000000
   18  H  2  X    0.000716  -0.037250  -0.032506  -0.040171  -0.000000
   19  H  2  Y   -0.000000  -0.000000   0.000000  -0.000000   0.028603
   20  H  2  Z    0.000517  -0.019809  -0.036688   0.003481  -0.000000
   21  H  3  S   -0.001488   0.167788  -0.321552   0.207145   0.000000
   22  H  3  S    0.000500  -0.004995  -0.022834   0.022725  -0.000000
   23  H  3  X   -0.000695   0.037047  -0.032441   0.040063  -0.000000
   24  H  3  Y   -0.000000   0.000000  -0.000000   0.000000   0.028272
   25  H  3  Z    0.000500  -0.019652   0.036494   0.003283   0.000000

                      6          7          8          9         10
                    0.0000     0.0000     0.1322     0.1701     0.6612
                     A          A          A          A          A   
    1  O  1  S    0.177679   0.001619   0.097404   0.000671  -0.013837
    2  O  1  S    0.588581   0.003988   0.127718   0.001288   0.104238
    3  O  1  S    0.159409   0.002839  -0.966215  -0.002014   0.583453
    4  O  1  X   -0.000638   0.878661   0.000058  -0.077392  -0.005510
    5  O  1  Y    0.000000   0.000000  -0.000000   0.000000   0.000000
    6  O  1  Z    0.751255   0.003207   0.193540   0.000963  -0.525683
    7  O  1  X    0.000375   0.025712  -0.003721   0.434472   0.027817
    8  O  1  Y    0.000000   0.000000   0.000000  -0.000000  -0.000000
    9  O  1  Z   -0.089132   0.000134  -0.396863  -0.002748   1.078700
   10  O  1 XX    0.007494   0.000244  -0.046548  -0.000045  -0.066882
   11  O  1 YY    0.011044  -0.000285   0.056417   0.000144   0.033441
   12  O  1 ZZ   -0.018538   0.000041  -0.009870  -0.000099   0.033441
   13  O  1 XY    0.000000  -0.000000  -0.000000   0.000000  -0.000000
   14  O  1 XZ    0.000316  -0.029240  -0.000958   0.077336  -0.000582
   15  O  1 YZ    0.000000  -0.000000  -0.000000   0.000000  -0.000000
   16  H  2  S   -0.618824  -0.640599  -0.397082   0.494723  -0.734289
   17  H  2  S   -0.047733  -0.070986   1.002942  -1.558748   0.022007
   18  H  2  X    0.117618   0.067454  -0.102923   0.041406  -0.085948
   19  H  2  Y    0.000000  -0.000000   0.000000  -0.000000  -0.000000
   20  H  2  Z    0.011264   0.047853  -0.058245   0.075286   0.239924
   21  H  3  S   -0.616630   0.632761  -0.395748  -0.503660  -0.709857
   22  H  3  S   -0.049072   0.071709   0.978611   1.570778   0.040331
   23  H  3  X   -0.117187   0.065902   0.100560   0.041195   0.092161
   24  H  3  Y    0.000000   0.000000  -0.000000  -0.000000   0.000000
   25  H  3  Z    0.011263  -0.047726  -0.056361  -0.074384   0.242490

                     11         12         13         14         15
                    0.7328     0.7556     1.0364     1.0378     1.2622
                     A          A          A          A          A   
    1  O  1  S    0.000353   0.000000   0.000000   0.275455   0.000000
    2  O  1  S   -0.001002   0.000000   0.000000   0.676526   0.000000
    3  O  1  S    0.000073   0.000000  -0.000000  -0.667012  -0.000000
    4  O  1  X   -0.524641  -0.000000   0.000000  -0.001516  -0.000000
    5  O  1  Y    0.000000  -0.921583   0.007875  -0.000000   0.077780
    6  O  1  Z    0.010621  -0.000000  -0.000000  -0.309424  -0.000000
    7  O  1  X    1.771154   0.000000  -0.000000   0.000187   0.000000
    8  O  1  Y   -0.000000   1.007197  -0.006049   0.000000  -0.674529
    9  O  1  Z   -0.015774   0.000000   0.000000   0.822672   0.000000
   10  O  1 XX    0.001233  -0.000000   0.000000   0.097207  -0.000000
   11  O  1 YY   -0.000818   0.000000   0.000000   0.038126   0.000000
   12  O  1 ZZ   -0.000414   0.000000  -0.000000  -0.135333  -0.000000
   13  O  1 XY   -0.000000  -0.000635  -0.153818   0.000000   0.000259
   14  O  1 XZ   -0.029306  -0.000000   0.000000  -0.000018  -0.000000
   15  O  1 YZ   -0.000000   0.004634   0.000683  -0.000000   0.182219
   16  H  2  S   -0.667733  -0.000000  -0.000000  -0.230578   0.000000
   17  H  2  S   -0.597843  -0.000000   0.000000   0.195441   0.000000
   18  H  2  X    0.219650   0.000000   0.000000   0.365366  -0.000000
   19  H  2  Y   -0.000000   0.062783  -0.673624   0.000000   0.753957
   20  H  2  Z    0.015004   0.000000  -0.000000  -0.442763  -0.000000
   21  H  3  S    0.683785   0.000000  -0.000000  -0.228967   0.000000
   22  H  3  S    0.594304   0.000000   0.000000   0.192564   0.000000
   23  H  3  X    0.218817   0.000000  -0.000000  -0.365428  -0.000000
   24  H  3  Y   -0.000000   0.071255   0.676243  -0.000000   0.749761
   25  H  3  Z   -0.021449   0.000000  -0.000000  -0.441735  -0.000000

                     16         17         18         19         20
                    1.4185     1.4588     1.7917     1.8049     2.7361
                     A          A          A          A          A   
    1  O  1  S   -0.708247   0.009950  -0.001118   0.016122   0.000000
    2  O  1  S   -1.548689   0.022264  -0.073954   0.106787   0.000000
    3  O  1  S    2.605979  -0.028659  -0.998524   1.010894   0.000000
    4  O  1  X    0.004070  -0.100874   0.373591   0.368168   0.000000
    5  O  1  Y   -0.000000  -0.000000   0.000000   0.000000  -0.031280
    6  O  1  Z    0.022448  -0.001201  -0.267733   0.282927   0.000000
    7  O  1  X    0.018783   0.976004   0.247899   0.234232  -0.000000
    8  O  1  Y    0.000000   0.000000  -0.000000  -0.000000   0.285673
    9  O  1  Z    0.891184  -0.010950  -0.311338   0.311939  -0.000000
   10  O  1 XX   -0.023262  -0.000242   0.084404  -0.087716  -0.000000
   11  O  1 YY    0.161546  -0.002153  -0.131729   0.134683   0.000000
   12  O  1 ZZ   -0.138285   0.002395   0.047326  -0.046967  -0.000000
   13  O  1 XY   -0.000000  -0.000000   0.000000  -0.000000  -0.053217
   14  O  1 XZ   -0.000234  -0.027631  -0.070232  -0.067546  -0.000000
   15  O  1 YZ   -0.000000   0.000000  -0.000000  -0.000000   1.023047
   16  H  2  S   -0.749993  -0.394071   0.211809  -0.335173   0.000000
   17  H  2  S   -0.323401  -0.114053  -0.123828  -0.536473  -0.000000
   18  H  2  X    0.263557  -0.420510  -0.041275   1.097515   0.000000
   19  H  2  Y    0.000000   0.000000  -0.000000   0.000000  -0.354246
   20  H  2  Z   -0.189205   0.693806   0.025315   0.795420   0.000000
   21  H  3  S   -0.732452   0.408846   0.321620  -0.215527  -0.000000
   22  H  3  S   -0.305537   0.120249   0.545813   0.105962   0.000000
   23  H  3  X   -0.264675  -0.414996   1.091012  -0.077110   0.000000
   24  H  3  Y   -0.000000  -0.000000   0.000000  -0.000000  -0.387159
   25  H  3  Z   -0.215226  -0.685352  -0.791384   0.009993   0.000000

                     21         22         23         24
                    2.8034     2.9397     3.3243     3.5777
                     A          A          A          A   
    1  O  1  S    0.000000  -0.087944  -0.230346  -0.000456
    2  O  1  S    0.000000  -0.159423  -0.376640   0.000577
    3  O  1  S   -0.000000   0.558681   2.140257   0.047909
    4  O  1  X    0.000000  -0.000445   0.001313   0.310999
    5  O  1  Y   -0.000486  -0.000000  -0.000000  -0.000000
    6  O  1  Z    0.000000   0.003062   0.247480   0.008254
    7  O  1  X   -0.000000  -0.006147  -0.011467   1.136403
    8  O  1  Y    0.017592   0.000000   0.000000   0.000000
    9  O  1  Z   -0.000000   0.519012   0.870661   0.019751
   10  O  1 XX   -0.000000  -0.626814   0.972909   0.014527
   11  O  1 YY    0.000000  -0.430278  -1.045091  -0.017934
   12  O  1 ZZ   -0.000000   1.057092   0.072182   0.003407
   13  O  1 XY    1.047941   0.000000   0.000000   0.000000
   14  O  1 XZ   -0.000000  -0.001715  -0.017486   1.299199
   15  O  1 YZ    0.053921   0.000000   0.000000   0.000000
   16  H  2  S    0.000000  -0.289491  -1.027585  -0.942272
   17  H  2  S   -0.000000  -0.043482  -0.199683  -0.296395
   18  H  2  X    0.000000   0.359958   0.591711   0.593553
   19  H  2  Y   -0.377501  -0.000000   0.000000   0.000000
   20  H  2  Z    0.000000  -0.298243   0.460458   0.464424
   21  H  3  S    0.000000  -0.293095  -1.035120   0.886708
   22  H  3  S    0.000000  -0.046008  -0.206801   0.289159
   23  H  3  X   -0.000000  -0.358489  -0.607721   0.568724
   24  H  3  Y    0.333065  -0.000000  -0.000000   0.000000
   25  H  3  Z   -0.000000  -0.288786   0.469864  -0.448510
 .....DONE WITH MCSCF ITERATIONS.....
 CPU     0: STEP CPU TIME=     0.65 TOTAL CPU TIME=          0.9 (      0.0 MIN)
 TOTAL WALL CLOCK TIME=          2.5 SECONDS, CPU UTILIZATION IS    35.63%

     ----------------------------------------------------------------
     PROPERTY VALUES FOR THE MCSCF SELF-CONSISTENT FIELD WAVEFUNCTION
     ----------------------------------------------------------------

          -----------------
          ENERGY COMPONENTS
          -----------------

         WAVEFUNCTION NORMALIZATION =       1.0000000000

                ONE ELECTRON ENERGY =    -117.3221419592
                TWO ELECTRON ENERGY =      32.9964815480
           NUCLEAR REPULSION ENERGY =       8.7570753957
                                      ------------------
                       TOTAL ENERGY =     -75.5685850155

 ELECTRON-ELECTRON POTENTIAL ENERGY =      32.9964815480
  NUCLEUS-ELECTRON POTENTIAL ENERGY =    -192.9483190092
   NUCLEUS-NUCLEUS POTENTIAL ENERGY =       8.7570753957
                                      ------------------
             TOTAL POTENTIAL ENERGY =    -151.1947620654
               TOTAL KINETIC ENERGY =      75.6261770500
                 VIRIAL RATIO (V/T) =       1.9992384643

          ---------------------------------------
          MULLIKEN AND LOWDIN POPULATION ANALYSES
          ---------------------------------------

     ATOMIC MULLIKEN POPULATION IN EACH MOLECULAR ORBITAL

                      1          2          3          4          5

                  2.000000   1.989797   1.665564   1.656182   1.650650

    1             2.000439   1.576302   1.636401   1.442905   1.058177
    2            -0.000228   0.210189   0.014779   0.115598   0.286505
    3            -0.000212   0.203306   0.014385   0.097679   0.305968

                      6          7

                  0.019525   0.018282

    1             0.009468   0.008898
    2             0.003685   0.005945
    3             0.006373   0.003438
 WARNING! MCSCF POPULATIONS SHOWN ABOVE ARE FOR THE NATURAL ORBITALS.
 IGNORE THE ABOVE DATA FOR MCSCF FUNCTIONS WHICH ARE NOT OF -FORS- TYPE.
 THE FOLLOWING POPULATIONS ARE CORRECT FOR ANY MCSCF WAVEFUNCTION.

               ----- POPULATIONS IN EACH AO -----
                             MULLIKEN      LOWDIN
              1  O  1  S      2.00178     1.90507
              2  O  1  S      0.90648     0.63144
              3  O  1  S      0.79314     0.48068
              4  O  1  X      0.75646     0.67969
              5  O  1  Y      1.06076     1.01357
              6  O  1  Z      0.89550     0.83636
              7  O  1  X      0.30511     0.40812
              8  O  1  Y      0.57480     0.57365
              9  O  1  Z      0.43036     0.50936
             10  O  1 XX      0.00101     0.18841
             11  O  1 YY      0.00054     0.17416
             12  O  1 ZZ      0.00000     0.17894
             13  O  1 XY      0.00582     0.00000
             14  O  1 XZ      0.00084     0.01186
             15  O  1 YZ      0.00000     0.00029
             16  H  2  S      0.54855     0.43757
             17  H  2  S      0.00784     0.11733
             18  H  2  X      0.04194     0.06466
             19  H  2  Y      0.01478     0.03964
             20  H  2  Z      0.02336     0.04768
             21  H  3  S      0.54307     0.43454
             22  H  3  S      0.00882     0.11774
             23  H  3  X      0.04166     0.06401
             24  H  3  Y      0.01438     0.03841
             25  H  3  Z      0.02301     0.04682

          ----- MULLIKEN ATOMIC OVERLAP POPULATIONS -----
          (OFF-DIAGONAL ELEMENTS NEED TO BE MULTIPLIED BY 2)

             1           2           3

    1    7.1428713
    2    0.2961986   0.3438962
    3    0.2935201  -0.0036218   0.3410387

          TOTAL MULLIKEN AND LOWDIN ATOMIC POPULATIONS
       ATOM         MULL.POP.    CHARGE          LOW.POP.     CHARGE
    1 O             7.732590    0.267410         7.591596    0.408404
    2 H             0.636473    0.363527         0.706887    0.293113
    3 H             0.630937    0.369063         0.701517    0.298483

          MULLIKEN SPHERICAL HARMONIC POPULATIONS
       ATOM           S       P       D      F      G      H      I    TOTAL
    1 O             3.70    4.02    0.01   0.00   0.00   0.00   0.00    7.73
    2 H             0.56    0.08    0.00   0.00   0.00   0.00   0.00    0.64
    3 H             0.55    0.08    0.00   0.00   0.00   0.00   0.00    0.63

          ---------------------
          ELECTROSTATIC MOMENTS
          ---------------------

 POINT   1           X           Y           Z (BOHR)    CHARGE
                -0.000000    0.000000    0.044293        1.00 (A.U.)
         DX          DY          DZ         /D/  (DEBYE)
    -0.019590    0.000000    2.510046    2.510122
 ...... END OF PROPERTY EVALUATION ......
 CPU     0: STEP CPU TIME=     0.01 TOTAL CPU TIME=          0.9 (      0.0 MIN)
 TOTAL WALL CLOCK TIME=          2.5 SECONDS, CPU UTILIZATION IS    35.74%

     -------------------------------------------------
     GMC-PT/GMC-QDPT or general MCSCF input parameters
     -------------------------------------------------
 # of frozen core orbs. =         0 ->         0
 # of doubly occ. orbs. =         1
 # of active      orbs. =         6
 # of virtual     orbs. =        17
 # of active electrons  =         7
 # of states in CI      =         3
 Highest state in CI    =         3
 kstate =  1 1 1
 avecoe =  0.333 0.333 0.333
 State symmetry           = A           
 Assigned symmetry number = 1

 <<<Act. MO sym.: 111111

 <<<Division of 1-ext.:  0 0
 <<<Division of 2-ext.:  0 1

     ------------------------
     Orbital canonicalization
     ------------------------

 MOs are canonicalized for core, virtual, and invariant-active orbital spaces.
 This is a part of the GMC-QDPT calculation.
 SCHWARZ INEQUALITY OVERHEAD:       325 INTEGRALS, T=        0.00
 DIRECT TRANSFORMATION SKIPS AO INTEGRAL STORAGE ON DISK.

 Averaged energy =     -75.568585015

 State #    1  Energy =     -75.682495147  S =  0.500
 State #    2  Energy =     -75.592026816  S =  0.500
 State #    3  Energy =     -75.431233084  S =  0.500

 Orbital energies for filled orbital space
  -21.090433
 Orbital energies for active orbital space
   -1.790943  -1.074678  -0.948962  -0.886101   0.383988
    0.354638
 Orbital energies for external orbital space
    0.132215   0.170053   0.661212   0.732816   0.755619
    1.036359   1.037788   1.262196   1.418459   1.458835
    1.791725   1.804895   2.736106   2.803427   2.939684
    3.324336   3.577750

 Zero values mean non-canonical orbitals.
 ... done with orbital canonicalization ...
 CPU     0: STEP CPU TIME=     0.14 TOTAL CPU TIME=          1.0 (      0.0 MIN)
 TOTAL WALL CLOCK TIME=          2.8 SECONDS, CPU UTILIZATION IS    36.52%

     --------------------------------------------
     PARTIAL TWO ELECTRON INTEGRAL TRANSFORMATION
     --------------------------------------------

 NUMBER OF CORE MOLECULAR ORBITALS     =    0
 NUMBER OF OCCUPIED MOLECULAR ORBITALS =    7
 TOTAL NUMBER OF MOLECULAR ORBITALS    =   24
 TOTAL NUMBER OF ATOMIC ORBITALS       =   25
 THRESHOLD FOR KEEPING TRANSFORMED 2E- INTEGRALS = 1.000E-09
 AO INTEGRALS WILL BE CALCULATED IN DIRECT MODE...
 DIRECT TRANSFORMATION SKIPS AO INTEGRAL STORAGE ON DISK.
 SCHWARZ INEQUALITY OVERHEAD:       325 INTEGRALS, T=        0.00

 PLAN A: REQUIREMENTS FOR FULLY IN-MEMORY TRANSFORMATION:
 # OF WORDS AVAILABLE =            250000000
 # OF WORDS NEEDED    =               165605

 PARALLEL ONLY WORKS WITH THE SEGMENTED ALGORITHM.
 ADJUSTING MEMORY TO USE SEGMENTED ALGORITHM.


 PLAN B: REQUIREMENTS FOR THE SEGMENTED TRANSFORMATION:
       MINIMUM=         116855 WORDS FOR 1 MOLECULAR ORBITAL PER PASS
       MAXIMUM=         141230 WORDS FOR ALL MOLECULAR ORBITALS IN 1 PASS
              (           8125 EXTRA WORDS INCLUDES 1 EXTRA ORBITAL/PASS)
 THIS RUN USES=         141230 WORDS,
 DISTRIBUTING   2 PASSES EACH CONTAINING     4 ORBITALS OVER   2 PROCESSORS.

 CHOOSING SEGMENTED PARTIAL TRANSFORMATION...
 DIRECT TRANSFORMATION SKIPS AO INTEGRAL STORAGE ON DISK.
 PASS #   1 TOOK        0.05 SECONDS.
 ASSIGNING PASS #   2 TO A DIFFERENT PROCESSOR.
 TOTAL NUMBER OF TRANSFORMED 2E- INTEGRALS KEPT =         8799
 ... END OF INTEGRAL TRANSFORMATION ...
 CPU     0: STEP CPU TIME=     0.05 TOTAL CPU TIME=          1.1 (      0.0 MIN)
 TOTAL WALL CLOCK TIME=          2.9 SECONDS, CPU UTILIZATION IS    37.37%

     --------     ------------------------------------------
     GMC-QDPT     Program written by H.Nakano (Kyushu Univ.)
     --------     ------------------------------------------

 *** Reference space

 Reference type: ORMAS (= Occupation restricted multiple active space)
 # of orbitals          =  6
 # of minimum electrons =  7
 # of maximum electrons =  7
 State symmetry    =    1 (input)
 2*Sz              =    1 (input)
 Spin multiplicity =    2 (input)
 Dimension of reference space =       300  (from       792 walks)

 Dimension of reference space =       300  (from       300 walks)

 <<<Ionized spaces for Ref-CI:
      0:          300 /   -1-0:          625 /  0-1-0:          690

 ***                    ***
 *** Reference space CI ***
 ***                    ***

 Reference wavefunctions:

 State #    1  Energy =     -75.682495147  S =  0.500

      Det      Coef    Occupancy (Ignoring core)
      ---      ----    --------- --------- -----
        1    0.986961  111100111000
      173    0.074717  101101101001

 State #    2  Energy =     -75.592026816  S =  0.500

      Det      Coef    Occupancy (Ignoring core)
      ---      ----    --------- --------- -----
       16    0.988881  111100110100
      203    0.076107  101101100101

 State #    3  Energy =     -75.431233084  S =  0.500

      Det      Coef    Occupancy (Ignoring core)
      ---      ----    --------- --------- -----
       31   -0.990702  111100101100

 Diagonalization: CPU/Wall time =           0.05 /           0.06 sec.

 Oscillator strength (invalid if E(1)/=E(GS)):
 -----------------------------------------
   State                        f
 -----------------------------------------
     2     F(REF-CI)=        0.0016480610
     3     F(REF-CI)=        0.0000010038
 -----------------------------------------

 Dipole moment matrix elements, x, y, z, in A.U.

 Dimension of ionized spaces for PT:
 (N-2) space:          690 /  (N-1) space:          886 /  N space:          690
 (N+1) space:          480 /  (N+2) space:          200

 <<<Ionized spaces for internal:
         0:          300 /      -1-0:          625 /     0-1-0:          690
  -1-0-1-0:          886 / 0-1-0-1-0:          786

 Diagonal elements of averaged one-particle density matrix:
       2       3       4       5       6       7
  0.9962  0.9900  0.9932  0.9988  0.0102  0.0115
  0.9934  0.6604  0.6630  0.6668  0.0082  0.0082

 Orbital energies:
 -------- Doubly-occupied orbitals (highest several orbs.) -------
             1
 -2.109043D+01
 -------- Active orbitals ----------------------------------------
             2            3            4            5            6
 -1.790943D+00-1.074678D+00-9.489615D-01-8.861012D-01 3.839877D-01
             7
  3.546376D-01
 -------- External orbitals (lowest several orbs.) ---------------
             8            9           10           11           12
  1.322148D-01 1.700534D-01 6.612116D-01 7.328160D-01 7.556191D-01
            13           14           15           16           17
  1.036359D+00 1.037788D+00 1.262196D+00 1.418459D+00 1.458835D+00

 *** Quasi-degeneracy checking

 === Det (|Ci| > 1.0D-01 and dE < 5.0D-03)

 # of small denominators (single excitations)
 State       dEmin  dE < 5.0D-03  dE < 5.0D-04  dE < 5.0D-05  dE < 5.0D-06
 ----- ----------- ------------- ------------- ------------- -------------
     1    5.00D-03             0             0             0             0
     2    5.00D-03             0             0             0             0
     3    5.00D-03             0             0             0             0

 # of small denominators (double excitations)
 State       dEmin  dE < 5.0D-03  dE < 5.0D-04  dE < 5.0D-05  dE < 5.0D-06
 ----- ----------- ------------- ------------- ------------- -------------
     1    5.00D-03             0             0             0             0
     2    5.00D-03             0             0             0             0
     3    5.00D-03             0             0             0             0

 *** Zeroth-Order Setup (Granovsky's zeroth-order vectors)
 Zeroth-order effective Hamiltonian
  (= Sum_i e(i)*<I|a+(i)a(i)|J> ):
                   1            2            3
     1 -8.442022D+00
     2 -1.017998D-11-8.391949D+00
     3 -3.202928D-11 7.374911D-04-8.277272D+00

 Zeroth-order vectors:
 State #    1
       MC st            1           2           3
       Coeff    1.000D+00   2.005D-10   1.935D-10
 State #    2
       MC st            2           3           1
       Coeff   -1.000D+00   6.431D-03   1.992D-10
 State #    3
       MC st            3           2           1
       Coeff    1.000D+00   6.431D-03  -1.948D-10

 *** GMC-QDPT computation

 (Integral reading:  CPU/Wall time =           0.00 /           0.00 sec.)

 One-external:
   0 -ionized terms: CPU/Wall time =           0.01 /           0.00 sec.
 (-1)-ionized terms: CPU/Wall time =           0.01 /           0.02 sec.
 (+1)-ionized terms: CPU/Wall time =           0.00 /           0.00 sec.
 (+1)-ionized terms: CPU/Wall time =           0.00 /           0.00 sec.
 (+2)-ionized terms: CPU/Wall time =           0.00 /           0.00 sec.

 Internal:
 # of macro loops for internal contribution =         1 (input)
 Loop:    1
 Dimension of internal CISD space     =         0  (after screening)
 Space construction: CPU/Wall time =           0.01 /           0.01 sec.
 Internal terms:     CPU/Wall time =           0.00 /           0.00 sec.

 Two-external:
   0 -ionized terms: CPU/Wall time =           0.01 /           0.00 sec.
 (-1)-ionized terms: CPU/Wall time =           0.04 /           0.05 sec.
 (-2)-ionized terms: CPU/Wall time =           0.04 /           0.04 sec.

 Total time:         CPU/Wall time =           0.12 /           0.12 sec.

 ***                  ***
 *** GMC-QDPT Results ***
 ***                  ***

 Diagonal elements of effective Hamiltonian:
 Heff(  1) =   -75.80243798
 Heff(  2) =   -75.72193006
 Heff(  3) =   -75.56811246

 Off-diagonal elements of effective Hamiltonian:
                   1            2
     2 -1.869921D-11
     3  3.494742D-11 9.909028D-04

 ******** GMC-QDPT energies ********
 ----------------------------------------------------------------------------
   State                        1st order                           2nd order
 ----------------------------------------------------------------------------
     1     E(REF-CI)=      -75.6824951468   E(GMC-QDPT2)=      -75.8024379816
     2     E(REF-CI)=      -75.5920268158   E(GMC-QDPT2)=      -75.7219364427
     3     E(REF-CI)=      -75.4312330837   E(GMC-QDPT2)=      -75.5681060727
 ----------------------------------------------------------------------------

 Excitation energies (invalid if E(1)/=E(GS)):
 ----------------------------------------------------------------------------
   State                        1st order                           2nd order
 ----------------------------------------------------------------------------

     TZ Sorted GMC-PT ENERGIES:
         1      -75.8024379816
         2      -75.7219364427
         3      -75.5681060727
     2     E(REF-CI)=        2.4617699 eV   E(GMC-QDPT2)=        2.1905596 eV
     3     E(REF-CI)=        6.8371925 eV   E(GMC-QDPT2)=        6.3764993 eV
 ----------------------------------------------------------------------------

 Main characters of perturbed GMC-QDPT states:

 State #    1  Energy =     -75.802437982  S =  0.500

      Det      Coef    Occupancy (Ignoring core)
      ---      ----    --------- --------- -----
        1    0.986961  111100111000
      173    0.074717  101101101001

 State #    2  Energy =     -75.721936443  S =  0.500

      Det      Coef    Occupancy (Ignoring core)
      ---      ----    --------- --------- -----
       16    0.988881  111100110100
      203    0.076107  101101100101

 State #    3  Energy =     -75.568106073  S =  0.500

      Det      Coef    Occupancy (Ignoring core)
      ---      ----    --------- --------- -----
       31   -0.990702  111100101100

 <<<Max |V/de| = 4.654D-02  Thresh = 1.000D+00

 Oscillator strength (invalid if E(1)/=E(GS)):
 ----------------------------------------------------------------------------
   State                        1st order                           2nd order
 ----------------------------------------------------------------------------
     2     F(REF-CI)=        0.0016480610     F(GMC-PT2)=        0.0014664965
     3     F(REF-CI)=        0.0000010038     F(GMC-PT2)=        0.0000009348
 ----------------------------------------------------------------------------

 Dipole moment matrix elements, x, y, z, in A.U.
States    1    1       -0.0004181138        0.0000000003        0.2722146430
States    1    2        0.0000000013       -0.1653042627        0.0000000006
States    1    3        0.0000000011       -0.0024461403        0.0000000008
States    2    1        0.0000000013       -0.1653042627        0.0000000006
States    2    2        0.0010825797        0.0000000001        0.4581126845
States    2    3       -0.1230109625       -0.0000000000        0.0034372721
States    3    1        0.0000000011       -0.0024461403        0.0000000008
States    3    2       -0.1230109625       -0.0000000000        0.0034372721
States    3    3        0.0035569259       -0.0000000002        0.0485824211

 Oscillator strength (valid only when positive): 
 ----------------------------------------------------------------------------
  States                        1st order                           2nd order
 ----------------------------------------------------------------------------
  1  1     F(REF-CI)=        0.0000000000     F(GMC-PT2)=        0.0000000000
  1  2     F(REF-CI)=       -0.0016480610     F(GMC-PT2)=       -0.0014664965
  1  3     F(REF-CI)=       -0.0000010038     F(GMC-PT2)=       -0.0000009348
  2  1     F(REF-CI)=        0.0016480610     F(GMC-PT2)=        0.0014664965
  2  2     F(REF-CI)=        0.0000000000     F(GMC-PT2)=        0.0000000000
  2  3     F(REF-CI)=       -0.0016233252     F(GMC-PT2)=       -0.0015530213
  3  1     F(REF-CI)=        0.0000010038     F(GMC-PT2)=        0.0000009348
  3  2     F(REF-CI)=        0.0016233252     F(GMC-PT2)=        0.0015530213
  3  3     F(REF-CI)=        0.0000000000     F(GMC-PT2)=        0.0000000000
 CPU     0: STEP CPU TIME=     0.20 TOTAL CPU TIME=          1.3 (      0.0 MIN)
 TOTAL WALL CLOCK TIME=          3.2 SECONDS, CPU UTILIZATION IS    40.38%

     !!! DIABATIZATION FOR REF CI STATES !!!

 *******************************************************
          $DMO GROUP FOUND IN THE INPUT.
        DIABATIZATION OF ADIABATIC STATES BEGINS.
     PROGRAMMED BY TAO ZENG (CARLETON UNIVERSITY).
               Email: toby.zeng@carleton.ca
     See T. Zeng, J. Chem. Phys. 2017, 146, 144103
 *******************************************************

 *************************************************************************
     STEP 1: TRANSFORMATION OF ADIABATIC STATES TO THE DMO REPRESENTATION
         See Atchity and Ruedenberg, J. Chem. Phys. 1999, 111, 2910
 *************************************************************************

Read in Diabatic Molecualr Orbitals:

                      1          2          3          4          5

    1  O  1  S    0.015878  -0.000000  -0.008727   0.000000   0.178914
    2  O  1  S    0.487244  -0.000000  -0.165140   0.000000   0.591558
    3  O  1  S    0.393189  -0.000000  -0.285720   0.000000   0.156384
    4  O  1  X    0.000000   0.537196  -0.000000   0.000000   0.000000
    5  O  1  Y    0.000000  -0.000000  -0.000000   0.692976   0.000000
    6  O  1  Z    0.081813  -0.000000   0.603221   0.000000   0.749592
    7  O  1  X    0.000000   0.219567  -0.000000   0.000000   0.000000
    8  O  1  Y    0.000000  -0.000000  -0.000000   0.431611   0.000000
    9  O  1  Z    0.000497  -0.000000   0.323888   0.000000  -0.091342
   10  O  1 XX    0.002930  -0.000000  -0.007755   0.000000   0.006467
   11  O  1 YY   -0.004055  -0.000000  -0.010061   0.000000   0.010826
   12  O  1 ZZ    0.001125  -0.000000   0.017816   0.000000  -0.017293
   13  O  1 XY    0.000000  -0.000000  -0.000000   0.000000   0.000000
   14  O  1 XZ    0.000000   0.022805  -0.000000   0.000000   0.000000
   15  O  1 YZ    0.000000  -0.000000  -0.000000   0.017991   0.000000
   16  H  2  S    0.168156   0.322747   0.206861   0.000000  -0.617218
   17  H  2  S   -0.005178   0.022298   0.022370   0.000000  -0.048357
   18  H  2  X   -0.037236  -0.032785  -0.039991   0.000000   0.117245
   19  H  2  Y    0.000000  -0.000000  -0.000000   0.028405   0.000000
   20  H  2  Z   -0.019504  -0.036419   0.003670   0.000000   0.011059
   21  H  3  S    0.168156  -0.322747   0.206861   0.000000  -0.617218
   22  H  3  S   -0.005178  -0.022298   0.022370   0.000000  -0.048357
   23  H  3  X    0.037236  -0.032785   0.039991   0.000000  -0.117245
   24  H  3  Y    0.000000  -0.000000  -0.000000   0.028405   0.000000
   25  H  3  Z   -0.019504   0.036419   0.003670   0.000000   0.011059

                      6

    1  O  1  S   -0.000000
    2  O  1  S   -0.000000
    3  O  1  S   -0.000000
    4  O  1  X   -0.879968
    5  O  1  Y   -0.000000
    6  O  1  Z   -0.000000
    7  O  1  X   -0.026245
    8  O  1  Y   -0.000000
    9  O  1  Z   -0.000000
   10  O  1 XX   -0.000000
   11  O  1 YY   -0.000000
   12  O  1 ZZ   -0.000000
   13  O  1 XY   -0.000000
   14  O  1 XZ    0.028582
   15  O  1 YZ   -0.000000
   16  H  2  S    0.636798
   17  H  2  S    0.071096
   18  H  2  X   -0.067134
   19  H  2  Y   -0.000000
   20  H  2  Z   -0.047320
   21  H  3  S   -0.636798
   22  H  3  S   -0.071096
   23  H  3  X   -0.067134
   24  H  3  Y   -0.000000
   25  H  3  Z    0.047320

NUMBER OF SUB ACTIVE SPACES:   1
ROTATE ACTIVE MOS TO DMOS IN EACH SUB-SPACE

SPACE  1:

OVERLAP BETWEEN ORTHONORMAL AND PRE-ORTHONORMAL REF. DMOS

             1           2           3           4           5

    1    1.0000472   0.0008528   0.0004006   0.0000000  -0.0000350
    2    0.0008528   0.9990449  -0.0000224   0.0000000   0.0005016
    3    0.0004006  -0.0000224   1.0009381   0.0000000  -0.0015387
    4    0.0000000   0.0000000   0.0000000   0.9999951  -0.0000000
    5   -0.0000350   0.0005016  -0.0015387  -0.0000000   1.0005419
    6    0.0012771  -0.0008810  -0.0004683   0.0000000   0.0024001

             6

    1    0.0012771
    2   -0.0008810
    3   -0.0004683
    4    0.0000000
    5    0.0024001
    6    1.0004385
REFERENCE DMOS AFTER ORTHONORMALIZATION:

                      1          2          3          4          5

    1  O  1  S    0.015888  -0.000104  -0.008450   0.000000   0.178805
    2  O  1  S    0.487310  -0.000718  -0.164273   0.000000   0.591008
    3  O  1  S    0.393291  -0.000421  -0.285370   0.000000   0.155876
    4  O  1  X    0.000665   0.536933  -0.000397   0.000000   0.001839
    5  O  1  Y    0.000000  -0.000000  -0.000000   0.692979   0.000000
    6  O  1  Z    0.081596  -0.000434   0.603776   0.000000   0.750121
    7  O  1  X   -0.000154   0.219754  -0.000007   0.000000  -0.000048
    8  O  1  Y    0.000000  -0.000000  -0.000000   0.431613   0.000000
    9  O  1  Z    0.000363   0.000053   0.323445  -0.000000  -0.090796
   10  O  1 XX    0.002933  -0.000006  -0.007739   0.000000   0.006452
   11  O  1 YY   -0.004050  -0.000002  -0.010033   0.000000   0.010805
   12  O  1 ZZ    0.001117   0.000008   0.017772  -0.000000  -0.017257
   13  O  1 XY    0.000000   0.000000   0.000000   0.000000   0.000000
   14  O  1 XZ   -0.000056   0.022852   0.000014  -0.000000  -0.000080
   15  O  1 YZ    0.000000  -0.000000  -0.000000   0.017992   0.000000
   16  H  2  S    0.166953   0.323790   0.205956  -0.000000  -0.618254
   17  H  2  S   -0.005298   0.022411   0.022310  -0.000000  -0.048479
   18  H  2  X   -0.037100  -0.032904  -0.039791   0.000000   0.117297
   19  H  2  Y    0.000000  -0.000000  -0.000000   0.028405   0.000000
   20  H  2  Z   -0.019413  -0.036485   0.003668   0.000000   0.011190
   21  H  3  S    0.169132  -0.323447   0.205350   0.000000  -0.614875
   22  H  3  S   -0.005079  -0.022353   0.022243   0.000000  -0.048116
   23  H  3  X    0.037327  -0.032847   0.039727   0.000000  -0.116942
   24  H  3  Y    0.000000  -0.000000  -0.000000   0.028405   0.000000
   25  H  3  Z   -0.019596   0.036507   0.003714  -0.000000   0.010926

                      6

    1  O  1  S   -0.000453
    2  O  1  S   -0.002117
    3  O  1  S   -0.001010
    4  O  1  X   -0.879115
    5  O  1  Y   -0.000000
    6  O  1  Z   -0.001622
    7  O  1  X   -0.026040
    8  O  1  Y   -0.000000
    9  O  1  Z    0.000369
   10  O  1 XX   -0.000023
   11  O  1 YY   -0.000025
   12  O  1 ZZ    0.000048
   13  O  1 XY    0.000000
   14  O  1 XZ    0.028590
   15  O  1 YZ   -0.000000
   16  H  2  S    0.638170
   17  H  2  S    0.071218
   18  H  2  X   -0.067387
   19  H  2  Y   -0.000000
   20  H  2  Z   -0.047331
   21  H  3  S   -0.635448
   22  H  3  S   -0.070952
   23  H  3  X   -0.066882
   24  H  3  Y   -0.000000
   25  H  3  Z    0.047332

 -------------------------------------------
       MAXIMIZING MORMO OVERLAP TERM        
 -------------------------------------------
   SWEEP    VALUE       PROGRESS
     0     5.93664
     1     5.99999     0.06335219
     2     5.99999     0.00000008
     3     5.99999     0.00000000
     4     5.99999     0.00000000
 THE ROTATION IS DONE
FLIPPING SIGN FOR ORBITAL   6
ACTIVE ORBITALS AFTER MORMO:

                      1          2          3          4          5

    1  O  1  S    0.015906  -0.000127  -0.008272  -0.000000   0.177695
    2  O  1  S    0.487277   0.000099  -0.164152   0.000000   0.588825
    3  O  1  S    0.393056  -0.002047  -0.286728   0.000000   0.159842
    4  O  1  X    0.000907   0.536726  -0.000193  -0.000000   0.001739
    5  O  1  Y    0.000000   0.000000   0.000000   0.693044   0.000000
    6  O  1  Z    0.081718  -0.000279   0.604182  -0.000000   0.750330
    7  O  1  X   -0.001092   0.220539  -0.000456  -0.000000   0.000548
    8  O  1  Y   -0.000000   0.000000   0.000000   0.431510   0.000000
    9  O  1  Z    0.000135  -0.000963   0.322068  -0.000000  -0.089627
   10  O  1 XX    0.002857   0.000047  -0.007787   0.000000   0.007507
   11  O  1 YY   -0.004037  -0.000038  -0.010036   0.000000   0.011059
   12  O  1 ZZ    0.001180  -0.000009   0.017823   0.000000  -0.018565
   13  O  1 XY   -0.000000  -0.000000  -0.000000   0.000045   0.000000
   14  O  1 XZ   -0.000027   0.022952   0.000087   0.000000   0.000258
   15  O  1 YZ   -0.000000   0.000000   0.000000   0.018067   0.000000
   16  H  2  S    0.167797   0.324442   0.207372  -0.000000  -0.620521
   17  H  2  S   -0.005509   0.022207   0.021988   0.000000  -0.047926
   18  H  2  X   -0.037117  -0.032658  -0.040035   0.000000   0.117826
   19  H  2  Y   -0.000000   0.000000   0.000000   0.028603   0.000000
   20  H  2  Z   -0.019718  -0.036753   0.003469   0.000000   0.011356
   21  H  3  S    0.168768  -0.321655   0.205977  -0.000000  -0.615596
   22  H  3  S   -0.004895  -0.022876   0.022615  -0.000000  -0.048946
   23  H  3  X    0.037139  -0.032408   0.039868  -0.000000  -0.117108
   24  H  3  Y    0.000000  -0.000000   0.000000   0.028272   0.000000
   25  H  3  Z   -0.019745   0.036513   0.003314   0.000000   0.011162

                      6

    1  O  1  S   -0.001168
    2  O  1  S   -0.001877
    3  O  1  S   -0.001818
    4  O  1  X   -0.879134
    5  O  1  Y   -0.000000
    6  O  1  Z   -0.001583
    7  O  1  X   -0.025907
    8  O  1  Y   -0.000000
    9  O  1  Z   -0.000498
   10  O  1 XX   -0.000219
   11  O  1 YY    0.000311
   12  O  1 ZZ   -0.000092
   13  O  1 XY   -0.000000
   14  O  1 XZ    0.029221
   15  O  1 YZ   -0.000000
   16  H  2  S    0.638945
   17  H  2  S    0.070834
   18  H  2  X   -0.067172
   19  H  2  Y    0.000000
   20  H  2  Z   -0.047820
   21  H  3  S   -0.633835
   22  H  3  S   -0.071823
   23  H  3  X   -0.066125
   24  H  3  Y   -0.000000
   25  H  3  Z    0.047694

Actually Used Diabatic Molecualr Orbitals:

                      1          2          3          4          5

    1  O  1  S    0.015906  -0.000127  -0.008272  -0.000000   0.177695
    2  O  1  S    0.487277   0.000099  -0.164152   0.000000   0.588825
    3  O  1  S    0.393056  -0.002047  -0.286728   0.000000   0.159842
    4  O  1  X    0.000907   0.536726  -0.000193  -0.000000   0.001739
    5  O  1  Y    0.000000   0.000000   0.000000   0.693044   0.000000
    6  O  1  Z    0.081718  -0.000279   0.604182  -0.000000   0.750330
    7  O  1  X   -0.001092   0.220539  -0.000456  -0.000000   0.000548
    8  O  1  Y   -0.000000   0.000000   0.000000   0.431510   0.000000
    9  O  1  Z    0.000135  -0.000963   0.322068  -0.000000  -0.089627
   10  O  1 XX    0.002857   0.000047  -0.007787   0.000000   0.007507
   11  O  1 YY   -0.004037  -0.000038  -0.010036   0.000000   0.011059
   12  O  1 ZZ    0.001180  -0.000009   0.017823   0.000000  -0.018565
   13  O  1 XY   -0.000000  -0.000000  -0.000000   0.000045   0.000000
   14  O  1 XZ   -0.000027   0.022952   0.000087   0.000000   0.000258
   15  O  1 YZ   -0.000000   0.000000   0.000000   0.018067   0.000000
   16  H  2  S    0.167797   0.324442   0.207372  -0.000000  -0.620521
   17  H  2  S   -0.005509   0.022207   0.021988   0.000000  -0.047926
   18  H  2  X   -0.037117  -0.032658  -0.040035   0.000000   0.117826
   19  H  2  Y   -0.000000   0.000000   0.000000   0.028603   0.000000
   20  H  2  Z   -0.019718  -0.036753   0.003469   0.000000   0.011356
   21  H  3  S    0.168768  -0.321655   0.205977  -0.000000  -0.615596
   22  H  3  S   -0.004895  -0.022876   0.022615  -0.000000  -0.048946
   23  H  3  X    0.037139  -0.032408   0.039868  -0.000000  -0.117108
   24  H  3  Y    0.000000  -0.000000   0.000000   0.028272   0.000000
   25  H  3  Z   -0.019745   0.036513   0.003314   0.000000   0.011162

                      6

    1  O  1  S   -0.001168
    2  O  1  S   -0.001877
    3  O  1  S   -0.001818
    4  O  1  X   -0.879134
    5  O  1  Y   -0.000000
    6  O  1  Z   -0.001583
    7  O  1  X   -0.025907
    8  O  1  Y   -0.000000
    9  O  1  Z   -0.000498
   10  O  1 XX   -0.000219
   11  O  1 YY    0.000311
   12  O  1 ZZ   -0.000092
   13  O  1 XY   -0.000000
   14  O  1 XZ    0.029221
   15  O  1 YZ   -0.000000
   16  H  2  S    0.638945
   17  H  2  S    0.070834
   18  H  2  X   -0.067172
   19  H  2  Y    0.000000
   20  H  2  Z   -0.047820
   21  H  3  S   -0.633835
   22  H  3  S   -0.071823
   23  H  3  X   -0.066125
   24  H  3  Y   -0.000000
   25  H  3  Z    0.047694

     ------------------------------------------------
        ADIABATIC STATES IN TRANSFORMED ORBITALS:
      !! USE Coefp TO PREPARE DIABATIC REFERENCES !!
     ------------------------------------------------

 State #    1  Energy =     -75.682495147  S =  0.500

      Det      Coef        Coefp    Occupancy (Ignoring core)
      ---      ----        ----    --------- --------- -----
        1   -0.987007    0.987007  222+00
      173    0.076179    0.076179  202+02
      168    0.043184    0.043184  2+-++-
       63    0.042056    0.042056  220+20
       68    0.041663    0.041663  2-++-+
        8    0.037438   -0.037438  2-2+0+
       47    0.032849   -0.032849  +22-+0
       98   -0.032773    0.032773  +-2+-+
       93   -0.032410    0.032410  +2-+20
       65    0.030929    0.030929  -2++20
      170   -0.030820    0.030820  -+2++-
       95    0.030491    0.030491  022+20
       79    0.028900    0.028900  202+20
       36   -0.026713   -0.026713  2+2-0+
      157    0.026401    0.026401  220+02
        3   -0.024192   -0.024192  22-++0
      154   -0.022891    0.022891  2-+++-
       82   -0.022379    0.022379  2+-+-+
      184    0.020501    0.020501  +-2++-
      241   -0.020246   -0.020246  2+++--
       84    0.020187    0.020187  -+2+-+

 State #    2  Energy =     -75.592026816  S =  0.500

      Det      Coef        Coefp    Occupancy (Ignoring core)
      ---      ----        ----    --------- --------- -----
       16    0.988895    0.988895  22+200
      203   -0.077591    0.077591  20+202
      198   -0.042521    0.042521  2+02+-
       46   -0.038893   -0.038893  +22200
       53   -0.035640    0.035640  +-220+
      200    0.034416    0.034416  -++2+-
       18    0.033903   -0.033903  2202+0
      128    0.033055    0.033055  +-+2-+
      123    0.032035    0.032035  +20220
      125   -0.031572    0.031572  02+220
      109   -0.028124    0.028124  20+220
       23   -0.025709   -0.025709  2-+20+
      112    0.021673    0.021673  2+02-+
       28    0.020849   -0.020849  2-02++
      214   -0.020096    0.020096  +-+2+-

 State #    3  Energy =     -75.431233084  S =  0.500

      Det      Coef        Coefp    Occupancy (Ignoring core)
      ---      ----        ----    --------- --------- -----
       31    0.990630   -0.990630  2+2200
      113    0.048058    0.048058  20+2-+
      108   -0.047297    0.047297  2+0220
       52   -0.046903   -0.046903  +2-20+
      143    0.031986   -0.031986  +022-+
      110    0.031909    0.031909  -++220
      138   -0.031141   -0.031141  ++-220
      140   -0.030895   -0.030895  0+2220
       33    0.030275   -0.030275  2+-2+0
      202   -0.029027    0.029027  2+0202
        6   -0.028345    0.028345  22200+
       43   -0.027768    0.027768  20-2++
      211    0.025744   -0.025744  +2+20-
       19   -0.024120   -0.024120  2-+2+0
       24    0.021160   -0.021160  -2+20+
      199   -0.020290    0.020290  20+2+-
      234   -0.020135   -0.020135  0+2202

         ----------------------------------------------------
          Transformation matrix between Active CMOs and DMOs
                    Row for CMO and Column for DMO
         ----------------------------------------------------

             1           2           3           4           5

    1    0.9999919   0.0034950   0.0008892  -0.0000000   0.0001342
    2   -0.0034993   0.9999692   0.0069173  -0.0000000   0.0006289
    3   -0.0008639  -0.0069193   0.9999726  -0.0000000  -0.0024284
    4   -0.0000000  -0.0000000  -0.0000000   1.0000000   0.0000000
    5    0.0001847  -0.0008217   0.0023011   0.0000000   0.9840677
    6    0.0017764  -0.0009139  -0.0008968  -0.0000000  -0.1777763

             6

    1    0.0017769
    2   -0.0010549
    3   -0.0004677
    4    0.0000000
    5   -0.1777772
    6   -0.9840685

     $REFDET GROUP FOUND

 *************************************************************************
     STEP 2: DIABATIZATION USING CONFIGURATION UNIFORMITY
  See Atchity and Ruedenberg, Theor. Chem. Acc. 1997, 97, 47
 *************************************************************************

READ-IN LIST OF DIABATIC PROTOTYPES:

     THE SAME NUMBER OF PROTOTYPE GROUPS & ADIABATS

     THE ADIABS SHOULD HAVE FULLY COVER THE PROTOTYPES

 Approximated Overlap Matrix for truncated adiabats:
   0.9978836235   0.0000000000   0.0000000000
   0.0000000000   0.9967361503  -0.0000012176
   0.0000000000  -0.0000012176   0.9979054046


 -------------------------------------------
   - DIABATIC HAMILTONIAN MATRIX ELEMENTS - 
 -------------------------------------------
                                            
 --- DIABATIC ENERGIES (DIAGONAL ELEMENT) ---       HARTREE            EV
 STATE #  1'S GMC-CI-LEVEL DIABATIC ENERGY=     -75.682495147       0.000000000
 STATE #  2'S GMC-CI-LEVEL DIABATIC ENERGY=     -75.592025479       2.461805040
 STATE #  3'S GMC-CI-LEVEL DIABATIC ENERGY=     -75.431234420       6.837152625

 --- DIABATIC COUPLINGS (OFF DIAGONAL ELEMENTS)---  HATREE            EV
 STATE #  1 &  2'S GMC-CI-LEVEL COUPLING  =      -0.000000001      -0.000000032
 STATE #  1 &  3'S GMC-CI-LEVEL COUPLING  =       0.000000001       0.000000027
 STATE #  2 &  3'S GMC-CI-LEVEL COUPLING  =      -0.000463539      -0.012613525

 ---------------------------------------
     - ROTATION TO DIABATIC STATES -    
 ---------------------------------------
 ROWS=ADIABATIC, COLUMNS=DIABATIC STATES

             1           2           3

    1   -1.0000000   0.0000000  -0.0000000
    2   -0.0000000  -0.9999958  -0.0028828
    3   -0.0000000  -0.0028828   0.9999958

 ---------------------------------------
          - DIABATIC STATES -           
 ---------------------------------------

 State #    1  Energy =     -75.682495147

      Det      Coef        Coefp    Occupancy (Ignoring core)
      ---      ----        ----    --------- --------- -----
        1    0.987007   -0.987007  222+00
      173   -0.076179   -0.076179  202+02
      168   -0.043184   -0.043184  2+-++-
       63   -0.042056   -0.042056  220+20
       68   -0.041663   -0.041663  2-++-+
        8   -0.037438    0.037438  2-2+0+
       47   -0.032849    0.032849  +22-+0
       98    0.032773   -0.032773  +-2+-+
       93    0.032410   -0.032410  +2-+20
       65   -0.030929   -0.030929  -2++20
      170    0.030820   -0.030820  -+2++-
       95   -0.030491   -0.030491  022+20
       79   -0.028900   -0.028900  202+20
       36    0.026713    0.026713  2+2-0+
      157   -0.026401   -0.026401  220+02
        3    0.024192    0.024192  22-++0
      154    0.022891   -0.022891  2-+++-
       82    0.022379   -0.022379  2+-+-+
      184   -0.020501   -0.020501  +-2++-
      241    0.020246    0.020246  2+++--
       84   -0.020187   -0.020187  -+2+-+

 State #    2  Energy =     -75.592025479

      Det      Coef        Coefp    Occupancy (Ignoring core)
      ---      ----        ----    --------- --------- -----
       16   -0.988899   -0.988899  22+200
      203    0.077592   -0.077592  20+202
      198    0.042522   -0.042522  2+02+-
       46    0.038903    0.038903  +22200
       53    0.035640   -0.035640  +-220+
      200   -0.034417   -0.034417  -++2+-
       18   -0.033904    0.033904  2202+0
      128   -0.033056   -0.033056  +-+2-+
      123   -0.032036   -0.032036  +20220
      125    0.031573   -0.031573  02+220
      109    0.028125   -0.028125  20+220
       23    0.025710    0.025710  2-+20+
      112   -0.021673   -0.021673  2+02-+
       28   -0.020848    0.020848  2-02++
      214    0.020096   -0.020096  +-+2+-

 State #    3  Energy =     -75.431234420

      Det      Coef        Coefp    Occupancy (Ignoring core)
      ---      ----        ----    --------- --------- -----
       31    0.990635   -0.990635  2+2200
      113    0.048057    0.048057  20+2-+
      108   -0.047297    0.047297  2+0220
       52   -0.046903   -0.046903  +2-20+
      143    0.031986   -0.031986  +022-+
      110    0.031909    0.031909  -++220
      138   -0.031141   -0.031141  ++-220
      140   -0.030895   -0.030895  0+2220
       33    0.030275   -0.030275  2+-2+0
      202   -0.029026    0.029026  2+0202
        6   -0.028345    0.028345  22200+
       43   -0.027768    0.027768  20-2++
      211    0.025749   -0.025749  +2+20-
       19   -0.024122   -0.024122  2-+2+0
       24    0.021155   -0.021155  -2+20+
      199   -0.020289    0.020289  20+2+-
      234   -0.020135   -0.020135  0+2202

 ---------------------------------------
      - DIABATIC STATES IN CMO -        
 ---------------------------------------

 State #    1  Energy =     -75.682495147

      Det      Coef        Coefp    Occupancy (Ignoring core)
      ---      ----        ----    --------- --------- -----
        1    0.986961   -0.986961  222+00
      173   -0.074717   -0.074717  202+02
       63   -0.041208   -0.041208  220+20
      168    0.041022    0.041022  2+-++-
       68    0.039455    0.039455  2-++-+
        8    0.035909   -0.035909  2-2+0+
       47   -0.032330    0.032330  +22-+0
       93    0.031364   -0.031364  +2-+20
       98   -0.031104    0.031104  +-2+-+
       79   -0.030387   -0.030387  202+20
       95   -0.030118   -0.030118  022+20
       65   -0.029854   -0.029854  -2++20
      170   -0.029259    0.029259  -+2++-
      157   -0.027110   -0.027110  220+02
       36   -0.026324   -0.026324  2+2-0+
        3    0.026092    0.026092  22-++0
      154   -0.020772    0.020772  2-+++-
       82   -0.020226    0.020226  2+-+-+
      241   -0.020224   -0.020224  2+++--

 State #    2  Energy =     -75.592025479

[...]
      113   -0.045893   -0.045893  20+2-+
      110    0.030882    0.030882  -++220
      140   -0.030631   -0.030631  0+2220
      143   -0.030462    0.030462  +022-+
      138   -0.029952   -0.029952  ++-220
      202   -0.029771    0.029771  2+0202
        6    0.027975   -0.027975  22200+
       43    0.027763   -0.027763  20-2++
       33    0.027208   -0.027208  2+-2+0
      211   -0.025353    0.025353  +2+20-
       19   -0.023578   -0.023578  2-+2+0
       24   -0.020851    0.020851  -2+20+
      234   -0.020436   -0.020436  0+2202

 ---------------------------------------
    -DIABATIC STATES IN PROTOTYPES-     
 ---------------------------------------

     STATE:    1
 Group Ref#    Coefficients
     1    1    0.998941
     2    2    0.000000
     3    3   -0.000000

WEIGHT OF LISTED PROTOTYPES:   99.79%

     STATE:    2
 Group Ref#    Coefficients
     1    1    0.000000
     2    2    0.998367
     3    3   -0.000001

WEIGHT OF LISTED PROTOTYPES:   99.67%

     STATE:    3
 Group Ref#    Coefficients
     1    1   -0.000000
     2    2   -0.000001
     3    3    0.998952

WEIGHT OF LISTED PROTOTYPES:   99.79%

 --------------------------------------------------
 IN DIRECT MAX. DIABATIZATION FOR GMC-QDPT

 DIRECT MAXIMIZATION (DM) WITHOUT TRUNCATING ADIABATS
 EXPANSIONS INTO THE REFERENCE CONFIGURATION SPACE
 --------------------------------------------------

 -------------------------------------------
 - DM DIABT PT HAMILTONIAN MATRIX ELEMENTS -
 -------------------------------------------
                                            
 --- DIABATIC ENERGIES (DIAGONAL ELEMENT) ---       HARTREE            EV
 STATE #  1'S GMC-PT-LEVEL DIABATIC ENERGY=     -75.802437982       0.000000000
 STATE #  2'S GMC-PT-LEVEL DIABATIC ENERGY=     -75.721935174       2.190592968
 STATE #  3'S GMC-PT-LEVEL DIABATIC ENERGY=     -75.568107341       6.376461502

 --- DIABATIC COUPLINGS (OFF DIAGONAL ELEMENTS)---  HATREE            EV
 STATE #  1 &  2'S GMC-PT-LEVEL COUPLING  =      -0.000000001      -0.000000031
 STATE #  1 &  3'S GMC-PT-LEVEL COUPLING  =       0.000000001       0.000000028
 STATE #  2 &  3'S GMC-PT-LEVEL COUPLING  =      -0.000441763      -0.012020993

 ---------------------------------------
     - ROTATION TO DIABATIC STATES -    
 ---------------------------------------
 ROWS=ADIABATIC, COLUMNS=DIABATIC STATES

             1           2           3

    1   -1.0000000   0.0000000  -0.0000000
    2   -0.0000000  -0.9999959  -0.0028718
    3   -0.0000000  -0.0028718   0.9999959

 ---------------------------------------
          - DIABATIC STATES -           
 ---------------------------------------

 State #    1  Energy =     -75.802437982

      Det      Coef        Coefp    Occupancy (Ignoring core)
      ---      ----        ----    --------- --------- -----
        1    0.987007   -0.987007  222+00
      173   -0.076179   -0.076179  202+02
      168   -0.043184   -0.043184  2+-++-
       63   -0.042056   -0.042056  220+20
       68   -0.041663   -0.041663  2-++-+
        8   -0.037438    0.037438  2-2+0+
       47   -0.032849    0.032849  +22-+0
       98    0.032773   -0.032773  +-2+-+
       93    0.032410   -0.032410  +2-+20
       65   -0.030929   -0.030929  -2++20
      170    0.030820   -0.030820  -+2++-
       95   -0.030491   -0.030491  022+20
       79   -0.028900   -0.028900  202+20
       36    0.026713    0.026713  2+2-0+
      157   -0.026401   -0.026401  220+02
        3    0.024192    0.024192  22-++0
      154    0.022891   -0.022891  2-+++-
       82    0.022379   -0.022379  2+-+-+
      184   -0.020501   -0.020501  +-2++-
      241    0.020246    0.020246  2+++--
       84   -0.020187   -0.020187  -+2+-+

 State #    2  Energy =     -75.721935174

      Det      Coef        Coefp    Occupancy (Ignoring core)
      ---      ----        ----    --------- --------- -----
       16   -0.988899   -0.988899  22+200
      203    0.077592   -0.077592  20+202
      198    0.042522   -0.042522  2+02+-
       46    0.038903    0.038903  +22200
       53    0.035640   -0.035640  +-220+
      200   -0.034417   -0.034417  -++2+-
       18   -0.033904    0.033904  2202+0
      128   -0.033056   -0.033056  +-+2-+
      123   -0.032036   -0.032036  +20220
      125    0.031573   -0.031573  02+220
      109    0.028125   -0.028125  20+220
       23    0.025710    0.025710  2-+20+
      112   -0.021673   -0.021673  2+02-+
       28   -0.020848    0.020848  2-02++
      214    0.020096   -0.020096  +-+2+-

 State #    3  Energy =     -75.568107341

      Det      Coef        Coefp    Occupancy (Ignoring core)
      ---      ----        ----    --------- --------- -----
       31    0.990635   -0.990635  2+2200
      113    0.048057    0.048057  20+2-+
      108   -0.047297    0.047297  2+0220
       52   -0.046903   -0.046903  +2-20+
      143    0.031986   -0.031986  +022-+
      110    0.031909    0.031909  -++220
      138   -0.031141   -0.031141  ++-220
      140   -0.030895   -0.030895  0+2220
       33    0.030275   -0.030275  2+-2+0
      202   -0.029026    0.029026  2+0202
        6   -0.028345    0.028345  22200+
       43   -0.027768    0.027768  20-2++
      211    0.025749   -0.025749  +2+20-
       19   -0.024122   -0.024122  2-+2+0
       24    0.021155   -0.021155  -2+20+
      199   -0.020289    0.020289  20+2+-
      234   -0.020135   -0.020135  0+2202

 ---------------------------------------
      - DIABATIC STATES IN CMO -        
 ---------------------------------------

 State #    1  Energy =     -75.802437982

      Det      Coef        Coefp    Occupancy (Ignoring core)
      ---      ----        ----    --------- --------- -----
        1    0.986961   -0.986961  222+00
      173   -0.074717   -0.074717  202+02
       63   -0.041208   -0.041208  220+20
      168    0.041022    0.041022  2+-++-
       68    0.039455    0.039455  2-++-+
        8    0.035909   -0.035909  2-2+0+
       47   -0.032330    0.032330  +22-+0
       93    0.031364   -0.031364  +2-+20
       98   -0.031104    0.031104  +-2+-+
       79   -0.030387   -0.030387  202+20
       95   -0.030118   -0.030118  022+20
       65   -0.029854   -0.029854  -2++20
      170   -0.029259    0.029259  -+2++-
      157   -0.027110   -0.027110  220+02
       36   -0.026324   -0.026324  2+2-0+
        3    0.026092    0.026092  22-++0
      154   -0.020772    0.020772  2-+++-
       82   -0.020226    0.020226  2+-+-+
      241   -0.020224   -0.020224  2+++--

 State #    2  Energy =     -75.721935174

      Det      Coef        Coefp    Occupancy (Ignoring core)
      ---      ----        ----    --------- --------- -----
       16   -0.988865   -0.988865  22+200
      203    0.076142   -0.076142  20+202
      198   -0.040427    0.040427  2+02+-
       46    0.038056    0.038056  +22200
       18   -0.035564    0.035564  2202+0
       53   -0.035067    0.035067  +-220+
      200    0.032782    0.032782  -++2+-
      128    0.031273    0.031273  +-+2-+
      125    0.031223   -0.031223  02+220
      123   -0.030902   -0.030902  +20220
      109    0.029553   -0.029553  20+220
       23   -0.024216   -0.024216  2-+20+
       28    0.020812   -0.020812  2-02++

 State #    3  Energy =     -75.568107341

      Det      Coef        Coefp    Occupancy (Ignoring core)
      ---      ----        ----    --------- --------- -----
       31    0.990686   -0.990686  2+2200
      108   -0.046586    0.046586  2+0220
       52    0.046203    0.046203  +2-20+
      113   -0.045893   -0.045893  20+2-+
      110    0.030882    0.030882  -++220
      140   -0.030631   -0.030631  0+2220
      143   -0.030462    0.030462  +022-+
      138   -0.029952   -0.029952  ++-220
      202   -0.029771    0.029771  2+0202
        6    0.027975   -0.027975  22200+
       43    0.027763   -0.027763  20-2++
       33    0.027208   -0.027208  2+-2+0
      211   -0.025353    0.025353  +2+20-
       19   -0.023578   -0.023578  2-+2+0
       24   -0.020851    0.020851  -2+20+
      234   -0.020436   -0.020436  0+2202

 ---------------------------------------
    -DIABATIC STATES IN PROTOTYPES-     
 ---------------------------------------

     STATE:    1
 Group Ref#    Coefficients
     1    1    0.998941
     2    2    0.000000
     3    3   -0.000000

WEIGHT OF LISTED PROTOTYPES:   99.79%

     STATE:    2
 Group Ref#    Coefficients
     1    1    0.000000
     2    2    0.998367
     3    3   -0.000001

WEIGHT OF LISTED PROTOTYPES:   99.67%

     STATE:    3
 Group Ref#    Coefficients
     1    1   -0.000000
     2    2   -0.000001
     3    3    0.998952

WEIGHT OF LISTED PROTOTYPES:   99.79%

     DIRECT MAX. DIABATIZATION FINISHED    
 CPU     0: STEP CPU TIME=     0.07 TOTAL CPU TIME=          1.3 (      0.0 MIN)
 TOTAL WALL CLOCK TIME=          3.2 SECONDS, CPU UTILIZATION IS    41.54%

DIABATS FOR SPIN-ORBIT CALCULATION ARE READY

TRANSITION DIPOLES BETWEEN ADIABATS (in A.U.):

STATE PAIR      X         Y         Z
    1    1 -0.000418  0.000000  0.272215
    2    1  0.000000 -0.165304  0.000000
    2    2  0.001083  0.000000  0.458113
    3    1  0.000000 -0.002446  0.000000
    3    2 -0.123011 -0.000000  0.003437
    3    3  0.003557 -0.000000  0.048582


TRANSITION DIPOLES BETWEEN DIABATS (in A.U.):

STATE PAIR      X         Y         Z
    1    1 -0.000418  0.000000  0.272215
    2    1  0.000000 -0.165311  0.000000
    2    2  0.000376  0.000000  0.458129
    3    1 -0.000000  0.001971 -0.000000
    3    2  0.123002 -0.000000 -0.002261
    3    3  0.004263 -0.000000  0.048566

TRANSITION DIPOLES BETWEEN DIRECT MAX. DIABATS (in A.U.):

STATE PAIR      X         Y         Z
    1    1 -0.000418  0.000000  0.272215
    2    1  0.000000 -0.165311  0.000000
    2    2  0.000376  0.000000  0.458129
    3    1 -0.000000  0.001971 -0.000000
    3    2  0.123002 -0.000000 -0.002261
    3    3  0.004263 -0.000000  0.048566
 No $TRANST Group Found.
 Quit without doing spin-orbit coupling
 ..... DONE WITH MP2 ENERGY .....
 CPU     0: STEP CPU TIME=     0.00 TOTAL CPU TIME=          1.3 (      0.0 MIN)
 TOTAL WALL CLOCK TIME=          3.3 SECONDS, CPU UTILIZATION IS    41.41%
            250000000  WORDS OF DYNAMIC MEMORY USED
 EXECUTION OF GAMESS TERMINATED NORMALLY Thu Jan 25 17:20:27 2024
 DDI: 386504 bytes (0.4 MB / 0 MWords) used by master data server.

 ----------------------------------------
 CPU timing information for all processes
 ========================================
 0: 1.184 + 0.173 = 1.358
 1: 1.109 + 0.93 = 1.202
 ----------------------------------------
Note: The following floating-point exceptions are signalling: IEEE_DENORMAL
Note: The following floating-point exceptions are signalling: IEEE_DENORMAL
 ddikick.x: exited gracefully.
unset echo
----- accounting info -----
Files used on the master node io003 were:
-rwxr-xr-x 1 bjb2chen nooijen   16396 Jan 25 17:20 /home/bjb2chen/gmsscr//H2Ocat_cct_gmcpt_C1_3st_diab_mode9_-0.05_mode7_+0.05.F05*
-rw-r--r-- 1 bjb2chen nooijen  182424 Jan 25 17:20 /home/bjb2chen/gmsscr//H2Ocat_cct_gmcpt_C1_3st_diab_mode9_-0.05_mode7_+0.05.F09
-rw-r--r-- 1 bjb2chen nooijen  180016 Jan 25 17:20 /home/bjb2chen/gmsscr//H2Ocat_cct_gmcpt_C1_3st_diab_mode9_-0.05_mode7_+0.05.F09.001
-rw-r--r-- 1 bjb2chen nooijen 1995920 Jan 25 17:20 /home/bjb2chen/gmsscr//H2Ocat_cct_gmcpt_C1_3st_diab_mode9_-0.05_mode7_+0.05.F10
-rw-r--r-- 1 bjb2chen nooijen   40312 Jan 25 17:20 /home/bjb2chen/gmsscr//H2Ocat_cct_gmcpt_C1_3st_diab_mode9_-0.05_mode7_+0.05.F13
-rw-r--r-- 1 bjb2chen nooijen   40312 Jan 25 17:20 /home/bjb2chen/gmsscr//H2Ocat_cct_gmcpt_C1_3st_diab_mode9_-0.05_mode7_+0.05.F13.001
-rw-r--r-- 1 bjb2chen nooijen  180248 Jan 25 17:20 /home/bjb2chen/gmsscr//H2Ocat_cct_gmcpt_C1_3st_diab_mode9_-0.05_mode7_+0.05.F15
-rw-r--r-- 1 bjb2chen nooijen       0 Jan 25 17:20 /home/bjb2chen/gmsscr//H2Ocat_cct_gmcpt_C1_3st_diab_mode9_-0.05_mode7_+0.05.F16
-rw-r--r-- 1 bjb2chen nooijen    2408 Jan 25 17:20 /home/bjb2chen/gmsscr//H2Ocat_cct_gmcpt_C1_3st_diab_mode9_-0.05_mode7_+0.05.F70
-rw-r--r-- 1 bjb2chen nooijen    2408 Jan 25 17:20 /home/bjb2chen/gmsscr//H2Ocat_cct_gmcpt_C1_3st_diab_mode9_-0.05_mode7_+0.05.F70.001
-rw-r--r-- 1 bjb2chen nooijen    2408 Jan 25 17:20 /home/bjb2chen/gmsscr//H2Ocat_cct_gmcpt_C1_3st_diab_mode9_-0.05_mode7_+0.05.F71
-rw-r--r-- 1 bjb2chen nooijen    2408 Jan 25 17:20 /home/bjb2chen/gmsscr//H2Ocat_cct_gmcpt_C1_3st_diab_mode9_-0.05_mode7_+0.05.F71.001
-rw-r--r-- 1 bjb2chen nooijen    4808 Jan 25 17:20 /home/bjb2chen/gmsscr//H2Ocat_cct_gmcpt_C1_3st_diab_mode9_-0.05_mode7_+0.05.F72
-rw-r--r-- 1 bjb2chen nooijen    4808 Jan 25 17:20 /home/bjb2chen/gmsscr//H2Ocat_cct_gmcpt_C1_3st_diab_mode9_-0.05_mode7_+0.05.F72.001
-rw-r--r-- 1 bjb2chen nooijen    4808 Jan 25 17:20 /home/bjb2chen/gmsscr//H2Ocat_cct_gmcpt_C1_3st_diab_mode9_-0.05_mode7_+0.05.F73
-rw-r--r-- 1 bjb2chen nooijen    4808 Jan 25 17:20 /home/bjb2chen/gmsscr//H2Ocat_cct_gmcpt_C1_3st_diab_mode9_-0.05_mode7_+0.05.F73.001
-rw-r--r-- 1 bjb2chen nooijen  184824 Jan 25 17:20 /home/bjb2chen/gmsscr//H2Ocat_cct_gmcpt_C1_3st_diab_mode9_-0.05_mode7_+0.05.F74
-rw-r--r-- 1 bjb2chen nooijen  184824 Jan 25 17:20 /home/bjb2chen/gmsscr//H2Ocat_cct_gmcpt_C1_3st_diab_mode9_-0.05_mode7_+0.05.F74.001
-rw-r--r-- 1 bjb2chen nooijen  720024 Jan 25 17:20 /home/bjb2chen/gmsscr//H2Ocat_cct_gmcpt_C1_3st_diab_mode9_-0.05_mode7_+0.05.F75
-rw-r--r-- 1 bjb2chen nooijen  720024 Jan 25 17:20 /home/bjb2chen/gmsscr//H2Ocat_cct_gmcpt_C1_3st_diab_mode9_-0.05_mode7_+0.05.F75.001
-rw-r--r-- 1 bjb2chen nooijen   14448 Jan 25 17:20 /home/bjb2chen/gmsscr//H2Ocat_cct_gmcpt_C1_3st_diab_mode9_-0.05_mode7_+0.05.F76
-rw-r--r-- 1 bjb2chen nooijen   14448 Jan 25 17:20 /home/bjb2chen/gmsscr//H2Ocat_cct_gmcpt_C1_3st_diab_mode9_-0.05_mode7_+0.05.F76.001
-rw-r--r-- 1 bjb2chen nooijen       0 Jan 25 17:20 /home/bjb2chen/gmsscr//H2Ocat_cct_gmcpt_C1_3st_diab_mode9_-0.05_mode7_+0.05.F77
-rw-r--r-- 1 bjb2chen nooijen       0 Jan 25 17:20 /home/bjb2chen/gmsscr//H2Ocat_cct_gmcpt_C1_3st_diab_mode9_-0.05_mode7_+0.05.F77.001
-rw-r--r-- 1 bjb2chen nooijen    1544 Jan 25 17:20 /home/bjb2chen/gmsscr//H2Ocat_cct_gmcpt_C1_3st_diab_mode9_-0.05_mode7_+0.05.F78
-rw-r--r-- 1 bjb2chen nooijen    1544 Jan 25 17:20 /home/bjb2chen/gmsscr//H2Ocat_cct_gmcpt_C1_3st_diab_mode9_-0.05_mode7_+0.05.F78.001
-rw-r--r-- 1 bjb2chen nooijen    9608 Jan 25 17:20 /home/bjb2chen/gmsscr//H2Ocat_cct_gmcpt_C1_3st_diab_mode9_-0.05_mode7_+0.05.F79
-rw-r--r-- 1 bjb2chen nooijen    9608 Jan 25 17:20 /home/bjb2chen/gmsscr//H2Ocat_cct_gmcpt_C1_3st_diab_mode9_-0.05_mode7_+0.05.F79.001
-rw-r--r-- 1 bjb2chen nooijen     104 Jan 25 17:20 /home/bjb2chen/gmsscr//H2Ocat_cct_gmcpt_C1_3st_diab_mode9_-0.05_mode7_+0.05.F80
-rw-r--r-- 1 bjb2chen nooijen     104 Jan 25 17:20 /home/bjb2chen/gmsscr//H2Ocat_cct_gmcpt_C1_3st_diab_mode9_-0.05_mode7_+0.05.F80.001
-rw-r--r-- 1 bjb2chen nooijen    9232 Jan 25 17:20 /home/bjb2chen/gmsscr//H2Ocat_cct_gmcpt_C1_3st_diab_mode9_-0.05_mode7_+0.05.F81
-rw-r--r-- 1 bjb2chen nooijen    9232 Jan 25 17:20 /home/bjb2chen/gmsscr//H2Ocat_cct_gmcpt_C1_3st_diab_mode9_-0.05_mode7_+0.05.F81.001
-rw-r--r-- 1 bjb2chen nooijen      16 Jan 25 17:20 /home/bjb2chen/gmsscr//H2Ocat_cct_gmcpt_C1_3st_diab_mode9_-0.05_mode7_+0.05.F82
-rw-r--r-- 1 bjb2chen nooijen      16 Jan 25 17:20 /home/bjb2chen/gmsscr//H2Ocat_cct_gmcpt_C1_3st_diab_mode9_-0.05_mode7_+0.05.F82.001
-rw-r--r-- 1 bjb2chen nooijen   10376 Jan 25 17:20 /home/bjb2chen/gmsscr//H2Ocat_cct_gmcpt_C1_3st_diab_mode9_-0.05_mode7_+0.05.F83
-rw-r--r-- 1 bjb2chen nooijen   10376 Jan 25 17:20 /home/bjb2chen/gmsscr//H2Ocat_cct_gmcpt_C1_3st_diab_mode9_-0.05_mode7_+0.05.F83.001
-rw-r--r-- 1 bjb2chen nooijen   18832 Jan 25 17:20 /home/bjb2chen/gmsscr//H2Ocat_cct_gmcpt_C1_3st_diab_mode9_-0.05_mode7_+0.05.F84
-rw-r--r-- 1 bjb2chen nooijen   18832 Jan 25 17:20 /home/bjb2chen/gmsscr//H2Ocat_cct_gmcpt_C1_3st_diab_mode9_-0.05_mode7_+0.05.F84.001
-rw-r--r-- 1 bjb2chen nooijen  128368 Jan 25 17:20 /home/bjb2chen/gmsscr//H2Ocat_cct_gmcpt_C1_3st_diab_mode9_-0.05_mode7_+0.05.F85
-rw-r--r-- 1 bjb2chen nooijen  128368 Jan 25 17:20 /home/bjb2chen/gmsscr//H2Ocat_cct_gmcpt_C1_3st_diab_mode9_-0.05_mode7_+0.05.F85.001
-rw-r--r-- 1 bjb2chen nooijen  133176 Jan 25 17:20 /home/bjb2chen/gmsscr//H2Ocat_cct_gmcpt_C1_3st_diab_mode9_-0.05_mode7_+0.05.F86
-rw-r--r-- 1 bjb2chen nooijen  119256 Jan 25 17:20 /home/bjb2chen/gmsscr//H2Ocat_cct_gmcpt_C1_3st_diab_mode9_-0.05_mode7_+0.05.F86.001
-rw-r--r-- 1 bjb2chen nooijen     656 Jan 25 17:20 /home/bjb2chen/gmsscr//H2Ocat_cct_gmcpt_C1_3st_diab_mode9_-0.05_mode7_+0.05.F87
-rw-r--r-- 1 bjb2chen nooijen     656 Jan 25 17:20 /home/bjb2chen/gmsscr//H2Ocat_cct_gmcpt_C1_3st_diab_mode9_-0.05_mode7_+0.05.F87.001
-rw-r--r-- 1 bjb2chen nooijen    7824 Jan 25 17:20 /home/bjb2chen/gmsscr//H2Ocat_cct_gmcpt_C1_3st_diab_mode9_-0.05_mode7_+0.05.F88
-rw-r--r-- 1 bjb2chen nooijen    7824 Jan 25 17:20 /home/bjb2chen/gmsscr//H2Ocat_cct_gmcpt_C1_3st_diab_mode9_-0.05_mode7_+0.05.F88.001
-rw-r--r-- 1 bjb2chen nooijen     200 Jan 25 17:20 /home/bjb2chen/gmsscr//H2Ocat_cct_gmcpt_C1_3st_diab_mode9_-0.05_mode7_+0.05.F89
-rw-r--r-- 1 bjb2chen nooijen     200 Jan 25 17:20 /home/bjb2chen/gmsscr//H2Ocat_cct_gmcpt_C1_3st_diab_mode9_-0.05_mode7_+0.05.F89.001
-rw-r--r-- 1 bjb2chen nooijen       0 Jan 25 17:20 /home/bjb2chen/gmsscr//H2Ocat_cct_gmcpt_C1_3st_diab_mode9_-0.05_mode7_+0.05.F90
-rw-r--r-- 1 bjb2chen nooijen       0 Jan 25 17:20 /home/bjb2chen/gmsscr//H2Ocat_cct_gmcpt_C1_3st_diab_mode9_-0.05_mode7_+0.05.F90.001
-rw-r--r-- 1 bjb2chen nooijen    5560 Jan 25 17:20 /home/bjb2chen/gmsscr//H2Ocat_cct_gmcpt_C1_3st_diab_mode9_-0.05_mode7_+0.05.F91
-rw-r--r-- 1 bjb2chen nooijen    5560 Jan 25 17:20 /home/bjb2chen/gmsscr//H2Ocat_cct_gmcpt_C1_3st_diab_mode9_-0.05_mode7_+0.05.F91.001
-rw-r--r-- 1 bjb2chen nooijen    7128 Jan 25 17:20 /home/bjb2chen/gmsscr//H2Ocat_cct_gmcpt_C1_3st_diab_mode9_-0.05_mode7_+0.05.F92
-rw-r--r-- 1 bjb2chen nooijen    7128 Jan 25 17:20 /home/bjb2chen/gmsscr//H2Ocat_cct_gmcpt_C1_3st_diab_mode9_-0.05_mode7_+0.05.F92.001
-rw-r--r-- 1 bjb2chen nooijen    5560 Jan 25 17:20 /home/bjb2chen/gmsscr//H2Ocat_cct_gmcpt_C1_3st_diab_mode9_-0.05_mode7_+0.05.F93
-rw-r--r-- 1 bjb2chen nooijen    5560 Jan 25 17:20 /home/bjb2chen/gmsscr//H2Ocat_cct_gmcpt_C1_3st_diab_mode9_-0.05_mode7_+0.05.F93.001
-rw-r--r-- 1 bjb2chen nooijen    3880 Jan 25 17:20 /home/bjb2chen/gmsscr//H2Ocat_cct_gmcpt_C1_3st_diab_mode9_-0.05_mode7_+0.05.F94
-rw-r--r-- 1 bjb2chen nooijen    3880 Jan 25 17:20 /home/bjb2chen/gmsscr//H2Ocat_cct_gmcpt_C1_3st_diab_mode9_-0.05_mode7_+0.05.F94.001
-rw-r--r-- 1 bjb2chen nooijen    1640 Jan 25 17:20 /home/bjb2chen/gmsscr//H2Ocat_cct_gmcpt_C1_3st_diab_mode9_-0.05_mode7_+0.05.F95
-rw-r--r-- 1 bjb2chen nooijen    1640 Jan 25 17:20 /home/bjb2chen/gmsscr//H2Ocat_cct_gmcpt_C1_3st_diab_mode9_-0.05_mode7_+0.05.F95.001
-rw-r--r-- 1 bjb2chen nooijen    7240 Jan 25 17:20 /home/bjb2chen/gmsscr//H2Ocat_cct_gmcpt_C1_3st_diab_mode9_-0.05_mode7_+0.05.F96
-rw-r--r-- 1 bjb2chen nooijen    7240 Jan 25 17:20 /home/bjb2chen/gmsscr//H2Ocat_cct_gmcpt_C1_3st_diab_mode9_-0.05_mode7_+0.05.F96.001
-rw-r--r-- 1 bjb2chen nooijen     872 Jan 25 17:20 /home/bjb2chen/gmsscr//H2Ocat_cct_gmcpt_C1_3st_diab_mode9_-0.05_mode7_+0.05.F97
-rw-r--r-- 1 bjb2chen nooijen     872 Jan 25 17:20 /home/bjb2chen/gmsscr//H2Ocat_cct_gmcpt_C1_3st_diab_mode9_-0.05_mode7_+0.05.F97.001
-rw-r--r-- 1 bjb2chen nooijen    2408 Jan 25 17:20 /home/bjb2chen/gmsscr//H2Ocat_cct_gmcpt_C1_3st_diab_mode9_-0.05_mode7_+0.05.F98
-rw-r--r-- 1 bjb2chen nooijen    2408 Jan 25 17:20 /home/bjb2chen/gmsscr//H2Ocat_cct_gmcpt_C1_3st_diab_mode9_-0.05_mode7_+0.05.F98.001
-rw-r--r-- 1 bjb2chen nooijen    6024 Jan 25 17:20 /home/bjb2chen/gmsscr//H2Ocat_cct_gmcpt_C1_3st_diab_mode9_-0.05_mode7_+0.05.F99
-rw-r--r-- 1 bjb2chen nooijen    6024 Jan 25 17:20 /home/bjb2chen/gmsscr//H2Ocat_cct_gmcpt_C1_3st_diab_mode9_-0.05_mode7_+0.05.F99.001
ls: No match.
ls: No match.
ls: No match.
Thu 25 Jan 2024 05:20:34 PM EST
0.381u 0.268s 0:10.88 5.8%	0+0k 40+248io 0pf+0w
