----- GAMESS execution script 'rungms' -----
This job is running on host io002
under operating system Linux at Thu 25 Jan 2024 05:20:23 PM EST
Available scratch disk space (Kbyte units) at beginning of the job is
Filesystem             1K-blocks       Used Available Use% Mounted on
helmholtz.nlogn:/home 6391504896 5248412672 820954112  87% /home
GAMESS temporary binary files will be written to /home/bjb2chen/gmsscr/
GAMESS supplementary output files will be written to /home/bjb2chen/gamess/vibronics/template_examples/H2O
Copying input file H2Ocat_cct_gmcpt_C1_3st_diab_mode8_-0.05x2.inp to your run's scratch directory...
cp H2Ocat_cct_gmcpt_C1_3st_diab_mode8_-0.05x2.inp /home/bjb2chen/gmsscr//H2Ocat_cct_gmcpt_C1_3st_diab_mode8_-0.05x2.F05
unset echo
 
Assuming a single but multicore node.
 
/home/bjb2chen/gamess/ddikick.x /home/bjb2chen/gamess/gamess.00.x H2Ocat_cct_gmcpt_C1_3st_diab_mode8_-0.05x2 -ddi 1 2 io002:cpus=2 -scr /home/bjb2chen/gmsscr/

 Distributed Data Interface kickoff program.
 Initiating 2 compute processes on 1 nodes to run the following command:
 /home/bjb2chen/gamess/gamess.00.x H2Ocat_cct_gmcpt_C1_3st_diab_mode8_-0.05x2 

          ******************************************************
          *         GAMESS VERSION = 02 AUG 2018 (R2)         *
          *             FROM IOWA STATE UNIVERSITY             *
          * M.W.SCHMIDT, K.K.BALDRIDGE, J.A.BOATZ, S.T.ELBERT, *
          *   M.S.GORDON, J.H.JENSEN, S.KOSEKI, N.MATSUNAGA,   *
          *          K.A.NGUYEN, S.J.SU, T.L.WINDUS,           *
          *       TOGETHER WITH M.DUPUIS, J.A.MONTGOMERY       *
          *         J.COMPUT.CHEM.  14, 1347-1363(1993)        *
          **************** 64 BIT LINUX VERSION ****************

  SINCE 1993, STUDENTS AND POSTDOCS WORKING AT IOWA STATE UNIVERSITY
  AND ALSO IN THEIR VARIOUS JOBS AFTER LEAVING ISU HAVE MADE IMPORTANT
  CONTRIBUTIONS TO THE CODE:
     IVANA ADAMOVIC, CHRISTINE AIKENS, YURI ALEXEEV, POOJA ARORA,
     ANDREY ASADCHEV, ROB BELL, PRADIPTA BANDYOPADHYAY, JONATHAN BENTZ,
     BRETT BODE, KURT BRORSEN, CALEB CARLIN, GALINA CHABAN, WEI CHEN,
     CHEOL HO CHOI, PAUL DAY, ALBERT DEFUSCO, NUWAN DESILVA, TIM DUDLEY,
     DMITRI FEDOROV, ALEX FINDLATER, GRAHAM FLETCHER, MARK FREITAG,
     KURT GLAESEMANN, ANASTASIA GUININA,
     DAN KEMP, GRANT MERRILL, NORIYUKI MINEZAWA, JONATHAN MULLIN,
     TAKESHI NAGATA, SEAN NEDD, HEATHER NETZLOFF, BOSILJKA NJEGIC, RYAN OLSON,
     MIKE PAK, BUU PHAM,
     SPENCER PRUITT, LUKE ROSKOP, JIM SHOEMAKER, LYUDMILA SLIPCHENKO,
     TONY SMITH, SAROM SOK LEANG, JIE SONG, TETSUYA TAKETSUGU, SIMON WEBB,
     PENG XU, SOOHAENG YOO, FEDERICO ZAHARIEV

  ADDITIONAL CODE HAS BEEN PROVIDED BY COLLABORATORS IN OTHER GROUPS:
     IOWA STATE UNIVERSITY:
          JOE IVANIC, AARON WEST, LAIMUTIS BYTAUTAS, KLAUS RUEDENBERG
     UNIVERSITY OF TOKYO: KIMIHIKO HIRAO, TAKAHITO NAKAJIMA,
          TAKAO TSUNEDA, MUNEAKI KAMIYA, SUSUMU YANAGISAWA,
          KIYOSHI YAGI, MAHITO CHIBA, SEIKEN TOKURA, NAOAKI KAWAKAMI
     UNIVERSITY OF AARHUS: FRANK JENSEN
     UNIVERSITY OF IOWA: VISVALDAS KAIRYS, HUI LI
     NATIONAL INST. OF STANDARDS AND TECHNOLOGY: WALT STEVENS, DAVID GARMER
     UNIVERSITY OF PISA: BENEDETTA MENNUCCI, JACOPO TOMASI
     UNIVERSITY OF MEMPHIS: HENRY KURTZ, PRAKASHAN KORAMBATH
     UNIVERSITY OF ALBERTA: TOBY ZENG, MARIUSZ KLOBUKOWSKI
     UNIVERSITY OF NEW ENGLAND: MARK SPACKMAN
     MIE UNIVERSITY: HIROAKI UMEDA
     NAT. INST. OF ADVANCED INDUSTRIAL SCIENCE AND TECHNOLOGY: KAZUO KITAURA
     MICHIGAN STATE UNIVERSITY:
          KAROL KOWALSKI, MARTA WLOCH, JEFFREY GOUR, JESSE LUTZ,
          WEI LI, JUN SHEN, J. EMILIANO DEUSTUA, PIOTR PIECUCH
     UNIVERSITY OF MINNESOTA:
          YINAN SHU
     UNIVERSITY OF SILESIA: MONIKA MUSIAL, STANISLAW KUCHARSKI
     FACULTES UNIVERSITAIRES NOTRE-DAME DE LA PAIX:
          OLIVIER QUINET, BENOIT CHAMPAGNE
     UNIVERSITY OF CALIFORNIA - SANTA BARBARA: BERNARD KIRTMAN
     INSTITUTE FOR MOLECULAR SCIENCE:
          KAZUYA ISHIMURA, MICHIO KATOUDA, AND SHIGERU NAGASE
     UNIVERSITY OF NOTRE DAME: ANNA POMOGAEVA, DAN CHIPMAN
     KYUSHU UNIVERSITY:
          HARUYUKI NAKANO,
          FENG LONG GU, JACEK KORCHOWIEC, MARCIN MAKOWSKI, AND YURIKO AOKI,
          HIROTOSHI MORI AND EISAKU MIYOSHI
     PENNSYLVANIA STATE UNIVERSITY:
          TZVETELIN IORDANOV, CHET SWALINA, JONATHAN SKONE,
          SHARON HAMMES-SCHIFFER
     WASEDA UNIVERSITY:
          MASATO KOBAYASHI, TOMOKO AKAMA, TSUGUKI TOUMA,
          TAKESHI YOSHIKAWA, YASUHIRO IKABATA, JUNJI SEINO,
          YUYA NAKAJIMA, HIROMI NAKAI
     NANJING UNIVERSITY: SHUHUA LI
     UNIVERSITY OF NEBRASKA:
          PEIFENG SU, DEJUN SI, NANDUN THELLAMUREGE, YALI WANG, HUI LI
     UNIVERSITY OF ZURICH: ROBERTO PEVERATI, KIM BALDRIDGE
     N. COPERNICUS UNIVERSITY AND JACKSON STATE UNIVERSITY:
          MARIA BARYSZ
     UNIVERSITY OF COPENHAGEN: Jimmy Kromann, CASPER STEINMANN
     TOKYO INSTITUTE OF TECHNOLOGY: HIROYA NAKATA
     NAGOYA UNIVERSITY: YOSHIO NISHIMOTO, STEPHAN IRLE
     MOSCOW STATE UNIVERSITY: VLADIMIR MIRONOV


 PARALLEL VERSION RUNNING ON        2 PROCESSORS IN        1 NODES.

 EXECUTION OF GAMESS BEGUN Thu Jan 25 17:20:24 2024

            ECHO OF THE FIRST FEW INPUT CARDS -
 INPUT CARD> !############################################################################# 
 INPUT CARD> !                   D_3h RHF GEOMETRY OPTIMIZATION AND HESSIAN TEMPLATE        
 INPUT CARD> ! ---------------------------------------------------------------------------  
 INPUT CARD> ! Replace the symmetry-correct coordinates, should only be two atoms.          
 INPUT CARD> ! The hydrogen or fluorine should have only one non-zero x,y,z coordinate.     
 INPUT CARD> !                                                                              
 INPUT CARD> ! Basis set?   gbasis=ccd for 2nd row,                                         
 INPUT CARD> !                         cct 3rd/4th,                                         
 INPUT CARD> !                   SPKrTZP for heavy,                                         
 INPUT CARD> !                   SPKrTZC beyond 4th                                         
 INPUT CARD> !                                                                              
 INPUT CARD> !############################################################################# 
 INPUT CARD> $system kdiag=3 mwords=250 memddi=8000 parall=.t. $end                         
 INPUT CARD> $contrl runtyp=energy ispher=1 $end                                            
 INPUT CARD> $contrl icut=9 itol=20 inttyp=rysquad qmttol=1.0d-05 nosym=1 $end              
 INPUT CARD> $contrl scftyp=mcscf  mult=2 maxit=200 icharg=1 mplevl=2 $end                  
 INPUT CARD> $scf    npunch=2 conv=1.0d-06 dirscf=.t. $end                                  
 INPUT CARD> $force  method=seminum $end                                                    
 INPUT CARD> $trans  dirtrf=.t. $end                                                        
 INPUT CARD> $statpt hssend=.t. $end                                                        
 INPUT CARD> $basis  gbasis=ccd $end                                                        
 INPUT CARD> !############################################################################# 
 INPUT CARD> !                                                                              
 INPUT CARD> !                       TURN ON THIS SECTION IF HEAVY ATOM                     
 INPUT CARD> !                                                                              
 INPUT CARD> !############################################################################# 
 INPUT CARD> !                                                                              
 INPUT CARD> -contrl relwfn=LUT-IOTC $end                                                   
 INPUT CARD> -scf  diis=.t. soscf=.f. ethrsh=10.0 $end                                      
 INPUT CARD> -guess iorder(25)=27,25,26 $end                                                
 INPUT CARD> -gmcpt nsolut=100 $end                                                         
 INPUT CARD> !                                                                              
 INPUT CARD> !############################################################################# 
 INPUT CARD> !                                                                              
 INPUT CARD> !       TURN ON THIS SECTION IF GMCPT, CHANGE runtyp=energy, scftyp=mcscf      
 INPUT CARD> !                                                                              
 INPUT CARD> !############################################################################# 
 INPUT CARD> $guess  guess=moread norb=24 purify=.t. norder=1 $end                          
 INPUT CARD> $mcscf  cistep=gmcci fullnr=.t. finci=mos                                      
 INPUT CARD>         acurcy=1.d-6 maxit=100 $end                                            
 INPUT CARD> $mrmp   mrpt=gmcpt rdvecs=.f. $end                                             
 INPUT CARD> $gmcpt  nmofzc=0 nmodoc=1 nmoact=6 nelact=7 stsym(1)=A                         
 INPUT CARD>         reftyp=ormas nspace=1 mstart(1)=2 mine(1)=7 maxe(1)=7                  
 INPUT CARD>         kstate(1)=1,1,1                                                        
 INPUT CARD>         wstate(1)=1,1,1                                                        
 INPUT CARD>         iwgt=0 thrwgt=-1.0 krot=.f. kszdoe=.f. knospn=.f.                      
 INPUT CARD>         thrde=-1.0 edshft=0.02 $end                                            
 INPUT CARD> !if SOC: transt $end, add knospn=.t.                                           
 INPUT CARD> !############################################################################# 
 INPUT CARD> !                                                                              
  250000000 WORDS OF MEMORY AVAILABLE

     BASIS OPTIONS
     -------------
     GBASIS=CCD          IGAUSS=       0      POLAR=NONE    
     NDFUNC=       0     NFFUNC=       0     DIFFSP=       F
     NPFUNC=       0      DIFFS=       F     BASNAM=        


     RUN TITLE
     ---------
  H2O cation diabatization 3 states                                              

 THE POINT GROUP OF THE MOLECULE IS C1      
 THE ORDER OF THE PRINCIPAL AXIS IS     0

 ATOM      ATOMIC                      COORDINATES (BOHR)
           CHARGE         X                   Y                   Z
 O           8.0     0.0000000000        0.0000000000       -0.0801746022
 H           1.0     1.5210379678        0.0000000004        1.0319884037
 H           1.0    -1.5210379683       -0.0000000004        1.0319884041

          INTERNUCLEAR DISTANCES (ANGS.)
          ------------------------------

                1 O          2 H          3 H     

   1 O       0.0000000    0.9971114 *  0.9971114 *
   2 H       0.9971114 *  0.0000000    1.6097974 *
   3 H       0.9971114 *  1.6097974 *  0.0000000  

  * ... LESS THAN  3.000


     ATOMIC BASIS SET
     ----------------
 THE CONTRACTED PRIMITIVE FUNCTIONS HAVE BEEN UNNORMALIZED
 THE CONTRACTED BASIS FUNCTIONS ARE NOW NORMALIZED TO UNITY

  SHELL TYPE  PRIMITIVE        EXPONENT          CONTRACTION COEFFICIENT(S)

 O         

      1   S       1         11720.0000000    0.000709645947
      1   S       2          1759.0000000    0.005467272292
      1   S       3           400.8000000    0.027823118610
      1   S       4           113.7000000    0.104747739711
      1   S       5            37.0300000    0.282920846357
      1   S       6            13.2700000    0.448495238698
      1   S       7             5.0250000    0.270816885213
      1   S       8             1.0130000    0.015450291607

      2   S       9         11720.0000000   -0.000314443412
      2   S      10          1759.0000000   -0.002482137681
      2   S      11           400.8000000   -0.012316355382
      2   S      12           113.7000000   -0.050538917344
      2   S      13            37.0300000   -0.139384903316
      2   S      14            13.2700000   -0.325077494818
      2   S      15             5.0250000   -0.229848307588
      2   S      16             1.0130000    1.095379346788

      3   S      17             0.3023000    1.000000000000

      4   P      18            17.7000000    0.062679166282
      4   P      19             3.8540000    0.333536565879
      4   P      20             1.0460000    0.741239641640

      5   P      21             0.2753000    1.000000000000

      6   D      22             1.1850000    1.000000000000

 H         

      7   S      23            13.0100000    0.033498726390
      7   S      24             1.9620000    0.234800801174
      7   S      25             0.4446000    0.813682957883

      8   S      26             0.1220000    1.000000000000

      9   P      27             0.7270000    1.000000000000

 H         

     10   S      28            13.0100000    0.033498726390
     10   S      29             1.9620000    0.234800801174
     10   S      30             0.4446000    0.813682957883

     11   S      31             0.1220000    1.000000000000

     12   P      32             0.7270000    1.000000000000

 TOTAL NUMBER OF BASIS SET SHELLS             =   12
 NUMBER OF CARTESIAN GAUSSIAN BASIS FUNCTIONS =   25
 NOTE: THIS RUN WILL RESTRICT THE MO VARIATION SPACE TO SPHERICAL HARMONICS.
 THE NUMBER OF ORBITALS KEPT IN THE VARIATIONAL SPACE WILL BE PRINTED LATER.
 NUMBER OF ELECTRONS                          =    9
 CHARGE OF MOLECULE                           =    1
 SPIN MULTIPLICITY                            =    2
 NUMBER OF OCCUPIED ORBITALS (ALPHA)          =    5
 NUMBER OF OCCUPIED ORBITALS (BETA )          =    4
 TOTAL NUMBER OF ATOMS                        =    3
 THE NUCLEAR REPULSION ENERGY IS        8.8200873938

     $CONTRL OPTIONS
     ---------------
 SCFTYP=MCSCF        RUNTYP=ENERGY       EXETYP=RUN     
 MPLEVL=       2     CITYP =NONE         CCTYP =NONE         VBTYP =NONE    
 DFTTYP=NONE         TDDFT =NONE    
 MULT  =       2     ICHARG=       1     NZVAR =       0     COORD =UNIQUE  
 PP    =NONE         RELWFN=NONE         LOCAL =NONE         NUMGRD=       F
 ISPHER=       1     NOSYM =       1     MAXIT =     200     UNITS =ANGS    
 PLTORB=       F     MOLPLT=       F     AIMPAC=       F     FRIEND=        
 NPRINT=       7     IREST =       0     GEOM  =INPUT   
 NORMF =       0     NORMP =       0     ITOL  =      20     ICUT  =       9
 INTTYP=RYSQUAD      GRDTYP=BEST         QMTTOL= 1.0E-05

     $SYSTEM OPTIONS
     ---------------
  REPLICATED MEMORY=   250000000 WORDS (ON EVERY NODE).
 DISTRIBUTED MEMDDI=        8000 MILLION WORDS IN AGGREGATE,
 MEMDDI DISTRIBUTED OVER   2 PROCESSORS IS  4000000000 WORDS/PROCESSOR.
 TOTAL MEMORY REQUESTED ON EACH PROCESSOR=  4250000000 WORDS.
 TIMLIM=      525600.00 MINUTES, OR     365.0 DAYS.
 PARALL= T  BALTYP=  DLB     KDIAG=    3  COREFL= F
 MXSEQ2=     300 MXSEQ3=     150  mem10=         0

          ----------------
          PROPERTIES INPUT
          ----------------

     MOMENTS            FIELD           POTENTIAL          DENSITY
 IEMOM =       1   IEFLD =       0   IEPOT =       0   IEDEN =       0
 WHERE =COMASS     WHERE =NUCLEI     WHERE =NUCLEI     WHERE =NUCLEI  
 OUTPUT=BOTH       OUTPUT=BOTH       OUTPUT=BOTH       OUTPUT=BOTH    
 IEMINT=       0   IEFINT=       0                     IEDINT=       0
                                                       MORB  =       0

     -------------------------------
     INTEGRAL TRANSFORMATION OPTIONS
     -------------------------------
     NWORD  =            0
     CUTOFF = 1.0E-09     MPTRAN =       0
     DIRTRF =       T     AOINTS =DUP     

          ----------------------
          MCSCF INPUT PARAMETERS
          ----------------------
 CONVERGER SELECTION: FOCAS = F  SOSCF = F  FULLNR = T  QUD = F  JACOBI = F
 SECULAR EQUATION METHOD CISTEP = GMCCI   
 --- GENERAL INPUT OPTIONS:
 MAXIT =     100  MICIT =       1  ACURCY= 1.000E-06
 DAMP  =   0.000  CANONC=       T  ENGTOL= 1.000E-10
 EKT   =       F  NPUNCH=       2  NWORD =         0
 REGENERATE CI AFTER CONVERGENCE = NONE    
 DIABATIZATION AFTER CONVERGENCE =        F
 --- INPUT FOR FULLNR CONVERGER:
 METHOD=DM2       FORS  =       F  DROPC =       T
 LINSER=       F  FCORE =       F  NORB  =      25

          ----------------------
          INTEGRAL INPUT OPTIONS
          ----------------------
 NOPK  =       1 NORDER=       0 SCHWRZ=       T

 ------------------------------------------
 MULTIREFERENCE PERTURBATION THEORY CONTROL
 ------------------------------------------
 MRPT=GMCPT    READ CONVERGED MCSCF VECTORS= F


     ------------------------------------------
     THE POINT GROUP IS C1 , NAXIS= 1, ORDER= 1
     ------------------------------------------

 -- VARIATIONAL SPACE WILL BE RESTRICTED TO PURE SPHERICAL HARMONICS ONLY --
 AFTER EXCLUDING CONTAMINANT COMBINATIONS FROM THE CARTESIAN GAUSSIAN BASIS
 SET, THE NUMBER OF SPHERICAL HARMONICS KEPT IN THE VARIATION SPACE IS   24

     DIMENSIONS OF THE SYMMETRY SUBSPACES ARE
 A   =   24

 ..... DONE SETTING UP THE RUN .....
 CPU     0: STEP CPU TIME=     0.04 TOTAL CPU TIME=          0.0 (      0.0 MIN)
 TOTAL WALL CLOCK TIME=          0.3 SECONDS, CPU UTILIZATION IS    14.29%

          ********************
          1 ELECTRON INTEGRALS
          ********************
 TIME TO DO   DIPOLE INTEGRALS=      0.00
 ...... END OF ONE-ELECTRON INTEGRALS ......
 CPU     0: STEP CPU TIME=     0.00 TOTAL CPU TIME=          0.0 (      0.0 MIN)
 TOTAL WALL CLOCK TIME=          0.3 SECONDS, CPU UTILIZATION IS    14.29%

          -------------
          GUESS OPTIONS
          -------------
          GUESS =MOREAD            NORB  =      24          NORDER=       1
          MIX   =       F          PRTMO =       F          PUNMO =       F
          TOLZ  = 1.0E-08          TOLE  = 1.0E-05
          SYMDEN=       F          PURIFY=       T

 INITIAL GUESS ORBITALS GENERATED BY MOREAD   ROUTINE.

 STATISTICS FOR GENERATION OF SYMMETRY ORBITAL -Q- MATRIX
 NUMBER OF CARTESIAN ATOMIC ORBITALS=         25
 NUMBER OF SPHERICAL CONTAMINANTS DROPPED=     1
 NUMBER OF LINEARLY DEPENDENT MOS DROPPED=     0
 TOTAL NUMBER OF MOS IN VARIATION SPACE=      24
 ORBITAL PURIFICATION WILL OCCUR

 SYMMETRIES FOR INITIAL GUESS ORBITALS FOLLOW.   BOTH SET(S).
     5 ORBITALS ARE OCCUPIED (    1 CORE ORBITALS).
     1=A        2=A        3=A        4=A        5=A        6=A        7=A   
     8=A        9=A       10=A       11=A       12=A       13=A       14=A   
    15=A       16=A       17=A       18=A       19=A       20=A       21=A   
    22=A       23=A       24=A   
 ...... END OF INITIAL ORBITAL SELECTION ......
 CPU     0: STEP CPU TIME=     0.00 TOTAL CPU TIME=          0.0 (      0.0 MIN)
 TOTAL WALL CLOCK TIME=          0.3 SECONDS, CPU UTILIZATION IS    13.79%

                    ----------------------
                    AO INTEGRAL TECHNOLOGY
                    ----------------------
     S,P,L SHELL ROTATED AXIS INTEGRALS, REPROGRAMMED BY
        KAZUYA ISHIMURA (IMS) AND JOSE SIERRA (SYNSTAR).
     S,P,D,L SHELL ROTATED AXIS INTEGRALS PROGRAMMED BY
        KAZUYA ISHIMURA (INSTITUTE FOR MOLECULAR SCIENCE).
     S,P,D,F,G SHELL TO TOTAL QUARTET ANGULAR MOMENTUM SUM 5,
        ERIC PROGRAM BY GRAHAM FLETCHER (ELORET AND NASA ADVANCED
        SUPERCOMPUTING DIVISION, AMES RESEARCH CENTER).
     S,P,D,F,G,L SHELL GENERAL RYS QUADRATURE PROGRAMMED BY
        MICHEL DUPUIS (PACIFIC NORTHWEST NATIONAL LABORATORY).

          --------------------
          2 ELECTRON INTEGRALS
          --------------------

 DIRECT SCF METHOD SKIPS INTEGRAL STORAGE ON DISK.
 DIRECT TRANSFORMATION SKIPS AO INTEGRAL STORAGE ON DISK.
  ...... END OF TWO-ELECTRON INTEGRALS .....
 STEP CPU TIME =     0.03 TOTAL CPU TIME =          0.1 (      0.0 MIN)
 TOTAL WALL CLOCK TIME=          0.3 SECONDS, CPU UTILIZATION IS    22.58%
 DDI: Creating Array [0] - 625 x 28 = 17500 words.
 DDI: Creating Array [1] - 17 x 196 = 3332 words.
 DDI: Creating Array [2] - 28 x 28 = 784 words.
 DDI: Creating Array [3] - 325 x 28 = 9100 words.

          -----------------
          MCSCF CALCULATION
          -----------------

 ----- NUCLEAR ENERGY ----- =         8.8200873938

     -------------------------------------------------
     GMC-PT/GMC-QDPT or general MCSCF input parameters
     -------------------------------------------------
 # of frozen core orbs. =         0 ->         0
 # of doubly occ. orbs. =         1
 # of active      orbs. =         6
 # of virtual     orbs. =        17
 # of active electrons  =         7
 # of states in CI      =         3
 Highest state in CI    =         3
 kstate =  1 1 1
 avecoe =  0.333 0.333 0.333
 State symmetry           = A           
 Assigned symmetry number = 1

 <<<Act. MO sym.: 111111

 <<<Division of 1-ext.:  0 0
 <<<Division of 2-ext.:  0 1

 *** Reference space

 Reference type: ORMAS (= Occupation restricted multiple active space)
 # of orbitals          =  6
 # of minimum electrons =  7
 # of maximum electrons =  7
 State symmetry    =    1 (input)
 2*Sz              =    1 (input)
 Spin multiplicity =    2 (input)
 Dimension of reference space =       300  (from       792 walks)

 Dimension of reference space =       300  (from       300 walks)

 <<<Ionized spaces for Ref-CI:
      0:          300 /   -1-0:          625 /  0-1-0:          690

 EVALUATING EXCHANGE INTEGRALS FOR DIRECT INTEGRAL TRANSFORMATION
 SCHWARZ INEQUALITY OVERHEAD:       325 INTEGRALS, T=        0.00

     --------------------------------------------
     PARTIAL TWO ELECTRON INTEGRAL TRANSFORMATION
     --------------------------------------------

 NUMBER OF CORE MOLECULAR ORBITALS     =    1
 NUMBER OF OCCUPIED MOLECULAR ORBITALS =    7
 TOTAL NUMBER OF MOLECULAR ORBITALS    =   24
 TOTAL NUMBER OF ATOMIC ORBITALS       =   25
 THRESHOLD FOR KEEPING TRANSFORMED 2E- INTEGRALS = 1.000E-09

 -------------------------------     ------------------------------
 DISTRIBUTED DATA TRANSFORMATION     PROGRAM WRITTEN BY G. FLETCHER
 -------------------------------     ------------------------------

 THE DISTRIBUTED MEMORY REQUIRED FOR THIS STEP IS MEMDDI=         1 MWORDS
 CREATING DISTRIBUTED STORAGE FOR [VIR OCC|VIR OCC] INTEGRALS
 CREATING DISTRIBUTED STORAGE FOR [VIR OCC|OCC OCC] INTEGRALS
 CREATING DISTRIBUTED STORAGE FOR [OCC OCC|OCC OCC] INTEGRALS
 CREATING DISTRIBUTED STORAGE FOR [VIR VIR|OCC OCC] INTEGRALS
 FOR    2 PROCESSORS, THE REPLICATED MEMORY NEEDED IS       62207 WORDS.
 SCHWARZ INEQUALITY OVERHEAD:       325 INTEGRALS, T=        0.00

      DIRECT 4-INDEX TRANSFORMATION 
      SCHWARZ INEQUALITY TEST SKIPPED          0 INTEGRAL BLOCKS
 ----- FROZEN CORE ENERGY =       -61.2298838001
 ... END OF INTEGRAL TRANSFORMATION ...
 CPU     0: STEP CPU TIME=     0.06 TOTAL CPU TIME=          0.1 (      0.0 MIN)
 TOTAL WALL CLOCK TIME=          0.4 SECONDS, CPU UTILIZATION IS    33.33%

     --------------------------------     -----------------------------
     MCHF NEWTON-RAPHSON OPTIMIZATION     CODE WRITTEN BY MICHEL DUPUIS
     --------------------------------     -----------------------------
     PARALLEL VERSION WRITTEN BY G. FLETCHER (ELORET)
     NASA ADVANCED SUPERCOMPUTING DIVISION, AMES RESEARCH CENTER

 NUMBER OF INDEPENDENT ORBITAL ROTATION PARAMETERS =    44
 ..... DONE SOLVING NEWTON-RAPHSON EQUATIONS .....
 CPU     0: STEP CPU TIME=     0.06 TOTAL CPU TIME=          0.2 (      0.0 MIN)
 TOTAL WALL CLOCK TIME=          0.5 SECONDS, CPU UTILIZATION IS    38.78%
 ..... DONE WITH NTN-RPH ORBITAL ROTATIONS ..... 
 CPU     0: STEP CPU TIME=     0.00 TOTAL CPU TIME=          0.2 (      0.0 MIN)
 TOTAL WALL CLOCK TIME=          0.5 SECONDS, CPU UTILIZATION IS    38.78%
 MAXIMUM MEMORY USED BY NTN-RPH CODE WAS     51289 WORDS.

 ITER     TOTAL ENERGY      DEL(E)  LAGRANGIAN ASYMMETRY   SQCDF  MICIT   DAMP
   1      -75.567508430 -0.567508430  0.004659   16    2 2.447E-05  1   0.0000
   2      -75.567534909 -0.000026479  0.000114   11    3 3.543E-07  1   0.0000
   3      -75.567534952 -0.000000043  0.000025   12    5 3.680E-08  1   0.0000
   4      -75.567534955 -0.000000003  0.000006   12    5 5.308E-09  1   0.0000
   5      -75.567534955 -0.000000000  0.000002   12    5 8.137E-10  1   0.0000
   6      -75.567534955 -0.000000000  0.000000   18    2 1.279E-10  1   0.0000

          --------------------
          LAGRANGIAN CONVERGED
          --------------------

 FINAL MCSCF ENERGY IS      -75.5675349552 AFTER   6 ITERATIONS

 -MCCI- BASED ON OPTIMIZED ORBITALS
 ----------------------------------

 PLEASE NOTE: IF THE ACTIVE ORBITALS ARE CANONICALIZED BELOW,
 THE FOLLOWING CI EXPANSION COEFFICIENTS AND THE DENSITY DO NOT
 CORRESPOND TO THE PRINTED ORBITALS.  THE PRINTED EXPANSIONS MATCH
 THE ORBITALS USED DURING THE LAST ITERATION.  IF YOU WISH TO SEE
 CI EXPANSIONS BASED ON THE CANONICAL (OR NATURAL) ORBITALS, YOU
 MUST RUN A CI CALCULATION WITH THAT ORBITAL CHOICE READ IN $VEC.

 Averaged energy =     -75.567534955

 State #    1  Energy =     -75.682263004  S =  0.500

      Det      Coef    Occupancy (Ignoring core)
      ---      ----    --------- --------- -----
        1   -0.987242  111100111000
      173   -0.075275  101101101001

 State #    2  Energy =     -75.592911099  S =  0.500

      Det      Coef    Occupancy (Ignoring core)
      ---      ----    --------- --------- -----
       16   -0.988999  111100110100
      203   -0.076610  101101100101

 State #    3  Energy =     -75.427430763  S =  0.500

      Det      Coef    Occupancy (Ignoring core)
      ---      ----    --------- --------- -----
       31   -0.990960  111100101100

 DENSITY MATRIX OVER ACTIVE MO-S

             1           2           3           4           5

    1    1.9897295
    2    0.0000000   1.6508225
    3    0.0077760   0.0000000   1.6565319
    4   -0.0000000   0.0000000  -0.0000000   1.6655845
    5   -0.0059444  -0.0000000   0.0165141  -0.0000000   0.0180610
    6   -0.0000000   0.0201999   0.0000000  -0.0000000  -0.0000000

             6

    6    0.0192706

 FORMING THE "STANDARD FOCK OPERATOR" IN DIRECT AO INTEGRAL MODE...
 ONLY THE    1 CORE AND   17 VIRTUAL ORBITALS WILL BE CANONICALIZED

          ----------------------
          MCSCF NATURAL ORBITALS
          ----------------------

                      1          2          3          4          5
                  -21.0909     1.9899     1.6656     1.6565     1.6511
                     A          A          A          A          A   
    1  O  1  S    1.000789   0.015140  -0.000000  -0.007472   0.000000
    2  O  1  S   -0.003296   0.481885  -0.000000  -0.170530   0.000000
    3  O  1  S   -0.006683   0.382196  -0.000000  -0.295436   0.000000
    4  O  1  X   -0.000000   0.000000  -0.000000   0.000000   0.548516
    5  O  1  Y   -0.000000  -0.000000   0.693089   0.000000   0.000000
    6  O  1  Z    0.000437   0.093790  -0.000000   0.608727  -0.000000
    7  O  1  X   -0.000000  -0.000000  -0.000000   0.000000   0.217277
    8  O  1  Y   -0.000000  -0.000000   0.430882   0.000000   0.000000
    9  O  1  Z   -0.000566   0.006157  -0.000000   0.321485  -0.000000
   10  O  1 XX    0.000051   0.002765  -0.000000  -0.007810   0.000000
   11  O  1 YY   -0.000023  -0.004281  -0.000000  -0.009874  -0.000000
   12  O  1 ZZ   -0.000027   0.001516  -0.000000   0.017684  -0.000000
   13  O  1 XY   -0.000000  -0.000000  -0.000000  -0.000000  -0.000000
   14  O  1 XZ   -0.000000  -0.000000  -0.000000   0.000000   0.022655
   15  O  1 YZ   -0.000000  -0.000000   0.018074   0.000000   0.000000
   16  H  2  S   -0.001569   0.176452  -0.000000   0.197898   0.316337
   17  H  2  S    0.000503  -0.004814  -0.000000   0.021275   0.020404
   18  H  2  X    0.000734  -0.038900   0.000000  -0.038322  -0.031935
   19  H  2  Y   -0.000000  -0.000000   0.028768   0.000000   0.000000
   20  H  2  Z    0.000520  -0.019662   0.000000   0.004414  -0.036018
   21  H  3  S   -0.001569   0.176452   0.000000   0.197898  -0.316337
   22  H  3  S    0.000503  -0.004814   0.000000   0.021275  -0.020404
   23  H  3  X   -0.000734   0.038900   0.000000   0.038322  -0.031935
   24  H  3  Y   -0.000000  -0.000000   0.028768  -0.000000   0.000000
   25  H  3  Z    0.000520  -0.019662  -0.000000   0.004414   0.036018

                      6          7
                    0.0190     0.0179
                     A          A   
    1  O  1  S   -0.000000   0.181810
    2  O  1  S   -0.000000   0.600708
    3  O  1  S   -0.000000   0.166360
    4  O  1  X    0.876563   0.000000
    5  O  1  Y    0.000000   0.000000
    6  O  1  Z   -0.000000   0.746669
    7  O  1  X    0.025353  -0.000000
    8  O  1  Y   -0.000000   0.000000
    9  O  1  Z    0.000000  -0.092031
   10  O  1 XX   -0.000000   0.007087
   11  O  1 YY   -0.000000   0.010919
   12  O  1 ZZ    0.000000  -0.018006
   13  O  1 XY   -0.000000   0.000000
   14  O  1 XZ   -0.029366  -0.000000
   15  O  1 YZ   -0.000000   0.000000
   16  H  2  S   -0.646398  -0.625484
   17  H  2  S   -0.069710  -0.047042
   18  H  2  X    0.068457   0.119970
   19  H  2  Y   -0.000000   0.000000
   20  H  2  Z    0.048450   0.011131
   21  H  3  S    0.646398  -0.625484
   22  H  3  S    0.069710  -0.047042
   23  H  3  X    0.068457  -0.119970
   24  H  3  Y   -0.000000  -0.000000
   25  H  3  Z   -0.048450   0.011131

          ------------------------
          MCSCF OPTIMIZED ORBITALS
          ------------------------

                      1          2          3          4          5
                  -21.0909     0.0000     0.0000     0.0000     0.0000
                     A          A          A          A          A   
    1  O  1  S    1.000789   0.015864   0.000000  -0.008954   0.000000
    2  O  1  S   -0.003296   0.487536  -0.000000  -0.165369   0.000000
    3  O  1  S   -0.006683   0.389438  -0.000000  -0.288162  -0.000000
    4  O  1  X   -0.000000  -0.000000   0.537624  -0.000000  -0.000000
    5  O  1  Y   -0.000000  -0.000000   0.000000  -0.000000   0.693089
    6  O  1  Z    0.000437   0.081955   0.000000   0.603171  -0.000000
    7  O  1  X   -0.000000  -0.000000   0.216947  -0.000000  -0.000000
    8  O  1  Y   -0.000000   0.000000  -0.000000   0.000000   0.430882
    9  O  1  Z   -0.000566  -0.001567  -0.000000   0.322453  -0.000000
   10  O  1 XX    0.000051   0.002967   0.000000  -0.007815  -0.000000
   11  O  1 YY   -0.000023  -0.004018  -0.000000  -0.010080   0.000000
   12  O  1 ZZ   -0.000027   0.001051   0.000000   0.017895   0.000000
   13  O  1 XY   -0.000000   0.000000   0.000000  -0.000000   0.000000
   14  O  1 XZ   -0.000000  -0.000000   0.023017  -0.000000  -0.000000
   15  O  1 YZ   -0.000000  -0.000000   0.000000   0.000000   0.018074
   16  H  2  S   -0.001569   0.169913   0.324314   0.208237  -0.000000
   17  H  2  S    0.000503  -0.005449   0.021265   0.021632   0.000000
   18  H  2  X    0.000734  -0.037636  -0.032780  -0.040422  -0.000000
   19  H  2  Y   -0.000000   0.000000   0.000000   0.000000   0.028768
   20  H  2  Z    0.000520  -0.019725  -0.036615   0.003844  -0.000000
   21  H  3  S   -0.001569   0.169913  -0.324314   0.208237   0.000000
   22  H  3  S    0.000503  -0.005449  -0.021265   0.021632  -0.000000
   23  H  3  X   -0.000734   0.037636  -0.032780   0.040422  -0.000000
   24  H  3  Y   -0.000000  -0.000000   0.000000  -0.000000   0.028768
   25  H  3  Z    0.000520  -0.019725   0.036615   0.003844   0.000000

                      6          7          8          9         10
                    0.0000     0.0000     0.1303     0.1687     0.6592
                     A          A          A          A          A   
    1  O  1  S    0.181681   0.000000   0.097073   0.000000  -0.016459
    2  O  1  S    0.597583   0.000000   0.126669  -0.000000   0.099056
    3  O  1  S    0.162272   0.000000  -0.972721  -0.000000   0.604903
    4  O  1  X   -0.000000   0.883285  -0.000000   0.077176  -0.000000
    5  O  1  Y    0.000000   0.000000  -0.000000  -0.000000  -0.000000
    6  O  1  Z    0.752548   0.000000   0.192345   0.000000  -0.526696
    7  O  1  X   -0.000000   0.028041  -0.000000  -0.439092   0.000000
    8  O  1  Y    0.000000   0.000000  -0.000000   0.000000  -0.000000
    9  O  1  Z   -0.088777  -0.000000  -0.395083   0.000000   1.082838
   10  O  1 XX    0.007000  -0.000000  -0.047794  -0.000000  -0.065968
   11  O  1 YY    0.010830   0.000000   0.056860   0.000000   0.033142
   12  O  1 ZZ   -0.017830  -0.000000  -0.009067   0.000000   0.032826
   13  O  1 XY    0.000000   0.000000  -0.000000   0.000000  -0.000000
   14  O  1 XZ    0.000000  -0.029083  -0.000000  -0.077832  -0.000000
   15  O  1 YZ    0.000000  -0.000000  -0.000000  -0.000000  -0.000000
   16  H  2  S   -0.623937  -0.642433  -0.391769  -0.493555  -0.727600
   17  H  2  S   -0.046810  -0.069452   0.991395   1.569801   0.028327
   18  H  2  X    0.119683   0.068056  -0.103703  -0.042994  -0.085806
   19  H  2  Y    0.000000  -0.000000   0.000000   0.000000  -0.000000
   20  H  2  Z    0.011230   0.048000  -0.056799  -0.076522   0.238231
   21  H  3  S   -0.623937   0.642433  -0.391769   0.493555  -0.727600
   22  H  3  S   -0.046810   0.069452   0.991395  -1.569801   0.028327
   23  H  3  X   -0.119683   0.068056   0.103703  -0.042994   0.085806
   24  H  3  Y   -0.000000  -0.000000  -0.000000   0.000000   0.000000
   25  H  3  Z    0.011230  -0.048000  -0.056799   0.076522   0.238231

                     11         12         13         14         15
                    0.7318     0.7553     1.0348     1.0392     1.2653
                     A          A          A          A          A   
    1  O  1  S    0.000000  -0.000000   0.000000   0.281201  -0.000000
    2  O  1  S   -0.000000  -0.000000   0.000000   0.687642  -0.000000
    3  O  1  S   -0.000000  -0.000000  -0.000000  -0.697668  -0.000000
    4  O  1  X   -0.518664  -0.000000   0.000000  -0.000000  -0.000000
    5  O  1  Y    0.000000  -0.922430   0.000000   0.000000   0.066036
    6  O  1  Z    0.000000  -0.000000  -0.000000  -0.308150  -0.000000
    7  O  1  X    1.782778   0.000000   0.000000  -0.000000  -0.000000
    8  O  1  Y   -0.000000   1.012452  -0.000000   0.000000  -0.671789
    9  O  1  Z   -0.000000  -0.000000   0.000000   0.815133  -0.000000
   10  O  1 XX    0.000000  -0.000000   0.000000   0.095299  -0.000000
   11  O  1 YY   -0.000000  -0.000000   0.000000   0.038567  -0.000000
   12  O  1 ZZ   -0.000000  -0.000000  -0.000000  -0.133866  -0.000000
   13  O  1 XY   -0.000000  -0.000000  -0.153062   0.000000  -0.000000
   14  O  1 XZ   -0.028875  -0.000000   0.000000   0.000000  -0.000000
   15  O  1 YZ   -0.000000   0.003944   0.000000   0.000000   0.182131
   16  H  2  S   -0.684992  -0.000000  -0.000000  -0.220443   0.000000
   17  H  2  S   -0.602249  -0.000000   0.000000   0.199465  -0.000000
   18  H  2  X    0.219748   0.000000   0.000000   0.356649  -0.000000
   19  H  2  Y   -0.000000   0.060884  -0.674726   0.000000   0.754324
   20  H  2  Z    0.016200   0.000000  -0.000000  -0.448358  -0.000000
   21  H  3  S    0.684992   0.000000  -0.000000  -0.220443  -0.000000
   22  H  3  S    0.602249   0.000000   0.000000   0.199465   0.000000
   23  H  3  X    0.219748   0.000000  -0.000000  -0.356649  -0.000000
   24  H  3  Y   -0.000000   0.060884   0.674726  -0.000000   0.754324
   25  H  3  Z   -0.016200  -0.000000  -0.000000  -0.448358   0.000000

                     16         17         18         19         20
                    1.4192     1.4617     1.8083     1.8121     2.7378
                     A          A          A          A          A   
    1  O  1  S   -0.705633   0.000000   0.031871   0.000000   0.000000
    2  O  1  S   -1.540732   0.000000   0.166885   0.000000   0.000000
    3  O  1  S    2.628773   0.000000   1.396807   0.000000   0.000000
    4  O  1  X    0.000000  -0.102400  -0.000000   0.535513   0.000000
    5  O  1  Y   -0.000000  -0.000000  -0.000000   0.000000  -0.028585
    6  O  1  Z    0.033230  -0.000000   0.392617   0.000000   0.000000
    7  O  1  X    0.000000   0.989249  -0.000000   0.351217  -0.000000
    8  O  1  Y   -0.000000   0.000000  -0.000000  -0.000000   0.290233
    9  O  1  Z    0.896620   0.000000   0.431796   0.000000   0.000000
   10  O  1 XX   -0.023060  -0.000000  -0.120614  -0.000000   0.000000
   11  O  1 YY    0.162627   0.000000   0.186929   0.000000   0.000000
   12  O  1 ZZ   -0.139568   0.000000  -0.066314  -0.000000   0.000000
   13  O  1 XY   -0.000000   0.000000  -0.000000   0.000000  -0.000000
   14  O  1 XZ    0.000000  -0.027233   0.000000  -0.098271  -0.000000
   15  O  1 YZ   -0.000000   0.000000  -0.000000  -0.000000   1.025526
   16  H  2  S   -0.749224  -0.411170  -0.386287  -0.095404   0.000000
   17  H  2  S   -0.319730  -0.118422  -0.297506  -0.464262  -0.000000
   18  H  2  X    0.274700  -0.421949   0.822290   0.734697   0.000000
   19  H  2  Y    0.000000  -0.000000   0.000000   0.000000  -0.375301
   20  H  2  Z   -0.205659   0.687811   0.552869   0.574118   0.000000
   21  H  3  S   -0.749224   0.411170  -0.386287   0.095404  -0.000000
   22  H  3  S   -0.319730   0.118422  -0.297506   0.464262   0.000000
   23  H  3  X   -0.274700  -0.421949  -0.822290   0.734697   0.000000
   24  H  3  Y   -0.000000  -0.000000  -0.000000   0.000000  -0.375301
   25  H  3  Z   -0.205659  -0.687811   0.552869  -0.574118  -0.000000

                     21         22         23         24
                    2.8113     2.9438     3.3353     3.5799
                     A          A          A          A   
    1  O  1  S    0.000000  -0.091338  -0.219620  -0.000000
    2  O  1  S    0.000000  -0.164961  -0.355027   0.000000
    3  O  1  S   -0.000000   0.602443   2.152346   0.000000
    4  O  1  X   -0.000000  -0.000000   0.000000   0.323632
    5  O  1  Y   -0.000000   0.000000   0.000000  -0.000000
    6  O  1  Z    0.000000   0.010256   0.255945   0.000000
    7  O  1  X   -0.000000  -0.000000  -0.000000   1.151191
    8  O  1  Y    0.000000   0.000000   0.000000   0.000000
    9  O  1  Z   -0.000000   0.539318   0.860230   0.000000
   10  O  1 XX   -0.000000  -0.604914   0.995678   0.000000
   11  O  1 YY    0.000000  -0.455794  -1.036776  -0.000000
   12  O  1 ZZ   -0.000000   1.060708   0.041098   0.000000
   13  O  1 XY    1.052249   0.000000   0.000000  -0.000000
   14  O  1 XZ   -0.000000  -0.000000  -0.000000   1.302014
   15  O  1 YZ    0.000000   0.000000   0.000000   0.000000
   16  H  2  S    0.000000  -0.311241  -1.045981  -0.935302
   17  H  2  S   -0.000000  -0.049739  -0.203092  -0.294776
   18  H  2  X    0.000000   0.370850   0.599979   0.588236
   19  H  2  Y   -0.361017   0.000000   0.000000   0.000000
   20  H  2  Z    0.000000  -0.292023   0.472392   0.452412
   21  H  3  S    0.000000  -0.311241  -1.045981   0.935302
   22  H  3  S   -0.000000  -0.049739  -0.203092   0.294776
   23  H  3  X   -0.000000  -0.370850  -0.599979   0.588236
   24  H  3  Y    0.361017  -0.000000  -0.000000   0.000000
   25  H  3  Z    0.000000  -0.292023   0.472392  -0.452412
 .....DONE WITH MCSCF ITERATIONS.....
 CPU     0: STEP CPU TIME=     0.60 TOTAL CPU TIME=          0.8 (      0.0 MIN)
 TOTAL WALL CLOCK TIME=          1.9 SECONDS, CPU UTILIZATION IS    42.70%

     ----------------------------------------------------------------
     PROPERTY VALUES FOR THE MCSCF SELF-CONSISTENT FIELD WAVEFUNCTION
     ----------------------------------------------------------------

          -----------------
          ENERGY COMPONENTS
          -----------------

         WAVEFUNCTION NORMALIZATION =       1.0000000000

                ONE ELECTRON ENERGY =    -117.4223087542
                TWO ELECTRON ENERGY =      33.0346864052
           NUCLEAR REPULSION ENERGY =       8.8200873938
                                      ------------------
                       TOTAL ENERGY =     -75.5675349552

 ELECTRON-ELECTRON POTENTIAL ENERGY =      33.0346864052
  NUCLEUS-ELECTRON POTENTIAL ENERGY =    -193.0687042477
   NUCLEUS-NUCLEUS POTENTIAL ENERGY =       8.8200873938
                                      ------------------
             TOTAL POTENTIAL ENERGY =    -151.2139304487
               TOTAL KINETIC ENERGY =      75.6463954935
                 VIRIAL RATIO (V/T) =       1.9989575110

          ---------------------------------------
          MULLIKEN AND LOWDIN POPULATION ANALYSES
          ---------------------------------------

     ATOMIC MULLIKEN POPULATION IN EACH MOLECULAR ORBITAL

                      1          2          3          4          5

                  2.000000   1.989926   1.665584   1.656520   1.651073

    1             2.000473   1.567500   1.635641   1.447255   1.054371
    2            -0.000236   0.211213   0.014972   0.104632   0.298351
    3            -0.000236   0.211213   0.014972   0.104632   0.298351

                      6          7

                  0.019021   0.017876

    1             0.009230   0.008701
    2             0.004895   0.004587
    3             0.004895   0.004587
 WARNING! MCSCF POPULATIONS SHOWN ABOVE ARE FOR THE NATURAL ORBITALS.
 IGNORE THE ABOVE DATA FOR MCSCF FUNCTIONS WHICH ARE NOT OF -FORS- TYPE.
 THE FOLLOWING POPULATIONS ARE CORRECT FOR ANY MCSCF WAVEFUNCTION.

               ----- POPULATIONS IN EACH AO -----
                             MULLIKEN      LOWDIN
              1  O  1  S      2.00180     1.90454
              2  O  1  S      0.90544     0.62982
              3  O  1  S      0.78620     0.47768
              4  O  1  X      0.75779     0.68067
              5  O  1  Y      1.06093     1.01295
              6  O  1  Z      0.89936     0.84034
              7  O  1  X      0.29994     0.40556
              8  O  1  Y      0.57387     0.57187
              9  O  1  Z      0.42958     0.50867
             10  O  1 XX      0.00099     0.18830
             11  O  1 YY      0.00056     0.17308
             12  O  1 ZZ     -0.00000     0.17821
             13  O  1 XY      0.00588    -0.00000
             14  O  1 XZ      0.00084     0.01209
             15  O  1 YZ      0.00000     0.00029
             16  H  2  S      0.55042     0.43815
             17  H  2  S      0.00722     0.11660
             18  H  2  X      0.04251     0.06524
             19  H  2  Y      0.01497     0.04023
             20  H  2  Z      0.02329     0.04774
             21  H  3  S      0.55042     0.43815
             22  H  3  S      0.00722     0.11660
             23  H  3  X      0.04251     0.06524
             24  H  3  Y      0.01497     0.04023
             25  H  3  Z      0.02329     0.04774

          ----- MULLIKEN ATOMIC OVERLAP POPULATIONS -----
          (OFF-DIAGONAL ELEMENTS NEED TO BE MULTIPLIED BY 2)

             1           2           3

    1    7.1275755
    2    0.2977980   0.3441870
    3    0.2977980  -0.0035707   0.3441870

          TOTAL MULLIKEN AND LOWDIN ATOMIC POPULATIONS
       ATOM         MULL.POP.    CHARGE          LOW.POP.     CHARGE
    1 O             7.723171    0.276829         7.584071    0.415929
    2 H             0.638414    0.361586         0.707965    0.292035
    3 H             0.638414    0.361586         0.707965    0.292035

          MULLIKEN SPHERICAL HARMONIC POPULATIONS
       ATOM           S       P       D      F      G      H      I    TOTAL
    1 O             3.69    4.02    0.01   0.00   0.00   0.00   0.00    7.72
    2 H             0.56    0.08    0.00   0.00   0.00   0.00   0.00    0.64
    3 H             0.56    0.08    0.00   0.00   0.00   0.00   0.00    0.64

          ---------------------
          ELECTROSTATIC MOMENTS
          ---------------------

 POINT   1           X           Y           Z (BOHR)    CHARGE
                -0.000000    0.000000    0.044293        1.00 (A.U.)
         DX          DY          DZ         /D/  (DEBYE)
    -0.000000   -0.000000    2.472965    2.472965
 ...... END OF PROPERTY EVALUATION ......
 CPU     0: STEP CPU TIME=     0.00 TOTAL CPU TIME=          0.8 (      0.0 MIN)
 TOTAL WALL CLOCK TIME=          1.9 SECONDS, CPU UTILIZATION IS    41.58%

     -------------------------------------------------
     GMC-PT/GMC-QDPT or general MCSCF input parameters
     -------------------------------------------------
 # of frozen core orbs. =         0 ->         0
 # of doubly occ. orbs. =         1
 # of active      orbs. =         6
 # of virtual     orbs. =        17
 # of active electrons  =         7
 # of states in CI      =         3
 Highest state in CI    =         3
 kstate =  1 1 1
 avecoe =  0.333 0.333 0.333
 State symmetry           = A           
 Assigned symmetry number = 1

 <<<Act. MO sym.: 111111

 <<<Division of 1-ext.:  0 0
 <<<Division of 2-ext.:  0 1

     ------------------------
     Orbital canonicalization
     ------------------------

 MOs are canonicalized for core, virtual, and invariant-active orbital spaces.
 This is a part of the GMC-QDPT calculation.
 SCHWARZ INEQUALITY OVERHEAD:       325 INTEGRALS, T=        0.00
 DIRECT TRANSFORMATION SKIPS AO INTEGRAL STORAGE ON DISK.

 Averaged energy =     -75.567534955

 State #    1  Energy =     -75.682263004  S =  0.500
 State #    2  Energy =     -75.592911099  S =  0.500
 State #    3  Energy =     -75.427430763  S =  0.500

 Orbital energies for filled orbital space
  -21.090925
 Orbital energies for active orbital space
   -1.795103  -1.080827  -0.950379  -0.887732   0.394202
    0.366750
 Orbital energies for external orbital space
    0.130329   0.168655   0.659213   0.731764   0.755297
    1.034850   1.039164   1.265254   1.419202   1.461717
    1.808279   1.812147   2.737820   2.811314   2.943769
    3.335328   3.579860

 Zero values mean non-canonical orbitals.
 ... done with orbital canonicalization ...
 CPU     0: STEP CPU TIME=     0.14 TOTAL CPU TIME=          0.9 (      0.0 MIN)
 TOTAL WALL CLOCK TIME=          2.2 SECONDS, CPU UTILIZATION IS    42.86%

     --------------------------------------------
     PARTIAL TWO ELECTRON INTEGRAL TRANSFORMATION
     --------------------------------------------

 NUMBER OF CORE MOLECULAR ORBITALS     =    0
 NUMBER OF OCCUPIED MOLECULAR ORBITALS =    7
 TOTAL NUMBER OF MOLECULAR ORBITALS    =   24
 TOTAL NUMBER OF ATOMIC ORBITALS       =   25
 THRESHOLD FOR KEEPING TRANSFORMED 2E- INTEGRALS = 1.000E-09
 AO INTEGRALS WILL BE CALCULATED IN DIRECT MODE...
 DIRECT TRANSFORMATION SKIPS AO INTEGRAL STORAGE ON DISK.
 SCHWARZ INEQUALITY OVERHEAD:       325 INTEGRALS, T=        0.00

 PLAN A: REQUIREMENTS FOR FULLY IN-MEMORY TRANSFORMATION:
 # OF WORDS AVAILABLE =            250000000
 # OF WORDS NEEDED    =               165605

 PARALLEL ONLY WORKS WITH THE SEGMENTED ALGORITHM.
 ADJUSTING MEMORY TO USE SEGMENTED ALGORITHM.


 PLAN B: REQUIREMENTS FOR THE SEGMENTED TRANSFORMATION:
       MINIMUM=         116855 WORDS FOR 1 MOLECULAR ORBITAL PER PASS
       MAXIMUM=         141230 WORDS FOR ALL MOLECULAR ORBITALS IN 1 PASS
              (           8125 EXTRA WORDS INCLUDES 1 EXTRA ORBITAL/PASS)
 THIS RUN USES=         141230 WORDS,
 DISTRIBUTING   2 PASSES EACH CONTAINING     4 ORBITALS OVER   2 PROCESSORS.

 CHOOSING SEGMENTED PARTIAL TRANSFORMATION...
 DIRECT TRANSFORMATION SKIPS AO INTEGRAL STORAGE ON DISK.
 PASS #   1 TOOK        0.04 SECONDS.
 ASSIGNING PASS #   2 TO A DIFFERENT PROCESSOR.
 TOTAL NUMBER OF TRANSFORMED 2E- INTEGRALS KEPT =         4854
 ... END OF INTEGRAL TRANSFORMATION ...
 CPU     0: STEP CPU TIME=     0.04 TOTAL CPU TIME=          1.0 (      0.0 MIN)
 TOTAL WALL CLOCK TIME=          2.2 SECONDS, CPU UTILIZATION IS    43.11%

     --------     ------------------------------------------
     GMC-QDPT     Program written by H.Nakano (Kyushu Univ.)
     --------     ------------------------------------------

 *** Reference space

 Reference type: ORMAS (= Occupation restricted multiple active space)
 # of orbitals          =  6
 # of minimum electrons =  7
 # of maximum electrons =  7
 State symmetry    =    1 (input)
 2*Sz              =    1 (input)
 Spin multiplicity =    2 (input)
 Dimension of reference space =       300  (from       792 walks)

 Dimension of reference space =       300  (from       300 walks)

 <<<Ionized spaces for Ref-CI:
      0:          300 /   -1-0:          625 /  0-1-0:          690

 ***                    ***
 *** Reference space CI ***
 ***                    ***

 Reference wavefunctions:

 State #    1  Energy =     -75.682263004  S =  0.500

      Det      Coef    Occupancy (Ignoring core)
      ---      ----    --------- --------- -----
        1    0.987285  111100111000
      173    0.075281  101101101001

 State #    2  Energy =     -75.592911099  S =  0.500

      Det      Coef    Occupancy (Ignoring core)
      ---      ----    --------- --------- -----
       16   -0.989148  111100110100
      203   -0.076620  101101100101

 State #    3  Energy =     -75.427430763  S =  0.500

      Det      Coef    Occupancy (Ignoring core)
      ---      ----    --------- --------- -----
       31   -0.990932  111100101100

 Diagonalization: CPU/Wall time =           0.05 /           0.08 sec.

 Oscillator strength (invalid if E(1)/=E(GS)):
 -----------------------------------------
   State                        f
 -----------------------------------------
     2     F(REF-CI)=        0.0016349322
     3     F(REF-CI)=        0.0000000000
 -----------------------------------------

 Dipole moment matrix elements, x, y, z, in A.U.

 Dimension of ionized spaces for PT:
 (N-2) space:          690 /  (N-1) space:          886 /  N space:          690
 (N+1) space:          480 /  (N+2) space:          200

 <<<Ionized spaces for internal:
         0:          300 /      -1-0:          625 /     0-1-0:          690
  -1-0-1-0:          886 / 0-1-0-1-0:          786

 Diagonal elements of averaged one-particle density matrix:
       2       3       4       5       6       7
  0.9963  0.9903  0.9934  0.9988  0.0099  0.0113
  0.9935  0.6606  0.6631  0.6668  0.0081  0.0080

 Orbital energies:
 -------- Doubly-occupied orbitals (highest several orbs.) -------
             1
 -2.109093D+01
 -------- Active orbitals ----------------------------------------
             2            3            4            5            6
 -1.795103D+00-1.080827D+00-9.503789D-01-8.877316D-01 3.942017D-01
             7
  3.667502D-01
 -------- External orbitals (lowest several orbs.) ---------------
             8            9           10           11           12
  1.303287D-01 1.686547D-01 6.592129D-01 7.317644D-01 7.552966D-01
            13           14           15           16           17
  1.034850D+00 1.039164D+00 1.265254D+00 1.419202D+00 1.461717D+00

 *** Quasi-degeneracy checking

 === Det (|Ci| > 1.0D-01 and dE < 5.0D-03)

 # of small denominators (single excitations)
 State       dEmin  dE < 5.0D-03  dE < 5.0D-04  dE < 5.0D-05  dE < 5.0D-06
 ----- ----------- ------------- ------------- ------------- -------------
     1    5.00D-03             0             0             0             0
     2    5.00D-03             0             0             0             0
     3    5.00D-03             0             0             0             0

 # of small denominators (double excitations)
 State       dEmin  dE < 5.0D-03  dE < 5.0D-04  dE < 5.0D-05  dE < 5.0D-06
 ----- ----------- ------------- ------------- ------------- -------------
     1    5.00D-03             0             0             0             0
     2    5.00D-03             0             0             0             0
     3    5.00D-03             0             0             0             0

 *** Zeroth-Order Setup (Granovsky's zeroth-order vectors)
 Zeroth-order effective Hamiltonian
  (= Sum_i e(i)*<I|a+(i)a(i)|J> ):
                   1            2            3
     1 -8.468074D+00
     2  1.107776D-19-8.417966D+00
     3 -1.114137D-10 3.632529D-10-8.298529D+00

 Zeroth-order vectors:
 State #    1
       MC st            1           3           2
       Coeff    1.000D+00   6.571D-10   0.000D+00
 State #    2
       MC st            2           3           1
       Coeff   -1.000D+00   3.041D-09   0.000D+00
 State #    3
       MC st            3           2           1
       Coeff    1.000D+00   3.041D-09  -6.571D-10

 *** GMC-QDPT computation

 (Integral reading:  CPU/Wall time =           0.00 /           0.00 sec.)

 One-external:
   0 -ionized terms: CPU/Wall time =           0.00 /           0.00 sec.
 (-1)-ionized terms: CPU/Wall time =           0.01 /           0.02 sec.
 (+1)-ionized terms: CPU/Wall time =           0.01 /           0.00 sec.
 (+1)-ionized terms: CPU/Wall time =           0.00 /           0.00 sec.
 (+2)-ionized terms: CPU/Wall time =           0.00 /           0.00 sec.

 Internal:
 # of macro loops for internal contribution =         1 (input)
 Loop:    1
 Dimension of internal CISD space     =         0  (after screening)
 Space construction: CPU/Wall time =           0.00 /           0.00 sec.
 Internal terms:     CPU/Wall time =           0.00 /           0.00 sec.

 Two-external:
   0 -ionized terms: CPU/Wall time =           0.00 /           0.01 sec.
 (-1)-ionized terms: CPU/Wall time =           0.02 /           0.03 sec.
 (-2)-ionized terms: CPU/Wall time =           0.03 /           0.02 sec.

 Total time:         CPU/Wall time =           0.07 /           0.08 sec.

 ***                  ***
 *** GMC-QDPT Results ***
 ***                  ***

 Diagonal elements of effective Hamiltonian:
 Heff(  1) =   -75.80226796
 Heff(  2) =   -75.72283953
 Heff(  3) =   -75.56449424

 Off-diagonal elements of effective Hamiltonian:
                   1            2
     2 -1.573417D-16
     3  2.290106D-10 4.698322D-10

 ******** GMC-QDPT energies ********
 ----------------------------------------------------------------------------
   State                        1st order                           2nd order
 ----------------------------------------------------------------------------
     1     E(REF-CI)=      -75.6822630038   E(GMC-QDPT2)=      -75.8022679645
     2     E(REF-CI)=      -75.5929110986   E(GMC-QDPT2)=      -75.7228395340
     3     E(REF-CI)=      -75.4274307632   E(GMC-QDPT2)=      -75.5644942444
 ----------------------------------------------------------------------------

 Excitation energies (invalid if E(1)/=E(GS)):
 ----------------------------------------------------------------------------
   State                        1st order                           2nd order
 ----------------------------------------------------------------------------

     TZ Sorted GMC-PT ENERGIES:
         1      -75.8022679645
         2      -75.7228395340
         3      -75.5644942444
     2     E(REF-CI)=        2.4313904 eV   E(GMC-QDPT2)=        2.1613588 eV
     3     E(REF-CI)=        6.9343420 eV   E(GMC-QDPT2)=        6.4701558 eV
 ----------------------------------------------------------------------------

 Main characters of perturbed GMC-QDPT states:

 State #    1  Energy =     -75.802267965  S =  0.500

      Det      Coef    Occupancy (Ignoring core)
      ---      ----    --------- --------- -----
        1    0.987285  111100111000
      173    0.075281  101101101001

 State #    2  Energy =     -75.722839534  S =  0.500

      Det      Coef    Occupancy (Ignoring core)
      ---      ----    --------- --------- -----
       16   -0.989148  111100110100
      203   -0.076620  101101100101

 State #    3  Energy =     -75.564494244  S =  0.500

      Det      Coef    Occupancy (Ignoring core)
      ---      ----    --------- --------- -----
       31   -0.990932  111100101100

 <<<Max |V/de| = 4.652D-02  Thresh = 1.000D+00

 Oscillator strength (invalid if E(1)/=E(GS)):
 ----------------------------------------------------------------------------
   State                        1st order                           2nd order
 ----------------------------------------------------------------------------
     2     F(REF-CI)=        0.0016349322     F(GMC-PT2)=        0.0014533557
     3     F(REF-CI)=        0.0000000000     F(GMC-PT2)=        0.0000000000
 ----------------------------------------------------------------------------

 Dipole moment matrix elements, x, y, z, in A.U.
States    1    1        0.0000000058        0.0000000000        0.2663637257
States    1    2       -0.0000000016        0.1656698934        0.0000000000
States    1    3        0.0000000000       -0.0000000003        0.0000000013
States    2    1       -0.0000000016        0.1656698934        0.0000000000
States    2    2        0.0000000049       -0.0000000000        0.4568873120
States    2    3        0.1199444272        0.0000000002       -0.0000000009
States    3    1        0.0000000000       -0.0000000003        0.0000000013
States    3    2        0.1199444272        0.0000000002       -0.0000000009
States    3    3        0.0000000023       -0.0000000000        0.0435501143

 Oscillator strength (valid only when positive): 
 ----------------------------------------------------------------------------
  States                        1st order                           2nd order
 ----------------------------------------------------------------------------
  1  1     F(REF-CI)=        0.0000000000     F(GMC-PT2)=        0.0000000000
  1  2     F(REF-CI)=       -0.0016349322     F(GMC-PT2)=       -0.0014533557
  1  3     F(REF-CI)=       -0.0000000000     F(GMC-PT2)=       -0.0000000000
  2  1     F(REF-CI)=        0.0016349322     F(GMC-PT2)=        0.0014533557
  2  2     F(REF-CI)=        0.0000000000     F(GMC-PT2)=        0.0000000000
  2  3     F(REF-CI)=       -0.0015871402     F(GMC-PT2)=       -0.0015187072
  3  1     F(REF-CI)=        0.0000000000     F(GMC-PT2)=        0.0000000000
  3  2     F(REF-CI)=        0.0015871402     F(GMC-PT2)=        0.0015187072
  3  3     F(REF-CI)=        0.0000000000     F(GMC-PT2)=        0.0000000000
 CPU     0: STEP CPU TIME=     0.15 TOTAL CPU TIME=          1.1 (      0.0 MIN)
 TOTAL WALL CLOCK TIME=          2.6 SECONDS, CPU UTILIZATION IS    43.24%

     !!! DIABATIZATION FOR REF CI STATES !!!

 *******************************************************
          $DMO GROUP FOUND IN THE INPUT.
        DIABATIZATION OF ADIABATIC STATES BEGINS.
     PROGRAMMED BY TAO ZENG (CARLETON UNIVERSITY).
               Email: toby.zeng@carleton.ca
     See T. Zeng, J. Chem. Phys. 2017, 146, 144103
 *******************************************************

 *************************************************************************
     STEP 1: TRANSFORMATION OF ADIABATIC STATES TO THE DMO REPRESENTATION
         See Atchity and Ruedenberg, J. Chem. Phys. 1999, 111, 2910
 *************************************************************************

Read in Diabatic Molecualr Orbitals:

                      1          2          3          4          5

    1  O  1  S    0.015878  -0.000000  -0.008727   0.000000   0.178914
    2  O  1  S    0.487244  -0.000000  -0.165140   0.000000   0.591558
    3  O  1  S    0.393189  -0.000000  -0.285720   0.000000   0.156384
    4  O  1  X    0.000000   0.537196  -0.000000   0.000000   0.000000
    5  O  1  Y    0.000000  -0.000000  -0.000000   0.692976   0.000000
    6  O  1  Z    0.081813  -0.000000   0.603221   0.000000   0.749592
    7  O  1  X    0.000000   0.219567  -0.000000   0.000000   0.000000
    8  O  1  Y    0.000000  -0.000000  -0.000000   0.431611   0.000000
    9  O  1  Z    0.000497  -0.000000   0.323888   0.000000  -0.091342
   10  O  1 XX    0.002930  -0.000000  -0.007755   0.000000   0.006467
   11  O  1 YY   -0.004055  -0.000000  -0.010061   0.000000   0.010826
   12  O  1 ZZ    0.001125  -0.000000   0.017816   0.000000  -0.017293
   13  O  1 XY    0.000000  -0.000000  -0.000000   0.000000   0.000000
   14  O  1 XZ    0.000000   0.022805  -0.000000   0.000000   0.000000
   15  O  1 YZ    0.000000  -0.000000  -0.000000   0.017991   0.000000
   16  H  2  S    0.168156   0.322747   0.206861   0.000000  -0.617218
   17  H  2  S   -0.005178   0.022298   0.022370   0.000000  -0.048357
   18  H  2  X   -0.037236  -0.032785  -0.039991   0.000000   0.117245
   19  H  2  Y    0.000000  -0.000000  -0.000000   0.028405   0.000000
   20  H  2  Z   -0.019504  -0.036419   0.003670   0.000000   0.011059
   21  H  3  S    0.168156  -0.322747   0.206861   0.000000  -0.617218
   22  H  3  S   -0.005178  -0.022298   0.022370   0.000000  -0.048357
   23  H  3  X    0.037236  -0.032785   0.039991   0.000000  -0.117245
   24  H  3  Y    0.000000  -0.000000  -0.000000   0.028405   0.000000
   25  H  3  Z   -0.019504   0.036419   0.003670   0.000000   0.011059

                      6

    1  O  1  S   -0.000000
    2  O  1  S   -0.000000
    3  O  1  S   -0.000000
    4  O  1  X   -0.879968
    5  O  1  Y   -0.000000
    6  O  1  Z   -0.000000
    7  O  1  X   -0.026245
    8  O  1  Y   -0.000000
    9  O  1  Z   -0.000000
   10  O  1 XX   -0.000000
   11  O  1 YY   -0.000000
   12  O  1 ZZ   -0.000000
   13  O  1 XY   -0.000000
   14  O  1 XZ    0.028582
   15  O  1 YZ   -0.000000
   16  H  2  S    0.636798
   17  H  2  S    0.071096
   18  H  2  X   -0.067134
   19  H  2  Y   -0.000000
   20  H  2  Z   -0.047320
   21  H  3  S   -0.636798
   22  H  3  S   -0.071096
   23  H  3  X   -0.067134
   24  H  3  Y   -0.000000
   25  H  3  Z    0.047320

NUMBER OF SUB ACTIVE SPACES:   1
ROTATE ACTIVE MOS TO DMOS IN EACH SUB-SPACE

SPACE  1:

OVERLAP BETWEEN ORTHONORMAL AND PRE-ORTHONORMAL REF. DMOS

             1           2           3           4           5

    1    1.0016882   0.0000000   0.0009675  -0.0000000  -0.0024033
    2    0.0000000   1.0006026  -0.0000000   0.0000000   0.0000000
    3    0.0009675  -0.0000000   0.9999377   0.0000000   0.0010051
    4   -0.0000000   0.0000000   0.0000000   1.0002498  -0.0000000
    5   -0.0024033   0.0000000   0.0010051  -0.0000000   0.9949209
    6    0.0000000  -0.0007024  -0.0000000   0.0000000   0.0000000

             6

    1    0.0000000
    2   -0.0007024
    3   -0.0000000
    4    0.0000000
    5    0.0000000
    6    0.9951158
REFERENCE DMOS AFTER ORTHONORMALIZATION:

                      1          2          3          4          5

    1  O  1  S    0.016291  -0.000000  -0.008924  -0.000000   0.179875
    2  O  1  S    0.488013  -0.000000  -0.166222  -0.000000   0.595925
    3  O  1  S    0.393183  -0.000000  -0.286277  -0.000000   0.158421
    4  O  1  X    0.000000   0.536252  -0.000000   0.000000   0.000000
    5  O  1  Y   -0.000000  -0.000000   0.000000   0.692802  -0.000000
    6  O  1  Z    0.082900  -0.000000   0.602422  -0.000000   0.753010
    7  O  1  X    0.000000   0.219416  -0.000000   0.000000   0.000000
    8  O  1  Y   -0.000000  -0.000000   0.000000   0.431503  -0.000000
    9  O  1  Z   -0.000038   0.000000   0.324000   0.000000  -0.092136
   10  O  1 XX    0.002948  -0.000000  -0.007765  -0.000000   0.006515
   11  O  1 YY   -0.004012  -0.000000  -0.010068  -0.000000   0.010882
   12  O  1 ZZ    0.001064   0.000000   0.017834   0.000000  -0.017397
   13  O  1 XY    0.000000   0.000000   0.000000   0.000000   0.000000
   14  O  1 XZ   -0.000000   0.022812   0.000000  -0.000000  -0.000000
   15  O  1 YZ   -0.000000  -0.000000   0.000000   0.017987  -0.000000
   16  H  2  S    0.166185   0.323002   0.207337  -0.000000  -0.620177
   17  H  2  S   -0.005308   0.022334   0.022425  -0.000000  -0.048640
   18  H  2  X   -0.036852  -0.032813  -0.040076   0.000000   0.117795
   19  H  2  Y   -0.000000  -0.000000   0.000000   0.028398  -0.000000
   20  H  2  Z   -0.019448  -0.036430   0.003678   0.000000   0.011065
   21  H  3  S    0.166185  -0.323002   0.207337   0.000000  -0.620177
   22  H  3  S   -0.005308  -0.022334   0.022425   0.000000  -0.048640
   23  H  3  X    0.036852  -0.032813   0.040076   0.000000  -0.117795
   24  H  3  Y   -0.000000  -0.000000   0.000000   0.028398  -0.000000
   25  H  3  Z   -0.019448   0.036430   0.003678  -0.000000   0.011065

                      6

    1  O  1  S   -0.000000
    2  O  1  S   -0.000000
    3  O  1  S   -0.000000
    4  O  1  X   -0.883909
    5  O  1  Y   -0.000000
    6  O  1  Z   -0.000000
    7  O  1  X   -0.026219
    8  O  1  Y   -0.000000
    9  O  1  Z    0.000000
   10  O  1 XX   -0.000000
   11  O  1 YY   -0.000000
   12  O  1 ZZ    0.000000
   13  O  1 XY    0.000000
   14  O  1 XZ    0.028739
   15  O  1 YZ   -0.000000
   16  H  2  S    0.640151
   17  H  2  S    0.071461
   18  H  2  X   -0.067487
   19  H  2  Y   -0.000000
   20  H  2  Z   -0.047578
   21  H  3  S   -0.640151
   22  H  3  S   -0.071461
   23  H  3  X   -0.067487
   24  H  3  Y   -0.000000
   25  H  3  Z    0.047578

 -------------------------------------------
       MAXIMIZING MORMO OVERLAP TERM        
 -------------------------------------------
   SWEEP    VALUE       PROGRESS
     0     5.99991
     1     5.99997     0.00005611
     2     5.99997     0.00000000
     3     5.99997     0.00000000
 THE ROTATION IS DONE
FLIPPING SIGN FOR ORBITAL   6
ACTIVE ORBITALS AFTER MORMO:

                      1          2          3          4          5

    1  O  1  S    0.016309   0.000000  -0.009122   0.000000   0.181633
    2  O  1  S    0.489128  -0.000000  -0.165500   0.000000   0.596244
    3  O  1  S    0.390104  -0.000000  -0.287950   0.000000   0.161046
    4  O  1  X    0.000000   0.537004  -0.000000  -0.000000  -0.000000
    5  O  1  Y    0.000000   0.000000   0.000000   0.693089  -0.000000
    6  O  1  Z    0.083179   0.000000   0.602491   0.000000   0.752958
    7  O  1  X    0.000000   0.216927  -0.000000  -0.000000  -0.000000
    8  O  1  Y    0.000000   0.000000   0.000000   0.430882  -0.000000
    9  O  1  Z   -0.002091   0.000000   0.322541   0.000000  -0.088447
   10  O  1 XX    0.002992   0.000000  -0.007820   0.000000   0.006985
   11  O  1 YY   -0.003982  -0.000000  -0.010095   0.000000   0.010830
   12  O  1 ZZ    0.000991   0.000000   0.017914   0.000000  -0.017814
   13  O  1 XY    0.000000   0.000000  -0.000000   0.000000   0.000000
   14  O  1 XZ   -0.000000   0.023037  -0.000000  -0.000000   0.000000
   15  O  1 YZ    0.000000   0.000000   0.000000   0.018074   0.000000
   16  H  2  S    0.168214   0.324764   0.209030  -0.000000  -0.624132
   17  H  2  S   -0.005582   0.021314   0.021673   0.000000  -0.046775
   18  H  2  X   -0.037309  -0.032827  -0.040579   0.000000   0.119732
   19  H  2  Y   -0.000000   0.000000   0.000000   0.028768   0.000000
   20  H  2  Z   -0.019701  -0.036649   0.003814   0.000000   0.011281
   21  H  3  S    0.168214  -0.324764   0.209030   0.000000  -0.624132
   22  H  3  S   -0.005582  -0.021314   0.021673  -0.000000  -0.046775
   23  H  3  X    0.037309  -0.032827   0.040579   0.000000  -0.119732
   24  H  3  Y    0.000000   0.000000  -0.000000   0.028768  -0.000000
   25  H  3  Z   -0.019701   0.036649   0.003814   0.000000   0.011281

                      6

    1  O  1  S   -0.000000
    2  O  1  S   -0.000000
    3  O  1  S   -0.000000
    4  O  1  X   -0.883662
    5  O  1  Y   -0.000000
    6  O  1  Z   -0.000000
    7  O  1  X   -0.028193
    8  O  1  Y   -0.000000
    9  O  1  Z    0.000000
   10  O  1 XX   -0.000000
   11  O  1 YY   -0.000000
   12  O  1 ZZ    0.000000
   13  O  1 XY   -0.000000
   14  O  1 XZ    0.029067
   15  O  1 YZ    0.000000
   16  H  2  S    0.642205
   17  H  2  S    0.069437
   18  H  2  X   -0.068033
   19  H  2  Y   -0.000000
   20  H  2  Z   -0.047975
   21  H  3  S   -0.642205
   22  H  3  S   -0.069437
   23  H  3  X   -0.068033
   24  H  3  Y   -0.000000
   25  H  3  Z    0.047975

Actually Used Diabatic Molecualr Orbitals:

                      1          2          3          4          5

    1  O  1  S    0.016309   0.000000  -0.009122   0.000000   0.181633
    2  O  1  S    0.489128  -0.000000  -0.165500   0.000000   0.596244
    3  O  1  S    0.390104  -0.000000  -0.287950   0.000000   0.161046
    4  O  1  X    0.000000   0.537004  -0.000000  -0.000000  -0.000000
    5  O  1  Y    0.000000   0.000000   0.000000   0.693089  -0.000000
    6  O  1  Z    0.083179   0.000000   0.602491   0.000000   0.752958
    7  O  1  X    0.000000   0.216927  -0.000000  -0.000000  -0.000000
    8  O  1  Y    0.000000   0.000000   0.000000   0.430882  -0.000000
    9  O  1  Z   -0.002091   0.000000   0.322541   0.000000  -0.088447
   10  O  1 XX    0.002992   0.000000  -0.007820   0.000000   0.006985
   11  O  1 YY   -0.003982  -0.000000  -0.010095   0.000000   0.010830
   12  O  1 ZZ    0.000991   0.000000   0.017914   0.000000  -0.017814
   13  O  1 XY    0.000000   0.000000  -0.000000   0.000000   0.000000
   14  O  1 XZ   -0.000000   0.023037  -0.000000  -0.000000   0.000000
   15  O  1 YZ    0.000000   0.000000   0.000000   0.018074   0.000000
   16  H  2  S    0.168214   0.324764   0.209030  -0.000000  -0.624132
   17  H  2  S   -0.005582   0.021314   0.021673   0.000000  -0.046775
   18  H  2  X   -0.037309  -0.032827  -0.040579   0.000000   0.119732
   19  H  2  Y   -0.000000   0.000000   0.000000   0.028768   0.000000
   20  H  2  Z   -0.019701  -0.036649   0.003814   0.000000   0.011281
   21  H  3  S    0.168214  -0.324764   0.209030   0.000000  -0.624132
   22  H  3  S   -0.005582  -0.021314   0.021673  -0.000000  -0.046775
   23  H  3  X    0.037309  -0.032827   0.040579   0.000000  -0.119732
   24  H  3  Y    0.000000   0.000000  -0.000000   0.028768  -0.000000
   25  H  3  Z   -0.019701   0.036649   0.003814   0.000000   0.011281

                      6

    1  O  1  S   -0.000000
    2  O  1  S   -0.000000
    3  O  1  S   -0.000000
    4  O  1  X   -0.883662
    5  O  1  Y   -0.000000
    6  O  1  Z   -0.000000
    7  O  1  X   -0.028193
    8  O  1  Y   -0.000000
    9  O  1  Z    0.000000
   10  O  1 XX   -0.000000
   11  O  1 YY   -0.000000
   12  O  1 ZZ    0.000000
   13  O  1 XY   -0.000000
   14  O  1 XZ    0.029067
   15  O  1 YZ    0.000000
   16  H  2  S    0.642205
   17  H  2  S    0.069437
   18  H  2  X   -0.068033
   19  H  2  Y   -0.000000
   20  H  2  Z   -0.047975
   21  H  3  S   -0.642205
   22  H  3  S   -0.069437
   23  H  3  X   -0.068033
   24  H  3  Y   -0.000000
   25  H  3  Z    0.047975

     ------------------------------------------------
        ADIABATIC STATES IN TRANSFORMED ORBITALS:
      !! USE Coefp TO PREPARE DIABATIC REFERENCES !!
     ------------------------------------------------

 State #    1  Energy =     -75.682263004  S =  0.500

      Det      Coef        Coefp    Occupancy (Ignoring core)
      ---      ----        ----    --------- --------- -----
        1   -0.987165    0.987165  222+00
      173    0.075240    0.075240  202+02
      168    0.042401    0.042401  2+-++-
       63    0.041170    0.041170  220+20
       68    0.040788    0.040788  2-++-+
        8    0.036644   -0.036644  2-2+0+
       47    0.032708   -0.032708  +22-+0
       98   -0.032682    0.032682  +-2+-+
       93   -0.032305    0.032305  +2-+20
       65    0.030673    0.030673  -2++20
      170   -0.030664    0.030664  -+2++-
       95    0.030274    0.030274  022+20
       79    0.028654    0.028654  202+20
        3   -0.028150   -0.028150  22-++0
       36   -0.026227   -0.026227  2+2-0+
      157    0.026003    0.026003  220+02
      154   -0.022508    0.022508  2-+++-
       82   -0.021996    0.021996  2+-+-+
      184    0.020307    0.020307  +-2++-

 State #    2  Energy =     -75.592911099  S =  0.500

      Det      Coef        Coefp    Occupancy (Ignoring core)
      ---      ----        ----    --------- --------- -----
       16   -0.988860   -0.988860  22+200
      203    0.076582   -0.076582  20+202
      198    0.041733   -0.041733  2+02+-
       46    0.040712    0.040712  +22200
       18   -0.037712    0.037712  2202+0
       53    0.035362   -0.035362  +-220+
      200   -0.034159   -0.034159  -++2+-
      128   -0.032848   -0.032848  +-+2-+
      123   -0.031985   -0.031985  +20220
      125    0.031350   -0.031350  02+220
      109    0.027791   -0.027791  20+220
       23    0.025494    0.025494  2-+20+
      112   -0.021366   -0.021366  2+02-+
       28   -0.020367    0.020367  2-02++

 State #    3  Energy =     -75.427430763  S =  0.500

      Det      Coef        Coefp    Occupancy (Ignoring core)
      ---      ----        ----    --------- --------- -----
       31    0.990982   -0.990982  2+2200
      113    0.047207    0.047207  20+2-+
      108   -0.046574    0.046574  2+0220
       52   -0.046557   -0.046557  +2-20+
      143    0.031738   -0.031738  +022-+
      110    0.031723    0.031723  -++220
      138   -0.030827   -0.030827  ++-220
      140   -0.030640   -0.030640  0+2220
      202   -0.028560    0.028560  2+0202
        6   -0.027976    0.027976  22200+
       43   -0.027242    0.027242  20-2++
      211    0.025617   -0.025617  +2+20-
       33    0.025156   -0.025156  2+-2+0
       19   -0.023780   -0.023780  2-+2+0
       24    0.020940   -0.020940  -2+20+
      234   -0.020001   -0.020001  0+2202

         ----------------------------------------------------
          Transformation matrix between Active CMOs and DMOs
                    Row for CMO and Column for DMO
         ----------------------------------------------------

             1           2           3           4           5

    1    0.9999883  -0.0000000   0.0036205   0.0000000  -0.0031959
    2   -0.0000000   0.9999997   0.0000000  -0.0000000  -0.0000000
    3   -0.0036139   0.0000000   0.9999913   0.0000000   0.0020627
    4    0.0000000  -0.0000000   0.0000000   1.0000000  -0.0000000
    5    0.0032033  -0.0000000  -0.0020511  -0.0000000   0.9999928
    6    0.0000000  -0.0007104   0.0000000  -0.0000000  -0.0000000

             6

    1    0.0000000
    2   -0.0007104
    3   -0.0000000
    4    0.0000000
    5   -0.0000000
    6   -0.9999997

     $REFDET GROUP FOUND

 *************************************************************************
     STEP 2: DIABATIZATION USING CONFIGURATION UNIFORMITY
  See Atchity and Ruedenberg, Theor. Chem. Acc. 1997, 97, 47
 *************************************************************************

READ-IN LIST OF DIABATIC PROTOTYPES:

     THE SAME NUMBER OF PROTOTYPE GROUPS & ADIABATS

     THE ADIABS SHOULD HAVE FULLY COVER THE PROTOTYPES

 Approximated Overlap Matrix for truncated adiabats:
   0.9978019337   0.0000000000   0.0000000000
   0.0000000000   0.9967121130   0.0000000000
   0.0000000000   0.0000000000   0.9979361141


 -------------------------------------------
   - DIABATIC HAMILTONIAN MATRIX ELEMENTS - 
 -------------------------------------------
                                            
 --- DIABATIC ENERGIES (DIAGONAL ELEMENT) ---       HARTREE            EV
 STATE #  1'S GMC-CI-LEVEL DIABATIC ENERGY=     -75.682263004       0.000000000
 STATE #  2'S GMC-CI-LEVEL DIABATIC ENERGY=     -75.592911099       2.431389182
 STATE #  3'S GMC-CI-LEVEL DIABATIC ENERGY=     -75.427430763       6.934338463

 --- DIABATIC COUPLINGS (OFF DIAGONAL ELEMENTS)---  HATREE            EV
 STATE #  1 &  2'S GMC-CI-LEVEL COUPLING  =      -0.000000000      -0.000000000
 STATE #  1 &  3'S GMC-CI-LEVEL COUPLING  =       0.000000001       0.000000014
 STATE #  2 &  3'S GMC-CI-LEVEL COUPLING  =      -0.000000001      -0.000000025

 ---------------------------------------
     - ROTATION TO DIABATIC STATES -    
 ---------------------------------------
 ROWS=ADIABATIC, COLUMNS=DIABATIC STATES

             1           2           3

    1   -1.0000000   0.0000000  -0.0000000
    2   -0.0000000   1.0000000   0.0000000
    3   -0.0000000  -0.0000000   1.0000000

 ---------------------------------------
          - DIABATIC STATES -           
 ---------------------------------------

 State #    1  Energy =     -75.682263004

      Det      Coef        Coefp    Occupancy (Ignoring core)
      ---      ----        ----    --------- --------- -----
        1    0.987165   -0.987165  222+00
      173   -0.075240   -0.075240  202+02
      168   -0.042401   -0.042401  2+-++-
       63   -0.041170   -0.041170  220+20
       68   -0.040788   -0.040788  2-++-+
        8   -0.036644    0.036644  2-2+0+
       47   -0.032708    0.032708  +22-+0
       98    0.032682   -0.032682  +-2+-+
       93    0.032305   -0.032305  +2-+20
       65   -0.030673   -0.030673  -2++20
      170    0.030664   -0.030664  -+2++-
       95   -0.030274   -0.030274  022+20
       79   -0.028654   -0.028654  202+20
        3    0.028150    0.028150  22-++0
       36    0.026227    0.026227  2+2-0+
      157   -0.026003   -0.026003  220+02
      154    0.022508   -0.022508  2-+++-
       82    0.021996   -0.021996  2+-+-+
      184   -0.020307   -0.020307  +-2++-

 State #    2  Energy =     -75.592911099

      Det      Coef        Coefp    Occupancy (Ignoring core)
      ---      ----        ----    --------- --------- -----
       16   -0.988860   -0.988860  22+200
      203    0.076582   -0.076582  20+202
      198    0.041733   -0.041733  2+02+-
       46    0.040712    0.040712  +22200
       18   -0.037712    0.037712  2202+0
       53    0.035362   -0.035362  +-220+
      200   -0.034159   -0.034159  -++2+-
      128   -0.032848   -0.032848  +-+2-+
      123   -0.031985   -0.031985  +20220
      125    0.031350   -0.031350  02+220
      109    0.027791   -0.027791  20+220
       23    0.025494    0.025494  2-+20+
      112   -0.021366   -0.021366  2+02-+
       28   -0.020367    0.020367  2-02++

 State #    3  Energy =     -75.427430763

      Det      Coef        Coefp    Occupancy (Ignoring core)
      ---      ----        ----    --------- --------- -----
       31    0.990982   -0.990982  2+2200
      113    0.047207    0.047207  20+2-+
      108   -0.046574    0.046574  2+0220
       52   -0.046557   -0.046557  +2-20+
      143    0.031738   -0.031738  +022-+
      110    0.031723    0.031723  -++220
      138   -0.030827   -0.030827  ++-220
      140   -0.030640   -0.030640  0+2220
      202   -0.028560    0.028560  2+0202
        6   -0.027976    0.027976  22200+
       43   -0.027242    0.027242  20-2++
      211    0.025617   -0.025617  +2+20-
       33    0.025156   -0.025156  2+-2+0
       19   -0.023780   -0.023780  2-+2+0
       24    0.020940   -0.020940  -2+20+
      234   -0.020001   -0.020001  0+2202

 ---------------------------------------
      - DIABATIC STATES IN CMO -        
 ---------------------------------------

 State #    1  Energy =     -75.682263004

      Det      Coef        Coefp    Occupancy (Ignoring core)
      ---      ----        ----    --------- --------- -----
        1    0.987285   -0.987285  222+00
      173   -0.075281   -0.075281  202+02
      168    0.042336    0.042336  2+-++-
       63   -0.041039   -0.041039  220+20
       68    0.040759    0.040759  2-++-+
        8    0.035906   -0.035906  2-2+0+
       47   -0.032747    0.032747  +22-+0
       98   -0.032702    0.032702  +-2+-+
       93    0.032227   -0.032227  +2-+20
      170   -0.030802    0.030802  -+2++-
       65   -0.030693   -0.030693  -2++20
       95   -0.030498   -0.030498  022+20
       79   -0.028654   -0.028654  202+20
       36   -0.026235   -0.026235  2+2-0+
        3    0.026033    0.026033  22-++0
      157   -0.026000   -0.026000  220+02
      154   -0.022437    0.022437  2-+++-
       82   -0.021925    0.021925  2+-+-+
      184    0.020390    0.020390  +-2++-
       84    0.020070    0.020070  -+2+-+

 State #    2  Energy =     -75.592911099

      Det      Coef        Coefp    Occupancy (Ignoring core)
      ---      ----        ----    --------- --------- -----
       16   -0.989148   -0.989148  22+200
      203    0.076620   -0.076620  20+202
      198   -0.041650    0.041650  2+02+-
       46    0.037211    0.037211  +22200
       18   -0.035808    0.035808  2202+0
       53   -0.035178    0.035178  +-220+
[...]
       16   -0.989148   -0.989148  22+200
      203    0.076620   -0.076620  20+202
      198   -0.041650    0.041650  2+02+-
       46    0.037211    0.037211  +22200
       18   -0.035808    0.035808  2202+0
       53   -0.035178    0.035178  +-220+
      200    0.034267    0.034267  -++2+-
      128    0.032844    0.032844  +-+2-+
      123   -0.031770   -0.031770  +20220
      125    0.031494   -0.031494  02+220
      109    0.027828   -0.027828  20+220
       23   -0.024978   -0.024978  2-+20+
      112    0.021283    0.021283  2+02-+
       28    0.020367   -0.020367  2-02++

 State #    3  Energy =     -75.564494244

      Det      Coef        Coefp    Occupancy (Ignoring core)
      ---      ----        ----    --------- --------- -----
       31    0.990932   -0.990932  2+2200
      113   -0.047062   -0.047062  20+2-+
       52    0.046626    0.046626  +2-20+
      108   -0.046288    0.046288  2+0220
      143   -0.031955    0.031955  +022-+
      110    0.031763    0.031763  -++220
      138   -0.030976   -0.030976  ++-220
      140   -0.030886   -0.030886  0+2220
      202   -0.028582    0.028582  2+0202
        6    0.027988   -0.027988  22200+
       33    0.027170   -0.027170  2+-2+0
       43    0.027146   -0.027146  20-2++
      211   -0.025633    0.025633  +2+20-
       19   -0.023709   -0.023709  2-+2+0
       24   -0.020993    0.020993  -2+20+

 ---------------------------------------
    -DIABATIC STATES IN PROTOTYPES-     
 ---------------------------------------

     STATE:    1
 Group Ref#    Coefficients
     1    1    0.998900
     2    2   -0.000000
     3    3   -0.000000

WEIGHT OF LISTED PROTOTYPES:   99.78%

     STATE:    2
 Group Ref#    Coefficients
     1    1    0.000000
     2    2    0.998355
     3    3    0.000000

WEIGHT OF LISTED PROTOTYPES:   99.67%

     STATE:    3
 Group Ref#    Coefficients
     1    1   -0.000000
     2    2    0.000000
     3    3    0.998968

WEIGHT OF LISTED PROTOTYPES:   99.79%

 --------------------------------------------------
 IN DIRECT MAX. DIABATIZATION FOR GMC-QDPT

 DIRECT MAXIMIZATION (DM) WITHOUT TRUNCATING ADIABATS
 EXPANSIONS INTO THE REFERENCE CONFIGURATION SPACE
 --------------------------------------------------

 -------------------------------------------
 - DM DIABT PT HAMILTONIAN MATRIX ELEMENTS -
 -------------------------------------------
                                            
 --- DIABATIC ENERGIES (DIAGONAL ELEMENT) ---       HARTREE            EV
 STATE #  1'S GMC-PT-LEVEL DIABATIC ENERGY=     -75.802267965       0.000000000
 STATE #  2'S GMC-PT-LEVEL DIABATIC ENERGY=     -75.722839534       2.161357683
 STATE #  3'S GMC-PT-LEVEL DIABATIC ENERGY=     -75.564494244       6.470152480

 --- DIABATIC COUPLINGS (OFF DIAGONAL ELEMENTS)---  HATREE            EV
 STATE #  1 &  2'S GMC-PT-LEVEL COUPLING  =      -0.000000000      -0.000000000
 STATE #  1 &  3'S GMC-PT-LEVEL COUPLING  =       0.000000000       0.000000013
 STATE #  2 &  3'S GMC-PT-LEVEL COUPLING  =      -0.000000001      -0.000000019

 ---------------------------------------
     - ROTATION TO DIABATIC STATES -    
 ---------------------------------------
 ROWS=ADIABATIC, COLUMNS=DIABATIC STATES

             1           2           3

    1   -1.0000000   0.0000000  -0.0000000
    2   -0.0000000   1.0000000   0.0000000
    3   -0.0000000  -0.0000000   1.0000000

 ---------------------------------------
          - DIABATIC STATES -           
 ---------------------------------------

 State #    1  Energy =     -75.802267965

      Det      Coef        Coefp    Occupancy (Ignoring core)
      ---      ----        ----    --------- --------- -----
        1    0.987165   -0.987165  222+00
      173   -0.075240   -0.075240  202+02
      168   -0.042401   -0.042401  2+-++-
       63   -0.041170   -0.041170  220+20
       68   -0.040788   -0.040788  2-++-+
        8   -0.036644    0.036644  2-2+0+
       47   -0.032708    0.032708  +22-+0
       98    0.032682   -0.032682  +-2+-+
       93    0.032305   -0.032305  +2-+20
       65   -0.030673   -0.030673  -2++20
      170    0.030664   -0.030664  -+2++-
       95   -0.030274   -0.030274  022+20
       79   -0.028654   -0.028654  202+20
        3    0.028150    0.028150  22-++0
       36    0.026227    0.026227  2+2-0+
      157   -0.026003   -0.026003  220+02
      154    0.022508   -0.022508  2-+++-
       82    0.021996   -0.021996  2+-+-+
      184   -0.020307   -0.020307  +-2++-

 State #    2  Energy =     -75.722839534

      Det      Coef        Coefp    Occupancy (Ignoring core)
      ---      ----        ----    --------- --------- -----
       16   -0.988860   -0.988860  22+200
      203    0.076582   -0.076582  20+202
      198    0.041733   -0.041733  2+02+-
       46    0.040712    0.040712  +22200
       18   -0.037712    0.037712  2202+0
       53    0.035362   -0.035362  +-220+
      200   -0.034159   -0.034159  -++2+-
      128   -0.032848   -0.032848  +-+2-+
      123   -0.031985   -0.031985  +20220
      125    0.031350   -0.031350  02+220
      109    0.027791   -0.027791  20+220
       23    0.025494    0.025494  2-+20+
      112   -0.021366   -0.021366  2+02-+
       28   -0.020367    0.020367  2-02++

 State #    3  Energy =     -75.564494244

      Det      Coef        Coefp    Occupancy (Ignoring core)
      ---      ----        ----    --------- --------- -----
       31    0.990982   -0.990982  2+2200
      113    0.047207    0.047207  20+2-+
      108   -0.046574    0.046574  2+0220
       52   -0.046557   -0.046557  +2-20+
      143    0.031738   -0.031738  +022-+
      110    0.031723    0.031723  -++220
      138   -0.030827   -0.030827  ++-220
      140   -0.030640   -0.030640  0+2220
      202   -0.028560    0.028560  2+0202
        6   -0.027976    0.027976  22200+
       43   -0.027242    0.027242  20-2++
      211    0.025617   -0.025617  +2+20-
       33    0.025156   -0.025156  2+-2+0
       19   -0.023780   -0.023780  2-+2+0
       24    0.020940   -0.020940  -2+20+
      234   -0.020001   -0.020001  0+2202

 ---------------------------------------
      - DIABATIC STATES IN CMO -        
 ---------------------------------------

 State #    1  Energy =     -75.802267965

      Det      Coef        Coefp    Occupancy (Ignoring core)
      ---      ----        ----    --------- --------- -----
        1    0.987285   -0.987285  222+00
      173   -0.075281   -0.075281  202+02
      168    0.042336    0.042336  2+-++-
       63   -0.041039   -0.041039  220+20
       68    0.040759    0.040759  2-++-+
        8    0.035906   -0.035906  2-2+0+
       47   -0.032747    0.032747  +22-+0
       98   -0.032702    0.032702  +-2+-+
       93    0.032227   -0.032227  +2-+20
      170   -0.030802    0.030802  -+2++-
       65   -0.030693   -0.030693  -2++20
       95   -0.030498   -0.030498  022+20
       79   -0.028654   -0.028654  202+20
       36   -0.026235   -0.026235  2+2-0+
        3    0.026033    0.026033  22-++0
      157   -0.026000   -0.026000  220+02
      154   -0.022437    0.022437  2-+++-
       82   -0.021925    0.021925  2+-+-+
      184    0.020390    0.020390  +-2++-
       84    0.020070    0.020070  -+2+-+

 State #    2  Energy =     -75.722839534

      Det      Coef        Coefp    Occupancy (Ignoring core)
      ---      ----        ----    --------- --------- -----
       16   -0.989148   -0.989148  22+200
      203    0.076620   -0.076620  20+202
      198   -0.041650    0.041650  2+02+-
       46    0.037211    0.037211  +22200
       18   -0.035808    0.035808  2202+0
       53   -0.035178    0.035178  +-220+
      200    0.034267    0.034267  -++2+-
      128    0.032844    0.032844  +-+2-+
      123   -0.031770   -0.031770  +20220
      125    0.031494   -0.031494  02+220
      109    0.027828   -0.027828  20+220
       23   -0.024978   -0.024978  2-+20+
      112    0.021283    0.021283  2+02-+
       28    0.020367   -0.020367  2-02++

 State #    3  Energy =     -75.564494244

      Det      Coef        Coefp    Occupancy (Ignoring core)
      ---      ----        ----    --------- --------- -----
       31    0.990932   -0.990932  2+2200
      113   -0.047062   -0.047062  20+2-+
       52    0.046626    0.046626  +2-20+
      108   -0.046288    0.046288  2+0220
      143   -0.031955    0.031955  +022-+
      110    0.031763    0.031763  -++220
      138   -0.030976   -0.030976  ++-220
      140   -0.030886   -0.030886  0+2220
      202   -0.028582    0.028582  2+0202
        6    0.027988   -0.027988  22200+
       33    0.027170   -0.027170  2+-2+0
       43    0.027146   -0.027146  20-2++
      211   -0.025633    0.025633  +2+20-
       19   -0.023709   -0.023709  2-+2+0
       24   -0.020993    0.020993  -2+20+

 ---------------------------------------
    -DIABATIC STATES IN PROTOTYPES-     
 ---------------------------------------

     STATE:    1
 Group Ref#    Coefficients
     1    1    0.998900
     2    2   -0.000000
     3    3   -0.000000

WEIGHT OF LISTED PROTOTYPES:   99.78%

     STATE:    2
 Group Ref#    Coefficients
     1    1    0.000000
     2    2    0.998355
     3    3    0.000000

WEIGHT OF LISTED PROTOTYPES:   99.67%

     STATE:    3
 Group Ref#    Coefficients
     1    1   -0.000000
     2    2    0.000000
     3    3    0.998968

WEIGHT OF LISTED PROTOTYPES:   99.79%

     DIRECT MAX. DIABATIZATION FINISHED    
 CPU     0: STEP CPU TIME=     0.05 TOTAL CPU TIME=          1.2 (      0.0 MIN)
 TOTAL WALL CLOCK TIME=          2.7 SECONDS, CPU UTILIZATION IS    43.66%

DIABATS FOR SPIN-ORBIT CALCULATION ARE READY

TRANSITION DIPOLES BETWEEN ADIABATS (in A.U.):

STATE PAIR      X         Y         Z
    1    1  0.000000  0.000000  0.266364
    2    1 -0.000000  0.165670  0.000000
    2    2  0.000000 -0.000000  0.456887
    3    1  0.000000 -0.000000  0.000000
    3    2  0.119944  0.000000 -0.000000
    3    3  0.000000 -0.000000  0.043550


TRANSITION DIPOLES BETWEEN DIABATS (in A.U.):

STATE PAIR      X         Y         Z
    1    1  0.000000  0.000000  0.266364
    2    1  0.000000 -0.165670 -0.000000
    2    2  0.000000 -0.000000  0.456887
    3    1 -0.000000 -0.000000 -0.000000
    3    2  0.119944 -0.000000 -0.000000
    3    3  0.000000 -0.000000  0.043550

TRANSITION DIPOLES BETWEEN DIRECT MAX. DIABATS (in A.U.):

STATE PAIR      X         Y         Z
    1    1  0.000000  0.000000  0.266364
    2    1  0.000000 -0.165670 -0.000000
    2    2  0.000000 -0.000000  0.456887
    3    1 -0.000000 -0.000000 -0.000000
    3    2  0.119944 -0.000000 -0.000000
    3    3  0.000000 -0.000000  0.043550
 No $TRANST Group Found.
 Quit without doing spin-orbit coupling
 ..... DONE WITH MP2 ENERGY .....
 CPU     0: STEP CPU TIME=     0.00 TOTAL CPU TIME=          1.2 (      0.0 MIN)
 TOTAL WALL CLOCK TIME=          2.7 SECONDS, CPU UTILIZATION IS    43.66%
            250000000  WORDS OF DYNAMIC MEMORY USED
 EXECUTION OF GAMESS TERMINATED NORMALLY Thu Jan 25 17:20:26 2024
 DDI: 386504 bytes (0.4 MB / 0 MWords) used by master data server.

 ----------------------------------------
 CPU timing information for all processes
 ========================================
 0: 1.67 + 0.114 = 1.181
 1: 0.930 + 0.121 = 1.51
 ----------------------------------------
Note: The following floating-point exceptions are signalling: IEEE_DENORMAL
Note: The following floating-point exceptions are signalling: IEEE_DENORMAL
 ddikick.x: exited gracefully.
unset echo
----- accounting info -----
Files used on the master node io002 were:
-rwxr-xr-x 1 bjb2chen nooijen   16380 Jan 25 17:20 /home/bjb2chen/gmsscr//H2Ocat_cct_gmcpt_C1_3st_diab_mode8_-0.05x2.F05*
-rw-r--r-- 1 bjb2chen nooijen  182424 Jan 25 17:20 /home/bjb2chen/gmsscr//H2Ocat_cct_gmcpt_C1_3st_diab_mode8_-0.05x2.F09
-rw-r--r-- 1 bjb2chen nooijen  180016 Jan 25 17:20 /home/bjb2chen/gmsscr//H2Ocat_cct_gmcpt_C1_3st_diab_mode8_-0.05x2.F09.001
-rw-r--r-- 1 bjb2chen nooijen 1995920 Jan 25 17:20 /home/bjb2chen/gmsscr//H2Ocat_cct_gmcpt_C1_3st_diab_mode8_-0.05x2.F10
-rw-r--r-- 1 bjb2chen nooijen   33168 Jan 25 17:20 /home/bjb2chen/gmsscr//H2Ocat_cct_gmcpt_C1_3st_diab_mode8_-0.05x2.F13
-rw-r--r-- 1 bjb2chen nooijen   33168 Jan 25 17:20 /home/bjb2chen/gmsscr//H2Ocat_cct_gmcpt_C1_3st_diab_mode8_-0.05x2.F13.001
-rw-r--r-- 1 bjb2chen nooijen  180248 Jan 25 17:20 /home/bjb2chen/gmsscr//H2Ocat_cct_gmcpt_C1_3st_diab_mode8_-0.05x2.F15
-rw-r--r-- 1 bjb2chen nooijen       0 Jan 25 17:20 /home/bjb2chen/gmsscr//H2Ocat_cct_gmcpt_C1_3st_diab_mode8_-0.05x2.F16
-rw-r--r-- 1 bjb2chen nooijen    2408 Jan 25 17:20 /home/bjb2chen/gmsscr//H2Ocat_cct_gmcpt_C1_3st_diab_mode8_-0.05x2.F70
-rw-r--r-- 1 bjb2chen nooijen    2408 Jan 25 17:20 /home/bjb2chen/gmsscr//H2Ocat_cct_gmcpt_C1_3st_diab_mode8_-0.05x2.F70.001
-rw-r--r-- 1 bjb2chen nooijen    2408 Jan 25 17:20 /home/bjb2chen/gmsscr//H2Ocat_cct_gmcpt_C1_3st_diab_mode8_-0.05x2.F71
-rw-r--r-- 1 bjb2chen nooijen    2408 Jan 25 17:20 /home/bjb2chen/gmsscr//H2Ocat_cct_gmcpt_C1_3st_diab_mode8_-0.05x2.F71.001
-rw-r--r-- 1 bjb2chen nooijen    4808 Jan 25 17:20 /home/bjb2chen/gmsscr//H2Ocat_cct_gmcpt_C1_3st_diab_mode8_-0.05x2.F72
-rw-r--r-- 1 bjb2chen nooijen    4808 Jan 25 17:20 /home/bjb2chen/gmsscr//H2Ocat_cct_gmcpt_C1_3st_diab_mode8_-0.05x2.F72.001
-rw-r--r-- 1 bjb2chen nooijen    4808 Jan 25 17:20 /home/bjb2chen/gmsscr//H2Ocat_cct_gmcpt_C1_3st_diab_mode8_-0.05x2.F73
-rw-r--r-- 1 bjb2chen nooijen    4808 Jan 25 17:20 /home/bjb2chen/gmsscr//H2Ocat_cct_gmcpt_C1_3st_diab_mode8_-0.05x2.F73.001
-rw-r--r-- 1 bjb2chen nooijen  184824 Jan 25 17:20 /home/bjb2chen/gmsscr//H2Ocat_cct_gmcpt_C1_3st_diab_mode8_-0.05x2.F74
-rw-r--r-- 1 bjb2chen nooijen  184824 Jan 25 17:20 /home/bjb2chen/gmsscr//H2Ocat_cct_gmcpt_C1_3st_diab_mode8_-0.05x2.F74.001
-rw-r--r-- 1 bjb2chen nooijen  720024 Jan 25 17:20 /home/bjb2chen/gmsscr//H2Ocat_cct_gmcpt_C1_3st_diab_mode8_-0.05x2.F75
-rw-r--r-- 1 bjb2chen nooijen  720024 Jan 25 17:20 /home/bjb2chen/gmsscr//H2Ocat_cct_gmcpt_C1_3st_diab_mode8_-0.05x2.F75.001
-rw-r--r-- 1 bjb2chen nooijen   14448 Jan 25 17:20 /home/bjb2chen/gmsscr//H2Ocat_cct_gmcpt_C1_3st_diab_mode8_-0.05x2.F76
-rw-r--r-- 1 bjb2chen nooijen   14448 Jan 25 17:20 /home/bjb2chen/gmsscr//H2Ocat_cct_gmcpt_C1_3st_diab_mode8_-0.05x2.F76.001
-rw-r--r-- 1 bjb2chen nooijen       0 Jan 25 17:20 /home/bjb2chen/gmsscr//H2Ocat_cct_gmcpt_C1_3st_diab_mode8_-0.05x2.F77
-rw-r--r-- 1 bjb2chen nooijen       0 Jan 25 17:20 /home/bjb2chen/gmsscr//H2Ocat_cct_gmcpt_C1_3st_diab_mode8_-0.05x2.F77.001
-rw-r--r-- 1 bjb2chen nooijen    1544 Jan 25 17:20 /home/bjb2chen/gmsscr//H2Ocat_cct_gmcpt_C1_3st_diab_mode8_-0.05x2.F78
-rw-r--r-- 1 bjb2chen nooijen    1544 Jan 25 17:20 /home/bjb2chen/gmsscr//H2Ocat_cct_gmcpt_C1_3st_diab_mode8_-0.05x2.F78.001
-rw-r--r-- 1 bjb2chen nooijen    9608 Jan 25 17:20 /home/bjb2chen/gmsscr//H2Ocat_cct_gmcpt_C1_3st_diab_mode8_-0.05x2.F79
-rw-r--r-- 1 bjb2chen nooijen    9608 Jan 25 17:20 /home/bjb2chen/gmsscr//H2Ocat_cct_gmcpt_C1_3st_diab_mode8_-0.05x2.F79.001
-rw-r--r-- 1 bjb2chen nooijen     104 Jan 25 17:20 /home/bjb2chen/gmsscr//H2Ocat_cct_gmcpt_C1_3st_diab_mode8_-0.05x2.F80
-rw-r--r-- 1 bjb2chen nooijen     104 Jan 25 17:20 /home/bjb2chen/gmsscr//H2Ocat_cct_gmcpt_C1_3st_diab_mode8_-0.05x2.F80.001
-rw-r--r-- 1 bjb2chen nooijen    9232 Jan 25 17:20 /home/bjb2chen/gmsscr//H2Ocat_cct_gmcpt_C1_3st_diab_mode8_-0.05x2.F81
-rw-r--r-- 1 bjb2chen nooijen    9232 Jan 25 17:20 /home/bjb2chen/gmsscr//H2Ocat_cct_gmcpt_C1_3st_diab_mode8_-0.05x2.F81.001
-rw-r--r-- 1 bjb2chen nooijen      16 Jan 25 17:20 /home/bjb2chen/gmsscr//H2Ocat_cct_gmcpt_C1_3st_diab_mode8_-0.05x2.F82
-rw-r--r-- 1 bjb2chen nooijen      16 Jan 25 17:20 /home/bjb2chen/gmsscr//H2Ocat_cct_gmcpt_C1_3st_diab_mode8_-0.05x2.F82.001
-rw-r--r-- 1 bjb2chen nooijen   10376 Jan 25 17:20 /home/bjb2chen/gmsscr//H2Ocat_cct_gmcpt_C1_3st_diab_mode8_-0.05x2.F83
-rw-r--r-- 1 bjb2chen nooijen   10376 Jan 25 17:20 /home/bjb2chen/gmsscr//H2Ocat_cct_gmcpt_C1_3st_diab_mode8_-0.05x2.F83.001
-rw-r--r-- 1 bjb2chen nooijen   18832 Jan 25 17:20 /home/bjb2chen/gmsscr//H2Ocat_cct_gmcpt_C1_3st_diab_mode8_-0.05x2.F84
-rw-r--r-- 1 bjb2chen nooijen   18832 Jan 25 17:20 /home/bjb2chen/gmsscr//H2Ocat_cct_gmcpt_C1_3st_diab_mode8_-0.05x2.F84.001
-rw-r--r-- 1 bjb2chen nooijen   72272 Jan 25 17:20 /home/bjb2chen/gmsscr//H2Ocat_cct_gmcpt_C1_3st_diab_mode8_-0.05x2.F85
-rw-r--r-- 1 bjb2chen nooijen   72272 Jan 25 17:20 /home/bjb2chen/gmsscr//H2Ocat_cct_gmcpt_C1_3st_diab_mode8_-0.05x2.F85.001
-rw-r--r-- 1 bjb2chen nooijen   68152 Jan 25 17:20 /home/bjb2chen/gmsscr//H2Ocat_cct_gmcpt_C1_3st_diab_mode8_-0.05x2.F86
-rw-r--r-- 1 bjb2chen nooijen   64216 Jan 25 17:20 /home/bjb2chen/gmsscr//H2Ocat_cct_gmcpt_C1_3st_diab_mode8_-0.05x2.F86.001
-rw-r--r-- 1 bjb2chen nooijen     656 Jan 25 17:20 /home/bjb2chen/gmsscr//H2Ocat_cct_gmcpt_C1_3st_diab_mode8_-0.05x2.F87
-rw-r--r-- 1 bjb2chen nooijen     656 Jan 25 17:20 /home/bjb2chen/gmsscr//H2Ocat_cct_gmcpt_C1_3st_diab_mode8_-0.05x2.F87.001
-rw-r--r-- 1 bjb2chen nooijen    5296 Jan 25 17:20 /home/bjb2chen/gmsscr//H2Ocat_cct_gmcpt_C1_3st_diab_mode8_-0.05x2.F88
-rw-r--r-- 1 bjb2chen nooijen    5296 Jan 25 17:20 /home/bjb2chen/gmsscr//H2Ocat_cct_gmcpt_C1_3st_diab_mode8_-0.05x2.F88.001
-rw-r--r-- 1 bjb2chen nooijen     200 Jan 25 17:20 /home/bjb2chen/gmsscr//H2Ocat_cct_gmcpt_C1_3st_diab_mode8_-0.05x2.F89
-rw-r--r-- 1 bjb2chen nooijen     200 Jan 25 17:20 /home/bjb2chen/gmsscr//H2Ocat_cct_gmcpt_C1_3st_diab_mode8_-0.05x2.F89.001
-rw-r--r-- 1 bjb2chen nooijen       0 Jan 25 17:20 /home/bjb2chen/gmsscr//H2Ocat_cct_gmcpt_C1_3st_diab_mode8_-0.05x2.F90
-rw-r--r-- 1 bjb2chen nooijen       0 Jan 25 17:20 /home/bjb2chen/gmsscr//H2Ocat_cct_gmcpt_C1_3st_diab_mode8_-0.05x2.F90.001
-rw-r--r-- 1 bjb2chen nooijen    5560 Jan 25 17:20 /home/bjb2chen/gmsscr//H2Ocat_cct_gmcpt_C1_3st_diab_mode8_-0.05x2.F91
-rw-r--r-- 1 bjb2chen nooijen    5560 Jan 25 17:20 /home/bjb2chen/gmsscr//H2Ocat_cct_gmcpt_C1_3st_diab_mode8_-0.05x2.F91.001
-rw-r--r-- 1 bjb2chen nooijen    7128 Jan 25 17:20 /home/bjb2chen/gmsscr//H2Ocat_cct_gmcpt_C1_3st_diab_mode8_-0.05x2.F92
-rw-r--r-- 1 bjb2chen nooijen    7128 Jan 25 17:20 /home/bjb2chen/gmsscr//H2Ocat_cct_gmcpt_C1_3st_diab_mode8_-0.05x2.F92.001
-rw-r--r-- 1 bjb2chen nooijen    5560 Jan 25 17:20 /home/bjb2chen/gmsscr//H2Ocat_cct_gmcpt_C1_3st_diab_mode8_-0.05x2.F93
-rw-r--r-- 1 bjb2chen nooijen    5560 Jan 25 17:20 /home/bjb2chen/gmsscr//H2Ocat_cct_gmcpt_C1_3st_diab_mode8_-0.05x2.F93.001
-rw-r--r-- 1 bjb2chen nooijen    3880 Jan 25 17:20 /home/bjb2chen/gmsscr//H2Ocat_cct_gmcpt_C1_3st_diab_mode8_-0.05x2.F94
-rw-r--r-- 1 bjb2chen nooijen    3880 Jan 25 17:20 /home/bjb2chen/gmsscr//H2Ocat_cct_gmcpt_C1_3st_diab_mode8_-0.05x2.F94.001
-rw-r--r-- 1 bjb2chen nooijen    1640 Jan 25 17:20 /home/bjb2chen/gmsscr//H2Ocat_cct_gmcpt_C1_3st_diab_mode8_-0.05x2.F95
-rw-r--r-- 1 bjb2chen nooijen    1640 Jan 25 17:20 /home/bjb2chen/gmsscr//H2Ocat_cct_gmcpt_C1_3st_diab_mode8_-0.05x2.F95.001
-rw-r--r-- 1 bjb2chen nooijen    7240 Jan 25 17:20 /home/bjb2chen/gmsscr//H2Ocat_cct_gmcpt_C1_3st_diab_mode8_-0.05x2.F96
-rw-r--r-- 1 bjb2chen nooijen    7240 Jan 25 17:20 /home/bjb2chen/gmsscr//H2Ocat_cct_gmcpt_C1_3st_diab_mode8_-0.05x2.F96.001
-rw-r--r-- 1 bjb2chen nooijen     872 Jan 25 17:20 /home/bjb2chen/gmsscr//H2Ocat_cct_gmcpt_C1_3st_diab_mode8_-0.05x2.F97
-rw-r--r-- 1 bjb2chen nooijen     872 Jan 25 17:20 /home/bjb2chen/gmsscr//H2Ocat_cct_gmcpt_C1_3st_diab_mode8_-0.05x2.F97.001
-rw-r--r-- 1 bjb2chen nooijen    2408 Jan 25 17:20 /home/bjb2chen/gmsscr//H2Ocat_cct_gmcpt_C1_3st_diab_mode8_-0.05x2.F98
-rw-r--r-- 1 bjb2chen nooijen    2408 Jan 25 17:20 /home/bjb2chen/gmsscr//H2Ocat_cct_gmcpt_C1_3st_diab_mode8_-0.05x2.F98.001
-rw-r--r-- 1 bjb2chen nooijen    6024 Jan 25 17:20 /home/bjb2chen/gmsscr//H2Ocat_cct_gmcpt_C1_3st_diab_mode8_-0.05x2.F99
-rw-r--r-- 1 bjb2chen nooijen    6024 Jan 25 17:20 /home/bjb2chen/gmsscr//H2Ocat_cct_gmcpt_C1_3st_diab_mode8_-0.05x2.F99.001
ls: No match.
ls: No match.
ls: No match.
Thu 25 Jan 2024 05:20:32 PM EST
0.354u 0.287s 0:08.51 7.4%	0+0k 32+248io 0pf+0w
