----- GAMESS execution script 'rungms' -----
This job is running on host io001
under operating system Linux at Thu 25 Jan 2024 05:20:23 PM EST
Available scratch disk space (Kbyte units) at beginning of the job is
Filesystem             1K-blocks       Used Available Use% Mounted on
helmholtz.nlogn:/home 6391504896 5248411648 820954112  87% /home
GAMESS temporary binary files will be written to /home/bjb2chen/gmsscr/
GAMESS supplementary output files will be written to /home/bjb2chen/gamess/vibronics/template_examples/H2O
Copying input file H2Ocat_cct_gmcpt_C1_3st_diab_mode7_+0.05x2.inp to your run's scratch directory...
cp H2Ocat_cct_gmcpt_C1_3st_diab_mode7_+0.05x2.inp /home/bjb2chen/gmsscr//H2Ocat_cct_gmcpt_C1_3st_diab_mode7_+0.05x2.F05
unset echo
 
Assuming a single but multicore node.
 
/home/bjb2chen/gamess/ddikick.x /home/bjb2chen/gamess/gamess.00.x H2Ocat_cct_gmcpt_C1_3st_diab_mode7_+0.05x2 -ddi 1 2 io001:cpus=2 -scr /home/bjb2chen/gmsscr/

 Distributed Data Interface kickoff program.
 Initiating 2 compute processes on 1 nodes to run the following command:
 /home/bjb2chen/gamess/gamess.00.x H2Ocat_cct_gmcpt_C1_3st_diab_mode7_+0.05x2 

          ******************************************************
          *         GAMESS VERSION = 02 AUG 2018 (R2)         *
          *             FROM IOWA STATE UNIVERSITY             *
          * M.W.SCHMIDT, K.K.BALDRIDGE, J.A.BOATZ, S.T.ELBERT, *
          *   M.S.GORDON, J.H.JENSEN, S.KOSEKI, N.MATSUNAGA,   *
          *          K.A.NGUYEN, S.J.SU, T.L.WINDUS,           *
          *       TOGETHER WITH M.DUPUIS, J.A.MONTGOMERY       *
          *         J.COMPUT.CHEM.  14, 1347-1363(1993)        *
          **************** 64 BIT LINUX VERSION ****************

  SINCE 1993, STUDENTS AND POSTDOCS WORKING AT IOWA STATE UNIVERSITY
  AND ALSO IN THEIR VARIOUS JOBS AFTER LEAVING ISU HAVE MADE IMPORTANT
  CONTRIBUTIONS TO THE CODE:
     IVANA ADAMOVIC, CHRISTINE AIKENS, YURI ALEXEEV, POOJA ARORA,
     ANDREY ASADCHEV, ROB BELL, PRADIPTA BANDYOPADHYAY, JONATHAN BENTZ,
     BRETT BODE, KURT BRORSEN, CALEB CARLIN, GALINA CHABAN, WEI CHEN,
     CHEOL HO CHOI, PAUL DAY, ALBERT DEFUSCO, NUWAN DESILVA, TIM DUDLEY,
     DMITRI FEDOROV, ALEX FINDLATER, GRAHAM FLETCHER, MARK FREITAG,
     KURT GLAESEMANN, ANASTASIA GUININA,
     DAN KEMP, GRANT MERRILL, NORIYUKI MINEZAWA, JONATHAN MULLIN,
     TAKESHI NAGATA, SEAN NEDD, HEATHER NETZLOFF, BOSILJKA NJEGIC, RYAN OLSON,
     MIKE PAK, BUU PHAM,
     SPENCER PRUITT, LUKE ROSKOP, JIM SHOEMAKER, LYUDMILA SLIPCHENKO,
     TONY SMITH, SAROM SOK LEANG, JIE SONG, TETSUYA TAKETSUGU, SIMON WEBB,
     PENG XU, SOOHAENG YOO, FEDERICO ZAHARIEV

  ADDITIONAL CODE HAS BEEN PROVIDED BY COLLABORATORS IN OTHER GROUPS:
     IOWA STATE UNIVERSITY:
          JOE IVANIC, AARON WEST, LAIMUTIS BYTAUTAS, KLAUS RUEDENBERG
     UNIVERSITY OF TOKYO: KIMIHIKO HIRAO, TAKAHITO NAKAJIMA,
          TAKAO TSUNEDA, MUNEAKI KAMIYA, SUSUMU YANAGISAWA,
          KIYOSHI YAGI, MAHITO CHIBA, SEIKEN TOKURA, NAOAKI KAWAKAMI
     UNIVERSITY OF AARHUS: FRANK JENSEN
     UNIVERSITY OF IOWA: VISVALDAS KAIRYS, HUI LI
     NATIONAL INST. OF STANDARDS AND TECHNOLOGY: WALT STEVENS, DAVID GARMER
     UNIVERSITY OF PISA: BENEDETTA MENNUCCI, JACOPO TOMASI
     UNIVERSITY OF MEMPHIS: HENRY KURTZ, PRAKASHAN KORAMBATH
     UNIVERSITY OF ALBERTA: TOBY ZENG, MARIUSZ KLOBUKOWSKI
     UNIVERSITY OF NEW ENGLAND: MARK SPACKMAN
     MIE UNIVERSITY: HIROAKI UMEDA
     NAT. INST. OF ADVANCED INDUSTRIAL SCIENCE AND TECHNOLOGY: KAZUO KITAURA
     MICHIGAN STATE UNIVERSITY:
          KAROL KOWALSKI, MARTA WLOCH, JEFFREY GOUR, JESSE LUTZ,
          WEI LI, JUN SHEN, J. EMILIANO DEUSTUA, PIOTR PIECUCH
     UNIVERSITY OF MINNESOTA:
          YINAN SHU
     UNIVERSITY OF SILESIA: MONIKA MUSIAL, STANISLAW KUCHARSKI
     FACULTES UNIVERSITAIRES NOTRE-DAME DE LA PAIX:
          OLIVIER QUINET, BENOIT CHAMPAGNE
     UNIVERSITY OF CALIFORNIA - SANTA BARBARA: BERNARD KIRTMAN
     INSTITUTE FOR MOLECULAR SCIENCE:
          KAZUYA ISHIMURA, MICHIO KATOUDA, AND SHIGERU NAGASE
     UNIVERSITY OF NOTRE DAME: ANNA POMOGAEVA, DAN CHIPMAN
     KYUSHU UNIVERSITY:
          HARUYUKI NAKANO,
          FENG LONG GU, JACEK KORCHOWIEC, MARCIN MAKOWSKI, AND YURIKO AOKI,
          HIROTOSHI MORI AND EISAKU MIYOSHI
     PENNSYLVANIA STATE UNIVERSITY:
          TZVETELIN IORDANOV, CHET SWALINA, JONATHAN SKONE,
          SHARON HAMMES-SCHIFFER
     WASEDA UNIVERSITY:
          MASATO KOBAYASHI, TOMOKO AKAMA, TSUGUKI TOUMA,
          TAKESHI YOSHIKAWA, YASUHIRO IKABATA, JUNJI SEINO,
          YUYA NAKAJIMA, HIROMI NAKAI
     NANJING UNIVERSITY: SHUHUA LI
     UNIVERSITY OF NEBRASKA:
          PEIFENG SU, DEJUN SI, NANDUN THELLAMUREGE, YALI WANG, HUI LI
     UNIVERSITY OF ZURICH: ROBERTO PEVERATI, KIM BALDRIDGE
     N. COPERNICUS UNIVERSITY AND JACKSON STATE UNIVERSITY:
          MARIA BARYSZ
     UNIVERSITY OF COPENHAGEN: Jimmy Kromann, CASPER STEINMANN
     TOKYO INSTITUTE OF TECHNOLOGY: HIROYA NAKATA
     NAGOYA UNIVERSITY: YOSHIO NISHIMOTO, STEPHAN IRLE
     MOSCOW STATE UNIVERSITY: VLADIMIR MIRONOV


 PARALLEL VERSION RUNNING ON        2 PROCESSORS IN        1 NODES.

 EXECUTION OF GAMESS BEGUN Thu Jan 25 17:20:24 2024

            ECHO OF THE FIRST FEW INPUT CARDS -
 INPUT CARD> !############################################################################# 
 INPUT CARD> !                   D_3h RHF GEOMETRY OPTIMIZATION AND HESSIAN TEMPLATE        
 INPUT CARD> ! ---------------------------------------------------------------------------  
 INPUT CARD> ! Replace the symmetry-correct coordinates, should only be two atoms.          
 INPUT CARD> ! The hydrogen or fluorine should have only one non-zero x,y,z coordinate.     
 INPUT CARD> !                                                                              
 INPUT CARD> ! Basis set?   gbasis=ccd for 2nd row,                                         
 INPUT CARD> !                         cct 3rd/4th,                                         
 INPUT CARD> !                   SPKrTZP for heavy,                                         
 INPUT CARD> !                   SPKrTZC beyond 4th                                         
 INPUT CARD> !                                                                              
 INPUT CARD> !############################################################################# 
 INPUT CARD> $system kdiag=3 mwords=250 memddi=8000 parall=.t. $end                         
 INPUT CARD> $contrl runtyp=energy ispher=1 $end                                            
 INPUT CARD> $contrl icut=9 itol=20 inttyp=rysquad qmttol=1.0d-05 nosym=1 $end              
 INPUT CARD> $contrl scftyp=mcscf  mult=2 maxit=200 icharg=1 mplevl=2 $end                  
 INPUT CARD> $scf    npunch=2 conv=1.0d-06 dirscf=.t. $end                                  
 INPUT CARD> $force  method=seminum $end                                                    
 INPUT CARD> $trans  dirtrf=.t. $end                                                        
 INPUT CARD> $statpt hssend=.t. $end                                                        
 INPUT CARD> $basis  gbasis=ccd $end                                                        
 INPUT CARD> !############################################################################# 
 INPUT CARD> !                                                                              
 INPUT CARD> !                       TURN ON THIS SECTION IF HEAVY ATOM                     
 INPUT CARD> !                                                                              
 INPUT CARD> !############################################################################# 
 INPUT CARD> !                                                                              
 INPUT CARD> -contrl relwfn=LUT-IOTC $end                                                   
 INPUT CARD> -scf  diis=.t. soscf=.f. ethrsh=10.0 $end                                      
 INPUT CARD> -guess iorder(25)=27,25,26 $end                                                
 INPUT CARD> -gmcpt nsolut=100 $end                                                         
 INPUT CARD> !                                                                              
 INPUT CARD> !############################################################################# 
 INPUT CARD> !                                                                              
 INPUT CARD> !       TURN ON THIS SECTION IF GMCPT, CHANGE runtyp=energy, scftyp=mcscf      
 INPUT CARD> !                                                                              
 INPUT CARD> !############################################################################# 
 INPUT CARD> $guess  guess=moread norb=24 purify=.t. norder=1 $end                          
 INPUT CARD> $mcscf  cistep=gmcci fullnr=.t. finci=mos                                      
 INPUT CARD>         acurcy=1.d-6 maxit=100 $end                                            
 INPUT CARD> $mrmp   mrpt=gmcpt rdvecs=.f. $end                                             
 INPUT CARD> $gmcpt  nmofzc=0 nmodoc=1 nmoact=6 nelact=7 stsym(1)=A                         
 INPUT CARD>         reftyp=ormas nspace=1 mstart(1)=2 mine(1)=7 maxe(1)=7                  
 INPUT CARD>         kstate(1)=1,1,1                                                        
 INPUT CARD>         wstate(1)=1,1,1                                                        
 INPUT CARD>         iwgt=0 thrwgt=-1.0 krot=.f. kszdoe=.f. knospn=.f.                      
 INPUT CARD>         thrde=-1.0 edshft=0.02 $end                                            
 INPUT CARD> !if SOC: transt $end, add knospn=.t.                                           
 INPUT CARD> !############################################################################# 
 INPUT CARD> !                                                                              
  250000000 WORDS OF MEMORY AVAILABLE

     BASIS OPTIONS
     -------------
     GBASIS=CCD          IGAUSS=       0      POLAR=NONE    
     NDFUNC=       0     NFFUNC=       0     DIFFSP=       F
     NPFUNC=       0      DIFFS=       F     BASNAM=        


     RUN TITLE
     ---------
  H2O cation diabatization 3 states                                              

 THE POINT GROUP OF THE MOLECULE IS C1      
 THE ORDER OF THE PRINCIPAL AXIS IS     0

 ATOM      ATOMIC                      COORDINATES (BOHR)
           CHARGE         X                   Y                   Z
 O           8.0     0.0000000000        0.0000000000       -0.0830315193
 H           1.0     1.5199774319        0.0000000006        1.0546593206
 H           1.0    -1.5199774319       -0.0000000006        1.0546593206

          INTERNUCLEAR DISTANCES (ANGS.)
          ------------------------------

                1 O          2 H          3 H     

   1 O       0.0000000    1.0046945 *  1.0046945 *
   2 H       1.0046945 *  0.0000000    1.6086750 *
   3 H       1.0046945 *  1.6086750 *  0.0000000  

  * ... LESS THAN  3.000


     ATOMIC BASIS SET
     ----------------
 THE CONTRACTED PRIMITIVE FUNCTIONS HAVE BEEN UNNORMALIZED
 THE CONTRACTED BASIS FUNCTIONS ARE NOW NORMALIZED TO UNITY

  SHELL TYPE  PRIMITIVE        EXPONENT          CONTRACTION COEFFICIENT(S)

 O         

      1   S       1         11720.0000000    0.000709645947
      1   S       2          1759.0000000    0.005467272292
      1   S       3           400.8000000    0.027823118610
      1   S       4           113.7000000    0.104747739711
      1   S       5            37.0300000    0.282920846357
      1   S       6            13.2700000    0.448495238698
      1   S       7             5.0250000    0.270816885213
      1   S       8             1.0130000    0.015450291607

      2   S       9         11720.0000000   -0.000314443412
      2   S      10          1759.0000000   -0.002482137681
      2   S      11           400.8000000   -0.012316355382
      2   S      12           113.7000000   -0.050538917344
      2   S      13            37.0300000   -0.139384903316
      2   S      14            13.2700000   -0.325077494818
      2   S      15             5.0250000   -0.229848307588
      2   S      16             1.0130000    1.095379346788

      3   S      17             0.3023000    1.000000000000

      4   P      18            17.7000000    0.062679166282
      4   P      19             3.8540000    0.333536565879
      4   P      20             1.0460000    0.741239641640

      5   P      21             0.2753000    1.000000000000

      6   D      22             1.1850000    1.000000000000

 H         

      7   S      23            13.0100000    0.033498726390
      7   S      24             1.9620000    0.234800801174
      7   S      25             0.4446000    0.813682957883

      8   S      26             0.1220000    1.000000000000

      9   P      27             0.7270000    1.000000000000

 H         

     10   S      28            13.0100000    0.033498726390
     10   S      29             1.9620000    0.234800801174
     10   S      30             0.4446000    0.813682957883

     11   S      31             0.1220000    1.000000000000

     12   P      32             0.7270000    1.000000000000

 TOTAL NUMBER OF BASIS SET SHELLS             =   12
 NUMBER OF CARTESIAN GAUSSIAN BASIS FUNCTIONS =   25
 NOTE: THIS RUN WILL RESTRICT THE MO VARIATION SPACE TO SPHERICAL HARMONICS.
 THE NUMBER OF ORBITALS KEPT IN THE VARIATIONAL SPACE WILL BE PRINTED LATER.
 NUMBER OF ELECTRONS                          =    9
 CHARGE OF MOLECULE                           =    1
 SPIN MULTIPLICITY                            =    2
 NUMBER OF OCCUPIED ORBITALS (ALPHA)          =    5
 NUMBER OF OCCUPIED ORBITALS (BETA )          =    4
 TOTAL NUMBER OF ATOMS                        =    3
 THE NUCLEAR REPULSION ENERGY IS        8.7562262744

     $CONTRL OPTIONS
     ---------------
 SCFTYP=MCSCF        RUNTYP=ENERGY       EXETYP=RUN     
 MPLEVL=       2     CITYP =NONE         CCTYP =NONE         VBTYP =NONE    
 DFTTYP=NONE         TDDFT =NONE    
 MULT  =       2     ICHARG=       1     NZVAR =       0     COORD =UNIQUE  
 PP    =NONE         RELWFN=NONE         LOCAL =NONE         NUMGRD=       F
 ISPHER=       1     NOSYM =       1     MAXIT =     200     UNITS =ANGS    
 PLTORB=       F     MOLPLT=       F     AIMPAC=       F     FRIEND=        
 NPRINT=       7     IREST =       0     GEOM  =INPUT   
 NORMF =       0     NORMP =       0     ITOL  =      20     ICUT  =       9
 INTTYP=RYSQUAD      GRDTYP=BEST         QMTTOL= 1.0E-05

     $SYSTEM OPTIONS
     ---------------
  REPLICATED MEMORY=   250000000 WORDS (ON EVERY NODE).
 DISTRIBUTED MEMDDI=        8000 MILLION WORDS IN AGGREGATE,
 MEMDDI DISTRIBUTED OVER   2 PROCESSORS IS  4000000000 WORDS/PROCESSOR.
 TOTAL MEMORY REQUESTED ON EACH PROCESSOR=  4250000000 WORDS.
 TIMLIM=      525600.00 MINUTES, OR     365.0 DAYS.
 PARALL= T  BALTYP=  DLB     KDIAG=    3  COREFL= F
 MXSEQ2=     300 MXSEQ3=     150  mem10=         0

          ----------------
          PROPERTIES INPUT
          ----------------

     MOMENTS            FIELD           POTENTIAL          DENSITY
 IEMOM =       1   IEFLD =       0   IEPOT =       0   IEDEN =       0
 WHERE =COMASS     WHERE =NUCLEI     WHERE =NUCLEI     WHERE =NUCLEI  
 OUTPUT=BOTH       OUTPUT=BOTH       OUTPUT=BOTH       OUTPUT=BOTH    
 IEMINT=       0   IEFINT=       0                     IEDINT=       0
                                                       MORB  =       0

     -------------------------------
     INTEGRAL TRANSFORMATION OPTIONS
     -------------------------------
     NWORD  =            0
     CUTOFF = 1.0E-09     MPTRAN =       0
     DIRTRF =       T     AOINTS =DUP     

          ----------------------
          MCSCF INPUT PARAMETERS
          ----------------------
 CONVERGER SELECTION: FOCAS = F  SOSCF = F  FULLNR = T  QUD = F  JACOBI = F
 SECULAR EQUATION METHOD CISTEP = GMCCI   
 --- GENERAL INPUT OPTIONS:
 MAXIT =     100  MICIT =       1  ACURCY= 1.000E-06
 DAMP  =   0.000  CANONC=       T  ENGTOL= 1.000E-10
 EKT   =       F  NPUNCH=       2  NWORD =         0
 REGENERATE CI AFTER CONVERGENCE = NONE    
 DIABATIZATION AFTER CONVERGENCE =        F
 --- INPUT FOR FULLNR CONVERGER:
 METHOD=DM2       FORS  =       F  DROPC =       T
 LINSER=       F  FCORE =       F  NORB  =      25

          ----------------------
          INTEGRAL INPUT OPTIONS
          ----------------------
 NOPK  =       1 NORDER=       0 SCHWRZ=       T

 ------------------------------------------
 MULTIREFERENCE PERTURBATION THEORY CONTROL
 ------------------------------------------
 MRPT=GMCPT    READ CONVERGED MCSCF VECTORS= F


     ------------------------------------------
     THE POINT GROUP IS C1 , NAXIS= 1, ORDER= 1
     ------------------------------------------

 -- VARIATIONAL SPACE WILL BE RESTRICTED TO PURE SPHERICAL HARMONICS ONLY --
 AFTER EXCLUDING CONTAMINANT COMBINATIONS FROM THE CARTESIAN GAUSSIAN BASIS
 SET, THE NUMBER OF SPHERICAL HARMONICS KEPT IN THE VARIATION SPACE IS   24

     DIMENSIONS OF THE SYMMETRY SUBSPACES ARE
 A   =   24

 ..... DONE SETTING UP THE RUN .....
 CPU     0: STEP CPU TIME=     0.05 TOTAL CPU TIME=          0.0 (      0.0 MIN)
 TOTAL WALL CLOCK TIME=          0.3 SECONDS, CPU UTILIZATION IS    17.86%

          ********************
          1 ELECTRON INTEGRALS
          ********************
 TIME TO DO   DIPOLE INTEGRALS=      0.00
 ...... END OF ONE-ELECTRON INTEGRALS ......
 CPU     0: STEP CPU TIME=     0.00 TOTAL CPU TIME=          0.0 (      0.0 MIN)
 TOTAL WALL CLOCK TIME=          0.3 SECONDS, CPU UTILIZATION IS    17.86%

          -------------
          GUESS OPTIONS
          -------------
          GUESS =MOREAD            NORB  =      24          NORDER=       1
          MIX   =       F          PRTMO =       F          PUNMO =       F
          TOLZ  = 1.0E-08          TOLE  = 1.0E-05
          SYMDEN=       F          PURIFY=       T

 INITIAL GUESS ORBITALS GENERATED BY MOREAD   ROUTINE.

 STATISTICS FOR GENERATION OF SYMMETRY ORBITAL -Q- MATRIX
 NUMBER OF CARTESIAN ATOMIC ORBITALS=         25
 NUMBER OF SPHERICAL CONTAMINANTS DROPPED=     1
 NUMBER OF LINEARLY DEPENDENT MOS DROPPED=     0
 TOTAL NUMBER OF MOS IN VARIATION SPACE=      24
 ORBITAL PURIFICATION WILL OCCUR

 SYMMETRIES FOR INITIAL GUESS ORBITALS FOLLOW.   BOTH SET(S).
     5 ORBITALS ARE OCCUPIED (    1 CORE ORBITALS).
     1=A        2=A        3=A        4=A        5=A        6=A        7=A   
     8=A        9=A       10=A       11=A       12=A       13=A       14=A   
    15=A       16=A       17=A       18=A       19=A       20=A       21=A   
    22=A       23=A       24=A   
 ...... END OF INITIAL ORBITAL SELECTION ......
 CPU     0: STEP CPU TIME=     0.00 TOTAL CPU TIME=          0.0 (      0.0 MIN)
 TOTAL WALL CLOCK TIME=          0.3 SECONDS, CPU UTILIZATION IS    17.24%

                    ----------------------
                    AO INTEGRAL TECHNOLOGY
                    ----------------------
     S,P,L SHELL ROTATED AXIS INTEGRALS, REPROGRAMMED BY
        KAZUYA ISHIMURA (IMS) AND JOSE SIERRA (SYNSTAR).
     S,P,D,L SHELL ROTATED AXIS INTEGRALS PROGRAMMED BY
        KAZUYA ISHIMURA (INSTITUTE FOR MOLECULAR SCIENCE).
     S,P,D,F,G SHELL TO TOTAL QUARTET ANGULAR MOMENTUM SUM 5,
        ERIC PROGRAM BY GRAHAM FLETCHER (ELORET AND NASA ADVANCED
        SUPERCOMPUTING DIVISION, AMES RESEARCH CENTER).
     S,P,D,F,G,L SHELL GENERAL RYS QUADRATURE PROGRAMMED BY
        MICHEL DUPUIS (PACIFIC NORTHWEST NATIONAL LABORATORY).

          --------------------
          2 ELECTRON INTEGRALS
          --------------------

 DIRECT SCF METHOD SKIPS INTEGRAL STORAGE ON DISK.
 DIRECT TRANSFORMATION SKIPS AO INTEGRAL STORAGE ON DISK.
  ...... END OF TWO-ELECTRON INTEGRALS .....
 STEP CPU TIME =     0.02 TOTAL CPU TIME =          0.1 (      0.0 MIN)
 TOTAL WALL CLOCK TIME=          0.3 SECONDS, CPU UTILIZATION IS    21.88%
 DDI: Creating Array [0] - 625 x 28 = 17500 words.
 DDI: Creating Array [1] - 17 x 196 = 3332 words.
 DDI: Creating Array [2] - 28 x 28 = 784 words.
 DDI: Creating Array [3] - 325 x 28 = 9100 words.

          -----------------
          MCSCF CALCULATION
          -----------------

 ----- NUCLEAR ENERGY ----- =         8.7562262744

     -------------------------------------------------
     GMC-PT/GMC-QDPT or general MCSCF input parameters
     -------------------------------------------------
 # of frozen core orbs. =         0 ->         0
 # of doubly occ. orbs. =         1
 # of active      orbs. =         6
 # of virtual     orbs. =        17
 # of active electrons  =         7
 # of states in CI      =         3
 Highest state in CI    =         3
 kstate =  1 1 1
 avecoe =  0.333 0.333 0.333
 State symmetry           = A           
 Assigned symmetry number = 1

 <<<Act. MO sym.: 111111

 <<<Division of 1-ext.:  0 0
 <<<Division of 2-ext.:  0 1

 *** Reference space

 Reference type: ORMAS (= Occupation restricted multiple active space)
 # of orbitals          =  6
 # of minimum electrons =  7
 # of maximum electrons =  7
 State symmetry    =    1 (input)
 2*Sz              =    1 (input)
 Spin multiplicity =    2 (input)
 Dimension of reference space =       300  (from       792 walks)

 Dimension of reference space =       300  (from       300 walks)

 <<<Ionized spaces for Ref-CI:
      0:          300 /   -1-0:          625 /  0-1-0:          690

 EVALUATING EXCHANGE INTEGRALS FOR DIRECT INTEGRAL TRANSFORMATION
 SCHWARZ INEQUALITY OVERHEAD:       325 INTEGRALS, T=        0.00

     --------------------------------------------
     PARTIAL TWO ELECTRON INTEGRAL TRANSFORMATION
     --------------------------------------------

 NUMBER OF CORE MOLECULAR ORBITALS     =    1
 NUMBER OF OCCUPIED MOLECULAR ORBITALS =    7
 TOTAL NUMBER OF MOLECULAR ORBITALS    =   24
 TOTAL NUMBER OF ATOMIC ORBITALS       =   25
 THRESHOLD FOR KEEPING TRANSFORMED 2E- INTEGRALS = 1.000E-09

 -------------------------------     ------------------------------
 DISTRIBUTED DATA TRANSFORMATION     PROGRAM WRITTEN BY G. FLETCHER
 -------------------------------     ------------------------------

 THE DISTRIBUTED MEMORY REQUIRED FOR THIS STEP IS MEMDDI=         1 MWORDS
 CREATING DISTRIBUTED STORAGE FOR [VIR OCC|VIR OCC] INTEGRALS
 CREATING DISTRIBUTED STORAGE FOR [VIR OCC|OCC OCC] INTEGRALS
 CREATING DISTRIBUTED STORAGE FOR [OCC OCC|OCC OCC] INTEGRALS
 CREATING DISTRIBUTED STORAGE FOR [VIR VIR|OCC OCC] INTEGRALS
 FOR    2 PROCESSORS, THE REPLICATED MEMORY NEEDED IS       62207 WORDS.
 SCHWARZ INEQUALITY OVERHEAD:       325 INTEGRALS, T=        0.00

      DIRECT 4-INDEX TRANSFORMATION 
      SCHWARZ INEQUALITY TEST SKIPPED          0 INTEGRAL BLOCKS
 ----- FROZEN CORE ENERGY =       -61.2138541940
 ... END OF INTEGRAL TRANSFORMATION ...
 CPU     0: STEP CPU TIME=     0.06 TOTAL CPU TIME=          0.1 (      0.0 MIN)
 TOTAL WALL CLOCK TIME=          0.4 SECONDS, CPU UTILIZATION IS    32.50%

     --------------------------------     -----------------------------
     MCHF NEWTON-RAPHSON OPTIMIZATION     CODE WRITTEN BY MICHEL DUPUIS
     --------------------------------     -----------------------------
     PARALLEL VERSION WRITTEN BY G. FLETCHER (ELORET)
     NASA ADVANCED SUPERCOMPUTING DIVISION, AMES RESEARCH CENTER

 NUMBER OF INDEPENDENT ORBITAL ROTATION PARAMETERS =    44
 ..... DONE SOLVING NEWTON-RAPHSON EQUATIONS .....
 CPU     0: STEP CPU TIME=     0.06 TOTAL CPU TIME=          0.2 (      0.0 MIN)
 TOTAL WALL CLOCK TIME=          0.5 SECONDS, CPU UTILIZATION IS    37.25%
 ..... DONE WITH NTN-RPH ORBITAL ROTATIONS ..... 
 CPU     0: STEP CPU TIME=     0.00 TOTAL CPU TIME=          0.2 (      0.0 MIN)
 TOTAL WALL CLOCK TIME=          0.5 SECONDS, CPU UTILIZATION IS    37.25%
 MAXIMUM MEMORY USED BY NTN-RPH CODE WAS     51289 WORDS.

 ITER     TOTAL ENERGY      DEL(E)  LAGRANGIAN ASYMMETRY   SQCDF  MICIT   DAMP
   1      -75.568682314 -0.568682314  0.003929   10    4 1.949E-05  1   0.0000
   2      -75.568700862 -0.000018548  0.000118   12    5 6.686E-07  1   0.0000
   3      -75.568700931 -0.000000069  0.000034   12    5 9.873E-08  1   0.0000
   4      -75.568700940 -0.000000009  0.000011   18    4 1.638E-08  1   0.0000
   5      -75.568700942 -0.000000001  0.000004   18    4 2.802E-09  1   0.0000
   6      -75.568700942 -0.000000000  0.000002   18    4 4.795E-10  1   0.0000
   7      -75.568700942 -0.000000000  0.000001   10    4 8.041E-11  1   0.0000

          --------------------
          LAGRANGIAN CONVERGED
          --------------------

 FINAL MCSCF ENERGY IS      -75.5687009420 AFTER   7 ITERATIONS

 -MCCI- BASED ON OPTIMIZED ORBITALS
 ----------------------------------

 PLEASE NOTE: IF THE ACTIVE ORBITALS ARE CANONICALIZED BELOW,
 THE FOLLOWING CI EXPANSION COEFFICIENTS AND THE DENSITY DO NOT
 CORRESPOND TO THE PRINTED ORBITALS.  THE PRINTED EXPANSIONS MATCH
 THE ORBITALS USED DURING THE LAST ITERATION.  IF YOU WISH TO SEE
 CI EXPANSIONS BASED ON THE CANONICAL (OR NATURAL) ORBITALS, YOU
 MUST RUN A CI CALCULATION WITH THAT ORBITAL CHOICE READ IN $VEC.

 Averaged energy =     -75.568700942

 State #    1  Energy =     -75.682525883  S =  0.500

      Det      Coef    Occupancy (Ignoring core)
      ---      ----    --------- --------- -----
        1   -0.986984  111100111000
      173   -0.076377  101101101001

 State #    2  Energy =     -75.590942581  S =  0.500

      Det      Coef    Occupancy (Ignoring core)
      ---      ----    --------- --------- -----
       16    0.988861  111100110100
      203    0.077828  101101100101

 State #    3  Energy =     -75.432634362  S =  0.500

      Det      Coef    Occupancy (Ignoring core)
      ---      ----    --------- --------- -----
       31   -0.990639  111100101100

 DENSITY MATRIX OVER ACTIVE MO-S

             1           2           3           4           5

    1    1.9896258
    2    0.0000000   1.6503323
    3    0.0074045  -0.0000000   1.6561985
    4   -0.0000000   0.0000000  -0.0000000   1.6655667
    5   -0.0037081  -0.0000000   0.0120278   0.0000000   0.0184171
    6   -0.0000000   0.0206891   0.0000000  -0.0000000  -0.0000000

             6

    6    0.0198596

 FORMING THE "STANDARD FOCK OPERATOR" IN DIRECT AO INTEGRAL MODE...
 ONLY THE    1 CORE AND   17 VIRTUAL ORBITALS WILL BE CANONICALIZED

          ----------------------
          MCSCF NATURAL ORBITALS
          ----------------------

                      1          2          3          4          5
                  -21.0908     1.9898     1.6656     1.6561     1.6506
                     A          A          A          A          A   
    1  O  1  S    1.000776   0.015415  -0.000000  -0.007421   0.000000
    2  O  1  S   -0.003337   0.482331  -0.000000  -0.171764   0.000000
    3  O  1  S   -0.006757   0.385943  -0.000000  -0.295919   0.000000
    4  O  1  X   -0.000000   0.000000  -0.000000  -0.000000   0.548897
    5  O  1  Y   -0.000000   0.000000   0.693110  -0.000000   0.000000
    6  O  1  Z    0.000428   0.094051  -0.000000   0.606352   0.000000
    7  O  1  X   -0.000000   0.000000  -0.000000  -0.000000   0.221876
    8  O  1  Y   -0.000000   0.000000   0.431416  -0.000000   0.000000
    9  O  1  Z   -0.000599   0.007297  -0.000000   0.319804   0.000000
   10  O  1 XX    0.000035   0.002586  -0.000000  -0.007839   0.000000
   11  O  1 YY   -0.000008  -0.004268  -0.000000  -0.009864   0.000000
   12  O  1 ZZ   -0.000026   0.001682  -0.000000   0.017703   0.000000
   13  O  1 XY   -0.000000   0.000000  -0.000000  -0.000000   0.000000
   14  O  1 XZ   -0.000000   0.000000  -0.000000  -0.000000   0.022661
   15  O  1 YZ   -0.000000   0.000000   0.018141  -0.000000   0.000000
   16  H  2  S   -0.001513   0.174258  -0.000000   0.199887   0.314112
   17  H  2  S    0.000501  -0.004627   0.000000   0.022138   0.021761
   18  H  2  X    0.000702  -0.038143  -0.000000  -0.038539  -0.031324
   19  H  2  Y   -0.000000   0.000000   0.028469  -0.000000   0.000000
   20  H  2  Z    0.000512  -0.019903   0.000000   0.003618  -0.036146
   21  H  3  S   -0.001513   0.174258   0.000000   0.199887  -0.314112
   22  H  3  S    0.000501  -0.004627  -0.000000   0.022138  -0.021761
   23  H  3  X   -0.000702   0.038143  -0.000000   0.038539  -0.031324
   24  H  3  Y   -0.000000   0.000000   0.028469  -0.000000   0.000000
   25  H  3  Z    0.000512  -0.019903  -0.000000   0.003618   0.036146

                      6          7
                    0.0196     0.0183
                     A          A   
    1  O  1  S   -0.000000   0.176501
    2  O  1  S   -0.000000   0.587672
    3  O  1  S   -0.000000   0.165266
    4  O  1  X    0.870440  -0.000000
    5  O  1  Y    0.000000  -0.000000
    6  O  1  Z   -0.000000   0.748575
    7  O  1  X    0.022337  -0.000000
    8  O  1  Y    0.000000  -0.000000
    9  O  1  Z   -0.000000  -0.089263
   10  O  1 XX   -0.000000   0.008577
   11  O  1 YY   -0.000000   0.011326
   12  O  1 ZZ   -0.000000  -0.019902
   13  O  1 XY   -0.000000   0.000000
   14  O  1 XZ   -0.030177  -0.000000
   15  O  1 YZ    0.000000  -0.000000
   16  H  2  S   -0.640550  -0.619379
   17  H  2  S   -0.071899  -0.048617
   18  H  2  X    0.066619   0.117766
   19  H  2  Y   -0.000000  -0.000000
   20  H  2  Z    0.048721   0.011403
   21  H  3  S    0.640550  -0.619379
   22  H  3  S    0.071899  -0.048617
   23  H  3  X    0.066619  -0.117766
   24  H  3  Y   -0.000000   0.000000
   25  H  3  Z   -0.048721   0.011403

          ------------------------
          MCSCF OPTIMIZED ORBITALS
          ------------------------

                      1          2          3          4          5
                  -21.0908     0.0000     0.0000     0.0000     0.0000
                     A          A          A          A          A   
    1  O  1  S    1.000776   0.015913   0.000000  -0.008375   0.000000
    2  O  1  S   -0.003337   0.487132   0.000000  -0.165365  -0.000000
    3  O  1  S   -0.006757   0.392707  -0.000000  -0.288514  -0.000000
    4  O  1  X   -0.000000  -0.000000   0.537810  -0.000000  -0.000000
    5  O  1  Y   -0.000000   0.000000   0.000000   0.000000   0.693110
    6  O  1  Z    0.000428   0.082048   0.000000   0.602765   0.000000
    7  O  1  X   -0.000000  -0.000000   0.221574  -0.000000  -0.000000
    8  O  1  Y   -0.000000  -0.000000  -0.000000  -0.000000   0.431416
    9  O  1  Z   -0.000599   0.000053   0.000000   0.320534   0.000000
   10  O  1 XX    0.000035   0.002775   0.000000  -0.007843  -0.000000
   11  O  1 YY   -0.000008  -0.004027  -0.000000  -0.010039   0.000000
   12  O  1 ZZ   -0.000026   0.001252   0.000000   0.017882   0.000000
   13  O  1 XY   -0.000000  -0.000000   0.000000  -0.000000  -0.000000
   14  O  1 XZ   -0.000000  -0.000000   0.023042  -0.000000  -0.000000
   15  O  1 YZ   -0.000000   0.000000   0.000000   0.000000   0.018141
   16  H  2  S   -0.001513   0.168613   0.322212   0.208243  -0.000000
   17  H  2  S    0.000501  -0.005208   0.022671   0.022387   0.000000
   18  H  2  X    0.000702  -0.037056  -0.032167  -0.040238  -0.000000
   19  H  2  Y   -0.000000   0.000000   0.000000   0.000000   0.028469
   20  H  2  Z    0.000512  -0.019957  -0.036762   0.003093   0.000000
   21  H  3  S   -0.001513   0.168613  -0.322212   0.208243   0.000000
   22  H  3  S    0.000501  -0.005208  -0.022671   0.022387  -0.000000
   23  H  3  X   -0.000702   0.037056  -0.032167   0.040238  -0.000000
   24  H  3  Y   -0.000000  -0.000000   0.000000  -0.000000   0.028469
   25  H  3  Z    0.000512  -0.019957   0.036762   0.003093  -0.000000

                      6          7          8          9         10
                    0.0000     0.0000     0.1323     0.1699     0.6632
                     A          A          A          A          A   
    1  O  1  S    0.176414   0.000000   0.097571   0.000000  -0.011360
    2  O  1  S    0.585543   0.000000   0.127886   0.000000   0.109813
    3  O  1  S    0.162400   0.000000  -0.967513   0.000000   0.573782
    4  O  1  X   -0.000000   0.877333   0.000000  -0.076193  -0.000000
    5  O  1  Y    0.000000   0.000000   0.000000   0.000000  -0.000000
    6  O  1  Z    0.752872   0.000000   0.194444   0.000000  -0.522837
    7  O  1  X   -0.000000   0.025150   0.000000   0.431243  -0.000000
    8  O  1  Y   -0.000000   0.000000   0.000000  -0.000000  -0.000000
    9  O  1  Z   -0.086909  -0.000000  -0.399979   0.000000   1.077271
   10  O  1 XX    0.008514  -0.000000  -0.045599   0.000000  -0.067557
   11  O  1 YY    0.011260   0.000000   0.056557   0.000000   0.034046
   12  O  1 ZZ   -0.019774  -0.000000  -0.010958   0.000000   0.033511
   13  O  1 XY    0.000000   0.000000  -0.000000   0.000000  -0.000000
   14  O  1 XZ   -0.000000  -0.029887   0.000000   0.077438  -0.000000
   15  O  1 YZ    0.000000   0.000000   0.000000   0.000000  -0.000000
   16  H  2  S   -0.618188  -0.636514  -0.394793   0.500591  -0.723203
   17  H  2  S   -0.048444  -0.071617   0.990231  -1.567569   0.034280
   18  H  2  X    0.117545   0.066216  -0.101126   0.040906  -0.092984
   19  H  2  Y    0.000000  -0.000000   0.000000  -0.000000  -0.000000
   20  H  2  Z    0.011464   0.048258  -0.058872   0.074255   0.242459
   21  H  3  S   -0.618188   0.636514  -0.394793  -0.500591  -0.723203
   22  H  3  S   -0.048444   0.071617   0.990231   1.567569   0.034280
   23  H  3  X   -0.117545   0.066216   0.101126   0.040906   0.092984
   24  H  3  Y   -0.000000  -0.000000  -0.000000  -0.000000   0.000000
   25  H  3  Z    0.011464  -0.048258  -0.058872  -0.074255   0.242459

                     11         12         13         14         15
                    0.7327     0.7555     1.0328     1.0381     1.2591
                     A          A          A          A          A   
    1  O  1  S   -0.000000  -0.000000   0.267923  -0.000000  -0.000000
    2  O  1  S   -0.000000  -0.000000   0.660915  -0.000000  -0.000000
    3  O  1  S   -0.000000  -0.000000  -0.630533   0.000000  -0.000000
    4  O  1  X   -0.527391  -0.000000  -0.000000   0.000000  -0.000000
    5  O  1  Y    0.000000  -0.921490  -0.000000   0.000000   0.078642
    6  O  1  Z   -0.000000  -0.000000  -0.309063   0.000000  -0.000000
    7  O  1  X    1.769667   0.000000  -0.000000   0.000000   0.000000
    8  O  1  Y   -0.000000   1.006665  -0.000000   0.000000  -0.674734
    9  O  1  Z   -0.000000  -0.000000   0.835928  -0.000000  -0.000000
   10  O  1 XX   -0.000000  -0.000000   0.097288  -0.000000  -0.000000
   11  O  1 YY   -0.000000  -0.000000   0.038183  -0.000000  -0.000000
   12  O  1 ZZ   -0.000000  -0.000000  -0.135471   0.000000  -0.000000
   13  O  1 XY   -0.000000  -0.000000  -0.000000  -0.153906  -0.000000
   14  O  1 XZ   -0.028797  -0.000000  -0.000000   0.000000  -0.000000
   15  O  1 YZ   -0.000000   0.004742  -0.000000   0.000000   0.182438
   16  H  2  S   -0.673013  -0.000000  -0.240609   0.000000   0.000000
   17  H  2  S   -0.598728  -0.000000   0.188435  -0.000000  -0.000000
   18  H  2  X    0.216580   0.000000   0.373510  -0.000000  -0.000000
   19  H  2  Y   -0.000000   0.067657  -0.000000  -0.675376   0.750946
   20  H  2  Z    0.021717   0.000000  -0.437614   0.000000  -0.000000
   21  H  3  S    0.673013   0.000000  -0.240609   0.000000  -0.000000
   22  H  3  S    0.598728   0.000000   0.188435  -0.000000   0.000000
   23  H  3  X    0.216580   0.000000  -0.373510   0.000000  -0.000000
   24  H  3  Y   -0.000000   0.067657   0.000000   0.675376   0.750946
   25  H  3  Z   -0.021717  -0.000000  -0.437614   0.000000   0.000000

                     16         17         18         19         20
                    1.4175     1.4616     1.7965     1.7985     2.7392
                     A          A          A          A          A   
    1  O  1  S   -0.711705  -0.000000  -0.000000   0.014072  -0.000000
    2  O  1  S   -1.556154  -0.000000   0.000000   0.131921  -0.000000
    3  O  1  S    2.623243   0.000000   0.000000   1.412135  -0.000000
    4  O  1  X   -0.000000  -0.092732   0.522745  -0.000000   0.000000
    5  O  1  Y   -0.000000  -0.000000   0.000000   0.000000  -0.031481
    6  O  1  Z    0.023912  -0.000000   0.000000   0.393292  -0.000000
    7  O  1  X   -0.000000   0.967197   0.327784  -0.000000  -0.000000
    8  O  1  Y   -0.000000   0.000000  -0.000000   0.000000   0.287216
    9  O  1  Z    0.894817  -0.000000   0.000000   0.435924  -0.000000
   10  O  1 XX   -0.024622  -0.000000  -0.000000  -0.122421  -0.000000
   11  O  1 YY    0.161818  -0.000000   0.000000   0.187284  -0.000000
   12  O  1 ZZ   -0.137196  -0.000000  -0.000000  -0.064862  -0.000000
   13  O  1 XY   -0.000000  -0.000000  -0.000000  -0.000000  -0.000000
   14  O  1 XZ   -0.000000  -0.028348  -0.096955   0.000000  -0.000000
   15  O  1 YZ   -0.000000   0.000000  -0.000000   0.000000   1.024966
   16  H  2  S   -0.745207  -0.393830  -0.075227  -0.379978   0.000000
   17  H  2  S   -0.316734  -0.119126  -0.463952  -0.300441  -0.000000
   18  H  2  X    0.264192  -0.415408   0.735129   0.808497   0.000000
   19  H  2  Y    0.000000  -0.000000   0.000000   0.000000  -0.372716
   20  H  2  Z   -0.191120   0.694404   0.560309   0.564755   0.000000
   21  H  3  S   -0.745207   0.393830   0.075227  -0.379978  -0.000000
   22  H  3  S   -0.316734   0.119126   0.463952  -0.300441   0.000000
   23  H  3  X   -0.264192  -0.415408   0.735129  -0.808497   0.000000
   24  H  3  Y   -0.000000  -0.000000   0.000000  -0.000000  -0.372716
   25  H  3  Z   -0.191120  -0.694404  -0.560309   0.564755  -0.000000

                     21         22         23         24
                    2.8008     2.9431     3.3190     3.5813
                     A          A          A          A   
    1  O  1  S    0.000000  -0.085019  -0.233122   0.000000
    2  O  1  S    0.000000  -0.154392  -0.382167   0.000000
    3  O  1  S   -0.000000   0.531120   2.149946   0.000000
    4  O  1  X    0.000000   0.000000  -0.000000   0.310843
    5  O  1  Y    0.000000   0.000000  -0.000000  -0.000000
    6  O  1  Z    0.000000   0.000409   0.247861   0.000000
    7  O  1  X    0.000000   0.000000  -0.000000   1.131429
    8  O  1  Y    0.000000   0.000000  -0.000000   0.000000
    9  O  1  Z   -0.000000   0.508722   0.886078   0.000000
   10  O  1 XX   -0.000000  -0.647656   0.955077   0.000000
   11  O  1 YY    0.000000  -0.408594  -1.054354   0.000000
   12  O  1 ZZ   -0.000000   1.056250   0.099277   0.000000
   13  O  1 XY    1.048713  -0.000000   0.000000   0.000000
   14  O  1 XZ    0.000000   0.000000  -0.000000   1.300580
   15  O  1 YZ    0.000000   0.000000  -0.000000   0.000000
   16  H  2  S    0.000000  -0.280609  -1.036642  -0.913167
   17  H  2  S   -0.000000  -0.041026  -0.203746  -0.292975
   18  H  2  X    0.000000   0.352195   0.600760   0.578880
   19  H  2  Y   -0.354742   0.000000   0.000000   0.000000
   20  H  2  Z    0.000000  -0.297554   0.462833   0.462332
   21  H  3  S    0.000000  -0.280609  -1.036642   0.913167
   22  H  3  S   -0.000000  -0.041026  -0.203746   0.292975
   23  H  3  X   -0.000000  -0.352195  -0.600760   0.578880
   24  H  3  Y    0.354742  -0.000000  -0.000000   0.000000
   25  H  3  Z    0.000000  -0.297554   0.462833  -0.462332
 .....DONE WITH MCSCF ITERATIONS.....
 CPU     0: STEP CPU TIME=     0.69 TOTAL CPU TIME=          0.9 (      0.0 MIN)
 TOTAL WALL CLOCK TIME=          2.0 SECONDS, CPU UTILIZATION IS    43.56%

     ----------------------------------------------------------------
     PROPERTY VALUES FOR THE MCSCF SELF-CONSISTENT FIELD WAVEFUNCTION
     ----------------------------------------------------------------

          -----------------
          ENERGY COMPONENTS
          -----------------

         WAVEFUNCTION NORMALIZATION =       1.0000000000

                ONE ELECTRON ENERGY =    -117.3189509798
                TWO ELECTRON ENERGY =      32.9940237635
           NUCLEAR REPULSION ENERGY =       8.7562262744
                                      ------------------
                       TOTAL ENERGY =     -75.5687009420

 ELECTRON-ELECTRON POTENTIAL ENERGY =      32.9940237635
  NUCLEUS-ELECTRON POTENTIAL ENERGY =    -192.9447568391
   NUCLEUS-NUCLEUS POTENTIAL ENERGY =       8.7562262744
                                      ------------------
             TOTAL POTENTIAL ENERGY =    -151.1945068013
               TOTAL KINETIC ENERGY =      75.6258058593
                 VIRIAL RATIO (V/T) =       1.9992449017

          ---------------------------------------
          MULLIKEN AND LOWDIN POPULATION ANALYSES
          ---------------------------------------

     ATOMIC MULLIKEN POPULATION IN EACH MOLECULAR ORBITAL

                      1          2          3          4          5

                  2.000000   1.989796   1.665567   1.656124   1.650595

    1             2.000438   1.575368   1.636380   1.440911   1.059792
    2            -0.000219   0.207214   0.014594   0.107606   0.295401
    3            -0.000219   0.207214   0.014594   0.107606   0.295401

                      6          7

                  0.019597   0.018322

    1             0.009492   0.008917
    2             0.005053   0.004702
    3             0.005053   0.004702
 WARNING! MCSCF POPULATIONS SHOWN ABOVE ARE FOR THE NATURAL ORBITALS.
 IGNORE THE ABOVE DATA FOR MCSCF FUNCTIONS WHICH ARE NOT OF -FORS- TYPE.
 THE FOLLOWING POPULATIONS ARE CORRECT FOR ANY MCSCF WAVEFUNCTION.

               ----- POPULATIONS IN EACH AO -----
                             MULLIKEN      LOWDIN
              1  O  1  S      2.00178     1.90509
              2  O  1  S      0.90689     0.63176
              3  O  1  S      0.79330     0.48097
              4  O  1  X      0.75706     0.68054
              5  O  1  Y      1.06089     1.01370
              6  O  1  Z      0.89386     0.83450
              7  O  1  X      0.30636     0.40859
              8  O  1  Y      0.57464     0.57357
              9  O  1  Z      0.42824     0.50852
             10  O  1 XX      0.00105     0.18827
             11  O  1 YY      0.00053     0.17433
             12  O  1 ZZ      0.00000     0.17915
             13  O  1 XY      0.00587    -0.00000
             14  O  1 XZ      0.00084     0.01193
             15  O  1 YZ      0.00000     0.00030
             16  H  2  S      0.54635     0.43637
             17  H  2  S      0.00840     0.11750
             18  H  2  X      0.04161     0.06394
             19  H  2  Y      0.01459     0.03900
             20  H  2  Z      0.02340     0.04758
             21  H  3  S      0.54635     0.43637
             22  H  3  S      0.00840     0.11750
             23  H  3  X      0.04161     0.06394
             24  H  3  Y      0.01459     0.03900
             25  H  3  Z      0.02340     0.04758

          ----- MULLIKEN ATOMIC OVERLAP POPULATIONS -----
          (OFF-DIAGONAL ELEMENTS NEED TO BE MULTIPLIED BY 2)

             1           2           3

    1    7.1422106
    2    0.2945430   0.3432715
    3    0.2945430  -0.0034629   0.3432715

          TOTAL MULLIKEN AND LOWDIN ATOMIC POPULATIONS
       ATOM         MULL.POP.    CHARGE          LOW.POP.     CHARGE
    1 O             7.731297    0.268703         7.591215    0.408785
    2 H             0.634352    0.365648         0.704393    0.295607
    3 H             0.634352    0.365648         0.704393    0.295607

          MULLIKEN SPHERICAL HARMONIC POPULATIONS
       ATOM           S       P       D      F      G      H      I    TOTAL
    1 O             3.70    4.02    0.01   0.00   0.00   0.00   0.00    7.73
    2 H             0.55    0.08    0.00   0.00   0.00   0.00   0.00    0.63
    3 H             0.55    0.08    0.00   0.00   0.00   0.00   0.00    0.63

          ---------------------
          ELECTROSTATIC MOMENTS
          ---------------------

 POINT   1           X           Y           Z (BOHR)    CHARGE
                 0.000000    0.000000    0.044293        1.00 (A.U.)
         DX          DY          DZ         /D/  (DEBYE)
    -0.000000    0.000000    2.524674    2.524674
 ...... END OF PROPERTY EVALUATION ......
 CPU     0: STEP CPU TIME=     0.00 TOTAL CPU TIME=          0.9 (      0.0 MIN)
 TOTAL WALL CLOCK TIME=          2.0 SECONDS, CPU UTILIZATION IS    43.56%

     -------------------------------------------------
     GMC-PT/GMC-QDPT or general MCSCF input parameters
     -------------------------------------------------
 # of frozen core orbs. =         0 ->         0
 # of doubly occ. orbs. =         1
 # of active      orbs. =         6
 # of virtual     orbs. =        17
 # of active electrons  =         7
 # of states in CI      =         3
 Highest state in CI    =         3
 kstate =  1 1 1
 avecoe =  0.333 0.333 0.333
 State symmetry           = A           
 Assigned symmetry number = 1

 <<<Act. MO sym.: 111111

 <<<Division of 1-ext.:  0 0
 <<<Division of 2-ext.:  0 1

     ------------------------
     Orbital canonicalization
     ------------------------

 MOs are canonicalized for core, virtual, and invariant-active orbital spaces.
 This is a part of the GMC-QDPT calculation.
 SCHWARZ INEQUALITY OVERHEAD:       325 INTEGRALS, T=        0.00
 DIRECT TRANSFORMATION SKIPS AO INTEGRAL STORAGE ON DISK.

 Averaged energy =     -75.568700942

 State #    1  Energy =     -75.682525883  S =  0.500
 State #    2  Energy =     -75.590942581  S =  0.500
 State #    3  Energy =     -75.432634362  S =  0.500

 Orbital energies for filled orbital space
  -21.090798
 Orbital energies for active orbital space
   -1.791248  -1.073448  -0.950091  -0.886267   0.383287
    0.353428
 Orbital energies for external orbital space
    0.132291   0.169925   0.663184   0.732727   0.755454
    1.032826   1.038070   1.259097   1.417546   1.461614
    1.796526   1.798488   2.739160   2.800828   2.943125
    3.318990   3.581253

 Zero values mean non-canonical orbitals.
 ... done with orbital canonicalization ...
 CPU     0: STEP CPU TIME=     0.14 TOTAL CPU TIME=          1.0 (      0.0 MIN)
 TOTAL WALL CLOCK TIME=          2.4 SECONDS, CPU UTILIZATION IS    42.50%

     --------------------------------------------
     PARTIAL TWO ELECTRON INTEGRAL TRANSFORMATION
     --------------------------------------------

 NUMBER OF CORE MOLECULAR ORBITALS     =    0
 NUMBER OF OCCUPIED MOLECULAR ORBITALS =    7
 TOTAL NUMBER OF MOLECULAR ORBITALS    =   24
 TOTAL NUMBER OF ATOMIC ORBITALS       =   25
 THRESHOLD FOR KEEPING TRANSFORMED 2E- INTEGRALS = 1.000E-09
 AO INTEGRALS WILL BE CALCULATED IN DIRECT MODE...
 DIRECT TRANSFORMATION SKIPS AO INTEGRAL STORAGE ON DISK.
 SCHWARZ INEQUALITY OVERHEAD:       325 INTEGRALS, T=        0.00

 PLAN A: REQUIREMENTS FOR FULLY IN-MEMORY TRANSFORMATION:
 # OF WORDS AVAILABLE =            250000000
 # OF WORDS NEEDED    =               165605

 PARALLEL ONLY WORKS WITH THE SEGMENTED ALGORITHM.
 ADJUSTING MEMORY TO USE SEGMENTED ALGORITHM.


 PLAN B: REQUIREMENTS FOR THE SEGMENTED TRANSFORMATION:
       MINIMUM=         116855 WORDS FOR 1 MOLECULAR ORBITAL PER PASS
       MAXIMUM=         141230 WORDS FOR ALL MOLECULAR ORBITALS IN 1 PASS
              (           8125 EXTRA WORDS INCLUDES 1 EXTRA ORBITAL/PASS)
 THIS RUN USES=         141230 WORDS,
 DISTRIBUTING   2 PASSES EACH CONTAINING     4 ORBITALS OVER   2 PROCESSORS.

 CHOOSING SEGMENTED PARTIAL TRANSFORMATION...
 DIRECT TRANSFORMATION SKIPS AO INTEGRAL STORAGE ON DISK.
 PASS #   1 TOOK        0.04 SECONDS.
 ASSIGNING PASS #   2 TO A DIFFERENT PROCESSOR.
 TOTAL NUMBER OF TRANSFORMED 2E- INTEGRALS KEPT =         4624
 ... END OF INTEGRAL TRANSFORMATION ...
 CPU     0: STEP CPU TIME=     0.04 TOTAL CPU TIME=          1.1 (      0.0 MIN)
 TOTAL WALL CLOCK TIME=          2.5 SECONDS, CPU UTILIZATION IS    42.40%

     --------     ------------------------------------------
     GMC-QDPT     Program written by H.Nakano (Kyushu Univ.)
     --------     ------------------------------------------

 *** Reference space

 Reference type: ORMAS (= Occupation restricted multiple active space)
 # of orbitals          =  6
 # of minimum electrons =  7
 # of maximum electrons =  7
 State symmetry    =    1 (input)
 2*Sz              =    1 (input)
 Spin multiplicity =    2 (input)
 Dimension of reference space =       300  (from       792 walks)

 Dimension of reference space =       300  (from       300 walks)

 <<<Ionized spaces for Ref-CI:
      0:          300 /   -1-0:          625 /  0-1-0:          690

 ***                    ***
 *** Reference space CI ***
 ***                    ***

 Reference wavefunctions:

 State #    1  Energy =     -75.682525883  S =  0.500

      Det      Coef    Occupancy (Ignoring core)
      ---      ----    --------- --------- -----
        1    0.986926  111100111000
      173    0.076381  101101101001

 State #    2  Energy =     -75.590942581  S =  0.500

      Det      Coef    Occupancy (Ignoring core)
      ---      ----    --------- --------- -----
       16    0.988843  111100110100
      203    0.077836  101101100101

 State #    3  Energy =     -75.432634362  S =  0.500

      Det      Coef    Occupancy (Ignoring core)
      ---      ----    --------- --------- -----
       31    0.990693  111100101100

 Diagonalization: CPU/Wall time =           0.04 /           0.06 sec.

 Oscillator strength (invalid if E(1)/=E(GS)):
 -----------------------------------------
   State                        f
 -----------------------------------------
     2     F(REF-CI)=        0.0016889683
     3     F(REF-CI)=        0.0000000000
 -----------------------------------------

 Dipole moment matrix elements, x, y, z, in A.U.

 Dimension of ionized spaces for PT:
 (N-2) space:          690 /  (N-1) space:          886 /  N space:          690
 (N+1) space:          480 /  (N+2) space:          200

 <<<Ionized spaces for internal:
         0:          300 /      -1-0:          625 /     0-1-0:          690
  -1-0-1-0:          886 / 0-1-0-1-0:          786

 Diagonal elements of averaged one-particle density matrix:
       2       3       4       5       6       7
  0.9962  0.9900  0.9932  0.9988  0.0102  0.0116
  0.9934  0.6604  0.6630  0.6668  0.0083  0.0083

 Orbital energies:
 -------- Doubly-occupied orbitals (highest several orbs.) -------
             1
 -2.109080D+01
 -------- Active orbitals ----------------------------------------
             2            3            4            5            6
 -1.791248D+00-1.073448D+00-9.500906D-01-8.862666D-01 3.832869D-01
             7
  3.534284D-01
 -------- External orbitals (lowest several orbs.) ---------------
             8            9           10           11           12
  1.322906D-01 1.699253D-01 6.631840D-01 7.327274D-01 7.554545D-01
            13           14           15           16           17
  1.032826D+00 1.038070D+00 1.259097D+00 1.417546D+00 1.461614D+00

 *** Quasi-degeneracy checking

 === Det (|Ci| > 1.0D-01 and dE < 5.0D-03)

 # of small denominators (single excitations)
 State       dEmin  dE < 5.0D-03  dE < 5.0D-04  dE < 5.0D-05  dE < 5.0D-06
 ----- ----------- ------------- ------------- ------------- -------------
     1    5.00D-03             0             0             0             0
     2    5.00D-03             0             0             0             0
     3    5.00D-03             0             0             0             0

 # of small denominators (double excitations)
 State       dEmin  dE < 5.0D-03  dE < 5.0D-04  dE < 5.0D-05  dE < 5.0D-06
 ----- ----------- ------------- ------------- ------------- -------------
     1    5.00D-03             0             0             0             0
     2    5.00D-03             0             0             0             0
     3    5.00D-03             0             0             0             0

 *** Zeroth-Order Setup (Granovsky's zeroth-order vectors)
 Zeroth-order effective Hamiltonian
  (= Sum_i e(i)*<I|a+(i)a(i)|J> ):
                   1            2            3
     1 -8.442481D+00
     2 -9.456405D-17-8.391423D+00
     3  1.247975D-10 2.422755D-12-8.279144D+00

 Zeroth-order vectors:
 State #    1
       MC st            1           3           2
       Coeff   -1.000D+00   7.640D-10   0.000D+00
 State #    2
       MC st            2           1           1
       Coeff   -1.000D+00   0.000D+00   0.000D+00
 State #    3
       MC st            3           1           2
       Coeff    1.000D+00   7.640D-10   0.000D+00

 *** GMC-QDPT computation

 (Integral reading:  CPU/Wall time =           0.00 /           0.00 sec.)

 One-external:
   0 -ionized terms: CPU/Wall time =           0.00 /           0.00 sec.
 (-1)-ionized terms: CPU/Wall time =           0.02 /           0.01 sec.
 (+1)-ionized terms: CPU/Wall time =           0.00 /           0.01 sec.
 (+1)-ionized terms: CPU/Wall time =           0.00 /           0.00 sec.
 (+2)-ionized terms: CPU/Wall time =           0.00 /           0.00 sec.

 Internal:
 # of macro loops for internal contribution =         1 (input)
 Loop:    1
 Dimension of internal CISD space     =         0  (after screening)
 Space construction: CPU/Wall time =           0.00 /           0.00 sec.
 Internal terms:     CPU/Wall time =           0.00 /           0.00 sec.

 Two-external:
   0 -ionized terms: CPU/Wall time =           0.01 /           0.01 sec.
 (-1)-ionized terms: CPU/Wall time =           0.01 /           0.03 sec.
 (-2)-ionized terms: CPU/Wall time =           0.03 /           0.02 sec.

 Total time:         CPU/Wall time =           0.07 /           0.08 sec.

 ***                  ***
 *** GMC-QDPT Results ***
 ***                  ***

 Diagonal elements of effective Hamiltonian:
 Heff(  1) =   -75.80244281
 Heff(  2) =   -75.72084940
 Heff(  3) =   -75.56942411

 Off-diagonal elements of effective Hamiltonian:
                   1            2
     2 -1.201927D-17
     3  1.754432D-10 5.109800D-13

 ******** GMC-QDPT energies ********
 ----------------------------------------------------------------------------
   State                        1st order                           2nd order
 ----------------------------------------------------------------------------
     1     E(REF-CI)=      -75.6825258832   E(GMC-QDPT2)=      -75.8024428095
     2     E(REF-CI)=      -75.5909425809   E(GMC-QDPT2)=      -75.7208494003
     3     E(REF-CI)=      -75.4326343617   E(GMC-QDPT2)=      -75.5694241141
 ----------------------------------------------------------------------------

 Excitation energies (invalid if E(1)/=E(GS)):
 ----------------------------------------------------------------------------
   State                        1st order                           2nd order
 ----------------------------------------------------------------------------

     TZ Sorted GMC-PT ENERGIES:
         1      -75.8024428095
         2      -75.7208494003
         3      -75.5694241141
     2     E(REF-CI)=        2.4921099 eV   E(GMC-QDPT2)=        2.2202709 eV
     3     E(REF-CI)=        6.7998981 eV   E(GMC-QDPT2)=        6.3407649 eV
 ----------------------------------------------------------------------------

 Main characters of perturbed GMC-QDPT states:

 State #    1  Energy =     -75.802442810  S =  0.500

      Det      Coef    Occupancy (Ignoring core)
      ---      ----    --------- --------- -----
        1    0.986926  111100111000
      173    0.076381  101101101001

 State #    2  Energy =     -75.720849400  S =  0.500

      Det      Coef    Occupancy (Ignoring core)
      ---      ----    --------- --------- -----
       16    0.988843  111100110100
      203    0.077836  101101100101

 State #    3  Energy =     -75.569424114  S =  0.500

      Det      Coef    Occupancy (Ignoring core)
      ---      ----    --------- --------- -----
       31    0.990693  111100101100

 <<<Max |V/de| = 4.654D-02  Thresh = 1.000D+00

 Oscillator strength (invalid if E(1)/=E(GS)):
 ----------------------------------------------------------------------------
   State                        1st order                           2nd order
 ----------------------------------------------------------------------------
     2     F(REF-CI)=        0.0016889683     F(GMC-PT2)=        0.0015047359
     3     F(REF-CI)=        0.0000000000     F(GMC-PT2)=        0.0000000000
 ----------------------------------------------------------------------------

 Dipole moment matrix elements, x, y, z, in A.U.
States    1    1        0.0000000001        0.0000000000        0.2764312204
States    1    2        0.0000000025       -0.1663214393       -0.0000000000
States    1    3       -0.0000000000       -0.0000000001       -0.0000000017
States    2    1        0.0000000025       -0.1663214393       -0.0000000000
States    2    2        0.0000000001       -0.0000000000        0.4617271294
States    2    3        0.1221525936        0.0000000002        0.0000000001
States    3    1       -0.0000000000       -0.0000000001       -0.0000000017
States    3    2        0.1221525936        0.0000000002        0.0000000001
States    3    3       -0.0000000001       -0.0000000000        0.0522145099

 Oscillator strength (valid only when positive): 
 ----------------------------------------------------------------------------
  States                        1st order                           2nd order
 ----------------------------------------------------------------------------
  1  1     F(REF-CI)=        0.0000000000     F(GMC-PT2)=        0.0000000000
  1  2     F(REF-CI)=       -0.0016889683     F(GMC-PT2)=       -0.0015047359
  1  3     F(REF-CI)=       -0.0000000000     F(GMC-PT2)=       -0.0000000000
  2  1     F(REF-CI)=        0.0016889683     F(GMC-PT2)=        0.0015047359
  2  2     F(REF-CI)=        0.0000000000     F(GMC-PT2)=        0.0000000000
  2  3     F(REF-CI)=       -0.0015747717     F(GMC-PT2)=       -0.0015063037
  3  1     F(REF-CI)=        0.0000000000     F(GMC-PT2)=        0.0000000000
  3  2     F(REF-CI)=        0.0015747717     F(GMC-PT2)=        0.0015063037
  3  3     F(REF-CI)=        0.0000000000     F(GMC-PT2)=        0.0000000000
 CPU     0: STEP CPU TIME=     0.15 TOTAL CPU TIME=          1.2 (      0.0 MIN)
 TOTAL WALL CLOCK TIME=          2.8 SECONDS, CPU UTILIZATION IS    42.61%

     !!! DIABATIZATION FOR REF CI STATES !!!

 *******************************************************
          $DMO GROUP FOUND IN THE INPUT.
        DIABATIZATION OF ADIABATIC STATES BEGINS.
     PROGRAMMED BY TAO ZENG (CARLETON UNIVERSITY).
               Email: toby.zeng@carleton.ca
     See T. Zeng, J. Chem. Phys. 2017, 146, 144103
 *******************************************************

 *************************************************************************
     STEP 1: TRANSFORMATION OF ADIABATIC STATES TO THE DMO REPRESENTATION
         See Atchity and Ruedenberg, J. Chem. Phys. 1999, 111, 2910
 *************************************************************************

Read in Diabatic Molecualr Orbitals:

                      1          2          3          4          5

    1  O  1  S    0.015878  -0.000000  -0.008727   0.000000   0.178914
    2  O  1  S    0.487244  -0.000000  -0.165140   0.000000   0.591558
    3  O  1  S    0.393189  -0.000000  -0.285720   0.000000   0.156384
    4  O  1  X    0.000000   0.537196  -0.000000   0.000000   0.000000
    5  O  1  Y    0.000000  -0.000000  -0.000000   0.692976   0.000000
    6  O  1  Z    0.081813  -0.000000   0.603221   0.000000   0.749592
    7  O  1  X    0.000000   0.219567  -0.000000   0.000000   0.000000
    8  O  1  Y    0.000000  -0.000000  -0.000000   0.431611   0.000000
    9  O  1  Z    0.000497  -0.000000   0.323888   0.000000  -0.091342
   10  O  1 XX    0.002930  -0.000000  -0.007755   0.000000   0.006467
   11  O  1 YY   -0.004055  -0.000000  -0.010061   0.000000   0.010826
   12  O  1 ZZ    0.001125  -0.000000   0.017816   0.000000  -0.017293
   13  O  1 XY    0.000000  -0.000000  -0.000000   0.000000   0.000000
   14  O  1 XZ    0.000000   0.022805  -0.000000   0.000000   0.000000
   15  O  1 YZ    0.000000  -0.000000  -0.000000   0.017991   0.000000
   16  H  2  S    0.168156   0.322747   0.206861   0.000000  -0.617218
   17  H  2  S   -0.005178   0.022298   0.022370   0.000000  -0.048357
   18  H  2  X   -0.037236  -0.032785  -0.039991   0.000000   0.117245
   19  H  2  Y    0.000000  -0.000000  -0.000000   0.028405   0.000000
   20  H  2  Z   -0.019504  -0.036419   0.003670   0.000000   0.011059
   21  H  3  S    0.168156  -0.322747   0.206861   0.000000  -0.617218
   22  H  3  S   -0.005178  -0.022298   0.022370   0.000000  -0.048357
   23  H  3  X    0.037236  -0.032785   0.039991   0.000000  -0.117245
   24  H  3  Y    0.000000  -0.000000  -0.000000   0.028405   0.000000
   25  H  3  Z   -0.019504   0.036419   0.003670   0.000000   0.011059

                      6

    1  O  1  S   -0.000000
    2  O  1  S   -0.000000
    3  O  1  S   -0.000000
    4  O  1  X   -0.879968
    5  O  1  Y   -0.000000
    6  O  1  Z   -0.000000
    7  O  1  X   -0.026245
    8  O  1  Y   -0.000000
    9  O  1  Z   -0.000000
   10  O  1 XX   -0.000000
   11  O  1 YY   -0.000000
   12  O  1 ZZ   -0.000000
   13  O  1 XY   -0.000000
   14  O  1 XZ    0.028582
   15  O  1 YZ   -0.000000
   16  H  2  S    0.636798
   17  H  2  S    0.071096
   18  H  2  X   -0.067134
   19  H  2  Y   -0.000000
   20  H  2  Z   -0.047320
   21  H  3  S   -0.636798
   22  H  3  S   -0.071096
   23  H  3  X   -0.067134
   24  H  3  Y   -0.000000
   25  H  3  Z    0.047320

NUMBER OF SUB ACTIVE SPACES:   1
ROTATE ACTIVE MOS TO DMOS IN EACH SUB-SPACE

SPACE  1:

OVERLAP BETWEEN ORTHONORMAL AND PRE-ORTHONORMAL REF. DMOS

             1           2           3           4           5

    1    1.0000883   0.0000000   0.0007956   0.0000000  -0.0000596
    2    0.0000000   0.9980788  -0.0000000   0.0000000   0.0000000
    3    0.0007956  -0.0000000   1.0018726  -0.0000000  -0.0030874
    4    0.0000000   0.0000000  -0.0000000   0.9999885   0.0000000
    5   -0.0000596   0.0000000  -0.0030874   0.0000000   1.0011517
    6   -0.0000000  -0.0017682   0.0000000   0.0000000  -0.0000000

             6

    1   -0.0000000
    2   -0.0017682
    3    0.0000000
    4    0.0000000
    5   -0.0000000
    6    1.0008877
REFERENCE DMOS AFTER ORTHONORMALIZATION:

                      1          2          3          4          5

    1  O  1  S    0.015894   0.000000  -0.008173   0.000000   0.178684
    2  O  1  S    0.487366   0.000000  -0.163399   0.000000   0.590403
    3  O  1  S    0.393390   0.000000  -0.285020   0.000000   0.155348
    4  O  1  X    0.000000   0.536674   0.000000   0.000000   0.000000
    5  O  1  Y    0.000000  -0.000000   0.000000   0.692984   0.000000
    6  O  1  Z    0.081370   0.000000   0.604342   0.000000   0.750598
    7  O  1  X    0.000000   0.219943   0.000000  -0.000000   0.000000
    8  O  1  Y    0.000000  -0.000000   0.000000   0.431616   0.000000
    9  O  1  Z    0.000234   0.000000   0.323004   0.000000  -0.090241
   10  O  1 XX    0.002936   0.000000  -0.007723   0.000000   0.006436
   11  O  1 YY   -0.004046   0.000000  -0.010005   0.000000   0.010783
   12  O  1 ZZ    0.001110   0.000000   0.017729   0.000000  -0.017219
   13  O  1 XY    0.000000   0.000000   0.000000   0.000000   0.000000
   14  O  1 XZ    0.000000   0.022900   0.000000  -0.000000   0.000000
   15  O  1 YZ    0.000000  -0.000000   0.000000   0.017992   0.000000
   16  H  2  S    0.167942   0.324496   0.204443  -0.000000  -0.615867
   17  H  2  S   -0.005198   0.022467   0.022184  -0.000000  -0.048233
   18  H  2  X   -0.037194  -0.032967  -0.039526   0.000000   0.116986
   19  H  2  Y    0.000000  -0.000000   0.000000   0.028406   0.000000
   20  H  2  Z   -0.019505  -0.036573   0.003712   0.000000   0.011056
   21  H  3  S    0.167942  -0.324496   0.204443   0.000000  -0.615867
   22  H  3  S   -0.005198  -0.022467   0.022184   0.000000  -0.048233
   23  H  3  X    0.037194  -0.032967   0.039526   0.000000  -0.116986
   24  H  3  Y    0.000000  -0.000000   0.000000   0.028406   0.000000
   25  H  3  Z   -0.019505   0.036573   0.003712  -0.000000   0.011056

                      6

    1  O  1  S    0.000000
    2  O  1  S    0.000000
    3  O  1  S    0.000000
    4  O  1  X   -0.878240
    5  O  1  Y   -0.000000
    6  O  1  Z    0.000000
    7  O  1  X   -0.025833
    8  O  1  Y   -0.000000
    9  O  1  Z    0.000000
   10  O  1 XX    0.000000
   11  O  1 YY    0.000000
   12  O  1 ZZ    0.000000
   13  O  1 XY    0.000000
   14  O  1 XZ    0.028597
   15  O  1 YZ   -0.000000
   16  H  2  S    0.636806
   17  H  2  S    0.071073
   18  H  2  X   -0.067133
   19  H  2  Y   -0.000000
   20  H  2  Z   -0.047342
   21  H  3  S   -0.636806
   22  H  3  S   -0.071073
   23  H  3  X   -0.067133
   24  H  3  Y   -0.000000
   25  H  3  Z    0.047342

 -------------------------------------------
       MAXIMIZING MORMO OVERLAP TERM        
 -------------------------------------------
   SWEEP    VALUE       PROGRESS
     0     5.99991
     1     5.99997     0.00006215
     2     5.99997     0.00000000
     3     5.99997     0.00000000
 THE ROTATION IS DONE
FLIPPING SIGN FOR ORBITAL   6
ACTIVE ORBITALS AFTER MORMO:

                      1          2          3          4          5

    1  O  1  S    0.015929  -0.000000  -0.007819   0.000000   0.176438
    2  O  1  S    0.487297  -0.000000  -0.163173   0.000000   0.586021
    3  O  1  S    0.392946  -0.000000  -0.287700   0.000000   0.163265
    4  O  1  X    0.000000   0.536255  -0.000000  -0.000000  -0.000000
    5  O  1  Y    0.000000   0.000000   0.000000   0.693110   0.000000
    6  O  1  Z    0.081611  -0.000000   0.605147   0.000000   0.751006
    7  O  1  X    0.000000   0.221529   0.000000  -0.000000   0.000000
    8  O  1  Y    0.000000   0.000000   0.000000   0.431416   0.000000
    9  O  1  Z   -0.000207  -0.000000   0.320265   0.000000  -0.087896
   10  O  1 XX    0.002782   0.000000  -0.007815   0.000000   0.008538
   11  O  1 YY   -0.004019   0.000000  -0.010008   0.000000   0.011291
   12  O  1 ZZ    0.001237   0.000000   0.017822   0.000000  -0.019829
   13  O  1 XY    0.000000   0.000000   0.000000   0.000000   0.000000
   14  O  1 XZ    0.000000   0.023095   0.000000  -0.000000   0.000000
   15  O  1 YZ    0.000000   0.000000   0.000000   0.018141   0.000000
   16  H  2  S    0.168412   0.323340   0.206471  -0.000000  -0.618836
   17  H  2  S   -0.005229   0.022798   0.022234   0.000000  -0.048512
   18  H  2  X   -0.037018  -0.032284  -0.039905   0.000000   0.117670
   19  H  2  Y   -0.000000   0.000000   0.000000   0.028469   0.000000
   20  H  2  Z   -0.019959  -0.036847   0.003112   0.000000   0.011456
   21  H  3  S    0.168412  -0.323340   0.206471   0.000000  -0.618836
   22  H  3  S   -0.005229  -0.022798   0.022234  -0.000000  -0.048512
   23  H  3  X    0.037018  -0.032284   0.039905   0.000000  -0.117670
   24  H  3  Y    0.000000   0.000000  -0.000000   0.028469  -0.000000
   25  H  3  Z   -0.019959   0.036847   0.003112  -0.000000   0.011456

                      6

    1  O  1  S   -0.000000
    2  O  1  S   -0.000000
    3  O  1  S    0.000000
    4  O  1  X   -0.878284
    5  O  1  Y   -0.000000
    6  O  1  Z   -0.000000
    7  O  1  X   -0.025543
    8  O  1  Y   -0.000000
    9  O  1  Z    0.000000
   10  O  1 XX   -0.000000
   11  O  1 YY   -0.000000
   12  O  1 ZZ   -0.000000
   13  O  1 XY   -0.000000
   14  O  1 XZ    0.029846
   15  O  1 YZ   -0.000000
   16  H  2  S    0.635942
   17  H  2  S    0.071576
   18  H  2  X   -0.066159
   19  H  2  Y   -0.000000
   20  H  2  Z   -0.048193
   21  H  3  S   -0.635942
   22  H  3  S   -0.071576
   23  H  3  X   -0.066159
   24  H  3  Y   -0.000000
   25  H  3  Z    0.048193

Actually Used Diabatic Molecualr Orbitals:

                      1          2          3          4          5

    1  O  1  S    0.015929  -0.000000  -0.007819   0.000000   0.176438
    2  O  1  S    0.487297  -0.000000  -0.163173   0.000000   0.586021
    3  O  1  S    0.392946  -0.000000  -0.287700   0.000000   0.163265
    4  O  1  X    0.000000   0.536255  -0.000000  -0.000000  -0.000000
    5  O  1  Y    0.000000   0.000000   0.000000   0.693110   0.000000
    6  O  1  Z    0.081611  -0.000000   0.605147   0.000000   0.751006
    7  O  1  X    0.000000   0.221529   0.000000  -0.000000   0.000000
    8  O  1  Y    0.000000   0.000000   0.000000   0.431416   0.000000
    9  O  1  Z   -0.000207  -0.000000   0.320265   0.000000  -0.087896
   10  O  1 XX    0.002782   0.000000  -0.007815   0.000000   0.008538
   11  O  1 YY   -0.004019   0.000000  -0.010008   0.000000   0.011291
   12  O  1 ZZ    0.001237   0.000000   0.017822   0.000000  -0.019829
   13  O  1 XY    0.000000   0.000000   0.000000   0.000000   0.000000
   14  O  1 XZ    0.000000   0.023095   0.000000  -0.000000   0.000000
   15  O  1 YZ    0.000000   0.000000   0.000000   0.018141   0.000000
   16  H  2  S    0.168412   0.323340   0.206471  -0.000000  -0.618836
   17  H  2  S   -0.005229   0.022798   0.022234   0.000000  -0.048512
   18  H  2  X   -0.037018  -0.032284  -0.039905   0.000000   0.117670
   19  H  2  Y   -0.000000   0.000000   0.000000   0.028469   0.000000
   20  H  2  Z   -0.019959  -0.036847   0.003112   0.000000   0.011456
   21  H  3  S    0.168412  -0.323340   0.206471   0.000000  -0.618836
   22  H  3  S   -0.005229  -0.022798   0.022234  -0.000000  -0.048512
   23  H  3  X    0.037018  -0.032284   0.039905   0.000000  -0.117670
   24  H  3  Y    0.000000   0.000000  -0.000000   0.028469  -0.000000
   25  H  3  Z   -0.019959   0.036847   0.003112  -0.000000   0.011456

                      6

    1  O  1  S   -0.000000
    2  O  1  S   -0.000000
    3  O  1  S    0.000000
    4  O  1  X   -0.878284
    5  O  1  Y   -0.000000
    6  O  1  Z   -0.000000
    7  O  1  X   -0.025543
    8  O  1  Y   -0.000000
    9  O  1  Z    0.000000
   10  O  1 XX   -0.000000
   11  O  1 YY   -0.000000
   12  O  1 ZZ   -0.000000
   13  O  1 XY   -0.000000
   14  O  1 XZ    0.029846
   15  O  1 YZ   -0.000000
   16  H  2  S    0.635942
   17  H  2  S    0.071576
   18  H  2  X   -0.066159
   19  H  2  Y   -0.000000
   20  H  2  Z   -0.048193
   21  H  3  S   -0.635942
   22  H  3  S   -0.071576
   23  H  3  X   -0.066159
   24  H  3  Y   -0.000000
   25  H  3  Z    0.048193

     ------------------------------------------------
        ADIABATIC STATES IN TRANSFORMED ORBITALS:
      !! USE Coefp TO PREPARE DIABATIC REFERENCES !!
     ------------------------------------------------

 State #    1  Energy =     -75.682525883  S =  0.500

      Det      Coef        Coefp    Occupancy (Ignoring core)
      ---      ----        ----    --------- --------- -----
        1   -0.987012    0.987012  222+00
      173    0.076313    0.076313  202+02
      168    0.043397    0.043397  2+-++-
       63    0.042322    0.042322  220+20
       68    0.041938    0.041938  2-++-+
        8    0.038435   -0.038435  2-2+0+
       47    0.032813   -0.032813  +22-+0
       98   -0.032700    0.032700  +-2+-+
       93   -0.032278    0.032278  +2-+20
       65    0.030879    0.030879  -2++20
      170   -0.030730    0.030730  -+2++-
       95    0.030435    0.030435  022+20
       79    0.028761    0.028761  202+20
       36   -0.026774   -0.026774  2+2-0+
      157    0.026587    0.026587  220+02
      154   -0.022886    0.022886  2-+++-
       82   -0.022377    0.022377  2+-+-+
        3   -0.021804   -0.021804  22-++0
      184    0.020494    0.020494  +-2++-
      241   -0.020467   -0.020467  2+++--
       84    0.020181    0.020181  -+2+-+

 State #    2  Energy =     -75.590942581  S =  0.500

      Det      Coef        Coefp    Occupancy (Ignoring core)
      ---      ----        ----    --------- --------- -----
       16    0.988862    0.988862  22+200
      203   -0.077769    0.077769  20+202
      198   -0.042719    0.042719  2+02+-
       46   -0.039898   -0.039898  +22200
       53   -0.035860    0.035860  +-220+
      200    0.034376    0.034376  -++2+-
      128    0.033101    0.033101  +-+2-+
      123    0.031981    0.031981  +20220
       18    0.031666   -0.031666  2202+0
      125   -0.031545    0.031545  02+220
      109   -0.028033    0.028033  20+220
       23   -0.026629   -0.026629  2-+20+
      112    0.021652    0.021652  2+02-+
       28    0.021067   -0.021067  2-02++
      214   -0.020109    0.020109  +-+2+-

 State #    3  Energy =     -75.432634362  S =  0.500

      Det      Coef        Coefp    Occupancy (Ignoring core)
      ---      ----        ----    --------- --------- -----
       31   -0.990546    0.990546  2+2200
      113   -0.048280   -0.048280  20+2-+
      108    0.047411   -0.047411  2+0220
       52    0.047046    0.047046  +2-20+
       33   -0.032790    0.032790  2+-2+0
      143   -0.031914    0.031914  +022-+
      110   -0.031768   -0.031768  -++220
      138    0.031037    0.031037  ++-220
      140    0.030824    0.030824  0+2220
      202    0.029219   -0.029219  2+0202
        6    0.028298   -0.028298  22200+
       43    0.028016   -0.028016  20-2++
      211   -0.025784    0.025784  +2+20-
       19    0.024058    0.024058  2-+2+0
       24   -0.021263    0.021263  -2+20+
      199    0.020264   -0.020264  20+2+-
      234    0.020161    0.020161  0+2202

         ----------------------------------------------------
          Transformation matrix between Active CMOs and DMOs
                    Row for CMO and Column for DMO
         ----------------------------------------------------

             1           2           3           4           5

    1    0.9999984  -0.0000000   0.0017443  -0.0000000   0.0002754
    2   -0.0000000   0.9999978  -0.0000000  -0.0000000  -0.0000000
    3   -0.0017430  -0.0000000   0.9999867   0.0000000  -0.0048545
    4   -0.0000000  -0.0000000   0.0000000   1.0000000  -0.0000000
    5   -0.0002839  -0.0000000   0.0048540  -0.0000000   0.9999882
    6   -0.0000000  -0.0020962  -0.0000000   0.0000000   0.0000000

             6

    1    0.0000000
    2   -0.0020962
    3    0.0000000
    4   -0.0000000
    5   -0.0000000
    6   -0.9999978

     $REFDET GROUP FOUND

 *************************************************************************
     STEP 2: DIABATIZATION USING CONFIGURATION UNIFORMITY
  See Atchity and Ruedenberg, Theor. Chem. Acc. 1997, 97, 47
 *************************************************************************

READ-IN LIST OF DIABATIC PROTOTYPES:

     THE SAME NUMBER OF PROTOTYPE GROUPS & ADIABATS

     THE ADIABS SHOULD HAVE FULLY COVER THE PROTOTYPES

 Approximated Overlap Matrix for truncated adiabats:
   0.9979071059  -0.0000000000  -0.0000000000
  -0.0000000000   0.9966814114  -0.0000000000
  -0.0000000000  -0.0000000000   0.9979147339


 -------------------------------------------
   - DIABATIC HAMILTONIAN MATRIX ELEMENTS - 
 -------------------------------------------
                                            
 --- DIABATIC ENERGIES (DIAGONAL ELEMENT) ---       HARTREE            EV
 STATE #  1'S GMC-CI-LEVEL DIABATIC ENERGY=     -75.682525883       0.000000000
 STATE #  2'S GMC-CI-LEVEL DIABATIC ENERGY=     -75.590942581       2.492108590
 STATE #  3'S GMC-CI-LEVEL DIABATIC ENERGY=     -75.432634362       6.799894650

 --- DIABATIC COUPLINGS (OFF DIAGONAL ELEMENTS)---  HATREE            EV
 STATE #  1 &  2'S GMC-CI-LEVEL COUPLING  =       0.000000000       0.000000000
 STATE #  1 &  3'S GMC-CI-LEVEL COUPLING  =       0.000000002       0.000000046
 STATE #  2 &  3'S GMC-CI-LEVEL COUPLING  =       0.000000000       0.000000000

 ---------------------------------------
     - ROTATION TO DIABATIC STATES -    
 ---------------------------------------
 ROWS=ADIABATIC, COLUMNS=DIABATIC STATES

             1           2           3

    1   -1.0000000  -0.0000000  -0.0000000
    2   -0.0000000  -1.0000000   0.0000000
    3    0.0000000  -0.0000000  -1.0000000

 ---------------------------------------
          - DIABATIC STATES -           
 ---------------------------------------

 State #    1  Energy =     -75.682525883

      Det      Coef        Coefp    Occupancy (Ignoring core)
      ---      ----        ----    --------- --------- -----
        1    0.987012   -0.987012  222+00
      173   -0.076313   -0.076313  202+02
      168   -0.043397   -0.043397  2+-++-
       63   -0.042322   -0.042322  220+20
       68   -0.041938   -0.041938  2-++-+
        8   -0.038435    0.038435  2-2+0+
       47   -0.032813    0.032813  +22-+0
       98    0.032700   -0.032700  +-2+-+
       93    0.032278   -0.032278  +2-+20
       65   -0.030879   -0.030879  -2++20
      170    0.030730   -0.030730  -+2++-
       95   -0.030435   -0.030435  022+20
       79   -0.028761   -0.028761  202+20
       36    0.026774    0.026774  2+2-0+
      157   -0.026587   -0.026587  220+02
      154    0.022886   -0.022886  2-+++-
       82    0.022377   -0.022377  2+-+-+
        3    0.021804    0.021804  22-++0
      184   -0.020494   -0.020494  +-2++-
      241    0.020467    0.020467  2+++--
       84   -0.020181   -0.020181  -+2+-+

 State #    2  Energy =     -75.590942581

      Det      Coef        Coefp    Occupancy (Ignoring core)
      ---      ----        ----    --------- --------- -----
       16   -0.988862   -0.988862  22+200
      203    0.077769   -0.077769  20+202
      198    0.042719   -0.042719  2+02+-
       46    0.039898    0.039898  +22200
       53    0.035860   -0.035860  +-220+
      200   -0.034376   -0.034376  -++2+-
      128   -0.033101   -0.033101  +-+2-+
      123   -0.031981   -0.031981  +20220
       18   -0.031666    0.031666  2202+0
      125    0.031545   -0.031545  02+220
      109    0.028033   -0.028033  20+220
       23    0.026629    0.026629  2-+20+
      112   -0.021652   -0.021652  2+02-+
       28   -0.021067    0.021067  2-02++
      214    0.020109   -0.020109  +-+2+-

 State #    3  Energy =     -75.432634362

      Det      Coef        Coefp    Occupancy (Ignoring core)
      ---      ----        ----    --------- --------- -----
       31    0.990546   -0.990546  2+2200
      113    0.048280    0.048280  20+2-+
      108   -0.047411    0.047411  2+0220
       52   -0.047046   -0.047046  +2-20+
       33    0.032790   -0.032790  2+-2+0
      143    0.031914   -0.031914  +022-+
      110    0.031768    0.031768  -++220
      138   -0.031037   -0.031037  ++-220
      140   -0.030824   -0.030824  0+2220
      202   -0.029219    0.029219  2+0202
        6   -0.028298    0.028298  22200+
       43   -0.028016    0.028016  20-2++
      211    0.025784   -0.025784  +2+20-
       19   -0.024058   -0.024058  2-+2+0
       24    0.021263   -0.021263  -2+20+
      199   -0.020264    0.020264  20+2+-
      234   -0.020161   -0.020161  0+2202

 ---------------------------------------
      - DIABATIC STATES IN CMO -        
 ---------------------------------------

 State #    1  Energy =     -75.682525883

      Det      Coef        Coefp    Occupancy (Ignoring core)
      ---      ----        ----    --------- --------- -----
        1    0.986926   -0.986926  222+00
      173   -0.076381   -0.076381  202+02
      168    0.043339    0.043339  2+-++-
       63   -0.042037   -0.042037  220+20
       68    0.041717    0.041717  2-++-+
        8    0.036491   -0.036491  2-2+0+
       47   -0.032829    0.032829  +22-+0
       98   -0.032742    0.032742  +-2+-+
       93    0.032378   -0.032378  +2-+20
      170   -0.030845    0.030845  -+2++-
       65   -0.030821   -0.030821  -2++20
       95   -0.030552   -0.030552  022+20
       79   -0.028761   -0.028761  202+20
       36   -0.026762   -0.026762  2+2-0+
        3    0.026626    0.026626  22-++0
      157   -0.026589   -0.026589  220+02
      154   -0.022850    0.022850  2-+++-
       82   -0.022342    0.022342  2+-+-+
      184    0.020530    0.020530  +-2++-
      241   -0.020419   -0.020419  2+++--
[...]
       28    0.020992   -0.020992  2-02++
      214   -0.020109    0.020109  +-+2+-
       34    0.020048   -0.020048  2022+0

 State #    3  Energy =     -75.569424114

      Det      Coef        Coefp    Occupancy (Ignoring core)
      ---      ----        ----    --------- --------- -----
       31    0.990693   -0.990693  2+2200
      113   -0.048288   -0.048288  20+2-+
      108   -0.047475    0.047475  2+0220
       52    0.047072    0.047072  +2-20+
      143   -0.032020    0.032020  +022-+
      110    0.031836    0.031836  -++220
      138   -0.031020   -0.031020  ++-220
      140   -0.030933   -0.030933  0+2220
      202   -0.029232    0.029232  2+0202
        6    0.028297   -0.028297  22200+
       43    0.028004   -0.028004  20-2++
       33    0.027802   -0.027802  2+-2+0
      211   -0.025767    0.025767  +2+20-
       19   -0.023987   -0.023987  2-+2+0
       24   -0.021305    0.021305  -2+20+
      199    0.020284   -0.020284  20+2+-
      234   -0.020121   -0.020121  0+2202

 ---------------------------------------
    -DIABATIC STATES IN PROTOTYPES-     
 ---------------------------------------

     STATE:    1
 Group Ref#    Coefficients
     1    1    0.998953
     2    2   -0.000000
     3    3   -0.000000

WEIGHT OF LISTED PROTOTYPES:   99.79%

     STATE:    2
 Group Ref#    Coefficients
     1    1    0.000000
     2    2    0.998339
     3    3    0.000000

WEIGHT OF LISTED PROTOTYPES:   99.67%

     STATE:    3
 Group Ref#    Coefficients
     1    1   -0.000000
     2    2   -0.000000
     3    3    0.998957

WEIGHT OF LISTED PROTOTYPES:   99.79%

 --------------------------------------------------
 IN DIRECT MAX. DIABATIZATION FOR GMC-QDPT

 DIRECT MAXIMIZATION (DM) WITHOUT TRUNCATING ADIABATS
 EXPANSIONS INTO THE REFERENCE CONFIGURATION SPACE
 --------------------------------------------------

 -------------------------------------------
 - DM DIABT PT HAMILTONIAN MATRIX ELEMENTS -
 -------------------------------------------
                                            
 --- DIABATIC ENERGIES (DIAGONAL ELEMENT) ---       HARTREE            EV
 STATE #  1'S GMC-PT-LEVEL DIABATIC ENERGY=     -75.802442810       0.000000000
 STATE #  2'S GMC-PT-LEVEL DIABATIC ENERGY=     -75.720849400       2.220269754
 STATE #  3'S GMC-PT-LEVEL DIABATIC ENERGY=     -75.569424114       6.340761666

 --- DIABATIC COUPLINGS (OFF DIAGONAL ELEMENTS)---  HATREE            EV
 STATE #  1 &  2'S GMC-PT-LEVEL COUPLING  =       0.000000000       0.000000000
 STATE #  1 &  3'S GMC-PT-LEVEL COUPLING  =       0.000000002       0.000000047
 STATE #  2 &  3'S GMC-PT-LEVEL COUPLING  =       0.000000000       0.000000000

 ---------------------------------------
     - ROTATION TO DIABATIC STATES -    
 ---------------------------------------
 ROWS=ADIABATIC, COLUMNS=DIABATIC STATES

             1           2           3

    1   -1.0000000  -0.0000000  -0.0000000
    2   -0.0000000  -1.0000000   0.0000000
    3    0.0000000  -0.0000000  -1.0000000

 ---------------------------------------
          - DIABATIC STATES -           
 ---------------------------------------

 State #    1  Energy =     -75.802442810

      Det      Coef        Coefp    Occupancy (Ignoring core)
      ---      ----        ----    --------- --------- -----
        1    0.987012   -0.987012  222+00
      173   -0.076313   -0.076313  202+02
      168   -0.043397   -0.043397  2+-++-
       63   -0.042322   -0.042322  220+20
       68   -0.041938   -0.041938  2-++-+
        8   -0.038435    0.038435  2-2+0+
       47   -0.032813    0.032813  +22-+0
       98    0.032700   -0.032700  +-2+-+
       93    0.032278   -0.032278  +2-+20
       65   -0.030879   -0.030879  -2++20
      170    0.030730   -0.030730  -+2++-
       95   -0.030435   -0.030435  022+20
       79   -0.028761   -0.028761  202+20
       36    0.026774    0.026774  2+2-0+
      157   -0.026587   -0.026587  220+02
      154    0.022886   -0.022886  2-+++-
       82    0.022377   -0.022377  2+-+-+
        3    0.021804    0.021804  22-++0
      184   -0.020494   -0.020494  +-2++-
      241    0.020467    0.020467  2+++--
       84   -0.020181   -0.020181  -+2+-+

 State #    2  Energy =     -75.720849400

      Det      Coef        Coefp    Occupancy (Ignoring core)
      ---      ----        ----    --------- --------- -----
       16   -0.988862   -0.988862  22+200
      203    0.077769   -0.077769  20+202
      198    0.042719   -0.042719  2+02+-
       46    0.039898    0.039898  +22200
       53    0.035860   -0.035860  +-220+
      200   -0.034376   -0.034376  -++2+-
      128   -0.033101   -0.033101  +-+2-+
      123   -0.031981   -0.031981  +20220
       18   -0.031666    0.031666  2202+0
      125    0.031545   -0.031545  02+220
      109    0.028033   -0.028033  20+220
       23    0.026629    0.026629  2-+20+
      112   -0.021652   -0.021652  2+02-+
       28   -0.021067    0.021067  2-02++
      214    0.020109   -0.020109  +-+2+-

 State #    3  Energy =     -75.569424114

      Det      Coef        Coefp    Occupancy (Ignoring core)
      ---      ----        ----    --------- --------- -----
       31    0.990546   -0.990546  2+2200
      113    0.048280    0.048280  20+2-+
      108   -0.047411    0.047411  2+0220
       52   -0.047046   -0.047046  +2-20+
       33    0.032790   -0.032790  2+-2+0
      143    0.031914   -0.031914  +022-+
      110    0.031768    0.031768  -++220
      138   -0.031037   -0.031037  ++-220
      140   -0.030824   -0.030824  0+2220
      202   -0.029219    0.029219  2+0202
        6   -0.028298    0.028298  22200+
       43   -0.028016    0.028016  20-2++
      211    0.025784   -0.025784  +2+20-
       19   -0.024058   -0.024058  2-+2+0
       24    0.021263   -0.021263  -2+20+
      199   -0.020264    0.020264  20+2+-
      234   -0.020161   -0.020161  0+2202

 ---------------------------------------
      - DIABATIC STATES IN CMO -        
 ---------------------------------------

 State #    1  Energy =     -75.802442810

      Det      Coef        Coefp    Occupancy (Ignoring core)
      ---      ----        ----    --------- --------- -----
        1    0.986926   -0.986926  222+00
      173   -0.076381   -0.076381  202+02
      168    0.043339    0.043339  2+-++-
       63   -0.042037   -0.042037  220+20
       68    0.041717    0.041717  2-++-+
        8    0.036491   -0.036491  2-2+0+
       47   -0.032829    0.032829  +22-+0
       98   -0.032742    0.032742  +-2+-+
       93    0.032378   -0.032378  +2-+20
      170   -0.030845    0.030845  -+2++-
       65   -0.030821   -0.030821  -2++20
       95   -0.030552   -0.030552  022+20
       79   -0.028761   -0.028761  202+20
       36   -0.026762   -0.026762  2+2-0+
        3    0.026626    0.026626  22-++0
      157   -0.026589   -0.026589  220+02
      154   -0.022850    0.022850  2-+++-
       82   -0.022342    0.022342  2+-+-+
      184    0.020530    0.020530  +-2++-
      241   -0.020419   -0.020419  2+++--
       84    0.020218    0.020218  -+2+-+

 State #    2  Energy =     -75.720849400

      Det      Coef        Coefp    Occupancy (Ignoring core)
      ---      ----        ----    --------- --------- -----
       16   -0.988843   -0.988843  22+200
      203    0.077836   -0.077836  20+202
      198   -0.042673    0.042673  2+02+-
       46    0.038237    0.038237  +22200
       18   -0.036358    0.036358  2202+0
       53   -0.035875    0.035875  +-220+
      200    0.034436    0.034436  -++2+-
      128    0.032916    0.032916  +-+2-+
      123   -0.031906   -0.031906  +20220
      125    0.031646   -0.031646  02+220
      109    0.027935   -0.027935  20+220
       23   -0.024544   -0.024544  2-+20+
      112    0.021681    0.021681  2+02-+
       28    0.020992   -0.020992  2-02++
      214   -0.020109    0.020109  +-+2+-
       34    0.020048   -0.020048  2022+0

 State #    3  Energy =     -75.569424114

      Det      Coef        Coefp    Occupancy (Ignoring core)
      ---      ----        ----    --------- --------- -----
       31    0.990693   -0.990693  2+2200
      113   -0.048288   -0.048288  20+2-+
      108   -0.047475    0.047475  2+0220
       52    0.047072    0.047072  +2-20+
      143   -0.032020    0.032020  +022-+
      110    0.031836    0.031836  -++220
      138   -0.031020   -0.031020  ++-220
      140   -0.030933   -0.030933  0+2220
      202   -0.029232    0.029232  2+0202
        6    0.028297   -0.028297  22200+
       43    0.028004   -0.028004  20-2++
       33    0.027802   -0.027802  2+-2+0
      211   -0.025767    0.025767  +2+20-
       19   -0.023987   -0.023987  2-+2+0
       24   -0.021305    0.021305  -2+20+
      199    0.020284   -0.020284  20+2+-
      234   -0.020121   -0.020121  0+2202

 ---------------------------------------
    -DIABATIC STATES IN PROTOTYPES-     
 ---------------------------------------

     STATE:    1
 Group Ref#    Coefficients
     1    1    0.998953
     2    2   -0.000000
     3    3   -0.000000

WEIGHT OF LISTED PROTOTYPES:   99.79%

     STATE:    2
 Group Ref#    Coefficients
     1    1    0.000000
     2    2    0.998339
     3    3    0.000000

WEIGHT OF LISTED PROTOTYPES:   99.67%

     STATE:    3
 Group Ref#    Coefficients
     1    1   -0.000000
     2    2   -0.000000
     3    3    0.998957

WEIGHT OF LISTED PROTOTYPES:   99.79%

     DIRECT MAX. DIABATIZATION FINISHED    
 CPU     0: STEP CPU TIME=     0.05 TOTAL CPU TIME=          1.3 (      0.0 MIN)
 TOTAL WALL CLOCK TIME=          2.9 SECONDS, CPU UTILIZATION IS    43.15%

DIABATS FOR SPIN-ORBIT CALCULATION ARE READY

TRANSITION DIPOLES BETWEEN ADIABATS (in A.U.):

STATE PAIR      X         Y         Z
    1    1  0.000000  0.000000  0.276431
    2    1  0.000000 -0.166321 -0.000000
    2    2  0.000000 -0.000000  0.461727
    3    1 -0.000000 -0.000000 -0.000000
    3    2  0.122153  0.000000  0.000000
    3    3 -0.000000 -0.000000  0.052215


TRANSITION DIPOLES BETWEEN DIABATS (in A.U.):

STATE PAIR      X         Y         Z
    1    1  0.000000  0.000000  0.276431
    2    1  0.000000 -0.166321 -0.000000
    2    2  0.000000 -0.000000  0.461727
    3    1 -0.000000 -0.000000 -0.000000
    3    2  0.122153 -0.000000  0.000000
    3    3 -0.000000 -0.000000  0.052215

TRANSITION DIPOLES BETWEEN DIRECT MAX. DIABATS (in A.U.):

STATE PAIR      X         Y         Z
    1    1  0.000000  0.000000  0.276431
    2    1  0.000000 -0.166321 -0.000000
    2    2  0.000000 -0.000000  0.461727
    3    1 -0.000000 -0.000000 -0.000000
    3    2  0.122153 -0.000000  0.000000
    3    3 -0.000000 -0.000000  0.052215
 No $TRANST Group Found.
 Quit without doing spin-orbit coupling
 ..... DONE WITH MP2 ENERGY .....
 CPU     0: STEP CPU TIME=     0.00 TOTAL CPU TIME=          1.3 (      0.0 MIN)
 TOTAL WALL CLOCK TIME=          2.9 SECONDS, CPU UTILIZATION IS    43.15%
            250000000  WORDS OF DYNAMIC MEMORY USED
 EXECUTION OF GAMESS TERMINATED NORMALLY Thu Jan 25 17:20:27 2024
 DDI: 386504 bytes (0.4 MB / 0 MWords) used by master data server.

 ----------------------------------------
 CPU timing information for all processes
 ========================================
 0: 1.178 + 0.91 = 1.270
 1: 1.80 + 0.79 = 1.160
 ----------------------------------------
Note: The following floating-point exceptions are signalling: IEEE_DENORMAL
Note: The following floating-point exceptions are signalling: IEEE_DENORMAL
 ddikick.x: exited gracefully.
unset echo
----- accounting info -----
Files used on the master node io001 were:
-rwxr-xr-x 1 bjb2chen nooijen   16380 Jan 25 17:20 /home/bjb2chen/gmsscr//H2Ocat_cct_gmcpt_C1_3st_diab_mode7_+0.05x2.F05*
-rw-r--r-- 1 bjb2chen nooijen  182424 Jan 25 17:20 /home/bjb2chen/gmsscr//H2Ocat_cct_gmcpt_C1_3st_diab_mode7_+0.05x2.F09
-rw-r--r-- 1 bjb2chen nooijen  180016 Jan 25 17:20 /home/bjb2chen/gmsscr//H2Ocat_cct_gmcpt_C1_3st_diab_mode7_+0.05x2.F09.001
-rw-r--r-- 1 bjb2chen nooijen 1995920 Jan 25 17:20 /home/bjb2chen/gmsscr//H2Ocat_cct_gmcpt_C1_3st_diab_mode7_+0.05x2.F10
-rw-r--r-- 1 bjb2chen nooijen   33168 Jan 25 17:20 /home/bjb2chen/gmsscr//H2Ocat_cct_gmcpt_C1_3st_diab_mode7_+0.05x2.F13
-rw-r--r-- 1 bjb2chen nooijen   33168 Jan 25 17:20 /home/bjb2chen/gmsscr//H2Ocat_cct_gmcpt_C1_3st_diab_mode7_+0.05x2.F13.001
-rw-r--r-- 1 bjb2chen nooijen  180248 Jan 25 17:20 /home/bjb2chen/gmsscr//H2Ocat_cct_gmcpt_C1_3st_diab_mode7_+0.05x2.F15
-rw-r--r-- 1 bjb2chen nooijen       0 Jan 25 17:20 /home/bjb2chen/gmsscr//H2Ocat_cct_gmcpt_C1_3st_diab_mode7_+0.05x2.F16
-rw-r--r-- 1 bjb2chen nooijen    2408 Jan 25 17:20 /home/bjb2chen/gmsscr//H2Ocat_cct_gmcpt_C1_3st_diab_mode7_+0.05x2.F70
-rw-r--r-- 1 bjb2chen nooijen    2408 Jan 25 17:20 /home/bjb2chen/gmsscr//H2Ocat_cct_gmcpt_C1_3st_diab_mode7_+0.05x2.F70.001
-rw-r--r-- 1 bjb2chen nooijen    2408 Jan 25 17:20 /home/bjb2chen/gmsscr//H2Ocat_cct_gmcpt_C1_3st_diab_mode7_+0.05x2.F71
-rw-r--r-- 1 bjb2chen nooijen    2408 Jan 25 17:20 /home/bjb2chen/gmsscr//H2Ocat_cct_gmcpt_C1_3st_diab_mode7_+0.05x2.F71.001
-rw-r--r-- 1 bjb2chen nooijen    4808 Jan 25 17:20 /home/bjb2chen/gmsscr//H2Ocat_cct_gmcpt_C1_3st_diab_mode7_+0.05x2.F72
-rw-r--r-- 1 bjb2chen nooijen    4808 Jan 25 17:20 /home/bjb2chen/gmsscr//H2Ocat_cct_gmcpt_C1_3st_diab_mode7_+0.05x2.F72.001
-rw-r--r-- 1 bjb2chen nooijen    4808 Jan 25 17:20 /home/bjb2chen/gmsscr//H2Ocat_cct_gmcpt_C1_3st_diab_mode7_+0.05x2.F73
-rw-r--r-- 1 bjb2chen nooijen    4808 Jan 25 17:20 /home/bjb2chen/gmsscr//H2Ocat_cct_gmcpt_C1_3st_diab_mode7_+0.05x2.F73.001
-rw-r--r-- 1 bjb2chen nooijen  184824 Jan 25 17:20 /home/bjb2chen/gmsscr//H2Ocat_cct_gmcpt_C1_3st_diab_mode7_+0.05x2.F74
-rw-r--r-- 1 bjb2chen nooijen  184824 Jan 25 17:20 /home/bjb2chen/gmsscr//H2Ocat_cct_gmcpt_C1_3st_diab_mode7_+0.05x2.F74.001
-rw-r--r-- 1 bjb2chen nooijen  720024 Jan 25 17:20 /home/bjb2chen/gmsscr//H2Ocat_cct_gmcpt_C1_3st_diab_mode7_+0.05x2.F75
-rw-r--r-- 1 bjb2chen nooijen  720024 Jan 25 17:20 /home/bjb2chen/gmsscr//H2Ocat_cct_gmcpt_C1_3st_diab_mode7_+0.05x2.F75.001
-rw-r--r-- 1 bjb2chen nooijen   14448 Jan 25 17:20 /home/bjb2chen/gmsscr//H2Ocat_cct_gmcpt_C1_3st_diab_mode7_+0.05x2.F76
-rw-r--r-- 1 bjb2chen nooijen   14448 Jan 25 17:20 /home/bjb2chen/gmsscr//H2Ocat_cct_gmcpt_C1_3st_diab_mode7_+0.05x2.F76.001
-rw-r--r-- 1 bjb2chen nooijen       0 Jan 25 17:20 /home/bjb2chen/gmsscr//H2Ocat_cct_gmcpt_C1_3st_diab_mode7_+0.05x2.F77
-rw-r--r-- 1 bjb2chen nooijen       0 Jan 25 17:20 /home/bjb2chen/gmsscr//H2Ocat_cct_gmcpt_C1_3st_diab_mode7_+0.05x2.F77.001
-rw-r--r-- 1 bjb2chen nooijen    1544 Jan 25 17:20 /home/bjb2chen/gmsscr//H2Ocat_cct_gmcpt_C1_3st_diab_mode7_+0.05x2.F78
-rw-r--r-- 1 bjb2chen nooijen    1544 Jan 25 17:20 /home/bjb2chen/gmsscr//H2Ocat_cct_gmcpt_C1_3st_diab_mode7_+0.05x2.F78.001
-rw-r--r-- 1 bjb2chen nooijen    9608 Jan 25 17:20 /home/bjb2chen/gmsscr//H2Ocat_cct_gmcpt_C1_3st_diab_mode7_+0.05x2.F79
-rw-r--r-- 1 bjb2chen nooijen    9608 Jan 25 17:20 /home/bjb2chen/gmsscr//H2Ocat_cct_gmcpt_C1_3st_diab_mode7_+0.05x2.F79.001
-rw-r--r-- 1 bjb2chen nooijen     104 Jan 25 17:20 /home/bjb2chen/gmsscr//H2Ocat_cct_gmcpt_C1_3st_diab_mode7_+0.05x2.F80
-rw-r--r-- 1 bjb2chen nooijen     104 Jan 25 17:20 /home/bjb2chen/gmsscr//H2Ocat_cct_gmcpt_C1_3st_diab_mode7_+0.05x2.F80.001
-rw-r--r-- 1 bjb2chen nooijen    9232 Jan 25 17:20 /home/bjb2chen/gmsscr//H2Ocat_cct_gmcpt_C1_3st_diab_mode7_+0.05x2.F81
-rw-r--r-- 1 bjb2chen nooijen    9232 Jan 25 17:20 /home/bjb2chen/gmsscr//H2Ocat_cct_gmcpt_C1_3st_diab_mode7_+0.05x2.F81.001
-rw-r--r-- 1 bjb2chen nooijen      16 Jan 25 17:20 /home/bjb2chen/gmsscr//H2Ocat_cct_gmcpt_C1_3st_diab_mode7_+0.05x2.F82
-rw-r--r-- 1 bjb2chen nooijen      16 Jan 25 17:20 /home/bjb2chen/gmsscr//H2Ocat_cct_gmcpt_C1_3st_diab_mode7_+0.05x2.F82.001
-rw-r--r-- 1 bjb2chen nooijen   10376 Jan 25 17:20 /home/bjb2chen/gmsscr//H2Ocat_cct_gmcpt_C1_3st_diab_mode7_+0.05x2.F83
-rw-r--r-- 1 bjb2chen nooijen   10376 Jan 25 17:20 /home/bjb2chen/gmsscr//H2Ocat_cct_gmcpt_C1_3st_diab_mode7_+0.05x2.F83.001
-rw-r--r-- 1 bjb2chen nooijen   18832 Jan 25 17:20 /home/bjb2chen/gmsscr//H2Ocat_cct_gmcpt_C1_3st_diab_mode7_+0.05x2.F84
-rw-r--r-- 1 bjb2chen nooijen   18832 Jan 25 17:20 /home/bjb2chen/gmsscr//H2Ocat_cct_gmcpt_C1_3st_diab_mode7_+0.05x2.F84.001
-rw-r--r-- 1 bjb2chen nooijen   66608 Jan 25 17:20 /home/bjb2chen/gmsscr//H2Ocat_cct_gmcpt_C1_3st_diab_mode7_+0.05x2.F85
-rw-r--r-- 1 bjb2chen nooijen   66608 Jan 25 17:20 /home/bjb2chen/gmsscr//H2Ocat_cct_gmcpt_C1_3st_diab_mode7_+0.05x2.F85.001
-rw-r--r-- 1 bjb2chen nooijen   68248 Jan 25 17:20 /home/bjb2chen/gmsscr//H2Ocat_cct_gmcpt_C1_3st_diab_mode7_+0.05x2.F86
-rw-r--r-- 1 bjb2chen nooijen   60088 Jan 25 17:20 /home/bjb2chen/gmsscr//H2Ocat_cct_gmcpt_C1_3st_diab_mode7_+0.05x2.F86.001
-rw-r--r-- 1 bjb2chen nooijen     656 Jan 25 17:20 /home/bjb2chen/gmsscr//H2Ocat_cct_gmcpt_C1_3st_diab_mode7_+0.05x2.F87
-rw-r--r-- 1 bjb2chen nooijen     656 Jan 25 17:20 /home/bjb2chen/gmsscr//H2Ocat_cct_gmcpt_C1_3st_diab_mode7_+0.05x2.F87.001
-rw-r--r-- 1 bjb2chen nooijen    5296 Jan 25 17:20 /home/bjb2chen/gmsscr//H2Ocat_cct_gmcpt_C1_3st_diab_mode7_+0.05x2.F88
-rw-r--r-- 1 bjb2chen nooijen    5296 Jan 25 17:20 /home/bjb2chen/gmsscr//H2Ocat_cct_gmcpt_C1_3st_diab_mode7_+0.05x2.F88.001
-rw-r--r-- 1 bjb2chen nooijen     200 Jan 25 17:20 /home/bjb2chen/gmsscr//H2Ocat_cct_gmcpt_C1_3st_diab_mode7_+0.05x2.F89
-rw-r--r-- 1 bjb2chen nooijen     200 Jan 25 17:20 /home/bjb2chen/gmsscr//H2Ocat_cct_gmcpt_C1_3st_diab_mode7_+0.05x2.F89.001
-rw-r--r-- 1 bjb2chen nooijen       0 Jan 25 17:20 /home/bjb2chen/gmsscr//H2Ocat_cct_gmcpt_C1_3st_diab_mode7_+0.05x2.F90
-rw-r--r-- 1 bjb2chen nooijen       0 Jan 25 17:20 /home/bjb2chen/gmsscr//H2Ocat_cct_gmcpt_C1_3st_diab_mode7_+0.05x2.F90.001
-rw-r--r-- 1 bjb2chen nooijen    5560 Jan 25 17:20 /home/bjb2chen/gmsscr//H2Ocat_cct_gmcpt_C1_3st_diab_mode7_+0.05x2.F91
-rw-r--r-- 1 bjb2chen nooijen    5560 Jan 25 17:20 /home/bjb2chen/gmsscr//H2Ocat_cct_gmcpt_C1_3st_diab_mode7_+0.05x2.F91.001
-rw-r--r-- 1 bjb2chen nooijen    7128 Jan 25 17:20 /home/bjb2chen/gmsscr//H2Ocat_cct_gmcpt_C1_3st_diab_mode7_+0.05x2.F92
-rw-r--r-- 1 bjb2chen nooijen    7128 Jan 25 17:20 /home/bjb2chen/gmsscr//H2Ocat_cct_gmcpt_C1_3st_diab_mode7_+0.05x2.F92.001
-rw-r--r-- 1 bjb2chen nooijen    5560 Jan 25 17:20 /home/bjb2chen/gmsscr//H2Ocat_cct_gmcpt_C1_3st_diab_mode7_+0.05x2.F93
-rw-r--r-- 1 bjb2chen nooijen    5560 Jan 25 17:20 /home/bjb2chen/gmsscr//H2Ocat_cct_gmcpt_C1_3st_diab_mode7_+0.05x2.F93.001
-rw-r--r-- 1 bjb2chen nooijen    3880 Jan 25 17:20 /home/bjb2chen/gmsscr//H2Ocat_cct_gmcpt_C1_3st_diab_mode7_+0.05x2.F94
-rw-r--r-- 1 bjb2chen nooijen    3880 Jan 25 17:20 /home/bjb2chen/gmsscr//H2Ocat_cct_gmcpt_C1_3st_diab_mode7_+0.05x2.F94.001
-rw-r--r-- 1 bjb2chen nooijen    1640 Jan 25 17:20 /home/bjb2chen/gmsscr//H2Ocat_cct_gmcpt_C1_3st_diab_mode7_+0.05x2.F95
-rw-r--r-- 1 bjb2chen nooijen    1640 Jan 25 17:20 /home/bjb2chen/gmsscr//H2Ocat_cct_gmcpt_C1_3st_diab_mode7_+0.05x2.F95.001
-rw-r--r-- 1 bjb2chen nooijen    7240 Jan 25 17:20 /home/bjb2chen/gmsscr//H2Ocat_cct_gmcpt_C1_3st_diab_mode7_+0.05x2.F96
-rw-r--r-- 1 bjb2chen nooijen    7240 Jan 25 17:20 /home/bjb2chen/gmsscr//H2Ocat_cct_gmcpt_C1_3st_diab_mode7_+0.05x2.F96.001
-rw-r--r-- 1 bjb2chen nooijen     872 Jan 25 17:20 /home/bjb2chen/gmsscr//H2Ocat_cct_gmcpt_C1_3st_diab_mode7_+0.05x2.F97
-rw-r--r-- 1 bjb2chen nooijen     872 Jan 25 17:20 /home/bjb2chen/gmsscr//H2Ocat_cct_gmcpt_C1_3st_diab_mode7_+0.05x2.F97.001
-rw-r--r-- 1 bjb2chen nooijen    2408 Jan 25 17:20 /home/bjb2chen/gmsscr//H2Ocat_cct_gmcpt_C1_3st_diab_mode7_+0.05x2.F98
-rw-r--r-- 1 bjb2chen nooijen    2408 Jan 25 17:20 /home/bjb2chen/gmsscr//H2Ocat_cct_gmcpt_C1_3st_diab_mode7_+0.05x2.F98.001
-rw-r--r-- 1 bjb2chen nooijen    6024 Jan 25 17:20 /home/bjb2chen/gmsscr//H2Ocat_cct_gmcpt_C1_3st_diab_mode7_+0.05x2.F99
-rw-r--r-- 1 bjb2chen nooijen    6024 Jan 25 17:20 /home/bjb2chen/gmsscr//H2Ocat_cct_gmcpt_C1_3st_diab_mode7_+0.05x2.F99.001
ls: No match.
ls: No match.
ls: No match.
Thu 25 Jan 2024 05:20:33 PM EST
0.345u 0.141s 0:09.35 5.1%	0+0k 32+240io 0pf+0w
