----- GAMESS execution script 'rungms' -----
This job is running on host io001
under operating system Linux at Thu 25 Jan 2024 05:20:23 PM EST
Available scratch disk space (Kbyte units) at beginning of the job is
Filesystem             1K-blocks       Used Available Use% Mounted on
helmholtz.nlogn:/home 6391504896 5248412672 820954112  87% /home
GAMESS temporary binary files will be written to /home/bjb2chen/gmsscr/
GAMESS supplementary output files will be written to /home/bjb2chen/gamess/vibronics/template_examples/H2O
Copying input file H2Ocat_cct_gmcpt_C1_3st_diab_mode7_+0.05.inp to your run's scratch directory...
cp H2Ocat_cct_gmcpt_C1_3st_diab_mode7_+0.05.inp /home/bjb2chen/gmsscr//H2Ocat_cct_gmcpt_C1_3st_diab_mode7_+0.05.F05
unset echo
 
Assuming a single but multicore node.
 
/home/bjb2chen/gamess/ddikick.x /home/bjb2chen/gamess/gamess.00.x H2Ocat_cct_gmcpt_C1_3st_diab_mode7_+0.05 -ddi 1 2 io001:cpus=2 -scr /home/bjb2chen/gmsscr/

 Distributed Data Interface kickoff program.
 Initiating 2 compute processes on 1 nodes to run the following command:
 /home/bjb2chen/gamess/gamess.00.x H2Ocat_cct_gmcpt_C1_3st_diab_mode7_+0.05 

          ******************************************************
          *         GAMESS VERSION = 02 AUG 2018 (R2)         *
          *             FROM IOWA STATE UNIVERSITY             *
          * M.W.SCHMIDT, K.K.BALDRIDGE, J.A.BOATZ, S.T.ELBERT, *
          *   M.S.GORDON, J.H.JENSEN, S.KOSEKI, N.MATSUNAGA,   *
          *          K.A.NGUYEN, S.J.SU, T.L.WINDUS,           *
          *       TOGETHER WITH M.DUPUIS, J.A.MONTGOMERY       *
          *         J.COMPUT.CHEM.  14, 1347-1363(1993)        *
          **************** 64 BIT LINUX VERSION ****************

  SINCE 1993, STUDENTS AND POSTDOCS WORKING AT IOWA STATE UNIVERSITY
  AND ALSO IN THEIR VARIOUS JOBS AFTER LEAVING ISU HAVE MADE IMPORTANT
  CONTRIBUTIONS TO THE CODE:
     IVANA ADAMOVIC, CHRISTINE AIKENS, YURI ALEXEEV, POOJA ARORA,
     ANDREY ASADCHEV, ROB BELL, PRADIPTA BANDYOPADHYAY, JONATHAN BENTZ,
     BRETT BODE, KURT BRORSEN, CALEB CARLIN, GALINA CHABAN, WEI CHEN,
     CHEOL HO CHOI, PAUL DAY, ALBERT DEFUSCO, NUWAN DESILVA, TIM DUDLEY,
     DMITRI FEDOROV, ALEX FINDLATER, GRAHAM FLETCHER, MARK FREITAG,
     KURT GLAESEMANN, ANASTASIA GUININA,
     DAN KEMP, GRANT MERRILL, NORIYUKI MINEZAWA, JONATHAN MULLIN,
     TAKESHI NAGATA, SEAN NEDD, HEATHER NETZLOFF, BOSILJKA NJEGIC, RYAN OLSON,
     MIKE PAK, BUU PHAM,
     SPENCER PRUITT, LUKE ROSKOP, JIM SHOEMAKER, LYUDMILA SLIPCHENKO,
     TONY SMITH, SAROM SOK LEANG, JIE SONG, TETSUYA TAKETSUGU, SIMON WEBB,
     PENG XU, SOOHAENG YOO, FEDERICO ZAHARIEV

  ADDITIONAL CODE HAS BEEN PROVIDED BY COLLABORATORS IN OTHER GROUPS:
     IOWA STATE UNIVERSITY:
          JOE IVANIC, AARON WEST, LAIMUTIS BYTAUTAS, KLAUS RUEDENBERG
     UNIVERSITY OF TOKYO: KIMIHIKO HIRAO, TAKAHITO NAKAJIMA,
          TAKAO TSUNEDA, MUNEAKI KAMIYA, SUSUMU YANAGISAWA,
          KIYOSHI YAGI, MAHITO CHIBA, SEIKEN TOKURA, NAOAKI KAWAKAMI
     UNIVERSITY OF AARHUS: FRANK JENSEN
     UNIVERSITY OF IOWA: VISVALDAS KAIRYS, HUI LI
     NATIONAL INST. OF STANDARDS AND TECHNOLOGY: WALT STEVENS, DAVID GARMER
     UNIVERSITY OF PISA: BENEDETTA MENNUCCI, JACOPO TOMASI
     UNIVERSITY OF MEMPHIS: HENRY KURTZ, PRAKASHAN KORAMBATH
     UNIVERSITY OF ALBERTA: TOBY ZENG, MARIUSZ KLOBUKOWSKI
     UNIVERSITY OF NEW ENGLAND: MARK SPACKMAN
     MIE UNIVERSITY: HIROAKI UMEDA
     NAT. INST. OF ADVANCED INDUSTRIAL SCIENCE AND TECHNOLOGY: KAZUO KITAURA
     MICHIGAN STATE UNIVERSITY:
          KAROL KOWALSKI, MARTA WLOCH, JEFFREY GOUR, JESSE LUTZ,
          WEI LI, JUN SHEN, J. EMILIANO DEUSTUA, PIOTR PIECUCH
     UNIVERSITY OF MINNESOTA:
          YINAN SHU
     UNIVERSITY OF SILESIA: MONIKA MUSIAL, STANISLAW KUCHARSKI
     FACULTES UNIVERSITAIRES NOTRE-DAME DE LA PAIX:
          OLIVIER QUINET, BENOIT CHAMPAGNE
     UNIVERSITY OF CALIFORNIA - SANTA BARBARA: BERNARD KIRTMAN
     INSTITUTE FOR MOLECULAR SCIENCE:
          KAZUYA ISHIMURA, MICHIO KATOUDA, AND SHIGERU NAGASE
     UNIVERSITY OF NOTRE DAME: ANNA POMOGAEVA, DAN CHIPMAN
     KYUSHU UNIVERSITY:
          HARUYUKI NAKANO,
          FENG LONG GU, JACEK KORCHOWIEC, MARCIN MAKOWSKI, AND YURIKO AOKI,
          HIROTOSHI MORI AND EISAKU MIYOSHI
     PENNSYLVANIA STATE UNIVERSITY:
          TZVETELIN IORDANOV, CHET SWALINA, JONATHAN SKONE,
          SHARON HAMMES-SCHIFFER
     WASEDA UNIVERSITY:
          MASATO KOBAYASHI, TOMOKO AKAMA, TSUGUKI TOUMA,
          TAKESHI YOSHIKAWA, YASUHIRO IKABATA, JUNJI SEINO,
          YUYA NAKAJIMA, HIROMI NAKAI
     NANJING UNIVERSITY: SHUHUA LI
     UNIVERSITY OF NEBRASKA:
          PEIFENG SU, DEJUN SI, NANDUN THELLAMUREGE, YALI WANG, HUI LI
     UNIVERSITY OF ZURICH: ROBERTO PEVERATI, KIM BALDRIDGE
     N. COPERNICUS UNIVERSITY AND JACKSON STATE UNIVERSITY:
          MARIA BARYSZ
     UNIVERSITY OF COPENHAGEN: Jimmy Kromann, CASPER STEINMANN
     TOKYO INSTITUTE OF TECHNOLOGY: HIROYA NAKATA
     NAGOYA UNIVERSITY: YOSHIO NISHIMOTO, STEPHAN IRLE
     MOSCOW STATE UNIVERSITY: VLADIMIR MIRONOV


 PARALLEL VERSION RUNNING ON        2 PROCESSORS IN        1 NODES.

 EXECUTION OF GAMESS BEGUN Thu Jan 25 17:20:24 2024

            ECHO OF THE FIRST FEW INPUT CARDS -
 INPUT CARD> !############################################################################# 
 INPUT CARD> !                   D_3h RHF GEOMETRY OPTIMIZATION AND HESSIAN TEMPLATE        
 INPUT CARD> ! ---------------------------------------------------------------------------  
 INPUT CARD> ! Replace the symmetry-correct coordinates, should only be two atoms.          
 INPUT CARD> ! The hydrogen or fluorine should have only one non-zero x,y,z coordinate.     
 INPUT CARD> !                                                                              
 INPUT CARD> ! Basis set?   gbasis=ccd for 2nd row,                                         
 INPUT CARD> !                         cct 3rd/4th,                                         
 INPUT CARD> !                   SPKrTZP for heavy,                                         
 INPUT CARD> !                   SPKrTZC beyond 4th                                         
 INPUT CARD> !                                                                              
 INPUT CARD> !############################################################################# 
 INPUT CARD> $system kdiag=3 mwords=250 memddi=8000 parall=.t. $end                         
 INPUT CARD> $contrl runtyp=energy ispher=1 $end                                            
 INPUT CARD> $contrl icut=9 itol=20 inttyp=rysquad qmttol=1.0d-05 nosym=1 $end              
 INPUT CARD> $contrl scftyp=mcscf  mult=2 maxit=200 icharg=1 mplevl=2 $end                  
 INPUT CARD> $scf    npunch=2 conv=1.0d-06 dirscf=.t. $end                                  
 INPUT CARD> $force  method=seminum $end                                                    
 INPUT CARD> $trans  dirtrf=.t. $end                                                        
 INPUT CARD> $statpt hssend=.t. $end                                                        
 INPUT CARD> $basis  gbasis=ccd $end                                                        
 INPUT CARD> !############################################################################# 
 INPUT CARD> !                                                                              
 INPUT CARD> !                       TURN ON THIS SECTION IF HEAVY ATOM                     
 INPUT CARD> !                                                                              
 INPUT CARD> !############################################################################# 
 INPUT CARD> !                                                                              
 INPUT CARD> -contrl relwfn=LUT-IOTC $end                                                   
 INPUT CARD> -scf  diis=.t. soscf=.f. ethrsh=10.0 $end                                      
 INPUT CARD> -guess iorder(25)=27,25,26 $end                                                
 INPUT CARD> -gmcpt nsolut=100 $end                                                         
 INPUT CARD> !                                                                              
 INPUT CARD> !############################################################################# 
 INPUT CARD> !                                                                              
 INPUT CARD> !       TURN ON THIS SECTION IF GMCPT, CHANGE runtyp=energy, scftyp=mcscf      
 INPUT CARD> !                                                                              
 INPUT CARD> !############################################################################# 
 INPUT CARD> $guess  guess=moread norb=24 purify=.t. norder=1 $end                          
 INPUT CARD> $mcscf  cistep=gmcci fullnr=.t. finci=mos                                      
 INPUT CARD>         acurcy=1.d-6 maxit=100 $end                                            
 INPUT CARD> $mrmp   mrpt=gmcpt rdvecs=.f. $end                                             
 INPUT CARD> $gmcpt  nmofzc=0 nmodoc=1 nmoact=6 nelact=7 stsym(1)=A                         
 INPUT CARD>         reftyp=ormas nspace=1 mstart(1)=2 mine(1)=7 maxe(1)=7                  
 INPUT CARD>         kstate(1)=1,1,1                                                        
 INPUT CARD>         wstate(1)=1,1,1                                                        
 INPUT CARD>         iwgt=0 thrwgt=-1.0 krot=.f. kszdoe=.f. knospn=.f.                      
 INPUT CARD>         thrde=-1.0 edshft=0.02 $end                                            
 INPUT CARD> !if SOC: transt $end, add knospn=.t.                                           
 INPUT CARD> !############################################################################# 
 INPUT CARD> !                                                                              
  250000000 WORDS OF MEMORY AVAILABLE

     BASIS OPTIONS
     -------------
     GBASIS=CCD          IGAUSS=       0      POLAR=NONE    
     NDFUNC=       0     NFFUNC=       0     DIFFSP=       F
     NPFUNC=       0      DIFFS=       F     BASNAM=        


     RUN TITLE
     ---------
  H2O cation diabatization 3 states                                              

 THE POINT GROUP OF THE MOLECULE IS C1      
 THE ORDER OF THE PRINCIPAL AXIS IS     0

 ATOM      ATOMIC                      COORDINATES (BOHR)
           CHARGE         X                   Y                   Z
 O           8.0     0.0000000000        0.0000000000       -0.0820613964
 H           1.0     1.5258637959        0.0000000003        1.0469609221
 H           1.0    -1.5258637959       -0.0000000003        1.0469609221

          INTERNUCLEAR DISTANCES (ANGS.)
          ------------------------------

                1 O          2 H          3 H     

   1 O       0.0000000    1.0044548 *  1.0044548 *
   2 H       1.0044548 *  0.0000000    1.6149048 *
   3 H       1.0044548 *  1.6149048 *  0.0000000  

  * ... LESS THAN  3.000


     ATOMIC BASIS SET
     ----------------
 THE CONTRACTED PRIMITIVE FUNCTIONS HAVE BEEN UNNORMALIZED
 THE CONTRACTED BASIS FUNCTIONS ARE NOW NORMALIZED TO UNITY

  SHELL TYPE  PRIMITIVE        EXPONENT          CONTRACTION COEFFICIENT(S)

 O         

      1   S       1         11720.0000000    0.000709645947
      1   S       2          1759.0000000    0.005467272292
      1   S       3           400.8000000    0.027823118610
      1   S       4           113.7000000    0.104747739711
      1   S       5            37.0300000    0.282920846357
      1   S       6            13.2700000    0.448495238698
      1   S       7             5.0250000    0.270816885213
      1   S       8             1.0130000    0.015450291607

      2   S       9         11720.0000000   -0.000314443412
      2   S      10          1759.0000000   -0.002482137681
      2   S      11           400.8000000   -0.012316355382
      2   S      12           113.7000000   -0.050538917344
      2   S      13            37.0300000   -0.139384903316
      2   S      14            13.2700000   -0.325077494818
      2   S      15             5.0250000   -0.229848307588
      2   S      16             1.0130000    1.095379346788

      3   S      17             0.3023000    1.000000000000

      4   P      18            17.7000000    0.062679166282
      4   P      19             3.8540000    0.333536565879
      4   P      20             1.0460000    0.741239641640

      5   P      21             0.2753000    1.000000000000

      6   D      22             1.1850000    1.000000000000

 H         

      7   S      23            13.0100000    0.033498726390
      7   S      24             1.9620000    0.234800801174
      7   S      25             0.4446000    0.813682957883

      8   S      26             0.1220000    1.000000000000

      9   P      27             0.7270000    1.000000000000

 H         

     10   S      28            13.0100000    0.033498726390
     10   S      29             1.9620000    0.234800801174
     10   S      30             0.4446000    0.813682957883

     11   S      31             0.1220000    1.000000000000

     12   P      32             0.7270000    1.000000000000

 TOTAL NUMBER OF BASIS SET SHELLS             =   12
 NUMBER OF CARTESIAN GAUSSIAN BASIS FUNCTIONS =   25
 NOTE: THIS RUN WILL RESTRICT THE MO VARIATION SPACE TO SPHERICAL HARMONICS.
 THE NUMBER OF ORBITALS KEPT IN THE VARIATIONAL SPACE WILL BE PRINTED LATER.
 NUMBER OF ELECTRONS                          =    9
 CHARGE OF MOLECULE                           =    1
 SPIN MULTIPLICITY                            =    2
 NUMBER OF OCCUPIED ORBITALS (ALPHA)          =    5
 NUMBER OF OCCUPIED ORBITALS (BETA )          =    4
 TOTAL NUMBER OF ATOMS                        =    3
 THE NUCLEAR REPULSION ENERGY IS        8.7569687016

     $CONTRL OPTIONS
     ---------------
 SCFTYP=MCSCF        RUNTYP=ENERGY       EXETYP=RUN     
 MPLEVL=       2     CITYP =NONE         CCTYP =NONE         VBTYP =NONE    
 DFTTYP=NONE         TDDFT =NONE    
 MULT  =       2     ICHARG=       1     NZVAR =       0     COORD =UNIQUE  
 PP    =NONE         RELWFN=NONE         LOCAL =NONE         NUMGRD=       F
 ISPHER=       1     NOSYM =       1     MAXIT =     200     UNITS =ANGS    
 PLTORB=       F     MOLPLT=       F     AIMPAC=       F     FRIEND=        
 NPRINT=       7     IREST =       0     GEOM  =INPUT   
 NORMF =       0     NORMP =       0     ITOL  =      20     ICUT  =       9
 INTTYP=RYSQUAD      GRDTYP=BEST         QMTTOL= 1.0E-05

     $SYSTEM OPTIONS
     ---------------
  REPLICATED MEMORY=   250000000 WORDS (ON EVERY NODE).
 DISTRIBUTED MEMDDI=        8000 MILLION WORDS IN AGGREGATE,
 MEMDDI DISTRIBUTED OVER   2 PROCESSORS IS  4000000000 WORDS/PROCESSOR.
 TOTAL MEMORY REQUESTED ON EACH PROCESSOR=  4250000000 WORDS.
 TIMLIM=      525600.00 MINUTES, OR     365.0 DAYS.
 PARALL= T  BALTYP=  DLB     KDIAG=    3  COREFL= F
 MXSEQ2=     300 MXSEQ3=     150  mem10=         0

          ----------------
          PROPERTIES INPUT
          ----------------

     MOMENTS            FIELD           POTENTIAL          DENSITY
 IEMOM =       1   IEFLD =       0   IEPOT =       0   IEDEN =       0
 WHERE =COMASS     WHERE =NUCLEI     WHERE =NUCLEI     WHERE =NUCLEI  
 OUTPUT=BOTH       OUTPUT=BOTH       OUTPUT=BOTH       OUTPUT=BOTH    
 IEMINT=       0   IEFINT=       0                     IEDINT=       0
                                                       MORB  =       0

     -------------------------------
     INTEGRAL TRANSFORMATION OPTIONS
     -------------------------------
     NWORD  =            0
     CUTOFF = 1.0E-09     MPTRAN =       0
     DIRTRF =       T     AOINTS =DUP     

          ----------------------
          MCSCF INPUT PARAMETERS
          ----------------------
 CONVERGER SELECTION: FOCAS = F  SOSCF = F  FULLNR = T  QUD = F  JACOBI = F
 SECULAR EQUATION METHOD CISTEP = GMCCI   
 --- GENERAL INPUT OPTIONS:
 MAXIT =     100  MICIT =       1  ACURCY= 1.000E-06
 DAMP  =   0.000  CANONC=       T  ENGTOL= 1.000E-10
 EKT   =       F  NPUNCH=       2  NWORD =         0
 REGENERATE CI AFTER CONVERGENCE = NONE    
 DIABATIZATION AFTER CONVERGENCE =        F
 --- INPUT FOR FULLNR CONVERGER:
 METHOD=DM2       FORS  =       F  DROPC =       T
 LINSER=       F  FCORE =       F  NORB  =      25

          ----------------------
          INTEGRAL INPUT OPTIONS
          ----------------------
 NOPK  =       1 NORDER=       0 SCHWRZ=       T

 ------------------------------------------
 MULTIREFERENCE PERTURBATION THEORY CONTROL
 ------------------------------------------
 MRPT=GMCPT    READ CONVERGED MCSCF VECTORS= F


     ------------------------------------------
     THE POINT GROUP IS C1 , NAXIS= 1, ORDER= 1
     ------------------------------------------

 -- VARIATIONAL SPACE WILL BE RESTRICTED TO PURE SPHERICAL HARMONICS ONLY --
 AFTER EXCLUDING CONTAMINANT COMBINATIONS FROM THE CARTESIAN GAUSSIAN BASIS
 SET, THE NUMBER OF SPHERICAL HARMONICS KEPT IN THE VARIATION SPACE IS   24

     DIMENSIONS OF THE SYMMETRY SUBSPACES ARE
 A   =   24

 ..... DONE SETTING UP THE RUN .....
 CPU     0: STEP CPU TIME=     0.05 TOTAL CPU TIME=          0.0 (      0.0 MIN)
 TOTAL WALL CLOCK TIME=          0.3 SECONDS, CPU UTILIZATION IS    17.24%

          ********************
          1 ELECTRON INTEGRALS
          ********************
 TIME TO DO   DIPOLE INTEGRALS=      0.00
 ...... END OF ONE-ELECTRON INTEGRALS ......
 CPU     0: STEP CPU TIME=     0.00 TOTAL CPU TIME=          0.0 (      0.0 MIN)
 TOTAL WALL CLOCK TIME=          0.3 SECONDS, CPU UTILIZATION IS    16.67%

          -------------
          GUESS OPTIONS
          -------------
          GUESS =MOREAD            NORB  =      24          NORDER=       1
          MIX   =       F          PRTMO =       F          PUNMO =       F
          TOLZ  = 1.0E-08          TOLE  = 1.0E-05
          SYMDEN=       F          PURIFY=       T

 INITIAL GUESS ORBITALS GENERATED BY MOREAD   ROUTINE.

 STATISTICS FOR GENERATION OF SYMMETRY ORBITAL -Q- MATRIX
 NUMBER OF CARTESIAN ATOMIC ORBITALS=         25
 NUMBER OF SPHERICAL CONTAMINANTS DROPPED=     1
 NUMBER OF LINEARLY DEPENDENT MOS DROPPED=     0
 TOTAL NUMBER OF MOS IN VARIATION SPACE=      24
 ORBITAL PURIFICATION WILL OCCUR

 SYMMETRIES FOR INITIAL GUESS ORBITALS FOLLOW.   BOTH SET(S).
     5 ORBITALS ARE OCCUPIED (    1 CORE ORBITALS).
     1=A        2=A        3=A        4=A        5=A        6=A        7=A   
     8=A        9=A       10=A       11=A       12=A       13=A       14=A   
    15=A       16=A       17=A       18=A       19=A       20=A       21=A   
    22=A       23=A       24=A   
 ...... END OF INITIAL ORBITAL SELECTION ......
 CPU     0: STEP CPU TIME=     0.00 TOTAL CPU TIME=          0.0 (      0.0 MIN)
 TOTAL WALL CLOCK TIME=          0.3 SECONDS, CPU UTILIZATION IS    16.67%

                    ----------------------
                    AO INTEGRAL TECHNOLOGY
                    ----------------------
     S,P,L SHELL ROTATED AXIS INTEGRALS, REPROGRAMMED BY
        KAZUYA ISHIMURA (IMS) AND JOSE SIERRA (SYNSTAR).
     S,P,D,L SHELL ROTATED AXIS INTEGRALS PROGRAMMED BY
        KAZUYA ISHIMURA (INSTITUTE FOR MOLECULAR SCIENCE).
     S,P,D,F,G SHELL TO TOTAL QUARTET ANGULAR MOMENTUM SUM 5,
        ERIC PROGRAM BY GRAHAM FLETCHER (ELORET AND NASA ADVANCED
        SUPERCOMPUTING DIVISION, AMES RESEARCH CENTER).
     S,P,D,F,G,L SHELL GENERAL RYS QUADRATURE PROGRAMMED BY
        MICHEL DUPUIS (PACIFIC NORTHWEST NATIONAL LABORATORY).

          --------------------
          2 ELECTRON INTEGRALS
          --------------------

 DIRECT SCF METHOD SKIPS INTEGRAL STORAGE ON DISK.
 DIRECT TRANSFORMATION SKIPS AO INTEGRAL STORAGE ON DISK.
  ...... END OF TWO-ELECTRON INTEGRALS .....
 STEP CPU TIME =     0.02 TOTAL CPU TIME =          0.1 (      0.0 MIN)
 TOTAL WALL CLOCK TIME=          0.3 SECONDS, CPU UTILIZATION IS    21.88%
 DDI: Creating Array [0] - 625 x 28 = 17500 words.
 DDI: Creating Array [1] - 17 x 196 = 3332 words.
 DDI: Creating Array [2] - 28 x 28 = 784 words.
 DDI: Creating Array [3] - 325 x 28 = 9100 words.

          -----------------
          MCSCF CALCULATION
          -----------------

 ----- NUCLEAR ENERGY ----- =         8.7569687016

     -------------------------------------------------
     GMC-PT/GMC-QDPT or general MCSCF input parameters
     -------------------------------------------------
 # of frozen core orbs. =         0 ->         0
 # of doubly occ. orbs. =         1
 # of active      orbs. =         6
 # of virtual     orbs. =        17
 # of active electrons  =         7
 # of states in CI      =         3
 Highest state in CI    =         3
 kstate =  1 1 1
 avecoe =  0.333 0.333 0.333
 State symmetry           = A           
 Assigned symmetry number = 1

 <<<Act. MO sym.: 111111

 <<<Division of 1-ext.:  0 0
 <<<Division of 2-ext.:  0 1

 *** Reference space

 Reference type: ORMAS (= Occupation restricted multiple active space)
 # of orbitals          =  6
 # of minimum electrons =  7
 # of maximum electrons =  7
 State symmetry    =    1 (input)
 2*Sz              =    1 (input)
 Spin multiplicity =    2 (input)
 Dimension of reference space =       300  (from       792 walks)

 Dimension of reference space =       300  (from       300 walks)

 <<<Ionized spaces for Ref-CI:
      0:          300 /   -1-0:          625 /  0-1-0:          690

 EVALUATING EXCHANGE INTEGRALS FOR DIRECT INTEGRAL TRANSFORMATION
 SCHWARZ INEQUALITY OVERHEAD:       325 INTEGRALS, T=        0.00

     --------------------------------------------
     PARTIAL TWO ELECTRON INTEGRAL TRANSFORMATION
     --------------------------------------------

 NUMBER OF CORE MOLECULAR ORBITALS     =    1
 NUMBER OF OCCUPIED MOLECULAR ORBITALS =    7
 TOTAL NUMBER OF MOLECULAR ORBITALS    =   24
 TOTAL NUMBER OF ATOMIC ORBITALS       =   25
 THRESHOLD FOR KEEPING TRANSFORMED 2E- INTEGRALS = 1.000E-09

 -------------------------------     ------------------------------
 DISTRIBUTED DATA TRANSFORMATION     PROGRAM WRITTEN BY G. FLETCHER
 -------------------------------     ------------------------------

 THE DISTRIBUTED MEMORY REQUIRED FOR THIS STEP IS MEMDDI=         1 MWORDS
 CREATING DISTRIBUTED STORAGE FOR [VIR OCC|VIR OCC] INTEGRALS
 CREATING DISTRIBUTED STORAGE FOR [VIR OCC|OCC OCC] INTEGRALS
 CREATING DISTRIBUTED STORAGE FOR [OCC OCC|OCC OCC] INTEGRALS
 CREATING DISTRIBUTED STORAGE FOR [VIR VIR|OCC OCC] INTEGRALS
 FOR    2 PROCESSORS, THE REPLICATED MEMORY NEEDED IS       62207 WORDS.
 SCHWARZ INEQUALITY OVERHEAD:       325 INTEGRALS, T=        0.00

      DIRECT 4-INDEX TRANSFORMATION 
      SCHWARZ INEQUALITY TEST SKIPPED          0 INTEGRAL BLOCKS
 ----- FROZEN CORE ENERGY =       -61.2143583386
 ... END OF INTEGRAL TRANSFORMATION ...
 CPU     0: STEP CPU TIME=     0.06 TOTAL CPU TIME=          0.1 (      0.0 MIN)
 TOTAL WALL CLOCK TIME=          0.4 SECONDS, CPU UTILIZATION IS    28.89%

     --------------------------------     -----------------------------
     MCHF NEWTON-RAPHSON OPTIMIZATION     CODE WRITTEN BY MICHEL DUPUIS
     --------------------------------     -----------------------------
     PARALLEL VERSION WRITTEN BY G. FLETCHER (ELORET)
     NASA ADVANCED SUPERCOMPUTING DIVISION, AMES RESEARCH CENTER

 NUMBER OF INDEPENDENT ORBITAL ROTATION PARAMETERS =    44
 ..... DONE SOLVING NEWTON-RAPHSON EQUATIONS .....
 CPU     0: STEP CPU TIME=     0.06 TOTAL CPU TIME=          0.2 (      0.0 MIN)
 TOTAL WALL CLOCK TIME=          0.5 SECONDS, CPU UTILIZATION IS    35.19%
 ..... DONE WITH NTN-RPH ORBITAL ROTATIONS ..... 
 CPU     0: STEP CPU TIME=     0.00 TOTAL CPU TIME=          0.2 (      0.0 MIN)
 TOTAL WALL CLOCK TIME=          0.5 SECONDS, CPU UTILIZATION IS    35.19%
 MAXIMUM MEMORY USED BY NTN-RPH CODE WAS     51289 WORDS.

 ITER     TOTAL ENERGY      DEL(E)  LAGRANGIAN ASYMMETRY   SQCDF  MICIT   DAMP
   1      -75.568599695 -0.568599695  0.001971   10    4 4.892E-06  1   0.0000
   2      -75.568604346 -0.000004651  0.000060   12    5 1.689E-07  1   0.0000
   3      -75.568604364 -0.000000018  0.000017   12    5 2.475E-08  1   0.0000
   4      -75.568604366 -0.000000002  0.000006   18    4 4.082E-09  1   0.0000
   5      -75.568604367 -0.000000000  0.000002   18    4 6.894E-10  1   0.0000
   6      -75.568604367 -0.000000000  0.000001   10    4 1.146E-10  1   0.0000

          --------------------
          LAGRANGIAN CONVERGED
          --------------------

 FINAL MCSCF ENERGY IS      -75.5686043667 AFTER   6 ITERATIONS

 -MCCI- BASED ON OPTIMIZED ORBITALS
 ----------------------------------

 PLEASE NOTE: IF THE ACTIVE ORBITALS ARE CANONICALIZED BELOW,
 THE FOLLOWING CI EXPANSION COEFFICIENTS AND THE DENSITY DO NOT
 CORRESPOND TO THE PRINTED ORBITALS.  THE PRINTED EXPANSIONS MATCH
 THE ORBITALS USED DURING THE LAST ITERATION.  IF YOU WISH TO SEE
 CI EXPANSIONS BASED ON THE CANONICAL (OR NATURAL) ORBITALS, YOU
 MUST RUN A CI CALCULATION WITH THAT ORBITAL CHOICE READ IN $VEC.

 Averaged energy =     -75.568604367

 State #    1  Energy =     -75.682514944  S =  0.500

      Det      Coef    Occupancy (Ignoring core)
      ---      ----    --------- --------- -----
        1    0.986991  111100111000
      173    0.076211  101101101001

 State #    2  Energy =     -75.592045689  S =  0.500

      Det      Coef    Occupancy (Ignoring core)
      ---      ----    --------- --------- -----
       16    0.988899  111100110100
      203    0.077620  101101100101

 State #    3  Energy =     -75.431252467  S =  0.500

      Det      Coef    Occupancy (Ignoring core)
      ---      ----    --------- --------- -----
       31    0.990686  111100101100

 DENSITY MATRIX OVER ACTIVE MO-S

             1           2           3           4           5

    1    1.9896347
    2   -0.0000000   1.6503981
    3    0.0071841  -0.0000000   1.6562211
    4    0.0000000  -0.0000000   0.0000000   1.6655645
    5   -0.0040741   0.0000000   0.0134615   0.0000000   0.0184232
    6    0.0000000   0.0204451  -0.0000000  -0.0000000   0.0000000

             6

    6    0.0197584

 FORMING THE "STANDARD FOCK OPERATOR" IN DIRECT AO INTEGRAL MODE...
 ONLY THE    1 CORE AND   17 VIRTUAL ORBITALS WILL BE CANONICALIZED

          ----------------------
          MCSCF NATURAL ORBITALS
          ----------------------

                      1          2          3          4          5
                  -21.0904     1.9898     1.6656     1.6562     1.6507
                     A          A          A          A          A   
    1  O  1  S    1.000777   0.015368  -0.000000  -0.007419  -0.000000
    2  O  1  S   -0.003340   0.482401  -0.000000  -0.170783  -0.000000
    3  O  1  S   -0.006763   0.386380  -0.000000  -0.294158  -0.000000
    4  O  1  X    0.000000  -0.000000  -0.000000   0.000000   0.548476
    5  O  1  Y    0.000000  -0.000000   0.693043   0.000000   0.000000
    6  O  1  Z    0.000427   0.093408  -0.000000   0.607293  -0.000000
    7  O  1  X    0.000000  -0.000000  -0.000000   0.000000   0.220869
    8  O  1  Y    0.000000  -0.000000   0.431512   0.000000   0.000000
    9  O  1  Z   -0.000597   0.007352  -0.000000   0.321379  -0.000000
   10  O  1 XX    0.000037   0.002670  -0.000000  -0.007798  -0.000000
   11  O  1 YY   -0.000009  -0.004276  -0.000000  -0.009870  -0.000000
   12  O  1 ZZ   -0.000028   0.001606  -0.000000   0.017668  -0.000000
   13  O  1 XY   -0.000000  -0.000000  -0.000000  -0.000000  -0.000000
   14  O  1 XZ    0.000000  -0.000000   0.000000   0.000000   0.022557
   15  O  1 YZ    0.000000  -0.000000   0.018067   0.000000   0.000000
   16  H  2  S   -0.001516   0.173989  -0.000000   0.198781   0.314475
   17  H  2  S    0.000502  -0.004619  -0.000000   0.022083   0.021582
   18  H  2  X    0.000705  -0.038227   0.000000  -0.038340  -0.031636
   19  H  2  Y    0.000000  -0.000000   0.028438   0.000000  -0.000000
   20  H  2  Z    0.000509  -0.019675  -0.000000   0.003897  -0.035990
   21  H  3  S   -0.001516   0.173989   0.000000   0.198781  -0.314475
   22  H  3  S    0.000502  -0.004619  -0.000000   0.022083  -0.021582
   23  H  3  X   -0.000705   0.038227   0.000000   0.038340  -0.031636
   24  H  3  Y    0.000000  -0.000000   0.028438   0.000000  -0.000000
   25  H  3  Z    0.000509  -0.019675   0.000000   0.003897   0.035990

                      6          7
                    0.0195     0.0183
                     A          A   
    1  O  1  S   -0.000000   0.177771
    2  O  1  S   -0.000000   0.590932
    3  O  1  S   -0.000000   0.162583
    4  O  1  X    0.871847  -0.000000
    5  O  1  Y    0.000000  -0.000000
    6  O  1  Z   -0.000000   0.746437
    7  O  1  X    0.022941  -0.000000
    8  O  1  Y   -0.000000  -0.000000
    9  O  1  Z   -0.000000  -0.091780
   10  O  1 XX   -0.000000   0.007565
   11  O  1 YY   -0.000000   0.011117
   12  O  1 ZZ   -0.000000  -0.018682
   13  O  1 XY   -0.000000   0.000000
   14  O  1 XZ   -0.029527  -0.000000
   15  O  1 YZ   -0.000000  -0.000000
   16  H  2  S   -0.640654  -0.619053
   17  H  2  S   -0.071624  -0.048594
   18  H  2  X    0.067077   0.117651
   19  H  2  Y    0.000000  -0.000000
   20  H  2  Z    0.048245   0.011194
   21  H  3  S    0.640654  -0.619053
   22  H  3  S    0.071624  -0.048594
   23  H  3  X    0.067077  -0.117651
   24  H  3  Y    0.000000   0.000000
   25  H  3  Z   -0.048245   0.011194

          ------------------------
          MCSCF OPTIMIZED ORBITALS
          ------------------------

                      1          2          3          4          5
                  -21.0904     0.0000     0.0000     0.0000     0.0000
                     A          A          A          A          A   
    1  O  1  S    1.000777   0.015896   0.000000  -0.008550  -0.000000
    2  O  1  S   -0.003340   0.487189   0.000000  -0.165251  -0.000000
    3  O  1  S   -0.006763   0.392937  -0.000000  -0.287128   0.000000
    4  O  1  X    0.000000  -0.000000   0.537504   0.000000  -0.000000
    5  O  1  Y    0.000000  -0.000000   0.000000  -0.000000   0.693043
    6  O  1  Z    0.000427   0.081933  -0.000000   0.602995   0.000000
    7  O  1  X    0.000000   0.000000   0.220564  -0.000000  -0.000000
    8  O  1  Y    0.000000   0.000000   0.000000   0.000000   0.431512
    9  O  1  Z   -0.000597   0.000269  -0.000000   0.322207   0.000000
   10  O  1 XX    0.000037   0.002853  -0.000000  -0.007801   0.000000
   11  O  1 YY   -0.000009  -0.004040   0.000000  -0.010050  -0.000000
   12  O  1 ZZ   -0.000028   0.001188   0.000000   0.017851   0.000000
   13  O  1 XY   -0.000000  -0.000000   0.000000  -0.000000  -0.000000
   14  O  1 XZ    0.000000  -0.000000   0.022925   0.000000   0.000000
   15  O  1 YZ    0.000000  -0.000000   0.000000  -0.000000   0.018067
   16  H  2  S   -0.001516   0.168389   0.322481   0.207555  -0.000000
   17  H  2  S    0.000502  -0.005193   0.022479   0.022378   0.000000
   18  H  2  X    0.000705  -0.037149  -0.032475  -0.040118   0.000000
   19  H  2  Y    0.000000   0.000000  -0.000000   0.000000   0.028438
   20  H  2  Z    0.000509  -0.019731  -0.036592   0.003382  -0.000000
   21  H  3  S   -0.001516   0.168389  -0.322481   0.207555   0.000000
   22  H  3  S    0.000502  -0.005193  -0.022479   0.022378  -0.000000
   23  H  3  X   -0.000705   0.037149  -0.032475   0.040118   0.000000
   24  H  3  Y    0.000000  -0.000000  -0.000000  -0.000000   0.028438
   25  H  3  Z    0.000509  -0.019731   0.036592   0.003382   0.000000

                      6          7          8          9         10
                    0.0000     0.0000     0.1322     0.1701     0.6612
                     A          A          A          A          A   
    1  O  1  S    0.177673  -0.000000   0.097412  -0.000000  -0.013847
    2  O  1  S    0.588572   0.000000   0.127734  -0.000000   0.104228
    3  O  1  S    0.159403   0.000000  -0.966197  -0.000000   0.583409
    4  O  1  X    0.000000   0.878654  -0.000000   0.077392  -0.000000
    5  O  1  Y   -0.000000   0.000000  -0.000000  -0.000000  -0.000000
    6  O  1  Z    0.751254  -0.000000   0.193543  -0.000000  -0.525775
    7  O  1  X   -0.000000   0.025708  -0.000000  -0.434486  -0.000000
    8  O  1  Y    0.000000   0.000000  -0.000000   0.000000  -0.000000
    9  O  1  Z   -0.089132  -0.000000  -0.396871  -0.000000   1.078805
   10  O  1 XX    0.007496   0.000000  -0.046549  -0.000000  -0.066892
   11  O  1 YY    0.011043  -0.000000   0.056419  -0.000000   0.033446
   12  O  1 ZZ   -0.018539  -0.000000  -0.009869  -0.000000   0.033446
   13  O  1 XY    0.000000   0.000000  -0.000000  -0.000000  -0.000000
   14  O  1 XZ    0.000000  -0.029242  -0.000000  -0.077343  -0.000000
   15  O  1 YZ   -0.000000  -0.000000  -0.000000  -0.000000  -0.000000
   16  H  2  S   -0.617721  -0.636662  -0.396442  -0.499192  -0.722111
   17  H  2  S   -0.048400  -0.071348   0.990794   1.564809   0.031185
   18  H  2  X    0.117404   0.066675  -0.101740  -0.041308  -0.089043
   19  H  2  Y    0.000000  -0.000000   0.000000   0.000000  -0.000000
   20  H  2  Z    0.011263   0.047790  -0.057299  -0.074839   0.241247
   21  H  3  S   -0.617721   0.636662  -0.396442   0.499192  -0.722111
   22  H  3  S   -0.048400   0.071348   0.990794  -1.564809   0.031185
   23  H  3  X   -0.117404   0.066675   0.101740  -0.041308   0.089043
   24  H  3  Y   -0.000000  -0.000000  -0.000000   0.000000   0.000000
   25  H  3  Z    0.011263  -0.047790  -0.057299   0.074839   0.241247

                     11         12         13         14         15
                    0.7328     0.7556     1.0363     1.0378     1.2622
                     A          A          A          A          A   
    1  O  1  S   -0.000000  -0.000000   0.000000   0.275459  -0.000000
    2  O  1  S   -0.000000  -0.000000   0.000000   0.676538  -0.000000
    3  O  1  S   -0.000000  -0.000000  -0.000000  -0.667009  -0.000000
    4  O  1  X   -0.524659  -0.000000   0.000000   0.000000  -0.000000
    5  O  1  Y    0.000000  -0.921612   0.000000   0.000000   0.077822
    6  O  1  Z   -0.000000  -0.000000  -0.000000  -0.309443  -0.000000
    7  O  1  X    1.771373   0.000000   0.000000   0.000000  -0.000000
    8  O  1  Y   -0.000000   1.007197   0.000000   0.000000  -0.674550
    9  O  1  Z   -0.000000  -0.000000   0.000000   0.822689  -0.000000
   10  O  1 XX   -0.000000  -0.000000   0.000000   0.097213  -0.000000
   11  O  1 YY   -0.000000  -0.000000   0.000000   0.038126  -0.000000
   12  O  1 ZZ   -0.000000  -0.000000  -0.000000  -0.135339  -0.000000
   13  O  1 XY   -0.000000  -0.000000  -0.153825   0.000000  -0.000000
   14  O  1 XZ   -0.029308  -0.000000   0.000000   0.000000  -0.000000
   15  O  1 YZ   -0.000000   0.004631   0.000000   0.000000   0.182228
   16  H  2  S   -0.675859  -0.000000  -0.000000  -0.229783   0.000000
   17  H  2  S   -0.596149  -0.000000   0.000000   0.194003  -0.000000
   18  H  2  X    0.219274   0.000000   0.000000   0.365395  -0.000000
   19  H  2  Y   -0.000000   0.067029  -0.674945   0.000000   0.751855
   20  H  2  Z    0.018209   0.000000  -0.000000  -0.442236  -0.000000
   21  H  3  S    0.675859   0.000000  -0.000000  -0.229783  -0.000000
   22  H  3  S    0.596149   0.000000   0.000000   0.194003   0.000000
   23  H  3  X    0.219274   0.000000  -0.000000  -0.365395  -0.000000
   24  H  3  Y   -0.000000   0.067029   0.674945  -0.000000   0.751855
   25  H  3  Z   -0.018209  -0.000000  -0.000000  -0.442236   0.000000

                     16         17         18         19         20
                    1.4185     1.4588     1.7980     1.7985     2.7363
                     A          A          A          A          A   
    1  O  1  S   -0.708374  -0.000000   0.000000   0.012444  -0.000000
    2  O  1  S   -1.548943  -0.000000   0.000000   0.128368  -0.000000
    3  O  1  S    2.606366  -0.000000   0.000000   1.420451  -0.000000
    4  O  1  X   -0.000000  -0.100801   0.524521  -0.000000   0.000000
    5  O  1  Y   -0.000000  -0.000000   0.000000  -0.000000  -0.031278
    6  O  1  Z    0.022480  -0.000000   0.000000   0.389501  -0.000000
    7  O  1  X   -0.000000   0.976228   0.340992  -0.000000  -0.000000
    8  O  1  Y   -0.000000   0.000000  -0.000000  -0.000000   0.286198
    9  O  1  Z    0.891362  -0.000000   0.000000   0.440527  -0.000000
   10  O  1 XX   -0.023270  -0.000000  -0.000000  -0.121708  -0.000000
   11  O  1 YY    0.161595  -0.000000   0.000000   0.188342  -0.000000
   12  O  1 ZZ   -0.138325  -0.000000  -0.000000  -0.066634  -0.000000
   13  O  1 XY   -0.000000  -0.000000   0.000000  -0.000000  -0.000000
   14  O  1 XZ   -0.000000  -0.027635  -0.097406   0.000000  -0.000000
   15  O  1 YZ   -0.000000   0.000000  -0.000000  -0.000000   1.024459
   16  H  2  S   -0.741300  -0.401543  -0.081013  -0.383219   0.000000
   17  H  2  S   -0.314527  -0.117304  -0.464022  -0.301371  -0.000000
   18  H  2  X    0.264251  -0.417665   0.732015   0.815714   0.000000
   19  H  2  Y    0.000000   0.000000   0.000000   0.000000  -0.371351
   20  H  2  Z   -0.202193   0.689740   0.566498   0.555793   0.000000
   21  H  3  S   -0.741300   0.401543   0.081013  -0.383219  -0.000000
   22  H  3  S   -0.314527   0.117304   0.464022  -0.301371   0.000000
   23  H  3  X   -0.264251  -0.417665   0.732015  -0.815714   0.000000
   24  H  3  Y   -0.000000   0.000000   0.000000  -0.000000  -0.371351
   25  H  3  Z   -0.202193  -0.689740  -0.566498   0.555793  -0.000000

                     21         22         23         24
                    2.8032     2.9397     3.3244     3.5777
                     A          A          A          A   
    1  O  1  S    0.000000  -0.087929  -0.230372  -0.000000
    2  O  1  S    0.000000  -0.159394  -0.376665  -0.000000
    3  O  1  S   -0.000000   0.558622   2.140736  -0.000000
    4  O  1  X    0.000000   0.000000   0.000000   0.310919
    5  O  1  Y    0.000000   0.000000   0.000000  -0.000000
    6  O  1  Z    0.000000   0.003044   0.247565  -0.000000
    7  O  1  X    0.000000   0.000000   0.000000   1.136442
    8  O  1  Y    0.000000   0.000000   0.000000   0.000000
    9  O  1  Z   -0.000000   0.518979   0.870882  -0.000000
   10  O  1 XX   -0.000000  -0.626838   0.972998  -0.000000
   11  O  1 YY    0.000000  -0.430241  -1.045269  -0.000000
   12  O  1 ZZ   -0.000000   1.057079   0.072271  -0.000000
   13  O  1 XY    1.049280   0.000000   0.000000  -0.000000
   14  O  1 XZ    0.000000   0.000000   0.000000   1.299323
   15  O  1 YZ    0.000000   0.000000   0.000000   0.000000
   16  H  2  S    0.000000  -0.291275  -1.031629  -0.914388
   17  H  2  S   -0.000000  -0.044736  -0.203275  -0.292796
   18  H  2  X    0.000000   0.359194   0.599855   0.581188
   19  H  2  Y   -0.355651   0.000000   0.000000   0.000000
   20  H  2  Z    0.000000  -0.293526   0.465211   0.456491
   21  H  3  S    0.000000  -0.291275  -1.031629   0.914388
   22  H  3  S   -0.000000  -0.044736  -0.203275   0.292796
   23  H  3  X   -0.000000  -0.359194  -0.599855   0.581188
   24  H  3  Y    0.355651  -0.000000  -0.000000   0.000000
   25  H  3  Z    0.000000  -0.293526   0.465211  -0.456491
 .....DONE WITH MCSCF ITERATIONS.....
 CPU     0: STEP CPU TIME=     0.59 TOTAL CPU TIME=          0.8 (      0.0 MIN)
 TOTAL WALL CLOCK TIME=          2.0 SECONDS, CPU UTILIZATION IS    39.39%

     ----------------------------------------------------------------
     PROPERTY VALUES FOR THE MCSCF SELF-CONSISTENT FIELD WAVEFUNCTION
     ----------------------------------------------------------------

          -----------------
          ENERGY COMPONENTS
          -----------------

         WAVEFUNCTION NORMALIZATION =       1.0000000000

                ONE ELECTRON ENERGY =    -117.3219855724
                TWO ELECTRON ENERGY =      32.9964125042
           NUCLEAR REPULSION ENERGY =       8.7569687016
                                      ------------------
                       TOTAL ENERGY =     -75.5686043667

 ELECTRON-ELECTRON POTENTIAL ENERGY =      32.9964125042
  NUCLEUS-ELECTRON POTENTIAL ENERGY =    -192.9480886333
   NUCLEUS-NUCLEUS POTENTIAL ENERGY =       8.7569687016
                                      ------------------
             TOTAL POTENTIAL ENERGY =    -151.1947074276
               TOTAL KINETIC ENERGY =      75.6261030609
                 VIRIAL RATIO (V/T) =       1.9992396978

          ---------------------------------------
          MULLIKEN AND LOWDIN POPULATION ANALYSES
          ---------------------------------------

     ATOMIC MULLIKEN POPULATION IN EACH MOLECULAR ORBITAL

                      1          2          3          4          5

                  2.000000   1.989797   1.665565   1.656178   1.650654

    1             2.000439   1.576342   1.636403   1.443128   1.057929
    2            -0.000220   0.206727   0.014581   0.106525   0.296363
    3            -0.000220   0.206727   0.014581   0.106525   0.296363

                      6          7

                  0.019502   0.018304

    1             0.009457   0.008909
    2             0.005023   0.004697
    3             0.005023   0.004697
 WARNING! MCSCF POPULATIONS SHOWN ABOVE ARE FOR THE NATURAL ORBITALS.
 IGNORE THE ABOVE DATA FOR MCSCF FUNCTIONS WHICH ARE NOT OF -FORS- TYPE.
 THE FOLLOWING POPULATIONS ARE CORRECT FOR ANY MCSCF WAVEFUNCTION.

               ----- POPULATIONS IN EACH AO -----
                             MULLIKEN      LOWDIN
              1  O  1  S      2.00178     1.90508
              2  O  1  S      0.90648     0.63144
              3  O  1  S      0.79315     0.48069
              4  O  1  X      0.75645     0.67968
              5  O  1  Y      1.06076     1.01357
              6  O  1  Z      0.89549     0.83635
              7  O  1  X      0.30511     0.40812
              8  O  1  Y      0.57480     0.57366
              9  O  1  Z      0.43036     0.50936
             10  O  1 XX      0.00101     0.18841
             11  O  1 YY      0.00054     0.17416
             12  O  1 ZZ     -0.00000     0.17894
             13  O  1 XY      0.00582    -0.00000
             14  O  1 XZ      0.00084     0.01186
             15  O  1 YZ      0.00000     0.00029
             16  H  2  S      0.54580     0.43606
             17  H  2  S      0.00833     0.11754
             18  H  2  X      0.04180     0.06433
             19  H  2  Y      0.01458     0.03902
             20  H  2  Z      0.02318     0.04725
             21  H  3  S      0.54580     0.43606
             22  H  3  S      0.00833     0.11754
             23  H  3  X      0.04180     0.06433
             24  H  3  Y      0.01458     0.03902
             25  H  3  Z      0.02318     0.04725

          ----- MULLIKEN ATOMIC OVERLAP POPULATIONS -----
          (OFF-DIAGONAL ELEMENTS NEED TO BE MULTIPLIED BY 2)

             1           2           3

    1    7.1428897
    2    0.2948585   0.3424600
    3    0.2948585  -0.0036218   0.3424600

          TOTAL MULLIKEN AND LOWDIN ATOMIC POPULATIONS
       ATOM         MULL.POP.    CHARGE          LOW.POP.     CHARGE
    1 O             7.732607    0.267393         7.591608    0.408392
    2 H             0.633697    0.366303         0.704196    0.295804
    3 H             0.633697    0.366303         0.704196    0.295804

          MULLIKEN SPHERICAL HARMONIC POPULATIONS
       ATOM           S       P       D      F      G      H      I    TOTAL
    1 O             3.70    4.02    0.01   0.00   0.00   0.00   0.00    7.73
    2 H             0.55    0.08    0.00   0.00   0.00   0.00   0.00    0.63
    3 H             0.55    0.08    0.00   0.00   0.00   0.00   0.00    0.63

          ---------------------
          ELECTROSTATIC MOMENTS
          ---------------------

 POINT   1           X           Y           Z (BOHR)    CHARGE
                 0.000000    0.000000    0.044293        1.00 (A.U.)
         DX          DY          DZ         /D/  (DEBYE)
     0.000000   -0.000000    2.510035    2.510035
 ...... END OF PROPERTY EVALUATION ......
 CPU     0: STEP CPU TIME=     0.00 TOTAL CPU TIME=          0.8 (      0.0 MIN)
 TOTAL WALL CLOCK TIME=          2.0 SECONDS, CPU UTILIZATION IS    39.20%

     -------------------------------------------------
     GMC-PT/GMC-QDPT or general MCSCF input parameters
     -------------------------------------------------
 # of frozen core orbs. =         0 ->         0
 # of doubly occ. orbs. =         1
 # of active      orbs. =         6
 # of virtual     orbs. =        17
 # of active electrons  =         7
 # of states in CI      =         3
 Highest state in CI    =         3
 kstate =  1 1 1
 avecoe =  0.333 0.333 0.333
 State symmetry           = A           
 Assigned symmetry number = 1

 <<<Act. MO sym.: 111111

 <<<Division of 1-ext.:  0 0
 <<<Division of 2-ext.:  0 1

     ------------------------
     Orbital canonicalization
     ------------------------

 MOs are canonicalized for core, virtual, and invariant-active orbital spaces.
 This is a part of the GMC-QDPT calculation.
 SCHWARZ INEQUALITY OVERHEAD:       325 INTEGRALS, T=        0.00
 DIRECT TRANSFORMATION SKIPS AO INTEGRAL STORAGE ON DISK.

 Averaged energy =     -75.568604367

 State #    1  Energy =     -75.682514944  S =  0.500
 State #    2  Energy =     -75.592045689  S =  0.500
 State #    3  Energy =     -75.431252467  S =  0.500

 Orbital energies for filled orbital space
  -21.090436
 Orbital energies for active orbital space
   -1.790932  -1.074673  -0.948966  -0.886101   0.383040
    0.355551
 Orbital energies for external orbital space
    0.132215   0.170050   0.661220   0.732794   0.755628
    1.036341   1.037784   1.262194   1.418487   1.458835
    1.798015   1.798522   2.736280   2.803233   2.939662
    3.324397   3.577687

 Zero values mean non-canonical orbitals.
 ... done with orbital canonicalization ...
 CPU     0: STEP CPU TIME=     0.13 TOTAL CPU TIME=          0.9 (      0.0 MIN)
 TOTAL WALL CLOCK TIME=          2.3 SECONDS, CPU UTILIZATION IS    38.89%

     --------------------------------------------
     PARTIAL TWO ELECTRON INTEGRAL TRANSFORMATION
     --------------------------------------------

 NUMBER OF CORE MOLECULAR ORBITALS     =    0
 NUMBER OF OCCUPIED MOLECULAR ORBITALS =    7
 TOTAL NUMBER OF MOLECULAR ORBITALS    =   24
 TOTAL NUMBER OF ATOMIC ORBITALS       =   25
 THRESHOLD FOR KEEPING TRANSFORMED 2E- INTEGRALS = 1.000E-09
 AO INTEGRALS WILL BE CALCULATED IN DIRECT MODE...
 DIRECT TRANSFORMATION SKIPS AO INTEGRAL STORAGE ON DISK.
 SCHWARZ INEQUALITY OVERHEAD:       325 INTEGRALS, T=        0.00

 PLAN A: REQUIREMENTS FOR FULLY IN-MEMORY TRANSFORMATION:
 # OF WORDS AVAILABLE =            250000000
 # OF WORDS NEEDED    =               165605

 PARALLEL ONLY WORKS WITH THE SEGMENTED ALGORITHM.
 ADJUSTING MEMORY TO USE SEGMENTED ALGORITHM.


 PLAN B: REQUIREMENTS FOR THE SEGMENTED TRANSFORMATION:
       MINIMUM=         116855 WORDS FOR 1 MOLECULAR ORBITAL PER PASS
       MAXIMUM=         141230 WORDS FOR ALL MOLECULAR ORBITALS IN 1 PASS
              (           8125 EXTRA WORDS INCLUDES 1 EXTRA ORBITAL/PASS)
 THIS RUN USES=         141230 WORDS,
 DISTRIBUTING   2 PASSES EACH CONTAINING     4 ORBITALS OVER   2 PROCESSORS.

 CHOOSING SEGMENTED PARTIAL TRANSFORMATION...
 DIRECT TRANSFORMATION SKIPS AO INTEGRAL STORAGE ON DISK.
 PASS #   1 TOOK        0.04 SECONDS.
 ASSIGNING PASS #   2 TO A DIFFERENT PROCESSOR.
 TOTAL NUMBER OF TRANSFORMED 2E- INTEGRALS KEPT =         4631
 ... END OF INTEGRAL TRANSFORMATION ...
 CPU     0: STEP CPU TIME=     0.05 TOTAL CPU TIME=          1.0 (      0.0 MIN)
 TOTAL WALL CLOCK TIME=          2.4 SECONDS, CPU UTILIZATION IS    40.00%

     --------     ------------------------------------------
     GMC-QDPT     Program written by H.Nakano (Kyushu Univ.)
     --------     ------------------------------------------

 *** Reference space

 Reference type: ORMAS (= Occupation restricted multiple active space)
 # of orbitals          =  6
 # of minimum electrons =  7
 # of maximum electrons =  7
 State symmetry    =    1 (input)
 2*Sz              =    1 (input)
 Spin multiplicity =    2 (input)
 Dimension of reference space =       300  (from       792 walks)

 Dimension of reference space =       300  (from       300 walks)

 <<<Ionized spaces for Ref-CI:
      0:          300 /   -1-0:          625 /  0-1-0:          690

 ***                    ***
 *** Reference space CI ***
 ***                    ***

 Reference wavefunctions:

 State #    1  Energy =     -75.682514944  S =  0.500

      Det      Coef    Occupancy (Ignoring core)
      ---      ----    --------- --------- -----
        1   -0.986962  111100111000
      173   -0.076212  101101101001

 State #    2  Energy =     -75.592045689  S =  0.500

      Det      Coef    Occupancy (Ignoring core)
      ---      ----    --------- --------- -----
       16   -0.988890  111100110100
      203   -0.077624  101101100101

 State #    3  Energy =     -75.431252467  S =  0.500

      Det      Coef    Occupancy (Ignoring core)
      ---      ----    --------- --------- -----
       31   -0.990712  111100101100

 Diagonalization: CPU/Wall time =           0.05 /           0.06 sec.

 Oscillator strength (invalid if E(1)/=E(GS)):
 -----------------------------------------
   State                        f
 -----------------------------------------
     2     F(REF-CI)=        0.0016481194
     3     F(REF-CI)=        0.0000000000
 -----------------------------------------

 Dipole moment matrix elements, x, y, z, in A.U.

 Dimension of ionized spaces for PT:
 (N-2) space:          690 /  (N-1) space:          886 /  N space:          690
 (N+1) space:          480 /  (N+2) space:          200

 <<<Ionized spaces for internal:
         0:          300 /      -1-0:          625 /     0-1-0:          690
  -1-0-1-0:          886 / 0-1-0-1-0:          786

 Diagonal elements of averaged one-particle density matrix:
       2       3       4       5       6       7
  0.9962  0.9900  0.9932  0.9988  0.0102  0.0115
  0.9934  0.6604  0.6630  0.6668  0.0083  0.0082

 Orbital energies:
 -------- Doubly-occupied orbitals (highest several orbs.) -------
             1
 -2.109044D+01
 -------- Active orbitals ----------------------------------------
             2            3            4            5            6
 -1.790932D+00-1.074673D+00-9.489664D-01-8.861008D-01 3.830397D-01
             7
  3.555509D-01
 -------- External orbitals (lowest several orbs.) ---------------
             8            9           10           11           12
  1.322147D-01 1.700503D-01 6.612196D-01 7.327942D-01 7.556279D-01
            13           14           15           16           17
  1.036341D+00 1.037784D+00 1.262194D+00 1.418487D+00 1.458835D+00

 *** Quasi-degeneracy checking

 === Det (|Ci| > 1.0D-01 and dE < 5.0D-03)

 # of small denominators (single excitations)
 State       dEmin  dE < 5.0D-03  dE < 5.0D-04  dE < 5.0D-05  dE < 5.0D-06
 ----- ----------- ------------- ------------- ------------- -------------
     1    5.00D-03             0             0             0             0
     2    5.00D-03             0             0             0             0
     3    5.00D-03             0             0             0             0

 # of small denominators (double excitations)
 State       dEmin  dE < 5.0D-03  dE < 5.0D-04  dE < 5.0D-05  dE < 5.0D-06
 ----- ----------- ------------- ------------- ------------- -------------
     1    5.00D-03             0             0             0             0
     2    5.00D-03             0             0             0             0
     3    5.00D-03             0             0             0             0

 *** Zeroth-Order Setup (Granovsky's zeroth-order vectors)
 Zeroth-order effective Hamiltonian
  (= Sum_i e(i)*<I|a+(i)a(i)|J> ):
                   1            2            3
     1 -8.442000D+00
     2 -2.309051D-16-8.391924D+00
     3  2.154701D-11 5.688170D-12-8.277254D+00

 Zeroth-order vectors:
 State #    1
       MC st            1           3           2
       Coeff   -1.000D+00   1.308D-10   0.000D+00
 State #    2
       MC st            2           1           1
       Coeff   -1.000D+00   0.000D+00   0.000D+00
 State #    3
       MC st            3           1           2
       Coeff    1.000D+00   1.308D-10   0.000D+00

 *** GMC-QDPT computation

 (Integral reading:  CPU/Wall time =           0.00 /           0.00 sec.)

 One-external:
   0 -ionized terms: CPU/Wall time =           0.01 /           0.01 sec.
 (-1)-ionized terms: CPU/Wall time =           0.01 /           0.01 sec.
 (+1)-ionized terms: CPU/Wall time =           0.00 /           0.00 sec.
 (+1)-ionized terms: CPU/Wall time =           0.00 /           0.01 sec.
 (+2)-ionized terms: CPU/Wall time =           0.00 /           0.00 sec.

 Internal:
 # of macro loops for internal contribution =         1 (input)
 Loop:    1
 Dimension of internal CISD space     =         0  (after screening)
 Space construction: CPU/Wall time =           0.01 /           0.00 sec.
 Internal terms:     CPU/Wall time =           0.00 /           0.00 sec.

 Two-external:
   0 -ionized terms: CPU/Wall time =           0.00 /           0.00 sec.
 (-1)-ionized terms: CPU/Wall time =           0.01 /           0.02 sec.
 (-2)-ionized terms: CPU/Wall time =           0.03 /           0.03 sec.

 Total time:         CPU/Wall time =           0.07 /           0.08 sec.

 ***                  ***
 *** GMC-QDPT Results ***
 ***                  ***

 Diagonal elements of effective Hamiltonian:
 Heff(  1) =   -75.80245771
 Heff(  2) =   -75.72195530
 Heff(  3) =   -75.56812545

 Off-diagonal elements of effective Hamiltonian:
                   1            2
     2 -1.957794D-17
     3  1.317809D-11-5.711068D-13

 ******** GMC-QDPT energies ********
 ----------------------------------------------------------------------------
   State                        1st order                           2nd order
 ----------------------------------------------------------------------------
     1     E(REF-CI)=      -75.6825149443   E(GMC-QDPT2)=      -75.8024577098
     2     E(REF-CI)=      -75.5920456886   E(GMC-QDPT2)=      -75.7219553043
     3     E(REF-CI)=      -75.4312524671   E(GMC-QDPT2)=      -75.5681254467
 ----------------------------------------------------------------------------

 Excitation energies (invalid if E(1)/=E(GS)):
 ----------------------------------------------------------------------------
   State                        1st order                           2nd order
 ----------------------------------------------------------------------------

     TZ Sorted GMC-PT ENERGIES:
         1      -75.8024577098
         2      -75.7219553043
         3      -75.5681254467
     2     E(REF-CI)=        2.4617951 eV   E(GMC-QDPT2)=        2.1905832 eV
     3     E(REF-CI)=        6.8372038 eV   E(GMC-QDPT2)=        6.3765089 eV
 ----------------------------------------------------------------------------

 Main characters of perturbed GMC-QDPT states:

 State #    1  Energy =     -75.802457710  S =  0.500

      Det      Coef    Occupancy (Ignoring core)
      ---      ----    --------- --------- -----
        1    0.986962  111100111000
      173    0.076212  101101101001

 State #    2  Energy =     -75.721955304  S =  0.500

      Det      Coef    Occupancy (Ignoring core)
      ---      ----    --------- --------- -----
       16    0.988890  111100110100
      203    0.077624  101101100101

 State #    3  Energy =     -75.568125447  S =  0.500

      Det      Coef    Occupancy (Ignoring core)
      ---      ----    --------- --------- -----
       31   -0.990712  111100101100

 <<<Max |V/de| = 4.654D-02  Thresh = 1.000D+00

 Oscillator strength (invalid if E(1)/=E(GS)):
 ----------------------------------------------------------------------------
   State                        1st order                           2nd order
 ----------------------------------------------------------------------------
     2     F(REF-CI)=        0.0016481194     F(GMC-PT2)=        0.0014665488
     3     F(REF-CI)=        0.0000000000     F(GMC-PT2)=        0.0000000000
 ----------------------------------------------------------------------------

 Dipole moment matrix elements, x, y, z, in A.U.
States    1    1       -0.0000000000        0.0000000000        0.2722235480
States    1    2        0.0000000012       -0.1653063210       -0.0000000000
States    1    3        0.0000000000        0.0000000000        0.0000000008
States    2    1        0.0000000012       -0.1653063210       -0.0000000000
States    2    2       -0.0000000001       -0.0000000000        0.4581293857
States    2    3       -0.1230109561       -0.0000000000        0.0000000000
States    3    1        0.0000000000        0.0000000000        0.0000000008
States    3    2       -0.1230109561       -0.0000000000        0.0000000000
States    3    3        0.0000000000       -0.0000000000        0.0485699272

 Oscillator strength (valid only when positive): 
 ----------------------------------------------------------------------------
  States                        1st order                           2nd order
 ----------------------------------------------------------------------------
  1  1     F(REF-CI)=        0.0000000000     F(GMC-PT2)=        0.0000000000
  1  2     F(REF-CI)=       -0.0016481194     F(GMC-PT2)=       -0.0014665488
  1  3     F(REF-CI)=       -0.0000000000     F(GMC-PT2)=       -0.0000000000
  2  1     F(REF-CI)=        0.0016481194     F(GMC-PT2)=        0.0014665488
  2  2     F(REF-CI)=        0.0000000000     F(GMC-PT2)=        0.0000000000
  2  3     F(REF-CI)=       -0.0016220494     F(GMC-PT2)=       -0.0015518044
  3  1     F(REF-CI)=        0.0000000000     F(GMC-PT2)=        0.0000000000
  3  2     F(REF-CI)=        0.0016220494     F(GMC-PT2)=        0.0015518044
  3  3     F(REF-CI)=        0.0000000000     F(GMC-PT2)=        0.0000000000
 CPU     0: STEP CPU TIME=     0.14 TOTAL CPU TIME=          1.1 (      0.0 MIN)
 TOTAL WALL CLOCK TIME=          2.8 SECONDS, CPU UTILIZATION IS    40.00%

     !!! DIABATIZATION FOR REF CI STATES !!!

 *******************************************************
          $DMO GROUP FOUND IN THE INPUT.
        DIABATIZATION OF ADIABATIC STATES BEGINS.
     PROGRAMMED BY TAO ZENG (CARLETON UNIVERSITY).
               Email: toby.zeng@carleton.ca
     See T. Zeng, J. Chem. Phys. 2017, 146, 144103
 *******************************************************

 *************************************************************************
     STEP 1: TRANSFORMATION OF ADIABATIC STATES TO THE DMO REPRESENTATION
         See Atchity and Ruedenberg, J. Chem. Phys. 1999, 111, 2910
 *************************************************************************

Read in Diabatic Molecualr Orbitals:

                      1          2          3          4          5

    1  O  1  S    0.015878  -0.000000  -0.008727   0.000000   0.178914
    2  O  1  S    0.487244  -0.000000  -0.165140   0.000000   0.591558
    3  O  1  S    0.393189  -0.000000  -0.285720   0.000000   0.156384
    4  O  1  X    0.000000   0.537196  -0.000000   0.000000   0.000000
    5  O  1  Y    0.000000  -0.000000  -0.000000   0.692976   0.000000
    6  O  1  Z    0.081813  -0.000000   0.603221   0.000000   0.749592
    7  O  1  X    0.000000   0.219567  -0.000000   0.000000   0.000000
    8  O  1  Y    0.000000  -0.000000  -0.000000   0.431611   0.000000
    9  O  1  Z    0.000497  -0.000000   0.323888   0.000000  -0.091342
   10  O  1 XX    0.002930  -0.000000  -0.007755   0.000000   0.006467
   11  O  1 YY   -0.004055  -0.000000  -0.010061   0.000000   0.010826
   12  O  1 ZZ    0.001125  -0.000000   0.017816   0.000000  -0.017293
   13  O  1 XY    0.000000  -0.000000  -0.000000   0.000000   0.000000
   14  O  1 XZ    0.000000   0.022805  -0.000000   0.000000   0.000000
   15  O  1 YZ    0.000000  -0.000000  -0.000000   0.017991   0.000000
   16  H  2  S    0.168156   0.322747   0.206861   0.000000  -0.617218
   17  H  2  S   -0.005178   0.022298   0.022370   0.000000  -0.048357
   18  H  2  X   -0.037236  -0.032785  -0.039991   0.000000   0.117245
   19  H  2  Y    0.000000  -0.000000  -0.000000   0.028405   0.000000
   20  H  2  Z   -0.019504  -0.036419   0.003670   0.000000   0.011059
   21  H  3  S    0.168156  -0.322747   0.206861   0.000000  -0.617218
   22  H  3  S   -0.005178  -0.022298   0.022370   0.000000  -0.048357
   23  H  3  X    0.037236  -0.032785   0.039991   0.000000  -0.117245
   24  H  3  Y    0.000000  -0.000000  -0.000000   0.028405   0.000000
   25  H  3  Z   -0.019504   0.036419   0.003670   0.000000   0.011059

                      6

    1  O  1  S   -0.000000
    2  O  1  S   -0.000000
    3  O  1  S   -0.000000
    4  O  1  X   -0.879968
    5  O  1  Y   -0.000000
    6  O  1  Z   -0.000000
    7  O  1  X   -0.026245
    8  O  1  Y   -0.000000
    9  O  1  Z   -0.000000
   10  O  1 XX   -0.000000
   11  O  1 YY   -0.000000
   12  O  1 ZZ   -0.000000
   13  O  1 XY   -0.000000
   14  O  1 XZ    0.028582
   15  O  1 YZ   -0.000000
   16  H  2  S    0.636798
   17  H  2  S    0.071096
   18  H  2  X   -0.067134
   19  H  2  Y   -0.000000
   20  H  2  Z   -0.047320
   21  H  3  S   -0.636798
   22  H  3  S   -0.071096
   23  H  3  X   -0.067134
   24  H  3  Y   -0.000000
   25  H  3  Z    0.047320

NUMBER OF SUB ACTIVE SPACES:   1
ROTATE ACTIVE MOS TO DMOS IN EACH SUB-SPACE

SPACE  1:

OVERLAP BETWEEN ORTHONORMAL AND PRE-ORTHONORMAL REF. DMOS

             1           2           3           4           5

    1    1.0000477   0.0000000   0.0004004   0.0000000  -0.0000324
    2    0.0000000   0.9990472  -0.0000000   0.0000000   0.0000000
    3    0.0004004  -0.0000000   1.0009395  -0.0000000  -0.0015424
    4    0.0000000   0.0000000   0.0000000   0.9999948   0.0000000
    5   -0.0000324   0.0000000  -0.0015424   0.0000000   1.0005505
    6   -0.0000000  -0.0008789  -0.0000000   0.0000000   0.0000000

             6

    1   -0.0000000
    2   -0.0008789
    3    0.0000000
    4    0.0000000
    5   -0.0000000
    6    1.0004391
REFERENCE DMOS AFTER ORTHONORMALIZATION:

                      1          2          3          4          5

    1  O  1  S    0.015886   0.000000  -0.008450   0.000000   0.178803
    2  O  1  S    0.487305   0.000000  -0.164269   0.000000   0.590995
    3  O  1  S    0.393289   0.000000  -0.285369   0.000000   0.155870
    4  O  1  X    0.000000   0.536935   0.000000   0.000000   0.000000
    5  O  1  Y    0.000000  -0.000000   0.000000   0.692979   0.000000
    6  O  1  Z    0.081592   0.000000   0.603778   0.000000   0.750113
    7  O  1  X    0.000000   0.219753   0.000000   0.000000   0.000000
    8  O  1  Y    0.000000  -0.000000   0.000000   0.431613   0.000000
    9  O  1  Z    0.000364   0.000000   0.323444   0.000000  -0.090793
   10  O  1 XX    0.002933   0.000000  -0.007739   0.000000   0.006451
   11  O  1 YY   -0.004050   0.000000  -0.010033   0.000000   0.010805
   12  O  1 ZZ    0.001117   0.000000   0.017772   0.000000  -0.017256
   13  O  1 XY    0.000000   0.000000   0.000000   0.000000   0.000000
   14  O  1 XZ    0.000000   0.022852   0.000000  -0.000000   0.000000
   15  O  1 YZ    0.000000  -0.000000   0.000000   0.017992   0.000000
   16  H  2  S    0.168046   0.323615   0.205650  -0.000000  -0.616556
   17  H  2  S   -0.005188   0.022381   0.022277  -0.000000  -0.048296
   18  H  2  X   -0.037214  -0.032875  -0.039758   0.000000   0.117118
   19  H  2  Y    0.000000  -0.000000   0.000000   0.028405   0.000000
   20  H  2  Z   -0.019504  -0.036495   0.003691   0.000000   0.011058
   21  H  3  S    0.168046  -0.323615   0.205650   0.000000  -0.616556
   22  H  3  S   -0.005188  -0.022381   0.022277   0.000000  -0.048296
   23  H  3  X    0.037214  -0.032875   0.039758   0.000000  -0.117118
   24  H  3  Y    0.000000  -0.000000   0.000000   0.028405   0.000000
   25  H  3  Z   -0.019504   0.036495   0.003691  -0.000000   0.011058

                      6

    1  O  1  S    0.000000
    2  O  1  S    0.000000
    3  O  1  S    0.000000
    4  O  1  X   -0.879111
    5  O  1  Y   -0.000000
    6  O  1  Z    0.000000
    7  O  1  X   -0.026040
    8  O  1  Y   -0.000000
    9  O  1  Z    0.000000
   10  O  1 XX    0.000000
   11  O  1 YY    0.000000
   12  O  1 ZZ    0.000000
   13  O  1 XY    0.000000
   14  O  1 XZ    0.028590
   15  O  1 YZ   -0.000000
   16  H  2  S    0.636803
   17  H  2  S    0.071084
   18  H  2  X   -0.067134
   19  H  2  Y   -0.000000
   20  H  2  Z   -0.047331
   21  H  3  S   -0.636803
   22  H  3  S   -0.071084
   23  H  3  X   -0.067134
   24  H  3  Y   -0.000000
   25  H  3  Z    0.047331

 -------------------------------------------
       MAXIMIZING MORMO OVERLAP TERM        
 -------------------------------------------
   SWEEP    VALUE       PROGRESS
     0     5.99998
     1     5.99999     0.00001554
     2     5.99999     0.00000000
     3     5.99999     0.00000000
 THE ROTATION IS DONE
FLIPPING SIGN FOR ORBITAL   6
ACTIVE ORBITALS AFTER MORMO:

                      1          2          3          4          5

    1  O  1  S    0.015905   0.000000  -0.008270   0.000000   0.177686
    2  O  1  S    0.487274   0.000000  -0.164149   0.000000   0.588810
    3  O  1  S    0.393057   0.000000  -0.286725   0.000000   0.159832
    4  O  1  X   -0.000000   0.536731   0.000000  -0.000000   0.000000
    5  O  1  Y    0.000000   0.000000   0.000000   0.693043   0.000000
    6  O  1  Z    0.081715   0.000000   0.604185   0.000000   0.750321
    7  O  1  X    0.000000   0.220541  -0.000000  -0.000000  -0.000000
    8  O  1  Y    0.000000   0.000000   0.000000   0.431512   0.000000
    9  O  1  Z    0.000137   0.000000   0.322069   0.000000  -0.089629
   10  O  1 XX    0.002856   0.000000  -0.007788   0.000000   0.007507
   11  O  1 YY   -0.004036   0.000000  -0.010035   0.000000   0.011059
   12  O  1 ZZ    0.001180   0.000000   0.017823   0.000000  -0.018566
   13  O  1 XY   -0.000000   0.000000  -0.000000   0.000000   0.000000
   14  O  1 XZ    0.000000   0.022951   0.000000   0.000000   0.000000
   15  O  1 YZ    0.000000   0.000000   0.000000   0.018067   0.000000
   16  H  2  S    0.168286   0.323041   0.206670  -0.000000  -0.618045
   17  H  2  S   -0.005204   0.022541   0.022301   0.000000  -0.048435
   18  H  2  X   -0.037130  -0.032533  -0.039952   0.000000   0.117466
   19  H  2  Y    0.000000   0.000000   0.000000   0.028438   0.000000
   20  H  2  Z   -0.019732  -0.036634   0.003391  -0.000000   0.011259
   21  H  3  S    0.168286  -0.323041   0.206670   0.000000  -0.618045
   22  H  3  S   -0.005204  -0.022541   0.022301   0.000000  -0.048435
   23  H  3  X    0.037130  -0.032533   0.039952   0.000000  -0.117466
   24  H  3  Y    0.000000   0.000000   0.000000   0.028438   0.000000
   25  H  3  Z   -0.019732   0.036634   0.003391   0.000000   0.011259

                      6

    1  O  1  S   -0.000000
    2  O  1  S    0.000000
    3  O  1  S   -0.000000
    4  O  1  X   -0.879126
    5  O  1  Y   -0.000000
    6  O  1  Z    0.000000
    7  O  1  X   -0.025902
    8  O  1  Y   -0.000000
    9  O  1  Z   -0.000000
   10  O  1 XX   -0.000000
   11  O  1 YY   -0.000000
   12  O  1 ZZ   -0.000000
   13  O  1 XY   -0.000000
   14  O  1 XZ    0.029222
   15  O  1 YZ    0.000000
   16  H  2  S    0.636378
   17  H  2  S    0.071328
   18  H  2  X   -0.066647
   19  H  2  Y    0.000000
   20  H  2  Z   -0.047758
   21  H  3  S   -0.636378
   22  H  3  S   -0.071328
   23  H  3  X   -0.066647
   24  H  3  Y    0.000000
   25  H  3  Z    0.047758

Actually Used Diabatic Molecualr Orbitals:

                      1          2          3          4          5

    1  O  1  S    0.015905   0.000000  -0.008270   0.000000   0.177686
    2  O  1  S    0.487274   0.000000  -0.164149   0.000000   0.588810
    3  O  1  S    0.393057   0.000000  -0.286725   0.000000   0.159832
    4  O  1  X   -0.000000   0.536731   0.000000  -0.000000   0.000000
    5  O  1  Y    0.000000   0.000000   0.000000   0.693043   0.000000
    6  O  1  Z    0.081715   0.000000   0.604185   0.000000   0.750321
    7  O  1  X    0.000000   0.220541  -0.000000  -0.000000  -0.000000
    8  O  1  Y    0.000000   0.000000   0.000000   0.431512   0.000000
    9  O  1  Z    0.000137   0.000000   0.322069   0.000000  -0.089629
   10  O  1 XX    0.002856   0.000000  -0.007788   0.000000   0.007507
   11  O  1 YY   -0.004036   0.000000  -0.010035   0.000000   0.011059
   12  O  1 ZZ    0.001180   0.000000   0.017823   0.000000  -0.018566
   13  O  1 XY   -0.000000   0.000000  -0.000000   0.000000   0.000000
   14  O  1 XZ    0.000000   0.022951   0.000000   0.000000   0.000000
   15  O  1 YZ    0.000000   0.000000   0.000000   0.018067   0.000000
   16  H  2  S    0.168286   0.323041   0.206670  -0.000000  -0.618045
   17  H  2  S   -0.005204   0.022541   0.022301   0.000000  -0.048435
   18  H  2  X   -0.037130  -0.032533  -0.039952   0.000000   0.117466
   19  H  2  Y    0.000000   0.000000   0.000000   0.028438   0.000000
   20  H  2  Z   -0.019732  -0.036634   0.003391  -0.000000   0.011259
   21  H  3  S    0.168286  -0.323041   0.206670   0.000000  -0.618045
   22  H  3  S   -0.005204  -0.022541   0.022301   0.000000  -0.048435
   23  H  3  X    0.037130  -0.032533   0.039952   0.000000  -0.117466
   24  H  3  Y    0.000000   0.000000   0.000000   0.028438   0.000000
   25  H  3  Z   -0.019732   0.036634   0.003391   0.000000   0.011259

                      6

    1  O  1  S   -0.000000
    2  O  1  S    0.000000
    3  O  1  S   -0.000000
    4  O  1  X   -0.879126
    5  O  1  Y   -0.000000
    6  O  1  Z    0.000000
    7  O  1  X   -0.025902
    8  O  1  Y   -0.000000
    9  O  1  Z   -0.000000
   10  O  1 XX   -0.000000
   11  O  1 YY   -0.000000
   12  O  1 ZZ   -0.000000
   13  O  1 XY   -0.000000
   14  O  1 XZ    0.029222
   15  O  1 YZ    0.000000
   16  H  2  S    0.636378
   17  H  2  S    0.071328
   18  H  2  X   -0.066647
   19  H  2  Y    0.000000
   20  H  2  Z   -0.047758
   21  H  3  S   -0.636378
   22  H  3  S   -0.071328
   23  H  3  X   -0.066647
   24  H  3  Y    0.000000
   25  H  3  Z    0.047758

     ------------------------------------------------
        ADIABATIC STATES IN TRANSFORMED ORBITALS:
      !! USE Coefp TO PREPARE DIABATIC REFERENCES !!
     ------------------------------------------------

 State #    1  Energy =     -75.682514944  S =  0.500

      Det      Coef        Coefp    Occupancy (Ignoring core)
      ---      ----        ----    --------- --------- -----
        1    0.987012   -0.987012  222+00
      173   -0.076180   -0.076180  202+02
      168   -0.043184   -0.043184  2+-++-
       63   -0.042056   -0.042056  220+20
       68   -0.041664   -0.041664  2-++-+
        8   -0.037431    0.037431  2-2+0+
       47   -0.032850    0.032850  +22-+0
       98    0.032773   -0.032773  +-2+-+
       93    0.032411   -0.032411  +2-+20
       65   -0.030930   -0.030930  -2++20
      170    0.030820   -0.030820  -+2++-
       95   -0.030491   -0.030491  022+20
       79   -0.028900   -0.028900  202+20
       36    0.026713    0.026713  2+2-0+
      157   -0.026401   -0.026401  220+02
        3    0.024186    0.024186  22-++0
      154    0.022891   -0.022891  2-+++-
       82    0.022378   -0.022378  2+-+-+
      184   -0.020500   -0.020500  +-2++-
      241    0.020247    0.020247  2+++--
       84   -0.020185   -0.020185  -+2+-+

 State #    2  Energy =     -75.592045689  S =  0.500

      Det      Coef        Coefp    Occupancy (Ignoring core)
      ---      ----        ----    --------- --------- -----
       16   -0.988903   -0.988903  22+200
      203    0.077592   -0.077592  20+202
      198    0.042522   -0.042522  2+02+-
       46    0.038896    0.038896  +22200
       53    0.035640   -0.035640  +-220+
      200   -0.034417   -0.034417  -++2+-
       18   -0.033898    0.033898  2202+0
      128   -0.033056   -0.033056  +-+2-+
      123   -0.032036   -0.032036  +20220
      125    0.031573   -0.031573  02+220
      109    0.028124   -0.028124  20+220
       23    0.025703    0.025703  2-+20+
      112   -0.021673   -0.021673  2+02-+
       28   -0.020849    0.020849  2-02++
      214    0.020094   -0.020094  +-+2+-

 State #    3  Energy =     -75.431252467  S =  0.500

      Det      Coef        Coefp    Occupancy (Ignoring core)
      ---      ----        ----    --------- --------- -----
       31    0.990645   -0.990645  2+2200
      113    0.048057    0.048057  20+2-+
      108   -0.047297    0.047297  2+0220
       52   -0.046901   -0.046901  +2-20+
      143    0.031988   -0.031988  +022-+
      110    0.031910    0.031910  -++220
      138   -0.031142   -0.031142  ++-220
      140   -0.030896   -0.030896  0+2220
       33    0.030279   -0.030279  2+-2+0
      202   -0.029026    0.029026  2+0202
        6   -0.028343    0.028343  22200+
       43   -0.027768    0.027768  20-2++
      211    0.025747   -0.025747  +2+20-
       19   -0.024120   -0.024120  2-+2+0
       24    0.021155   -0.021155  -2+20+
      199   -0.020290    0.020290  20+2+-
      234   -0.020139   -0.020139  0+2202

         ----------------------------------------------------
          Transformation matrix between Active CMOs and DMOs
                    Row for CMO and Column for DMO
         ----------------------------------------------------

             1           2           3           4           5

    1    0.9999996   0.0000000   0.0008801  -0.0000000   0.0001341
    2    0.0000000   0.9999995   0.0000000   0.0000000   0.0000000
    3   -0.0008798   0.0000000   0.9999967  -0.0000000  -0.0024289
    4   -0.0000000   0.0000000  -0.0000000   1.0000000  -0.0000000
    5   -0.0001362   0.0000000   0.0024288  -0.0000000   0.9999970
    6    0.0000000  -0.0010382  -0.0000000  -0.0000000  -0.0000000

             6

    1   -0.0000000
    2   -0.0010382
    3    0.0000000
    4    0.0000000
    5    0.0000000
    6   -0.9999995

     $REFDET GROUP FOUND

 *************************************************************************
     STEP 2: DIABATIZATION USING CONFIGURATION UNIFORMITY
  See Atchity and Ruedenberg, Theor. Chem. Acc. 1997, 97, 47
 *************************************************************************

READ-IN LIST OF DIABATIC PROTOTYPES:

     THE SAME NUMBER OF PROTOTYPE GROUPS & ADIABATS

     THE ADIABS SHOULD HAVE FULLY COVER THE PROTOTYPES

 Approximated Overlap Matrix for truncated adiabats:
   0.9978916769   0.0000000000  -0.0000000000
   0.0000000000   0.9967435144   0.0000000000
  -0.0000000000   0.0000000000   0.9979264766


 -------------------------------------------
   - DIABATIC HAMILTONIAN MATRIX ELEMENTS - 
 -------------------------------------------
                                            
 --- DIABATIC ENERGIES (DIAGONAL ELEMENT) ---       HARTREE            EV
 STATE #  1'S GMC-CI-LEVEL DIABATIC ENERGY=     -75.682514944       0.000000000
 STATE #  2'S GMC-CI-LEVEL DIABATIC ENERGY=     -75.592045689       2.461793836
 STATE #  3'S GMC-CI-LEVEL DIABATIC ENERGY=     -75.431252467       6.837200252

 --- DIABATIC COUPLINGS (OFF DIAGONAL ELEMENTS)---  HATREE            EV
 STATE #  1 &  2'S GMC-CI-LEVEL COUPLING  =       0.000000000       0.000000000
 STATE #  1 &  3'S GMC-CI-LEVEL COUPLING  =       0.000000001       0.000000027
 STATE #  2 &  3'S GMC-CI-LEVEL COUPLING  =       0.000000000       0.000000000

 ---------------------------------------
     - ROTATION TO DIABATIC STATES -    
 ---------------------------------------
 ROWS=ADIABATIC, COLUMNS=DIABATIC STATES

             1           2           3

    1    1.0000000   0.0000000   0.0000000
    2    0.0000000   1.0000000  -0.0000000
    3   -0.0000000   0.0000000   1.0000000

 ---------------------------------------
          - DIABATIC STATES -           
 ---------------------------------------

 State #    1  Energy =     -75.682514944

      Det      Coef        Coefp    Occupancy (Ignoring core)
      ---      ----        ----    --------- --------- -----
        1    0.987012   -0.987012  222+00
      173   -0.076180   -0.076180  202+02
      168   -0.043184   -0.043184  2+-++-
       63   -0.042056   -0.042056  220+20
       68   -0.041664   -0.041664  2-++-+
        8   -0.037431    0.037431  2-2+0+
       47   -0.032850    0.032850  +22-+0
       98    0.032773   -0.032773  +-2+-+
       93    0.032411   -0.032411  +2-+20
       65   -0.030930   -0.030930  -2++20
      170    0.030820   -0.030820  -+2++-
       95   -0.030491   -0.030491  022+20
       79   -0.028900   -0.028900  202+20
       36    0.026713    0.026713  2+2-0+
      157   -0.026401   -0.026401  220+02
        3    0.024186    0.024186  22-++0
      154    0.022891   -0.022891  2-+++-
       82    0.022378   -0.022378  2+-+-+
      184   -0.020500   -0.020500  +-2++-
      241    0.020247    0.020247  2+++--
       84   -0.020185   -0.020185  -+2+-+

 State #    2  Energy =     -75.592045689

      Det      Coef        Coefp    Occupancy (Ignoring core)
      ---      ----        ----    --------- --------- -----
       16   -0.988903   -0.988903  22+200
      203    0.077592   -0.077592  20+202
      198    0.042522   -0.042522  2+02+-
       46    0.038896    0.038896  +22200
       53    0.035640   -0.035640  +-220+
      200   -0.034417   -0.034417  -++2+-
       18   -0.033898    0.033898  2202+0
      128   -0.033056   -0.033056  +-+2-+
      123   -0.032036   -0.032036  +20220
      125    0.031573   -0.031573  02+220
      109    0.028124   -0.028124  20+220
       23    0.025703    0.025703  2-+20+
      112   -0.021673   -0.021673  2+02-+
       28   -0.020849    0.020849  2-02++
      214    0.020094   -0.020094  +-+2+-

 State #    3  Energy =     -75.431252467

      Det      Coef        Coefp    Occupancy (Ignoring core)
      ---      ----        ----    --------- --------- -----
       31    0.990645   -0.990645  2+2200
      113    0.048057    0.048057  20+2-+
      108   -0.047297    0.047297  2+0220
       52   -0.046901   -0.046901  +2-20+
      143    0.031988   -0.031988  +022-+
      110    0.031910    0.031910  -++220
      138   -0.031142   -0.031142  ++-220
      140   -0.030896   -0.030896  0+2220
       33    0.030279   -0.030279  2+-2+0
      202   -0.029026    0.029026  2+0202
        6   -0.028343    0.028343  22200+
       43   -0.027768    0.027768  20-2++
      211    0.025747   -0.025747  +2+20-
       19   -0.024120   -0.024120  2-+2+0
       24    0.021155   -0.021155  -2+20+
      199   -0.020290    0.020290  20+2+-
      234   -0.020139   -0.020139  0+2202

 ---------------------------------------
      - DIABATIC STATES IN CMO -        
 ---------------------------------------

 State #    1  Energy =     -75.682514944

      Det      Coef        Coefp    Occupancy (Ignoring core)
      ---      ----        ----    --------- --------- -----
        1    0.986962   -0.986962  222+00
      173   -0.076212   -0.076212  202+02
      168    0.043157    0.043157  2+-++-
       63   -0.041907   -0.041907  220+20
       68    0.041555    0.041555  2-++-+
        8    0.036469   -0.036469  2-2+0+
       47   -0.032858    0.032858  +22-+0
       98   -0.032794    0.032794  +-2+-+
       93    0.032461   -0.032461  +2-+20
       65   -0.030901   -0.030901  -2++20
      170   -0.030877    0.030877  -+2++-
       95   -0.030550   -0.030550  022+20
       79   -0.028900   -0.028900  202+20
       36   -0.026707   -0.026707  2+2-0+
        3    0.026600    0.026600  22-++0
      157   -0.026403   -0.026403  220+02
      154   -0.022873    0.022873  2-+++-
       82   -0.022360    0.022360  2+-+-+
      184    0.020519    0.020519  +-2++-
      241   -0.020224   -0.020224  2+++--
       84    0.020204    0.020204  -+2+-+

 State #    2  Energy =     -75.592045689

[...]
      109    0.028075   -0.028075  20+220
       23   -0.024671   -0.024671  2-+20+
      112    0.021688    0.021688  2+02-+
       28    0.020813   -0.020813  2-02++
      214   -0.020094    0.020094  +-+2+-
       34    0.020008   -0.020008  2022+0

 State #    3  Energy =     -75.568125447

      Det      Coef        Coefp    Occupancy (Ignoring core)
      ---      ----        ----    --------- --------- -----
       31    0.990712   -0.990712  2+2200
      113   -0.048064   -0.048064  20+2-+
      108   -0.047322    0.047322  2+0220
       52    0.046914    0.046914  +2-20+
      143   -0.032041    0.032041  +022-+
      110    0.031945    0.031945  -++220
      138   -0.031134   -0.031134  ++-220
      140   -0.030951   -0.030951  0+2220
      202   -0.029033    0.029033  2+0202
        6    0.028342   -0.028342  22200+
       33    0.027782   -0.027782  2+-2+0
       43    0.027764   -0.027764  20-2++
      211   -0.025739    0.025739  +2+20-
       19   -0.024085   -0.024085  2-+2+0
       24   -0.021176    0.021176  -2+20+
      199    0.020299   -0.020299  20+2+-
      234   -0.020119   -0.020119  0+2202

 ---------------------------------------
    -DIABATIC STATES IN PROTOTYPES-     
 ---------------------------------------

     STATE:    1
 Group Ref#    Coefficients
     1    1    0.998945
     2    2   -0.000000
     3    3   -0.000000

WEIGHT OF LISTED PROTOTYPES:   99.79%

     STATE:    2
 Group Ref#    Coefficients
     1    1    0.000000
     2    2    0.998370
     3    3    0.000000

WEIGHT OF LISTED PROTOTYPES:   99.67%

     STATE:    3
 Group Ref#    Coefficients
     1    1   -0.000000
     2    2   -0.000000
     3    3    0.998963

WEIGHT OF LISTED PROTOTYPES:   99.79%

 --------------------------------------------------
 IN DIRECT MAX. DIABATIZATION FOR GMC-QDPT

 DIRECT MAXIMIZATION (DM) WITHOUT TRUNCATING ADIABATS
 EXPANSIONS INTO THE REFERENCE CONFIGURATION SPACE
 --------------------------------------------------

 -------------------------------------------
 - DM DIABT PT HAMILTONIAN MATRIX ELEMENTS -
 -------------------------------------------
                                            
 --- DIABATIC ENERGIES (DIAGONAL ELEMENT) ---       HARTREE            EV
 STATE #  1'S GMC-PT-LEVEL DIABATIC ENERGY=     -75.802457710       0.000000000
 STATE #  2'S GMC-PT-LEVEL DIABATIC ENERGY=     -75.721955304       2.190582030
 STATE #  3'S GMC-PT-LEVEL DIABATIC ENERGY=     -75.568125447       6.376505665

 --- DIABATIC COUPLINGS (OFF DIAGONAL ELEMENTS)---  HATREE            EV
 STATE #  1 &  2'S GMC-PT-LEVEL COUPLING  =       0.000000000       0.000000000
 STATE #  1 &  3'S GMC-PT-LEVEL COUPLING  =       0.000000001       0.000000028
 STATE #  2 &  3'S GMC-PT-LEVEL COUPLING  =       0.000000000       0.000000000

 ---------------------------------------
     - ROTATION TO DIABATIC STATES -    
 ---------------------------------------
 ROWS=ADIABATIC, COLUMNS=DIABATIC STATES

             1           2           3

    1   -1.0000000  -0.0000000  -0.0000000
    2   -0.0000000  -1.0000000  -0.0000000
    3   -0.0000000  -0.0000000   1.0000000

 ---------------------------------------
          - DIABATIC STATES -           
 ---------------------------------------

 State #    1  Energy =     -75.802457710

      Det      Coef        Coefp    Occupancy (Ignoring core)
      ---      ----        ----    --------- --------- -----
        1    0.987012   -0.987012  222+00
      173   -0.076180   -0.076180  202+02
      168   -0.043184   -0.043184  2+-++-
       63   -0.042056   -0.042056  220+20
       68   -0.041664   -0.041664  2-++-+
        8   -0.037431    0.037431  2-2+0+
       47   -0.032850    0.032850  +22-+0
       98    0.032773   -0.032773  +-2+-+
       93    0.032411   -0.032411  +2-+20
       65   -0.030930   -0.030930  -2++20
      170    0.030820   -0.030820  -+2++-
       95   -0.030491   -0.030491  022+20
       79   -0.028900   -0.028900  202+20
       36    0.026713    0.026713  2+2-0+
      157   -0.026401   -0.026401  220+02
        3    0.024186    0.024186  22-++0
      154    0.022891   -0.022891  2-+++-
       82    0.022378   -0.022378  2+-+-+
      184   -0.020500   -0.020500  +-2++-
      241    0.020247    0.020247  2+++--
       84   -0.020185   -0.020185  -+2+-+

 State #    2  Energy =     -75.721955304

      Det      Coef        Coefp    Occupancy (Ignoring core)
      ---      ----        ----    --------- --------- -----
       16   -0.988903   -0.988903  22+200
      203    0.077592   -0.077592  20+202
      198    0.042522   -0.042522  2+02+-
       46    0.038896    0.038896  +22200
       53    0.035640   -0.035640  +-220+
      200   -0.034417   -0.034417  -++2+-
       18   -0.033898    0.033898  2202+0
      128   -0.033056   -0.033056  +-+2-+
      123   -0.032036   -0.032036  +20220
      125    0.031573   -0.031573  02+220
      109    0.028124   -0.028124  20+220
       23    0.025703    0.025703  2-+20+
      112   -0.021673   -0.021673  2+02-+
       28   -0.020849    0.020849  2-02++
      214    0.020094   -0.020094  +-+2+-

 State #    3  Energy =     -75.568125447

      Det      Coef        Coefp    Occupancy (Ignoring core)
      ---      ----        ----    --------- --------- -----
       31    0.990645   -0.990645  2+2200
      113    0.048057    0.048057  20+2-+
      108   -0.047297    0.047297  2+0220
       52   -0.046901   -0.046901  +2-20+
      143    0.031988   -0.031988  +022-+
      110    0.031910    0.031910  -++220
      138   -0.031142   -0.031142  ++-220
      140   -0.030896   -0.030896  0+2220
       33    0.030279   -0.030279  2+-2+0
      202   -0.029026    0.029026  2+0202
        6   -0.028343    0.028343  22200+
       43   -0.027768    0.027768  20-2++
      211    0.025747   -0.025747  +2+20-
       19   -0.024120   -0.024120  2-+2+0
       24    0.021155   -0.021155  -2+20+
      199   -0.020290    0.020290  20+2+-
      234   -0.020139   -0.020139  0+2202

 ---------------------------------------
      - DIABATIC STATES IN CMO -        
 ---------------------------------------

 State #    1  Energy =     -75.802457710

      Det      Coef        Coefp    Occupancy (Ignoring core)
      ---      ----        ----    --------- --------- -----
        1    0.986962   -0.986962  222+00
      173   -0.076212   -0.076212  202+02
      168    0.043157    0.043157  2+-++-
       63   -0.041907   -0.041907  220+20
       68    0.041555    0.041555  2-++-+
        8    0.036469   -0.036469  2-2+0+
       47   -0.032858    0.032858  +22-+0
       98   -0.032794    0.032794  +-2+-+
       93    0.032461   -0.032461  +2-+20
       65   -0.030901   -0.030901  -2++20
      170   -0.030877    0.030877  -+2++-
       95   -0.030550   -0.030550  022+20
       79   -0.028900   -0.028900  202+20
       36   -0.026707   -0.026707  2+2-0+
        3    0.026600    0.026600  22-++0
      157   -0.026403   -0.026403  220+02
      154   -0.022873    0.022873  2-+++-
       82   -0.022360    0.022360  2+-+-+
      184    0.020519    0.020519  +-2++-
      241   -0.020224   -0.020224  2+++--
       84    0.020204    0.020204  -+2+-+

 State #    2  Energy =     -75.721955304

      Det      Coef        Coefp    Occupancy (Ignoring core)
      ---      ----        ----    --------- --------- -----
       16   -0.988890   -0.988890  22+200
      203    0.077624   -0.077624  20+202
      198   -0.042501    0.042501  2+02+-
       46    0.038058    0.038058  +22200
       18   -0.036246    0.036246  2202+0
       53   -0.035649    0.035649  +-220+
      200    0.034447    0.034447  -++2+-
      128    0.032963    0.032963  +-+2-+
      123   -0.032000   -0.032000  +20220
      125    0.031624   -0.031624  02+220
      109    0.028075   -0.028075  20+220
       23   -0.024671   -0.024671  2-+20+
      112    0.021688    0.021688  2+02-+
       28    0.020813   -0.020813  2-02++
      214   -0.020094    0.020094  +-+2+-
       34    0.020008   -0.020008  2022+0

 State #    3  Energy =     -75.568125447

      Det      Coef        Coefp    Occupancy (Ignoring core)
      ---      ----        ----    --------- --------- -----
       31    0.990712   -0.990712  2+2200
      113   -0.048064   -0.048064  20+2-+
      108   -0.047322    0.047322  2+0220
       52    0.046914    0.046914  +2-20+
      143   -0.032041    0.032041  +022-+
      110    0.031945    0.031945  -++220
      138   -0.031134   -0.031134  ++-220
      140   -0.030951   -0.030951  0+2220
      202   -0.029033    0.029033  2+0202
        6    0.028342   -0.028342  22200+
       33    0.027782   -0.027782  2+-2+0
       43    0.027764   -0.027764  20-2++
      211   -0.025739    0.025739  +2+20-
       19   -0.024085   -0.024085  2-+2+0
       24   -0.021176    0.021176  -2+20+
      199    0.020299   -0.020299  20+2+-
      234   -0.020119   -0.020119  0+2202

 ---------------------------------------
    -DIABATIC STATES IN PROTOTYPES-     
 ---------------------------------------

     STATE:    1
 Group Ref#    Coefficients
     1    1    0.998945
     2    2   -0.000000
     3    3   -0.000000

WEIGHT OF LISTED PROTOTYPES:   99.79%

     STATE:    2
 Group Ref#    Coefficients
     1    1    0.000000
     2    2    0.998370
     3    3    0.000000

WEIGHT OF LISTED PROTOTYPES:   99.67%

     STATE:    3
 Group Ref#    Coefficients
     1    1   -0.000000
     2    2   -0.000000
     3    3    0.998963

WEIGHT OF LISTED PROTOTYPES:   99.79%

     DIRECT MAX. DIABATIZATION FINISHED    
 CPU     0: STEP CPU TIME=     0.05 TOTAL CPU TIME=          1.1 (      0.0 MIN)
 TOTAL WALL CLOCK TIME=          2.8 SECONDS, CPU UTILIZATION IS    40.78%

DIABATS FOR SPIN-ORBIT CALCULATION ARE READY

TRANSITION DIPOLES BETWEEN ADIABATS (in A.U.):

STATE PAIR      X         Y         Z
    1    1 -0.000000  0.000000  0.272224
    2    1  0.000000 -0.165306 -0.000000
    2    2 -0.000000 -0.000000  0.458129
    3    1  0.000000  0.000000  0.000000
    3    2 -0.123011 -0.000000  0.000000
    3    3  0.000000 -0.000000  0.048570


TRANSITION DIPOLES BETWEEN DIABATS (in A.U.):

STATE PAIR      X         Y         Z
    1    1 -0.000000  0.000000  0.272224
    2    1  0.000000 -0.165306 -0.000000
    2    2 -0.000000 -0.000000  0.458129
    3    1 -0.000000 -0.000000 -0.000000
    3    2  0.123011 -0.000000 -0.000000
    3    3  0.000000 -0.000000  0.048570

TRANSITION DIPOLES BETWEEN DIRECT MAX. DIABATS (in A.U.):

STATE PAIR      X         Y         Z
    1    1 -0.000000  0.000000  0.272224
    2    1  0.000000 -0.165306 -0.000000
    2    2 -0.000000 -0.000000  0.458129
    3    1 -0.000000 -0.000000 -0.000000
    3    2  0.123011 -0.000000 -0.000000
    3    3  0.000000 -0.000000  0.048570
 No $TRANST Group Found.
 Quit without doing spin-orbit coupling
 ..... DONE WITH MP2 ENERGY .....
 CPU     0: STEP CPU TIME=     0.01 TOTAL CPU TIME=          1.2 (      0.0 MIN)
 TOTAL WALL CLOCK TIME=          2.8 SECONDS, CPU UTILIZATION IS    41.13%
            250000000  WORDS OF DYNAMIC MEMORY USED
 EXECUTION OF GAMESS TERMINATED NORMALLY Thu Jan 25 17:20:27 2024
 DDI: 386504 bytes (0.4 MB / 0 MWords) used by master data server.

 ----------------------------------------
 CPU timing information for all processes
 ========================================
 0: 1.61 + 0.102 = 1.164
 1: 0.966 + 0.83 = 1.49
 ----------------------------------------
Note: The following floating-point exceptions are signalling: IEEE_DENORMAL
Note: The following floating-point exceptions are signalling: IEEE_DENORMAL
 ddikick.x: exited gracefully.
unset echo
----- accounting info -----
Files used on the master node io001 were:
-rwxr-xr-x 1 bjb2chen nooijen   16377 Jan 25 17:20 /home/bjb2chen/gmsscr//H2Ocat_cct_gmcpt_C1_3st_diab_mode7_+0.05.F05*
-rw-r--r-- 1 bjb2chen nooijen  182424 Jan 25 17:20 /home/bjb2chen/gmsscr//H2Ocat_cct_gmcpt_C1_3st_diab_mode7_+0.05.F09
-rw-r--r-- 1 bjb2chen nooijen  180016 Jan 25 17:20 /home/bjb2chen/gmsscr//H2Ocat_cct_gmcpt_C1_3st_diab_mode7_+0.05.F09.001
-rw-r--r-- 1 bjb2chen nooijen 1995920 Jan 25 17:20 /home/bjb2chen/gmsscr//H2Ocat_cct_gmcpt_C1_3st_diab_mode7_+0.05.F10
-rw-r--r-- 1 bjb2chen nooijen   33168 Jan 25 17:20 /home/bjb2chen/gmsscr//H2Ocat_cct_gmcpt_C1_3st_diab_mode7_+0.05.F13
-rw-r--r-- 1 bjb2chen nooijen   33168 Jan 25 17:20 /home/bjb2chen/gmsscr//H2Ocat_cct_gmcpt_C1_3st_diab_mode7_+0.05.F13.001
-rw-r--r-- 1 bjb2chen nooijen  180248 Jan 25 17:20 /home/bjb2chen/gmsscr//H2Ocat_cct_gmcpt_C1_3st_diab_mode7_+0.05.F15
-rw-r--r-- 1 bjb2chen nooijen       0 Jan 25 17:20 /home/bjb2chen/gmsscr//H2Ocat_cct_gmcpt_C1_3st_diab_mode7_+0.05.F16
-rw-r--r-- 1 bjb2chen nooijen    2408 Jan 25 17:20 /home/bjb2chen/gmsscr//H2Ocat_cct_gmcpt_C1_3st_diab_mode7_+0.05.F70
-rw-r--r-- 1 bjb2chen nooijen    2408 Jan 25 17:20 /home/bjb2chen/gmsscr//H2Ocat_cct_gmcpt_C1_3st_diab_mode7_+0.05.F70.001
-rw-r--r-- 1 bjb2chen nooijen    2408 Jan 25 17:20 /home/bjb2chen/gmsscr//H2Ocat_cct_gmcpt_C1_3st_diab_mode7_+0.05.F71
-rw-r--r-- 1 bjb2chen nooijen    2408 Jan 25 17:20 /home/bjb2chen/gmsscr//H2Ocat_cct_gmcpt_C1_3st_diab_mode7_+0.05.F71.001
-rw-r--r-- 1 bjb2chen nooijen    4808 Jan 25 17:20 /home/bjb2chen/gmsscr//H2Ocat_cct_gmcpt_C1_3st_diab_mode7_+0.05.F72
-rw-r--r-- 1 bjb2chen nooijen    4808 Jan 25 17:20 /home/bjb2chen/gmsscr//H2Ocat_cct_gmcpt_C1_3st_diab_mode7_+0.05.F72.001
-rw-r--r-- 1 bjb2chen nooijen    4808 Jan 25 17:20 /home/bjb2chen/gmsscr//H2Ocat_cct_gmcpt_C1_3st_diab_mode7_+0.05.F73
-rw-r--r-- 1 bjb2chen nooijen    4808 Jan 25 17:20 /home/bjb2chen/gmsscr//H2Ocat_cct_gmcpt_C1_3st_diab_mode7_+0.05.F73.001
-rw-r--r-- 1 bjb2chen nooijen  184824 Jan 25 17:20 /home/bjb2chen/gmsscr//H2Ocat_cct_gmcpt_C1_3st_diab_mode7_+0.05.F74
-rw-r--r-- 1 bjb2chen nooijen  184824 Jan 25 17:20 /home/bjb2chen/gmsscr//H2Ocat_cct_gmcpt_C1_3st_diab_mode7_+0.05.F74.001
-rw-r--r-- 1 bjb2chen nooijen  720024 Jan 25 17:20 /home/bjb2chen/gmsscr//H2Ocat_cct_gmcpt_C1_3st_diab_mode7_+0.05.F75
-rw-r--r-- 1 bjb2chen nooijen  720024 Jan 25 17:20 /home/bjb2chen/gmsscr//H2Ocat_cct_gmcpt_C1_3st_diab_mode7_+0.05.F75.001
-rw-r--r-- 1 bjb2chen nooijen   14448 Jan 25 17:20 /home/bjb2chen/gmsscr//H2Ocat_cct_gmcpt_C1_3st_diab_mode7_+0.05.F76
-rw-r--r-- 1 bjb2chen nooijen   14448 Jan 25 17:20 /home/bjb2chen/gmsscr//H2Ocat_cct_gmcpt_C1_3st_diab_mode7_+0.05.F76.001
-rw-r--r-- 1 bjb2chen nooijen       0 Jan 25 17:20 /home/bjb2chen/gmsscr//H2Ocat_cct_gmcpt_C1_3st_diab_mode7_+0.05.F77
-rw-r--r-- 1 bjb2chen nooijen       0 Jan 25 17:20 /home/bjb2chen/gmsscr//H2Ocat_cct_gmcpt_C1_3st_diab_mode7_+0.05.F77.001
-rw-r--r-- 1 bjb2chen nooijen    1544 Jan 25 17:20 /home/bjb2chen/gmsscr//H2Ocat_cct_gmcpt_C1_3st_diab_mode7_+0.05.F78
-rw-r--r-- 1 bjb2chen nooijen    1544 Jan 25 17:20 /home/bjb2chen/gmsscr//H2Ocat_cct_gmcpt_C1_3st_diab_mode7_+0.05.F78.001
-rw-r--r-- 1 bjb2chen nooijen    9608 Jan 25 17:20 /home/bjb2chen/gmsscr//H2Ocat_cct_gmcpt_C1_3st_diab_mode7_+0.05.F79
-rw-r--r-- 1 bjb2chen nooijen    9608 Jan 25 17:20 /home/bjb2chen/gmsscr//H2Ocat_cct_gmcpt_C1_3st_diab_mode7_+0.05.F79.001
-rw-r--r-- 1 bjb2chen nooijen     104 Jan 25 17:20 /home/bjb2chen/gmsscr//H2Ocat_cct_gmcpt_C1_3st_diab_mode7_+0.05.F80
-rw-r--r-- 1 bjb2chen nooijen     104 Jan 25 17:20 /home/bjb2chen/gmsscr//H2Ocat_cct_gmcpt_C1_3st_diab_mode7_+0.05.F80.001
-rw-r--r-- 1 bjb2chen nooijen    9232 Jan 25 17:20 /home/bjb2chen/gmsscr//H2Ocat_cct_gmcpt_C1_3st_diab_mode7_+0.05.F81
-rw-r--r-- 1 bjb2chen nooijen    9232 Jan 25 17:20 /home/bjb2chen/gmsscr//H2Ocat_cct_gmcpt_C1_3st_diab_mode7_+0.05.F81.001
-rw-r--r-- 1 bjb2chen nooijen      16 Jan 25 17:20 /home/bjb2chen/gmsscr//H2Ocat_cct_gmcpt_C1_3st_diab_mode7_+0.05.F82
-rw-r--r-- 1 bjb2chen nooijen      16 Jan 25 17:20 /home/bjb2chen/gmsscr//H2Ocat_cct_gmcpt_C1_3st_diab_mode7_+0.05.F82.001
-rw-r--r-- 1 bjb2chen nooijen   10376 Jan 25 17:20 /home/bjb2chen/gmsscr//H2Ocat_cct_gmcpt_C1_3st_diab_mode7_+0.05.F83
-rw-r--r-- 1 bjb2chen nooijen   10376 Jan 25 17:20 /home/bjb2chen/gmsscr//H2Ocat_cct_gmcpt_C1_3st_diab_mode7_+0.05.F83.001
-rw-r--r-- 1 bjb2chen nooijen   18832 Jan 25 17:20 /home/bjb2chen/gmsscr//H2Ocat_cct_gmcpt_C1_3st_diab_mode7_+0.05.F84
-rw-r--r-- 1 bjb2chen nooijen   18832 Jan 25 17:20 /home/bjb2chen/gmsscr//H2Ocat_cct_gmcpt_C1_3st_diab_mode7_+0.05.F84.001
-rw-r--r-- 1 bjb2chen nooijen   66128 Jan 25 17:20 /home/bjb2chen/gmsscr//H2Ocat_cct_gmcpt_C1_3st_diab_mode7_+0.05.F85
-rw-r--r-- 1 bjb2chen nooijen   66128 Jan 25 17:20 /home/bjb2chen/gmsscr//H2Ocat_cct_gmcpt_C1_3st_diab_mode7_+0.05.F85.001
-rw-r--r-- 1 bjb2chen nooijen   69496 Jan 25 17:20 /home/bjb2chen/gmsscr//H2Ocat_cct_gmcpt_C1_3st_diab_mode7_+0.05.F86
-rw-r--r-- 1 bjb2chen nooijen   60312 Jan 25 17:20 /home/bjb2chen/gmsscr//H2Ocat_cct_gmcpt_C1_3st_diab_mode7_+0.05.F86.001
-rw-r--r-- 1 bjb2chen nooijen     656 Jan 25 17:20 /home/bjb2chen/gmsscr//H2Ocat_cct_gmcpt_C1_3st_diab_mode7_+0.05.F87
-rw-r--r-- 1 bjb2chen nooijen     656 Jan 25 17:20 /home/bjb2chen/gmsscr//H2Ocat_cct_gmcpt_C1_3st_diab_mode7_+0.05.F87.001
-rw-r--r-- 1 bjb2chen nooijen    5328 Jan 25 17:20 /home/bjb2chen/gmsscr//H2Ocat_cct_gmcpt_C1_3st_diab_mode7_+0.05.F88
-rw-r--r-- 1 bjb2chen nooijen    5328 Jan 25 17:20 /home/bjb2chen/gmsscr//H2Ocat_cct_gmcpt_C1_3st_diab_mode7_+0.05.F88.001
-rw-r--r-- 1 bjb2chen nooijen     200 Jan 25 17:20 /home/bjb2chen/gmsscr//H2Ocat_cct_gmcpt_C1_3st_diab_mode7_+0.05.F89
-rw-r--r-- 1 bjb2chen nooijen     200 Jan 25 17:20 /home/bjb2chen/gmsscr//H2Ocat_cct_gmcpt_C1_3st_diab_mode7_+0.05.F89.001
-rw-r--r-- 1 bjb2chen nooijen       0 Jan 25 17:20 /home/bjb2chen/gmsscr//H2Ocat_cct_gmcpt_C1_3st_diab_mode7_+0.05.F90
-rw-r--r-- 1 bjb2chen nooijen       0 Jan 25 17:20 /home/bjb2chen/gmsscr//H2Ocat_cct_gmcpt_C1_3st_diab_mode7_+0.05.F90.001
-rw-r--r-- 1 bjb2chen nooijen    5560 Jan 25 17:20 /home/bjb2chen/gmsscr//H2Ocat_cct_gmcpt_C1_3st_diab_mode7_+0.05.F91
-rw-r--r-- 1 bjb2chen nooijen    5560 Jan 25 17:20 /home/bjb2chen/gmsscr//H2Ocat_cct_gmcpt_C1_3st_diab_mode7_+0.05.F91.001
-rw-r--r-- 1 bjb2chen nooijen    7128 Jan 25 17:20 /home/bjb2chen/gmsscr//H2Ocat_cct_gmcpt_C1_3st_diab_mode7_+0.05.F92
-rw-r--r-- 1 bjb2chen nooijen    7128 Jan 25 17:20 /home/bjb2chen/gmsscr//H2Ocat_cct_gmcpt_C1_3st_diab_mode7_+0.05.F92.001
-rw-r--r-- 1 bjb2chen nooijen    5560 Jan 25 17:20 /home/bjb2chen/gmsscr//H2Ocat_cct_gmcpt_C1_3st_diab_mode7_+0.05.F93
-rw-r--r-- 1 bjb2chen nooijen    5560 Jan 25 17:20 /home/bjb2chen/gmsscr//H2Ocat_cct_gmcpt_C1_3st_diab_mode7_+0.05.F93.001
-rw-r--r-- 1 bjb2chen nooijen    3880 Jan 25 17:20 /home/bjb2chen/gmsscr//H2Ocat_cct_gmcpt_C1_3st_diab_mode7_+0.05.F94
-rw-r--r-- 1 bjb2chen nooijen    3880 Jan 25 17:20 /home/bjb2chen/gmsscr//H2Ocat_cct_gmcpt_C1_3st_diab_mode7_+0.05.F94.001
-rw-r--r-- 1 bjb2chen nooijen    1640 Jan 25 17:20 /home/bjb2chen/gmsscr//H2Ocat_cct_gmcpt_C1_3st_diab_mode7_+0.05.F95
-rw-r--r-- 1 bjb2chen nooijen    1640 Jan 25 17:20 /home/bjb2chen/gmsscr//H2Ocat_cct_gmcpt_C1_3st_diab_mode7_+0.05.F95.001
-rw-r--r-- 1 bjb2chen nooijen    7240 Jan 25 17:20 /home/bjb2chen/gmsscr//H2Ocat_cct_gmcpt_C1_3st_diab_mode7_+0.05.F96
-rw-r--r-- 1 bjb2chen nooijen    7240 Jan 25 17:20 /home/bjb2chen/gmsscr//H2Ocat_cct_gmcpt_C1_3st_diab_mode7_+0.05.F96.001
-rw-r--r-- 1 bjb2chen nooijen     872 Jan 25 17:20 /home/bjb2chen/gmsscr//H2Ocat_cct_gmcpt_C1_3st_diab_mode7_+0.05.F97
-rw-r--r-- 1 bjb2chen nooijen     872 Jan 25 17:20 /home/bjb2chen/gmsscr//H2Ocat_cct_gmcpt_C1_3st_diab_mode7_+0.05.F97.001
-rw-r--r-- 1 bjb2chen nooijen    2408 Jan 25 17:20 /home/bjb2chen/gmsscr//H2Ocat_cct_gmcpt_C1_3st_diab_mode7_+0.05.F98
-rw-r--r-- 1 bjb2chen nooijen    2408 Jan 25 17:20 /home/bjb2chen/gmsscr//H2Ocat_cct_gmcpt_C1_3st_diab_mode7_+0.05.F98.001
-rw-r--r-- 1 bjb2chen nooijen    6024 Jan 25 17:20 /home/bjb2chen/gmsscr//H2Ocat_cct_gmcpt_C1_3st_diab_mode7_+0.05.F99
-rw-r--r-- 1 bjb2chen nooijen    6024 Jan 25 17:20 /home/bjb2chen/gmsscr//H2Ocat_cct_gmcpt_C1_3st_diab_mode7_+0.05.F99.001
ls: No match.
ls: No match.
ls: No match.
Thu 25 Jan 2024 05:20:33 PM EST
0.379u 0.100s 0:09.34 5.0%	0+0k 32+240io 0pf+0w
