----- GAMESS execution script 'rungms' -----
This job is running on host io003
under operating system Linux at Thu 25 Jan 2024 05:20:23 PM EST
Available scratch disk space (Kbyte units) at beginning of the job is
Filesystem             1K-blocks       Used Available Use% Mounted on
helmholtz.nlogn:/home 6391504896 5248412672 820953088  87% /home
GAMESS temporary binary files will be written to /home/bjb2chen/gmsscr/
GAMESS supplementary output files will be written to /home/bjb2chen/gamess/vibronics/template_examples/H2O
Copying input file H2Ocat_cct_gmcpt_C1_3st_diab_mode9_+0.05x2.inp to your run's scratch directory...
cp H2Ocat_cct_gmcpt_C1_3st_diab_mode9_+0.05x2.inp /home/bjb2chen/gmsscr//H2Ocat_cct_gmcpt_C1_3st_diab_mode9_+0.05x2.F05
unset echo
 
Assuming a single but multicore node.
 
/home/bjb2chen/gamess/ddikick.x /home/bjb2chen/gamess/gamess.00.x H2Ocat_cct_gmcpt_C1_3st_diab_mode9_+0.05x2 -ddi 1 2 io003:cpus=2 -scr /home/bjb2chen/gmsscr/

 Distributed Data Interface kickoff program.
 Initiating 2 compute processes on 1 nodes to run the following command:
 /home/bjb2chen/gamess/gamess.00.x H2Ocat_cct_gmcpt_C1_3st_diab_mode9_+0.05x2 

          ******************************************************
          *         GAMESS VERSION = 02 AUG 2018 (R2)         *
          *             FROM IOWA STATE UNIVERSITY             *
          * M.W.SCHMIDT, K.K.BALDRIDGE, J.A.BOATZ, S.T.ELBERT, *
          *   M.S.GORDON, J.H.JENSEN, S.KOSEKI, N.MATSUNAGA,   *
          *          K.A.NGUYEN, S.J.SU, T.L.WINDUS,           *
          *       TOGETHER WITH M.DUPUIS, J.A.MONTGOMERY       *
          *         J.COMPUT.CHEM.  14, 1347-1363(1993)        *
          **************** 64 BIT LINUX VERSION ****************

  SINCE 1993, STUDENTS AND POSTDOCS WORKING AT IOWA STATE UNIVERSITY
  AND ALSO IN THEIR VARIOUS JOBS AFTER LEAVING ISU HAVE MADE IMPORTANT
  CONTRIBUTIONS TO THE CODE:
     IVANA ADAMOVIC, CHRISTINE AIKENS, YURI ALEXEEV, POOJA ARORA,
     ANDREY ASADCHEV, ROB BELL, PRADIPTA BANDYOPADHYAY, JONATHAN BENTZ,
     BRETT BODE, KURT BRORSEN, CALEB CARLIN, GALINA CHABAN, WEI CHEN,
     CHEOL HO CHOI, PAUL DAY, ALBERT DEFUSCO, NUWAN DESILVA, TIM DUDLEY,
     DMITRI FEDOROV, ALEX FINDLATER, GRAHAM FLETCHER, MARK FREITAG,
     KURT GLAESEMANN, ANASTASIA GUININA,
     DAN KEMP, GRANT MERRILL, NORIYUKI MINEZAWA, JONATHAN MULLIN,
     TAKESHI NAGATA, SEAN NEDD, HEATHER NETZLOFF, BOSILJKA NJEGIC, RYAN OLSON,
     MIKE PAK, BUU PHAM,
     SPENCER PRUITT, LUKE ROSKOP, JIM SHOEMAKER, LYUDMILA SLIPCHENKO,
     TONY SMITH, SAROM SOK LEANG, JIE SONG, TETSUYA TAKETSUGU, SIMON WEBB,
     PENG XU, SOOHAENG YOO, FEDERICO ZAHARIEV

  ADDITIONAL CODE HAS BEEN PROVIDED BY COLLABORATORS IN OTHER GROUPS:
     IOWA STATE UNIVERSITY:
          JOE IVANIC, AARON WEST, LAIMUTIS BYTAUTAS, KLAUS RUEDENBERG
     UNIVERSITY OF TOKYO: KIMIHIKO HIRAO, TAKAHITO NAKAJIMA,
          TAKAO TSUNEDA, MUNEAKI KAMIYA, SUSUMU YANAGISAWA,
          KIYOSHI YAGI, MAHITO CHIBA, SEIKEN TOKURA, NAOAKI KAWAKAMI
     UNIVERSITY OF AARHUS: FRANK JENSEN
     UNIVERSITY OF IOWA: VISVALDAS KAIRYS, HUI LI
     NATIONAL INST. OF STANDARDS AND TECHNOLOGY: WALT STEVENS, DAVID GARMER
     UNIVERSITY OF PISA: BENEDETTA MENNUCCI, JACOPO TOMASI
     UNIVERSITY OF MEMPHIS: HENRY KURTZ, PRAKASHAN KORAMBATH
     UNIVERSITY OF ALBERTA: TOBY ZENG, MARIUSZ KLOBUKOWSKI
     UNIVERSITY OF NEW ENGLAND: MARK SPACKMAN
     MIE UNIVERSITY: HIROAKI UMEDA
     NAT. INST. OF ADVANCED INDUSTRIAL SCIENCE AND TECHNOLOGY: KAZUO KITAURA
     MICHIGAN STATE UNIVERSITY:
          KAROL KOWALSKI, MARTA WLOCH, JEFFREY GOUR, JESSE LUTZ,
          WEI LI, JUN SHEN, J. EMILIANO DEUSTUA, PIOTR PIECUCH
     UNIVERSITY OF MINNESOTA:
          YINAN SHU
     UNIVERSITY OF SILESIA: MONIKA MUSIAL, STANISLAW KUCHARSKI
     FACULTES UNIVERSITAIRES NOTRE-DAME DE LA PAIX:
          OLIVIER QUINET, BENOIT CHAMPAGNE
     UNIVERSITY OF CALIFORNIA - SANTA BARBARA: BERNARD KIRTMAN
     INSTITUTE FOR MOLECULAR SCIENCE:
          KAZUYA ISHIMURA, MICHIO KATOUDA, AND SHIGERU NAGASE
     UNIVERSITY OF NOTRE DAME: ANNA POMOGAEVA, DAN CHIPMAN
     KYUSHU UNIVERSITY:
          HARUYUKI NAKANO,
          FENG LONG GU, JACEK KORCHOWIEC, MARCIN MAKOWSKI, AND YURIKO AOKI,
          HIROTOSHI MORI AND EISAKU MIYOSHI
     PENNSYLVANIA STATE UNIVERSITY:
          TZVETELIN IORDANOV, CHET SWALINA, JONATHAN SKONE,
          SHARON HAMMES-SCHIFFER
     WASEDA UNIVERSITY:
          MASATO KOBAYASHI, TOMOKO AKAMA, TSUGUKI TOUMA,
          TAKESHI YOSHIKAWA, YASUHIRO IKABATA, JUNJI SEINO,
          YUYA NAKAJIMA, HIROMI NAKAI
     NANJING UNIVERSITY: SHUHUA LI
     UNIVERSITY OF NEBRASKA:
          PEIFENG SU, DEJUN SI, NANDUN THELLAMUREGE, YALI WANG, HUI LI
     UNIVERSITY OF ZURICH: ROBERTO PEVERATI, KIM BALDRIDGE
     N. COPERNICUS UNIVERSITY AND JACKSON STATE UNIVERSITY:
          MARIA BARYSZ
     UNIVERSITY OF COPENHAGEN: Jimmy Kromann, CASPER STEINMANN
     TOKYO INSTITUTE OF TECHNOLOGY: HIROYA NAKATA
     NAGOYA UNIVERSITY: YOSHIO NISHIMOTO, STEPHAN IRLE
     MOSCOW STATE UNIVERSITY: VLADIMIR MIRONOV


 PARALLEL VERSION RUNNING ON        2 PROCESSORS IN        1 NODES.

 EXECUTION OF GAMESS BEGUN Thu Jan 25 17:20:24 2024

            ECHO OF THE FIRST FEW INPUT CARDS -
 INPUT CARD> !############################################################################# 
 INPUT CARD> !                   D_3h RHF GEOMETRY OPTIMIZATION AND HESSIAN TEMPLATE        
 INPUT CARD> ! ---------------------------------------------------------------------------  
 INPUT CARD> ! Replace the symmetry-correct coordinates, should only be two atoms.          
 INPUT CARD> ! The hydrogen or fluorine should have only one non-zero x,y,z coordinate.     
 INPUT CARD> !                                                                              
 INPUT CARD> ! Basis set?   gbasis=ccd for 2nd row,                                         
 INPUT CARD> !                         cct 3rd/4th,                                         
 INPUT CARD> !                   SPKrTZP for heavy,                                         
 INPUT CARD> !                   SPKrTZC beyond 4th                                         
 INPUT CARD> !                                                                              
 INPUT CARD> !############################################################################# 
 INPUT CARD> $system kdiag=3 mwords=250 memddi=8000 parall=.t. $end                         
 INPUT CARD> $contrl runtyp=energy ispher=1 $end                                            
 INPUT CARD> $contrl icut=9 itol=20 inttyp=rysquad qmttol=1.0d-05 nosym=1 $end              
 INPUT CARD> $contrl scftyp=mcscf  mult=2 maxit=200 icharg=1 mplevl=2 $end                  
 INPUT CARD> $scf    npunch=2 conv=1.0d-06 dirscf=.t. $end                                  
 INPUT CARD> $force  method=seminum $end                                                    
 INPUT CARD> $trans  dirtrf=.t. $end                                                        
 INPUT CARD> $statpt hssend=.t. $end                                                        
 INPUT CARD> $basis  gbasis=ccd $end                                                        
 INPUT CARD> !############################################################################# 
 INPUT CARD> !                                                                              
 INPUT CARD> !                       TURN ON THIS SECTION IF HEAVY ATOM                     
 INPUT CARD> !                                                                              
 INPUT CARD> !############################################################################# 
 INPUT CARD> !                                                                              
 INPUT CARD> -contrl relwfn=LUT-IOTC $end                                                   
 INPUT CARD> -scf  diis=.t. soscf=.f. ethrsh=10.0 $end                                      
 INPUT CARD> -guess iorder(25)=27,25,26 $end                                                
 INPUT CARD> -gmcpt nsolut=100 $end                                                         
 INPUT CARD> !                                                                              
 INPUT CARD> !############################################################################# 
 INPUT CARD> !                                                                              
 INPUT CARD> !       TURN ON THIS SECTION IF GMCPT, CHANGE runtyp=energy, scftyp=mcscf      
 INPUT CARD> !                                                                              
 INPUT CARD> !############################################################################# 
 INPUT CARD> $guess  guess=moread norb=24 purify=.t. norder=1 $end                          
 INPUT CARD> $mcscf  cistep=gmcci fullnr=.t. finci=mos                                      
 INPUT CARD>         acurcy=1.d-6 maxit=100 $end                                            
 INPUT CARD> $mrmp   mrpt=gmcpt rdvecs=.f. $end                                             
 INPUT CARD> $gmcpt  nmofzc=0 nmodoc=1 nmoact=6 nelact=7 stsym(1)=A                         
 INPUT CARD>         reftyp=ormas nspace=1 mstart(1)=2 mine(1)=7 maxe(1)=7                  
 INPUT CARD>         kstate(1)=1,1,1                                                        
 INPUT CARD>         wstate(1)=1,1,1                                                        
 INPUT CARD>         iwgt=0 thrwgt=-1.0 krot=.f. kszdoe=.f. knospn=.f.                      
 INPUT CARD>         thrde=-1.0 edshft=0.02 $end                                            
 INPUT CARD> !if SOC: transt $end, add knospn=.t.                                           
 INPUT CARD> !############################################################################# 
 INPUT CARD> !                                                                              
  250000000 WORDS OF MEMORY AVAILABLE

     BASIS OPTIONS
     -------------
     GBASIS=CCD          IGAUSS=       0      POLAR=NONE    
     NDFUNC=       0     NFFUNC=       0     DIFFSP=       F
     NPFUNC=       0      DIFFS=       F     BASNAM=        


     RUN TITLE
     ---------
  H2O cation diabatization 3 states                                              

 THE POINT GROUP OF THE MOLECULE IS C1      
 THE ORDER OF THE PRINCIPAL AXIS IS     0

 ATOM      ATOMIC                      COORDINATES (BOHR)
           CHARGE         X                   Y                   Z
 O           8.0    -0.0012769028        0.0000000000       -0.0810912736
 H           1.0     1.5418829626       -0.0000000004        1.0466732743
 H           1.0    -1.5216173565       -0.0000000004        1.0318517727

          INTERNUCLEAR DISTANCES (ANGS.)
          ------------------------------

                1 O          2 H          3 H     

   1 O       0.0000000    1.0114341 *  0.9970572 *
   2 H       1.0114341 *  0.0000000    1.6211536 *
   3 H       0.9970572 *  1.6211536 *  0.0000000  

  * ... LESS THAN  3.000


     ATOMIC BASIS SET
     ----------------
 THE CONTRACTED PRIMITIVE FUNCTIONS HAVE BEEN UNNORMALIZED
 THE CONTRACTED BASIS FUNCTIONS ARE NOW NORMALIZED TO UNITY

  SHELL TYPE  PRIMITIVE        EXPONENT          CONTRACTION COEFFICIENT(S)

 O         

      1   S       1         11720.0000000    0.000709645947
      1   S       2          1759.0000000    0.005467272292
      1   S       3           400.8000000    0.027823118610
      1   S       4           113.7000000    0.104747739711
      1   S       5            37.0300000    0.282920846357
      1   S       6            13.2700000    0.448495238698
      1   S       7             5.0250000    0.270816885213
      1   S       8             1.0130000    0.015450291607

      2   S       9         11720.0000000   -0.000314443412
      2   S      10          1759.0000000   -0.002482137681
      2   S      11           400.8000000   -0.012316355382
      2   S      12           113.7000000   -0.050538917344
      2   S      13            37.0300000   -0.139384903316
      2   S      14            13.2700000   -0.325077494818
      2   S      15             5.0250000   -0.229848307588
      2   S      16             1.0130000    1.095379346788

      3   S      17             0.3023000    1.000000000000

      4   P      18            17.7000000    0.062679166282
      4   P      19             3.8540000    0.333536565879
      4   P      20             1.0460000    0.741239641640

      5   P      21             0.2753000    1.000000000000

      6   D      22             1.1850000    1.000000000000

 H         

      7   S      23            13.0100000    0.033498726390
      7   S      24             1.9620000    0.234800801174
      7   S      25             0.4446000    0.813682957883

      8   S      26             0.1220000    1.000000000000

      9   P      27             0.7270000    1.000000000000

 H         

     10   S      28            13.0100000    0.033498726390
     10   S      29             1.9620000    0.234800801174
     10   S      30             0.4446000    0.813682957883

     11   S      31             0.1220000    1.000000000000

     12   P      32             0.7270000    1.000000000000

 TOTAL NUMBER OF BASIS SET SHELLS             =   12
 NUMBER OF CARTESIAN GAUSSIAN BASIS FUNCTIONS =   25
 NOTE: THIS RUN WILL RESTRICT THE MO VARIATION SPACE TO SPHERICAL HARMONICS.
 THE NUMBER OF ORBITALS KEPT IN THE VARIATIONAL SPACE WILL BE PRINTED LATER.
 NUMBER OF ELECTRONS                          =    9
 CHARGE OF MOLECULE                           =    1
 SPIN MULTIPLICITY                            =    2
 NUMBER OF OCCUPIED ORBITALS (ALPHA)          =    5
 NUMBER OF OCCUPIED ORBITALS (BETA )          =    4
 TOTAL NUMBER OF ATOMS                        =    3
 THE NUCLEAR REPULSION ENERGY IS        8.7578928137

     $CONTRL OPTIONS
     ---------------
 SCFTYP=MCSCF        RUNTYP=ENERGY       EXETYP=RUN     
 MPLEVL=       2     CITYP =NONE         CCTYP =NONE         VBTYP =NONE    
 DFTTYP=NONE         TDDFT =NONE    
 MULT  =       2     ICHARG=       1     NZVAR =       0     COORD =UNIQUE  
 PP    =NONE         RELWFN=NONE         LOCAL =NONE         NUMGRD=       F
 ISPHER=       1     NOSYM =       1     MAXIT =     200     UNITS =ANGS    
 PLTORB=       F     MOLPLT=       F     AIMPAC=       F     FRIEND=        
 NPRINT=       7     IREST =       0     GEOM  =INPUT   
 NORMF =       0     NORMP =       0     ITOL  =      20     ICUT  =       9
 INTTYP=RYSQUAD      GRDTYP=BEST         QMTTOL= 1.0E-05

     $SYSTEM OPTIONS
     ---------------
  REPLICATED MEMORY=   250000000 WORDS (ON EVERY NODE).
 DISTRIBUTED MEMDDI=        8000 MILLION WORDS IN AGGREGATE,
 MEMDDI DISTRIBUTED OVER   2 PROCESSORS IS  4000000000 WORDS/PROCESSOR.
 TOTAL MEMORY REQUESTED ON EACH PROCESSOR=  4250000000 WORDS.
 TIMLIM=      525600.00 MINUTES, OR     365.0 DAYS.
 PARALL= T  BALTYP=  DLB     KDIAG=    3  COREFL= F
 MXSEQ2=     300 MXSEQ3=     150  mem10=         0

          ----------------
          PROPERTIES INPUT
          ----------------

     MOMENTS            FIELD           POTENTIAL          DENSITY
 IEMOM =       1   IEFLD =       0   IEPOT =       0   IEDEN =       0
 WHERE =COMASS     WHERE =NUCLEI     WHERE =NUCLEI     WHERE =NUCLEI  
 OUTPUT=BOTH       OUTPUT=BOTH       OUTPUT=BOTH       OUTPUT=BOTH    
 IEMINT=       0   IEFINT=       0                     IEDINT=       0
                                                       MORB  =       0

     -------------------------------
     INTEGRAL TRANSFORMATION OPTIONS
     -------------------------------
     NWORD  =            0
     CUTOFF = 1.0E-09     MPTRAN =       0
     DIRTRF =       T     AOINTS =DUP     

          ----------------------
          MCSCF INPUT PARAMETERS
          ----------------------
 CONVERGER SELECTION: FOCAS = F  SOSCF = F  FULLNR = T  QUD = F  JACOBI = F
 SECULAR EQUATION METHOD CISTEP = GMCCI   
 --- GENERAL INPUT OPTIONS:
 MAXIT =     100  MICIT =       1  ACURCY= 1.000E-06
 DAMP  =   0.000  CANONC=       T  ENGTOL= 1.000E-10
 EKT   =       F  NPUNCH=       2  NWORD =         0
 REGENERATE CI AFTER CONVERGENCE = NONE    
 DIABATIZATION AFTER CONVERGENCE =        F
 --- INPUT FOR FULLNR CONVERGER:
 METHOD=DM2       FORS  =       F  DROPC =       T
 LINSER=       F  FCORE =       F  NORB  =      25

          ----------------------
          INTEGRAL INPUT OPTIONS
          ----------------------
 NOPK  =       1 NORDER=       0 SCHWRZ=       T

 ------------------------------------------
 MULTIREFERENCE PERTURBATION THEORY CONTROL
 ------------------------------------------
 MRPT=GMCPT    READ CONVERGED MCSCF VECTORS= F


     ------------------------------------------
     THE POINT GROUP IS C1 , NAXIS= 1, ORDER= 1
     ------------------------------------------

 -- VARIATIONAL SPACE WILL BE RESTRICTED TO PURE SPHERICAL HARMONICS ONLY --
 AFTER EXCLUDING CONTAMINANT COMBINATIONS FROM THE CARTESIAN GAUSSIAN BASIS
 SET, THE NUMBER OF SPHERICAL HARMONICS KEPT IN THE VARIATION SPACE IS   24

     DIMENSIONS OF THE SYMMETRY SUBSPACES ARE
 A   =   24

 ..... DONE SETTING UP THE RUN .....
 CPU     0: STEP CPU TIME=     0.06 TOTAL CPU TIME=          0.1 (      0.0 MIN)
 TOTAL WALL CLOCK TIME=          0.4 SECONDS, CPU UTILIZATION IS    14.63%

          ********************
          1 ELECTRON INTEGRALS
          ********************
 TIME TO DO   DIPOLE INTEGRALS=      0.00
 ...... END OF ONE-ELECTRON INTEGRALS ......
 CPU     0: STEP CPU TIME=     0.00 TOTAL CPU TIME=          0.1 (      0.0 MIN)
 TOTAL WALL CLOCK TIME=          0.4 SECONDS, CPU UTILIZATION IS    14.29%

          -------------
          GUESS OPTIONS
          -------------
          GUESS =MOREAD            NORB  =      24          NORDER=       1
          MIX   =       F          PRTMO =       F          PUNMO =       F
          TOLZ  = 1.0E-08          TOLE  = 1.0E-05
          SYMDEN=       F          PURIFY=       T

 INITIAL GUESS ORBITALS GENERATED BY MOREAD   ROUTINE.

 STATISTICS FOR GENERATION OF SYMMETRY ORBITAL -Q- MATRIX
 NUMBER OF CARTESIAN ATOMIC ORBITALS=         25
 NUMBER OF SPHERICAL CONTAMINANTS DROPPED=     1
 NUMBER OF LINEARLY DEPENDENT MOS DROPPED=     0
 TOTAL NUMBER OF MOS IN VARIATION SPACE=      24
 ORBITAL PURIFICATION WILL OCCUR

 SYMMETRIES FOR INITIAL GUESS ORBITALS FOLLOW.   BOTH SET(S).
     5 ORBITALS ARE OCCUPIED (    1 CORE ORBITALS).
     1=A        2=A        3=A        4=A        5=A        6=A        7=A   
     8=A        9=A       10=A       11=A       12=A       13=A       14=A   
    15=A       16=A       17=A       18=A       19=A       20=A       21=A   
    22=A       23=A       24=A   
 ...... END OF INITIAL ORBITAL SELECTION ......
 CPU     0: STEP CPU TIME=     0.01 TOTAL CPU TIME=          0.1 (      0.0 MIN)
 TOTAL WALL CLOCK TIME=          0.4 SECONDS, CPU UTILIZATION IS    16.28%

                    ----------------------
                    AO INTEGRAL TECHNOLOGY
                    ----------------------
     S,P,L SHELL ROTATED AXIS INTEGRALS, REPROGRAMMED BY
        KAZUYA ISHIMURA (IMS) AND JOSE SIERRA (SYNSTAR).
     S,P,D,L SHELL ROTATED AXIS INTEGRALS PROGRAMMED BY
        KAZUYA ISHIMURA (INSTITUTE FOR MOLECULAR SCIENCE).
     S,P,D,F,G SHELL TO TOTAL QUARTET ANGULAR MOMENTUM SUM 5,
        ERIC PROGRAM BY GRAHAM FLETCHER (ELORET AND NASA ADVANCED
        SUPERCOMPUTING DIVISION, AMES RESEARCH CENTER).
     S,P,D,F,G,L SHELL GENERAL RYS QUADRATURE PROGRAMMED BY
        MICHEL DUPUIS (PACIFIC NORTHWEST NATIONAL LABORATORY).

          --------------------
          2 ELECTRON INTEGRALS
          --------------------

 DIRECT SCF METHOD SKIPS INTEGRAL STORAGE ON DISK.
 DIRECT TRANSFORMATION SKIPS AO INTEGRAL STORAGE ON DISK.
  ...... END OF TWO-ELECTRON INTEGRALS .....
 STEP CPU TIME =     0.02 TOTAL CPU TIME =          0.1 (      0.0 MIN)
 TOTAL WALL CLOCK TIME=          0.4 SECONDS, CPU UTILIZATION IS    20.00%
 DDI: Creating Array [0] - 625 x 28 = 17500 words.
 DDI: Creating Array [1] - 17 x 196 = 3332 words.
 DDI: Creating Array [2] - 28 x 28 = 784 words.
 DDI: Creating Array [3] - 325 x 28 = 9100 words.

          -----------------
          MCSCF CALCULATION
          -----------------

 ----- NUCLEAR ENERGY ----- =         8.7578928137

     -------------------------------------------------
     GMC-PT/GMC-QDPT or general MCSCF input parameters
     -------------------------------------------------
 # of frozen core orbs. =         0 ->         0
 # of doubly occ. orbs. =         1
 # of active      orbs. =         6
 # of virtual     orbs. =        17
 # of active electrons  =         7
 # of states in CI      =         3
 Highest state in CI    =         3
 kstate =  1 1 1
 avecoe =  0.333 0.333 0.333
 State symmetry           = A           
 Assigned symmetry number = 1

 <<<Act. MO sym.: 111111

 <<<Division of 1-ext.:  0 0
 <<<Division of 2-ext.:  0 1

 *** Reference space

 Reference type: ORMAS (= Occupation restricted multiple active space)
 # of orbitals          =  6
 # of minimum electrons =  7
 # of maximum electrons =  7
 State symmetry    =    1 (input)
 2*Sz              =    1 (input)
 Spin multiplicity =    2 (input)
 Dimension of reference space =       300  (from       792 walks)

 Dimension of reference space =       300  (from       300 walks)

 <<<Ionized spaces for Ref-CI:
      0:          300 /   -1-0:          625 /  0-1-0:          690

 EVALUATING EXCHANGE INTEGRALS FOR DIRECT INTEGRAL TRANSFORMATION
 SCHWARZ INEQUALITY OVERHEAD:       325 INTEGRALS, T=        0.00

     --------------------------------------------
     PARTIAL TWO ELECTRON INTEGRAL TRANSFORMATION
     --------------------------------------------

 NUMBER OF CORE MOLECULAR ORBITALS     =    1
 NUMBER OF OCCUPIED MOLECULAR ORBITALS =    7
 TOTAL NUMBER OF MOLECULAR ORBITALS    =   24
 TOTAL NUMBER OF ATOMIC ORBITALS       =   25
 THRESHOLD FOR KEEPING TRANSFORMED 2E- INTEGRALS = 1.000E-09

 -------------------------------     ------------------------------
 DISTRIBUTED DATA TRANSFORMATION     PROGRAM WRITTEN BY G. FLETCHER
 -------------------------------     ------------------------------

 THE DISTRIBUTED MEMORY REQUIRED FOR THIS STEP IS MEMDDI=         1 MWORDS
 CREATING DISTRIBUTED STORAGE FOR [VIR OCC|VIR OCC] INTEGRALS
 CREATING DISTRIBUTED STORAGE FOR [VIR OCC|OCC OCC] INTEGRALS
 CREATING DISTRIBUTED STORAGE FOR [OCC OCC|OCC OCC] INTEGRALS
 CREATING DISTRIBUTED STORAGE FOR [VIR VIR|OCC OCC] INTEGRALS
 FOR    2 PROCESSORS, THE REPLICATED MEMORY NEEDED IS       62207 WORDS.
 SCHWARZ INEQUALITY OVERHEAD:       325 INTEGRALS, T=        0.00

      DIRECT 4-INDEX TRANSFORMATION 
      SCHWARZ INEQUALITY TEST SKIPPED          0 INTEGRAL BLOCKS
 ----- FROZEN CORE ENERGY =       -61.2149064363
 ... END OF INTEGRAL TRANSFORMATION ...
 CPU     0: STEP CPU TIME=     0.06 TOTAL CPU TIME=          0.2 (      0.0 MIN)
 TOTAL WALL CLOCK TIME=          0.6 SECONDS, CPU UTILIZATION IS    26.32%

     --------------------------------     -----------------------------
     MCHF NEWTON-RAPHSON OPTIMIZATION     CODE WRITTEN BY MICHEL DUPUIS
     --------------------------------     -----------------------------
     PARALLEL VERSION WRITTEN BY G. FLETCHER (ELORET)
     NASA ADVANCED SUPERCOMPUTING DIVISION, AMES RESEARCH CENTER

 NUMBER OF INDEPENDENT ORBITAL ROTATION PARAMETERS =    82
 ..... DONE SOLVING NEWTON-RAPHSON EQUATIONS .....
 CPU     0: STEP CPU TIME=     0.08 TOTAL CPU TIME=          0.2 (      0.0 MIN)
 TOTAL WALL CLOCK TIME=          0.7 SECONDS, CPU UTILIZATION IS    32.39%
 ..... DONE WITH NTN-RPH ORBITAL ROTATIONS ..... 
 CPU     0: STEP CPU TIME=     0.00 TOTAL CPU TIME=          0.2 (      0.0 MIN)
 TOTAL WALL CLOCK TIME=          0.7 SECONDS, CPU UTILIZATION IS    32.39%
 MAXIMUM MEMORY USED BY NTN-RPH CODE WAS     51289 WORDS.

 ITER     TOTAL ENERGY      DEL(E)  LAGRANGIAN ASYMMETRY   SQCDF  MICIT   DAMP
   1      -75.568396407 -0.568396407  0.004591   11    2 1.340E-05  1   0.0000
   2      -75.568418326 -0.000021919  0.000116   21    5 6.806E-08  1   0.0000
   3      -75.568418356 -0.000000030  0.000019   19    4 9.313E-09  1   0.0000
   4      -75.568418357 -0.000000001  0.000004   19    4 2.136E-09  1   0.0000
   5      -75.568418357 -0.000000000  0.000001   19    4 4.759E-10  1   0.0000
   6      -75.568418357 -0.000000000  0.000000   19    4 1.008E-10  1   0.0000

          --------------------
          LAGRANGIAN CONVERGED
          --------------------

 FINAL MCSCF ENERGY IS      -75.5684183571 AFTER   6 ITERATIONS

 -MCCI- BASED ON OPTIMIZED ORBITALS
 ----------------------------------

 PLEASE NOTE: IF THE ACTIVE ORBITALS ARE CANONICALIZED BELOW,
 THE FOLLOWING CI EXPANSION COEFFICIENTS AND THE DENSITY DO NOT
 CORRESPOND TO THE PRINTED ORBITALS.  THE PRINTED EXPANSIONS MATCH
 THE ORBITALS USED DURING THE LAST ITERATION.  IF YOU WISH TO SEE
 CI EXPANSIONS BASED ON THE CANONICAL (OR NATURAL) ORBITALS, YOU
 MUST RUN A CI CALCULATION WITH THAT ORBITAL CHOICE READ IN $VEC.

 Averaged energy =     -75.568418357

 State #    1  Energy =     -75.682407418  S =  0.500

      Det      Coef    Occupancy (Ignoring core)
      ---      ----    --------- --------- -----
        1   -0.986992  111100111000
      173   -0.076037  101101101001

 State #    2  Energy =     -75.593053554  S =  0.500

      Det      Coef    Occupancy (Ignoring core)
      ---      ----    --------- --------- -----
       16   -0.988917  111100110100
      203   -0.077405  101101100101

 State #    3  Energy =     -75.429794100  S =  0.500

      Det      Coef    Occupancy (Ignoring core)
      ---      ----    --------- --------- -----
       31    0.990697  111100101100

 DENSITY MATRIX OVER ACTIVE MO-S

             1           2           3           4           5

    1    1.9896315
    2   -0.0019570   1.6504687
    3    0.0069695  -0.0003331   1.6562376
    4    0.0000000  -0.0000000   0.0000000   1.6655614
    5   -0.0044128  -0.0002548   0.0149032   0.0000000   0.0184396
    6    0.0020467   0.0202377  -0.0001431   0.0000000   0.0003247

             6

    6    0.0196612

 FORMING THE "STANDARD FOCK OPERATOR" IN DIRECT AO INTEGRAL MODE...
 ONLY THE    1 CORE AND   17 VIRTUAL ORBITALS WILL BE CANONICALIZED

          ----------------------
          MCSCF NATURAL ORBITALS
          ----------------------

                      1          2          3          4          5
                  -21.0901     1.9898     1.6656     1.6562     1.6507
                     A          A          A          A          A   
    1  O  1  S    1.000779   0.015312   0.000000  -0.007416  -0.000281
    2  O  1  S   -0.003342   0.482451  -0.000000  -0.169703  -0.006504
    3  O  1  S   -0.006769   0.386774  -0.000000  -0.292330  -0.008949
    4  O  1  X    0.000001  -0.002713  -0.000000  -0.029887   0.547247
    5  O  1  Y   -0.000000  -0.000000   0.692976  -0.000000   0.000000
    6  O  1  Z    0.000426   0.092774   0.000000   0.607342   0.032876
    7  O  1  X   -0.000022   0.000671  -0.000000  -0.010955   0.219606
    8  O  1  Y    0.000000   0.000000   0.431604  -0.000000   0.000000
    9  O  1  Z   -0.000595   0.007402   0.000000   0.322378   0.019373
   10  O  1 XX    0.000040   0.002758  -0.000000  -0.007736  -0.000507
   11  O  1 YY   -0.000011  -0.004289  -0.000000  -0.009865  -0.000490
   12  O  1 ZZ   -0.000029   0.001531   0.000000   0.017601   0.000997
   13  O  1 XY   -0.000000  -0.000000  -0.000091  -0.000000  -0.000000
   14  O  1 XZ   -0.000016  -0.000221  -0.000000  -0.001351   0.022414
   15  O  1 YZ    0.000000   0.000000   0.017991  -0.000000  -0.000000
   16  H  2  S   -0.001463   0.170029   0.000000   0.179865   0.324233
   17  H  2  S    0.000498  -0.004401  -0.000000   0.021494   0.023282
   18  H  2  X    0.000688  -0.037843  -0.000000  -0.036264  -0.034121
   19  H  2  Y   -0.000000  -0.000000   0.028075  -0.000000  -0.000000
   20  H  2  Z    0.000489  -0.019039   0.000000   0.005879  -0.035483
   21  H  3  S   -0.001577   0.177433   0.000000   0.214975  -0.304427
   22  H  3  S    0.000508  -0.004822   0.000000   0.022430  -0.019565
   23  H  3  X   -0.000730   0.038762   0.000000   0.039867  -0.029663
   24  H  3  Y   -0.000000  -0.000000   0.028737  -0.000000   0.000000
   25  H  3  Z    0.000523  -0.019854   0.000000   0.002455   0.036084

                      6          7
                    0.0195     0.0182
                     A          A   
    1  O  1  S    0.044586  -0.173420
    2  O  1  S    0.150202  -0.574899
    3  O  1  S    0.036720  -0.155781
    4  O  1  X    0.841996   0.231568
    5  O  1  Y    0.000000   0.000000
    6  O  1  Z    0.192297  -0.719032
    7  O  1  X    0.022482   0.007004
    8  O  1  Y   -0.000000   0.000000
    9  O  1  Z   -0.025370   0.090835
   10  O  1 XX    0.001285  -0.006438
   11  O  1 YY    0.003470  -0.010366
   12  O  1 ZZ   -0.004756   0.016804
   13  O  1 XY    0.000000   0.000000
   14  O  1 XZ   -0.027990  -0.007094
   15  O  1 YZ    0.000000   0.000000
   16  H  2  S   -0.774574   0.425311
   17  H  2  S   -0.082795   0.028890
   18  H  2  X    0.094855  -0.095239
   19  H  2  Y    0.000000  -0.000000
   20  H  2  Z    0.048858   0.002143
   21  H  3  S    0.459466   0.771414
   22  H  3  S    0.055488   0.064370
   23  H  3  X    0.035115   0.132094
   24  H  3  Y   -0.000000  -0.000000
   25  H  3  Z   -0.043201  -0.023348

          ------------------------
          MCSCF OPTIMIZED ORBITALS
          ------------------------

                      1          2          3          4          5
                  -21.0901     0.0000     0.0000     0.0000     0.0000
                     A          A          A          A          A   
    1  O  1  S    1.000779   0.015873   0.000098  -0.008731   0.000000
    2  O  1  S   -0.003342   0.487239   0.000028  -0.165140   0.000000
    3  O  1  S   -0.006769   0.393167   0.004603  -0.285725   0.000000
    4  O  1  X    0.000001  -0.000485   0.537191  -0.000466  -0.000000
    5  O  1  Y   -0.000000  -0.000000  -0.000000   0.000000   0.692976
    6  O  1  Z    0.000426   0.081810  -0.000030   0.603225   0.000000
    7  O  1  X   -0.000022   0.001883   0.219561   0.000870   0.000000
    8  O  1  Y    0.000000   0.000000   0.000000  -0.000000   0.431604
    9  O  1  Z   -0.000595   0.000487   0.002028   0.323882   0.000000
   10  O  1 XX    0.000040   0.002934  -0.000101  -0.007752   0.000000
   11  O  1 YY   -0.000011  -0.004059   0.000058  -0.010064  -0.000000
   12  O  1 ZZ   -0.000029   0.001125   0.000043   0.017816   0.000000
   13  O  1 XY   -0.000000  -0.000000  -0.000000  -0.000000  -0.000091
   14  O  1 XZ   -0.000016  -0.000060   0.022812  -0.000147  -0.000000
   15  O  1 YZ    0.000000   0.000000  -0.000000   0.000000   0.017991
   16  H  2  S   -0.001463   0.166956   0.320894   0.206052   0.000000
   17  H  2  S    0.000498  -0.004784   0.023007   0.023064  -0.000000
   18  H  2  X    0.000688  -0.037030  -0.032712  -0.039881  -0.000000
   19  H  2  Y   -0.000000  -0.000000  -0.000000   0.000000   0.028075
   20  H  2  Z    0.000489  -0.019347  -0.036225   0.003474  -0.000000
   21  H  3  S   -0.001577   0.169375  -0.324631   0.207678  -0.000000
   22  H  3  S    0.000508  -0.005565  -0.021592   0.021678   0.000000
   23  H  3  X   -0.000730   0.037437  -0.032850   0.040094   0.000000
   24  H  3  Y   -0.000000  -0.000000   0.000000   0.000000   0.028737
   25  H  3  Z    0.000523  -0.019661   0.036607   0.003870   0.000000

                      6          7          8          9         10
                    0.0000     0.0000     0.1321     0.1702     0.6593
                     A          A          A          A          A   
    1  O  1  S    0.178922  -0.003258   0.097200   0.001328  -0.016256
    2  O  1  S    0.591551  -0.008026   0.127475   0.002558   0.098760
    3  O  1  S    0.156443  -0.005659  -0.964816  -0.003880   0.592965
    4  O  1  X    0.001274   0.879991  -0.000133   0.078609   0.010478
    5  O  1  Y   -0.000000  -0.000000   0.000000   0.000000  -0.000000
    6  O  1  Z    0.749616  -0.006388   0.192611   0.001895  -0.528345
    7  O  1  X   -0.000786   0.026264   0.007412  -0.437734  -0.054108
    8  O  1  Y   -0.000000   0.000000  -0.000000   0.000000   0.000000
    9  O  1  Z   -0.091367  -0.000230  -0.393664  -0.005410   1.079802
   10  O  1 XX    0.006470  -0.000475  -0.047480  -0.000080  -0.066180
   11  O  1 YY    0.010834   0.000577   0.056267   0.000281   0.032832
   12  O  1 ZZ   -0.017304  -0.000102  -0.008787  -0.000201   0.033348
   13  O  1 XY   -0.000000   0.000000  -0.000000   0.000000  -0.000000
   14  O  1 XZ   -0.000632  -0.028587   0.001903  -0.077211   0.001146
   15  O  1 YZ    0.000000  -0.000000   0.000000   0.000000   0.000000
   16  H  2  S   -0.615049  -0.629009  -0.396735  -0.506730  -0.696885
   17  H  2  S   -0.049708  -0.071819   0.967165   1.573847   0.045784
   18  H  2  X    0.116816   0.065585  -0.099917  -0.041478  -0.091296
   19  H  2  Y   -0.000000   0.000000  -0.000000  -0.000000   0.000000
   20  H  2  Z    0.011045   0.047194  -0.053885  -0.074474   0.242542
   21  H  3  S   -0.619419   0.644730  -0.399317   0.488840  -0.744710
   22  H  3  S   -0.047030   0.070375   1.015373  -1.549981   0.010350
   23  H  3  X   -0.117666   0.068704   0.104668  -0.041925   0.079111
   24  H  3  Y   -0.000000  -0.000000  -0.000000   0.000000   0.000000
   25  H  3  Z    0.011056  -0.047434  -0.057625   0.076310   0.237148

                     11         12         13         14         15
                    0.7330     0.7558     1.0347     1.0427     1.2653
                     A          A          A          A          A   
    1  O  1  S   -0.000782  -0.000000  -0.000000   0.282961  -0.000000
    2  O  1  S    0.001715  -0.000000  -0.000000   0.692073  -0.000000
    3  O  1  S   -0.000408  -0.000000   0.000000  -0.703498   0.000000
    4  O  1  X   -0.521854   0.000000   0.000000   0.003083  -0.000000
    5  O  1  Y   -0.000000  -0.921611   0.015824   0.000000   0.076899
    6  O  1  Z   -0.020860   0.000000   0.000000  -0.309791   0.000000
    7  O  1  X    1.772134  -0.000000  -0.000000  -0.000296   0.000000
    8  O  1  Y    0.000000   1.007693  -0.012145  -0.000000  -0.674313
    9  O  1  Z    0.030643  -0.000000  -0.000000   0.809458  -0.000000
   10  O  1 XX   -0.002387   0.000000  -0.000000   0.097075   0.000000
   11  O  1 YY    0.001591  -0.000000   0.000000   0.038030  -0.000000
   12  O  1 ZZ    0.000797  -0.000000   0.000000  -0.135106   0.000000
   13  O  1 XY    0.000000   0.001279   0.153723   0.000000  -0.000522
   14  O  1 XZ   -0.029836   0.000000   0.000000   0.000061  -0.000000
   15  O  1 YZ   -0.000000   0.004536   0.001357   0.000000   0.181955
   16  H  2  S   -0.693648   0.000000   0.000000  -0.217415  -0.000000
   17  H  2  S   -0.589787   0.000000   0.000000   0.196598  -0.000000
   18  H  2  X    0.221139   0.000000  -0.000000   0.357221   0.000000
   19  H  2  Y    0.000000   0.074929   0.677047   0.000000   0.748627
   20  H  2  Z    0.020907  -0.000000   0.000000  -0.445689   0.000000
   21  H  3  S    0.662955   0.000000   0.000000  -0.220341  -0.000000
   22  H  3  S    0.596647  -0.000000  -0.000000   0.202504  -0.000000
   23  H  3  X    0.222462  -0.000000   0.000000  -0.357040  -0.000000
   24  H  3  Y   -0.000000   0.057869  -0.671907   0.000000   0.756914
   25  H  3  Z   -0.008480  -0.000000  -0.000000  -0.447711   0.000000

                     16         17         18         19         20
                    1.4193     1.4560     1.7861     1.8124     2.7327
                     A          A          A          A          A   
    1  O  1  S   -0.704413  -0.020639  -0.006831  -0.022331  -0.000000
    2  O  1  S   -1.540471  -0.046256   0.060558  -0.116122  -0.000000
    3  O  1  S    2.587160   0.059295   1.056230  -0.964691   0.000000
    4  O  1  X   -0.007798  -0.109074   0.355585   0.387805  -0.000000
    5  O  1  Y    0.000000  -0.000000   0.000000   0.000000  -0.031101
    6  O  1  Z    0.020840   0.002262   0.273471  -0.272034  -0.000000
    7  O  1  X   -0.039439   0.984349   0.250660   0.250611  -0.000000
    8  O  1  Y   -0.000000  -0.000000   0.000000  -0.000000   0.283319
    9  O  1  Z    0.886977   0.022724   0.332334  -0.297309   0.000000
   10  O  1 XX   -0.021900   0.000523  -0.087185   0.084001  -0.000000
   11  O  1 YY    0.161132   0.004429   0.138748  -0.129222  -0.000000
   12  O  1 ZZ   -0.139232  -0.004952  -0.051563   0.045221   0.000000
   13  O  1 XY   -0.000000   0.000000   0.000000   0.000000   0.097313
   14  O  1 XZ    0.000526  -0.026915  -0.068006  -0.070567   0.000000
   15  O  1 YZ    0.000000   0.000000   0.000000  -0.000000   1.019200
   16  H  2  S   -0.718480  -0.424352  -0.333789   0.196936  -0.000000
   17  H  2  S   -0.293990  -0.121332  -0.544532  -0.127618   0.000000
   18  H  2  X    0.265164  -0.414610   1.093941  -0.039004  -0.000000
   19  H  2  Y   -0.000000  -0.000000  -0.000000  -0.000000  -0.397637
   20  H  2  Z   -0.240358   0.675147   0.786811   0.028311  -0.000000
   21  H  3  S   -0.755161   0.393380  -0.227229   0.335909  -0.000000
   22  H  3  S   -0.329964   0.108694   0.100913   0.539003   0.000000
   23  H  3  X   -0.261751  -0.425367  -0.094199   1.100173  -0.000000
   24  H  3  Y   -0.000000   0.000000   0.000000   0.000000  -0.337759
   25  H  3  Z   -0.186379  -0.693827  -0.008347  -0.795792  -0.000000

                     21         22         23         24
                    2.8063     2.9359     3.3298     3.5743
                     A          A          A          A   
    1  O  1  S   -0.000000  -0.090618  -0.227563   0.001101
    2  O  1  S   -0.000000  -0.164018  -0.371141  -0.000861
    3  O  1  S    0.000000   0.584234   2.129448  -0.097875
    4  O  1  X   -0.000000   0.000834  -0.002429   0.311230
    5  O  1  Y    0.000677   0.000000   0.000000  -0.000000
    6  O  1  Z    0.000000   0.005535   0.246837  -0.016650
    7  O  1  X    0.000000   0.012469   0.023928   1.141168
    8  O  1  Y   -0.032607  -0.000000  -0.000000   0.000000
    9  O  1  Z    0.000000   0.528157   0.854974  -0.039991
   10  O  1 XX   -0.000000  -0.606284   0.989577  -0.030575
   11  O  1 YY   -0.000000  -0.450987  -1.035339   0.036774
   12  O  1 ZZ    0.000000   1.057270   0.045762  -0.006200
   13  O  1 XY    1.045362  -0.000000  -0.000000  -0.000000
   14  O  1 XZ    0.000000   0.003567   0.036273   1.297478
   15  O  1 YZ   -0.098813  -0.000000  -0.000000   0.000000
   16  H  2  S   -0.000000  -0.304631  -1.033893  -0.859389
   17  H  2  S    0.000000  -0.050887  -0.209963  -0.285070
   18  H  2  X    0.000000   0.364508   0.615133   0.557677
   19  H  2  Y   -0.314249   0.000000  -0.000000  -0.000000
   20  H  2  Z   -0.000000  -0.280206   0.476635   0.434197
   21  H  3  S    0.000000  -0.297322  -1.017145   0.972406
   22  H  3  S   -0.000000  -0.045687  -0.195263   0.299974
   23  H  3  X   -0.000000  -0.366957  -0.581921   0.608795
   24  H  3  Y    0.396426   0.000000  -0.000000   0.000000
   25  H  3  Z    0.000000  -0.299200   0.457598  -0.466699
 .....DONE WITH MCSCF ITERATIONS.....
 CPU     0: STEP CPU TIME=     0.64 TOTAL CPU TIME=          0.9 (      0.0 MIN)
 TOTAL WALL CLOCK TIME=          2.6 SECONDS, CPU UTILIZATION IS    33.33%

     ----------------------------------------------------------------
     PROPERTY VALUES FOR THE MCSCF SELF-CONSISTENT FIELD WAVEFUNCTION
     ----------------------------------------------------------------

          -----------------
          ENERGY COMPONENTS
          -----------------

         WAVEFUNCTION NORMALIZATION =       1.0000000000

                ONE ELECTRON ENERGY =    -117.3252570370
                TWO ELECTRON ENERGY =      32.9989458663
           NUCLEAR REPULSION ENERGY =       8.7578928137
                                      ------------------
                       TOTAL ENERGY =     -75.5684183571

 ELECTRON-ELECTRON POTENTIAL ENERGY =      32.9989458663
  NUCLEUS-ELECTRON POTENTIAL ENERGY =    -192.9518778286
   NUCLEUS-NUCLEUS POTENTIAL ENERGY =       8.7578928137
                                      ------------------
             TOTAL POTENTIAL ENERGY =    -151.1950391487
               TOTAL KINETIC ENERGY =      75.6266207916
                 VIRIAL RATIO (V/T) =       1.9992303975

          ---------------------------------------
          MULLIKEN AND LOWDIN POPULATION ANALYSES
          ---------------------------------------

     ATOMIC MULLIKEN POPULATION IN EACH MOLECULAR ORBITAL

                      1          2          3          4          5

                  2.000000   1.989799   1.665561   1.656245   1.650693

    1             2.000441   1.577201   1.636420   1.444435   1.057083
    2            -0.000205   0.199408   0.014178   0.088169   0.316079
    3            -0.000236   0.213189   0.014964   0.123641   0.277531

                      6          7

                  0.019500   0.018201

    1             0.009465   0.008861
    2             0.007579   0.002289
    3             0.002456   0.007051
 WARNING! MCSCF POPULATIONS SHOWN ABOVE ARE FOR THE NATURAL ORBITALS.
 IGNORE THE ABOVE DATA FOR MCSCF FUNCTIONS WHICH ARE NOT OF -FORS- TYPE.
 THE FOLLOWING POPULATIONS ARE CORRECT FOR ANY MCSCF WAVEFUNCTION.

               ----- POPULATIONS IN EACH AO -----
                             MULLIKEN      LOWDIN
              1  O  1  S      2.00178     1.90504
              2  O  1  S      0.90605     0.63112
              3  O  1  S      0.79299     0.48040
              4  O  1  X      0.75587     0.67886
              5  O  1  Y      1.06063     1.01343
              6  O  1  Z      0.89713     0.83820
              7  O  1  X      0.30388     0.40766
              8  O  1  Y      0.57496     0.57374
              9  O  1  Z      0.43248     0.51019
             10  O  1 XX      0.00098     0.18856
             11  O  1 YY      0.00055     0.17399
             12  O  1 ZZ      0.00000     0.17873
             13  O  1 XY      0.00578     0.00000
             14  O  1 XZ      0.00083     0.01178
             15  O  1 YZ      0.00000     0.00029
             16  H  2  S      0.53976     0.43269
             17  H  2  S      0.00925     0.11798
             18  H  2  X      0.04170     0.06407
             19  H  2  Y      0.01418     0.03782
             20  H  2  Z      0.02262     0.04607
             21  H  3  S      0.55075     0.43876
             22  H  3  S      0.00730     0.11717
             23  H  3  X      0.04227     0.06538
             24  H  3  Y      0.01496     0.04028
             25  H  3  Z      0.02332     0.04780

          ----- MULLIKEN ATOMIC OVERLAP POPULATIONS -----
          (OFF-DIAGONAL ELEMENTS NEED TO BE MULTIPLIED BY 2)

             1           2           3

    1    7.1435969
    2    0.2924701   0.3388065
    3    0.2978387  -0.0037793   0.3445376

          TOTAL MULLIKEN AND LOWDIN ATOMIC POPULATIONS
       ATOM         MULL.POP.    CHARGE          LOW.POP.     CHARGE
    1 O             7.733906    0.266094         7.591997    0.408003
    2 H             0.627497    0.372503         0.698626    0.301374
    3 H             0.638597    0.361403         0.709377    0.290623

          MULLIKEN SPHERICAL HARMONIC POPULATIONS
       ATOM           S       P       D      F      G      H      I    TOTAL
    1 O             3.70    4.02    0.01   0.00   0.00   0.00   0.00    7.73
    2 H             0.55    0.08    0.00   0.00   0.00   0.00   0.00    0.63
    3 H             0.56    0.08    0.00   0.00   0.00   0.00   0.00    0.64

          ---------------------
          ELECTROSTATIC MOMENTS
          ---------------------

 POINT   1           X           Y           Z (BOHR)    CHARGE
                 0.000000   -0.000000    0.044293        1.00 (A.U.)
         DX          DY          DZ         /D/  (DEBYE)
     0.039368    0.000000    2.495411    2.495722
 ...... END OF PROPERTY EVALUATION ......
 CPU     0: STEP CPU TIME=     0.01 TOTAL CPU TIME=          0.9 (      0.0 MIN)
 TOTAL WALL CLOCK TIME=          2.6 SECONDS, CPU UTILIZATION IS    33.46%

     -------------------------------------------------
     GMC-PT/GMC-QDPT or general MCSCF input parameters
     -------------------------------------------------
 # of frozen core orbs. =         0 ->         0
 # of doubly occ. orbs. =         1
 # of active      orbs. =         6
 # of virtual     orbs. =        17
 # of active electrons  =         7
 # of states in CI      =         3
 Highest state in CI    =         3
 kstate =  1 1 1
 avecoe =  0.333 0.333 0.333
 State symmetry           = A           
 Assigned symmetry number = 1

 <<<Act. MO sym.: 111111

 <<<Division of 1-ext.:  0 0
 <<<Division of 2-ext.:  0 1

     ------------------------
     Orbital canonicalization
     ------------------------

 MOs are canonicalized for core, virtual, and invariant-active orbital spaces.
 This is a part of the GMC-QDPT calculation.
 SCHWARZ INEQUALITY OVERHEAD:       325 INTEGRALS, T=        0.01
 DIRECT TRANSFORMATION SKIPS AO INTEGRAL STORAGE ON DISK.

 Averaged energy =     -75.568418357

 State #    1  Energy =     -75.682407418  S =  0.500
 State #    2  Energy =     -75.593053554  S =  0.500
 State #    3  Energy =     -75.429794100  S =  0.500

 Orbital energies for filled orbital space
  -21.090057
 Orbital energies for active orbital space
   -1.790642  -1.075888  -0.947814  -0.885928   0.386466
    0.354033
 Orbital energies for external orbital space
    0.132128   0.170201   0.659259   0.732973   0.755767
    1.034712   1.042671   1.265265   1.419319   1.456026
    1.786108   1.812364   2.732719   2.806338   2.935879
    3.329841   3.574262

 Zero values mean non-canonical orbitals.
 ... done with orbital canonicalization ...
 CPU     0: STEP CPU TIME=     0.14 TOTAL CPU TIME=          1.0 (      0.0 MIN)
 TOTAL WALL CLOCK TIME=          2.9 SECONDS, CPU UTILIZATION IS    34.58%

     --------------------------------------------
     PARTIAL TWO ELECTRON INTEGRAL TRANSFORMATION
     --------------------------------------------

 NUMBER OF CORE MOLECULAR ORBITALS     =    0
 NUMBER OF OCCUPIED MOLECULAR ORBITALS =    7
 TOTAL NUMBER OF MOLECULAR ORBITALS    =   24
 TOTAL NUMBER OF ATOMIC ORBITALS       =   25
 THRESHOLD FOR KEEPING TRANSFORMED 2E- INTEGRALS = 1.000E-09
 AO INTEGRALS WILL BE CALCULATED IN DIRECT MODE...
 DIRECT TRANSFORMATION SKIPS AO INTEGRAL STORAGE ON DISK.
 SCHWARZ INEQUALITY OVERHEAD:       325 INTEGRALS, T=        0.00

 PLAN A: REQUIREMENTS FOR FULLY IN-MEMORY TRANSFORMATION:
 # OF WORDS AVAILABLE =            250000000
 # OF WORDS NEEDED    =               165605

 PARALLEL ONLY WORKS WITH THE SEGMENTED ALGORITHM.
 ADJUSTING MEMORY TO USE SEGMENTED ALGORITHM.


 PLAN B: REQUIREMENTS FOR THE SEGMENTED TRANSFORMATION:
       MINIMUM=         116855 WORDS FOR 1 MOLECULAR ORBITAL PER PASS
       MAXIMUM=         141230 WORDS FOR ALL MOLECULAR ORBITALS IN 1 PASS
              (           8125 EXTRA WORDS INCLUDES 1 EXTRA ORBITAL/PASS)
 THIS RUN USES=         141230 WORDS,
 DISTRIBUTING   2 PASSES EACH CONTAINING     4 ORBITALS OVER   2 PROCESSORS.

 CHOOSING SEGMENTED PARTIAL TRANSFORMATION...
 DIRECT TRANSFORMATION SKIPS AO INTEGRAL STORAGE ON DISK.
 PASS #   1 TOOK        0.06 SECONDS.
 ASSIGNING PASS #   2 TO A DIFFERENT PROCESSOR.
 TOTAL NUMBER OF TRANSFORMED 2E- INTEGRALS KEPT =         8542
 ... END OF INTEGRAL TRANSFORMATION ...
 CPU     0: STEP CPU TIME=     0.06 TOTAL CPU TIME=          1.1 (      0.0 MIN)
 TOTAL WALL CLOCK TIME=          3.0 SECONDS, CPU UTILIZATION IS    35.88%

     --------     ------------------------------------------
     GMC-QDPT     Program written by H.Nakano (Kyushu Univ.)
     --------     ------------------------------------------

 *** Reference space

 Reference type: ORMAS (= Occupation restricted multiple active space)
 # of orbitals          =  6
 # of minimum electrons =  7
 # of maximum electrons =  7
 State symmetry    =    1 (input)
 2*Sz              =    1 (input)
 Spin multiplicity =    2 (input)
 Dimension of reference space =       300  (from       792 walks)

 Dimension of reference space =       300  (from       300 walks)

 <<<Ionized spaces for Ref-CI:
      0:          300 /   -1-0:          625 /  0-1-0:          690

 ***                    ***
 *** Reference space CI ***
 ***                    ***

 Reference wavefunctions:

 State #    1  Energy =     -75.682407418  S =  0.500

      Det      Coef    Occupancy (Ignoring core)
      ---      ----    --------- --------- -----
        1   -0.986994  111100111000
      173   -0.070730  101101101001

 State #    2  Energy =     -75.593053554  S =  0.500

      Det      Coef    Occupancy (Ignoring core)
      ---      ----    --------- --------- -----
       16   -0.988903  111100110100
      203   -0.072023  101101100101

 State #    3  Energy =     -75.429794100  S =  0.500

      Det      Coef    Occupancy (Ignoring core)
      ---      ----    --------- --------- -----
       31   -0.990693  111100101100

 Diagonalization: CPU/Wall time =           0.05 /           0.08 sec.

 Oscillator strength (invalid if E(1)/=E(GS)):
 -----------------------------------------
   State                        f
 -----------------------------------------
     2     F(REF-CI)=        0.0016075307
     3     F(REF-CI)=        0.0000040298
 -----------------------------------------

 Dipole moment matrix elements, x, y, z, in A.U.

 Dimension of ionized spaces for PT:
 (N-2) space:          690 /  (N-1) space:          886 /  N space:          690
 (N+1) space:          480 /  (N+2) space:          200

 <<<Ionized spaces for internal:
         0:          300 /      -1-0:          625 /     0-1-0:          690
  -1-0-1-0:          886 / 0-1-0-1-0:          786

 Diagonal elements of averaged one-particle density matrix:
       2       3       4       5       6       7
  0.9962  0.9901  0.9932  0.9988  0.0102  0.0115
  0.9934  0.6604  0.6630  0.6668  0.0082  0.0083

 Orbital energies:
 -------- Doubly-occupied orbitals (highest several orbs.) -------
             1
 -2.109006D+01
 -------- Active orbitals ----------------------------------------
             2            3            4            5            6
 -1.790642D+00-1.075888D+00-9.478136D-01-8.859279D-01 3.864658D-01
             7
  3.540330D-01
 -------- External orbitals (lowest several orbs.) ---------------
             8            9           10           11           12
  1.321284D-01 1.702010D-01 6.592590D-01 7.329735D-01 7.557674D-01
            13           14           15           16           17
  1.034712D+00 1.042671D+00 1.265265D+00 1.419319D+00 1.456026D+00

 *** Quasi-degeneracy checking

 === Det (|Ci| > 1.0D-01 and dE < 5.0D-03)

 # of small denominators (single excitations)
 State       dEmin  dE < 5.0D-03  dE < 5.0D-04  dE < 5.0D-05  dE < 5.0D-06
 ----- ----------- ------------- ------------- ------------- -------------
     1    5.00D-03             0             0             0             0
     2    5.00D-03             0             0             0             0
     3    5.00D-03             0             0             0             0

 # of small denominators (double excitations)
 State       dEmin  dE < 5.0D-03  dE < 5.0D-04  dE < 5.0D-05  dE < 5.0D-06
 ----- ----------- ------------- ------------- ------------- -------------
     1    5.00D-03             0             0             0             0
     2    5.00D-03             0             0             0             0
     3    5.00D-03             0             0             0             0

 *** Zeroth-Order Setup (Granovsky's zeroth-order vectors)
 Zeroth-order effective Hamiltonian
  (= Sum_i e(i)*<I|a+(i)a(i)|J> ):
                   1            2            3
     1 -8.441481D+00
     2  1.012449D-10-8.392402D+00
     3  7.239300D-11 1.468740D-03-8.275332D+00

 Zeroth-order vectors:
 State #    1
       MC st            1           2           3
       Coeff    1.000D+00  -2.050D-09  -4.176D-10
 State #    2
       MC st            2           3           1
       Coeff   -9.999D-01   1.254D-02  -2.045D-09
 State #    3
       MC st            3           2           1
       Coeff    9.999D-01   1.254D-02   4.433D-10

 *** GMC-QDPT computation

 (Integral reading:  CPU/Wall time =           0.00 /           0.00 sec.)

 One-external:
   0 -ionized terms: CPU/Wall time =           0.01 /           0.01 sec.
 (-1)-ionized terms: CPU/Wall time =           0.01 /           0.01 sec.
 (+1)-ionized terms: CPU/Wall time =           0.00 /           0.00 sec.
 (+1)-ionized terms: CPU/Wall time =           0.01 /           0.00 sec.
 (+2)-ionized terms: CPU/Wall time =           0.00 /           0.00 sec.

 Internal:
 # of macro loops for internal contribution =         1 (input)
 Loop:    1
 Dimension of internal CISD space     =         0  (after screening)
 Space construction: CPU/Wall time =           0.00 /           0.02 sec.
 Internal terms:     CPU/Wall time =           0.00 /           0.00 sec.

 Two-external:
   0 -ionized terms: CPU/Wall time =           0.01 /           0.00 sec.
 (-1)-ionized terms: CPU/Wall time =           0.04 /           0.10 sec.
 (-2)-ionized terms: CPU/Wall time =           0.04 /           0.04 sec.

 Total time:         CPU/Wall time =           0.12 /           0.18 sec.

 ***                  ***
 *** GMC-QDPT Results ***
 ***                  ***

 Diagonal elements of effective Hamiltonian:
 Heff(  1) =   -75.80237668
 Heff(  2) =   -75.72294153
 Heff(  3) =   -75.56677497

 Off-diagonal elements of effective Hamiltonian:
                   1            2
     2  2.636439D-10
     3 -9.590491D-11 1.962891D-03

 ******** GMC-QDPT energies ********
 ----------------------------------------------------------------------------
   State                        1st order                           2nd order
 ----------------------------------------------------------------------------
     1     E(REF-CI)=      -75.6824074177   E(GMC-QDPT2)=      -75.8023766751
     2     E(REF-CI)=      -75.5930535541   E(GMC-QDPT2)=      -75.7229662016
     3     E(REF-CI)=      -75.4297940995   E(GMC-QDPT2)=      -75.5667502984
 ----------------------------------------------------------------------------

 Excitation energies (invalid if E(1)/=E(GS)):
 ----------------------------------------------------------------------------
   State                        1st order                           2nd order
 ----------------------------------------------------------------------------

     TZ Sorted GMC-PT ENERGIES:
         1      -75.8023766751
         2      -75.7229662016
         3      -75.5667502984
     2     E(REF-CI)=        2.4314437 eV   E(GMC-QDPT2)=        2.1608702 eV
     3     E(REF-CI)=        6.8739620 eV   E(GMC-QDPT2)=        6.4117236 eV
 ----------------------------------------------------------------------------

 Main characters of perturbed GMC-QDPT states:

 State #    1  Energy =     -75.802376675  S =  0.500

      Det      Coef    Occupancy (Ignoring core)
      ---      ----    --------- --------- -----
        1   -0.986994  111100111000
      173   -0.070730  101101101001

 State #    2  Energy =     -75.722966202  S =  0.500

      Det      Coef    Occupancy (Ignoring core)
      ---      ----    --------- --------- -----
       16   -0.988902  111100110100
      203   -0.072023  101101100101

 State #    3  Energy =     -75.566750298  S =  0.500

      Det      Coef    Occupancy (Ignoring core)
      ---      ----    --------- --------- -----
       31   -0.990692  111100101100

 <<<Max |V/de| = 4.654D-02  Thresh = 1.000D+00

 Oscillator strength (invalid if E(1)/=E(GS)):
 ----------------------------------------------------------------------------
   State                        1st order                           2nd order
 ----------------------------------------------------------------------------
     2     F(REF-CI)=        0.0016075307     F(GMC-PT2)=        0.0014286450
     3     F(REF-CI)=        0.0000040298     F(GMC-PT2)=        0.0000037529
 ----------------------------------------------------------------------------

 Dipole moment matrix elements, x, y, z, in A.U.
States    1    1        0.0007712662       -0.0000000015        0.2679976592
States    1    2       -0.0000000000       -0.1642740250       -0.0000000007
States    1    3        0.0000000028       -0.0048878633       -0.0000000000
States    2    1       -0.0000000000       -0.1642740250       -0.0000000007
States    2    2       -0.0022254999        0.0000000003        0.4544394148
States    2    3        0.1238616255        0.0000000000        0.0068475680
States    3    1        0.0000000028       -0.0048878633       -0.0000000000
States    3    2        0.1238616255        0.0000000000        0.0068475680
States    3    3       -0.0072111337       -0.0000000003        0.0450177626

 Oscillator strength (valid only when positive): 
 ----------------------------------------------------------------------------
  States                        1st order                           2nd order
 ----------------------------------------------------------------------------
  1  1     F(REF-CI)=        0.0000000000     F(GMC-PT2)=        0.0000000000
  1  2     F(REF-CI)=       -0.0016075307     F(GMC-PT2)=       -0.0014286450
  1  3     F(REF-CI)=       -0.0000040298     F(GMC-PT2)=       -0.0000037529
  2  1     F(REF-CI)=        0.0016075307     F(GMC-PT2)=        0.0014286450
  2  2     F(REF-CI)=        0.0000000000     F(GMC-PT2)=        0.0000000000
  2  3     F(REF-CI)=       -0.0016749061     F(GMC-PT2)=       -0.0016026285
  3  1     F(REF-CI)=        0.0000040298     F(GMC-PT2)=        0.0000037529
  3  2     F(REF-CI)=        0.0016749061     F(GMC-PT2)=        0.0016026285
  3  3     F(REF-CI)=        0.0000000000     F(GMC-PT2)=        0.0000000000
 CPU     0: STEP CPU TIME=     0.20 TOTAL CPU TIME=          1.3 (      0.0 MIN)
 TOTAL WALL CLOCK TIME=          3.4 SECONDS, CPU UTILIZATION IS    37.65%

     !!! DIABATIZATION FOR REF CI STATES !!!

 *******************************************************
          $DMO GROUP FOUND IN THE INPUT.
        DIABATIZATION OF ADIABATIC STATES BEGINS.
     PROGRAMMED BY TAO ZENG (CARLETON UNIVERSITY).
               Email: toby.zeng@carleton.ca
     See T. Zeng, J. Chem. Phys. 2017, 146, 144103
 *******************************************************

 *************************************************************************
     STEP 1: TRANSFORMATION OF ADIABATIC STATES TO THE DMO REPRESENTATION
         See Atchity and Ruedenberg, J. Chem. Phys. 1999, 111, 2910
 *************************************************************************

Read in Diabatic Molecualr Orbitals:

                      1          2          3          4          5

    1  O  1  S    0.015878  -0.000000  -0.008727   0.000000   0.178914
    2  O  1  S    0.487244  -0.000000  -0.165140   0.000000   0.591558
    3  O  1  S    0.393189  -0.000000  -0.285720   0.000000   0.156384
    4  O  1  X    0.000000   0.537196  -0.000000   0.000000   0.000000
    5  O  1  Y    0.000000  -0.000000  -0.000000   0.692976   0.000000
    6  O  1  Z    0.081813  -0.000000   0.603221   0.000000   0.749592
    7  O  1  X    0.000000   0.219567  -0.000000   0.000000   0.000000
    8  O  1  Y    0.000000  -0.000000  -0.000000   0.431611   0.000000
    9  O  1  Z    0.000497  -0.000000   0.323888   0.000000  -0.091342
   10  O  1 XX    0.002930  -0.000000  -0.007755   0.000000   0.006467
   11  O  1 YY   -0.004055  -0.000000  -0.010061   0.000000   0.010826
   12  O  1 ZZ    0.001125  -0.000000   0.017816   0.000000  -0.017293
   13  O  1 XY    0.000000  -0.000000  -0.000000   0.000000   0.000000
   14  O  1 XZ    0.000000   0.022805  -0.000000   0.000000   0.000000
   15  O  1 YZ    0.000000  -0.000000  -0.000000   0.017991   0.000000
   16  H  2  S    0.168156   0.322747   0.206861   0.000000  -0.617218
   17  H  2  S   -0.005178   0.022298   0.022370   0.000000  -0.048357
   18  H  2  X   -0.037236  -0.032785  -0.039991   0.000000   0.117245
   19  H  2  Y    0.000000  -0.000000  -0.000000   0.028405   0.000000
   20  H  2  Z   -0.019504  -0.036419   0.003670   0.000000   0.011059
   21  H  3  S    0.168156  -0.322747   0.206861   0.000000  -0.617218
   22  H  3  S   -0.005178  -0.022298   0.022370   0.000000  -0.048357
   23  H  3  X    0.037236  -0.032785   0.039991   0.000000  -0.117245
   24  H  3  Y    0.000000  -0.000000  -0.000000   0.028405   0.000000
   25  H  3  Z   -0.019504   0.036419   0.003670   0.000000   0.011059

                      6

    1  O  1  S   -0.000000
    2  O  1  S   -0.000000
    3  O  1  S   -0.000000
    4  O  1  X   -0.879968
    5  O  1  Y   -0.000000
    6  O  1  Z   -0.000000
    7  O  1  X   -0.026245
    8  O  1  Y   -0.000000
    9  O  1  Z   -0.000000
   10  O  1 XX   -0.000000
   11  O  1 YY   -0.000000
   12  O  1 ZZ   -0.000000
   13  O  1 XY   -0.000000
   14  O  1 XZ    0.028582
   15  O  1 YZ   -0.000000
   16  H  2  S    0.636798
   17  H  2  S    0.071096
   18  H  2  X   -0.067134
   19  H  2  Y   -0.000000
   20  H  2  Z   -0.047320
   21  H  3  S   -0.636798
   22  H  3  S   -0.071096
   23  H  3  X   -0.067134
   24  H  3  Y   -0.000000
   25  H  3  Z    0.047320

NUMBER OF SUB ACTIVE SPACES:   1
ROTATE ACTIVE MOS TO DMOS IN EACH SUB-SPACE

SPACE  1:

OVERLAP BETWEEN ORTHONORMAL AND PRE-ORTHONORMAL REF. DMOS

             1           2           3           4           5

    1    0.9999982  -0.0017065   0.0000006  -0.0000000  -0.0000107
    2   -0.0017065   0.9999906   0.0000496   0.0000000  -0.0009836
    3    0.0000006   0.0000496   0.9999943  -0.0000000   0.0000147
    4   -0.0000000   0.0000000  -0.0000000   1.0000014   0.0000000
    5   -0.0000107  -0.0009836   0.0000147   0.0000000   0.9999659
    6   -0.0025498  -0.0000084   0.0009622   0.0000000  -0.0048075

             6

    1   -0.0025498
    2   -0.0000084
    3    0.0009622
    4    0.0000000
    5   -0.0048075
    6    0.9999974
REFERENCE DMOS AFTER ORTHONORMALIZATION:

                      1          2          3          4          5

    1  O  1  S    0.015883   0.000204  -0.008731  -0.000000   0.178925
    2  O  1  S    0.487264   0.001422  -0.165154  -0.000000   0.591608
    3  O  1  S    0.393198   0.000839  -0.285726  -0.000000   0.156408
    4  O  1  X   -0.001327   0.537188   0.000820   0.000000  -0.003702
    5  O  1  Y   -0.000000  -0.000000   0.000000   0.692975  -0.000000
    6  O  1  Z    0.081831   0.000847   0.603210  -0.000000   0.749626
    7  O  1  X    0.000308   0.219569   0.000014  -0.000000   0.000090
    8  O  1  Y   -0.000000  -0.000000   0.000000   0.431610  -0.000000
    9  O  1  Z    0.000493  -0.000105   0.323892   0.000000  -0.091354
   10  O  1 XX    0.002930   0.000012  -0.007756  -0.000000   0.006467
   11  O  1 YY   -0.004054   0.000004  -0.010061  -0.000000   0.010827
   12  O  1 ZZ    0.001124  -0.000016   0.017816   0.000000  -0.017295
   13  O  1 XY    0.000000   0.000000   0.000000   0.000000   0.000000
   14  O  1 XZ    0.000112   0.022806  -0.000029  -0.000000   0.000160
   15  O  1 YZ   -0.000000  -0.000000   0.000000   0.017991  -0.000000
   16  H  2  S    0.170317   0.322431   0.206245   0.000000  -0.613874
   17  H  2  S   -0.004960   0.022242   0.022302   0.000000  -0.047997
   18  H  2  X   -0.037460  -0.032733  -0.039927  -0.000000   0.116896
   19  H  2  Y   -0.000000  -0.000000   0.000000   0.028405  -0.000000
   20  H  2  Z   -0.019687  -0.036443   0.003717  -0.000000   0.010796
   21  H  3  S    0.165968  -0.323092   0.207503   0.000000  -0.620633
   22  H  3  S   -0.005399  -0.022357   0.022441   0.000000  -0.048724
   23  H  3  X    0.037006  -0.032840   0.040060   0.000000  -0.117606
   24  H  3  Y   -0.000000  -0.000000   0.000000   0.028405  -0.000000
   25  H  3  Z   -0.019321   0.036398   0.003622  -0.000000   0.011322

                      6

    1  O  1  S    0.000909
    2  O  1  S    0.004246
    3  O  1  S    0.002029
    4  O  1  X   -0.879988
    5  O  1  Y   -0.000000
    6  O  1  Z    0.003232
    7  O  1  X   -0.026242
    8  O  1  Y   -0.000000
    9  O  1  Z   -0.000750
   10  O  1 XX    0.000046
   11  O  1 YY    0.000051
   12  O  1 ZZ   -0.000097
   13  O  1 XY    0.000000
   14  O  1 XZ    0.028584
   15  O  1 YZ   -0.000000
   16  H  2  S    0.634087
   17  H  2  S    0.070832
   18  H  2  X   -0.066630
   19  H  2  Y   -0.000000
   20  H  2  Z   -0.047322
   21  H  3  S   -0.639562
   22  H  3  S   -0.071366
   23  H  3  X   -0.067644
   24  H  3  Y   -0.000000
   25  H  3  Z    0.047322

 -------------------------------------------
       MAXIMIZING MORMO OVERLAP TERM        
 -------------------------------------------
   SWEEP    VALUE       PROGRESS
     0     5.77266
     1     5.99998     0.22732337
     2     5.99998     0.00000070
     3     5.99998     0.00000000
     4     5.99998     0.00000000
 THE ROTATION IS DONE
FLIPPING SIGN FOR ORBITAL   6
ACTIVE ORBITALS AFTER MORMO:

                      1          2          3          4          5

    1  O  1  S    0.015882   0.000247  -0.008736   0.000000   0.178935
    2  O  1  S    0.487257  -0.000214  -0.165153   0.000000   0.591575
    3  O  1  S    0.393187   0.004100  -0.285732  -0.000000   0.156455
    4  O  1  X   -0.001812   0.537176   0.000407   0.000000  -0.003486
    5  O  1  Y   -0.000000  -0.000000  -0.000000   0.692976  -0.000000
    6  O  1  Z    0.081827   0.000538   0.603211   0.000000   0.749645
    7  O  1  X    0.002191   0.219556   0.000906   0.000000  -0.001128
    8  O  1  Y   -0.000000   0.000000  -0.000000   0.431604  -0.000000
    9  O  1  Z    0.000491   0.001922   0.323883   0.000000  -0.091362
   10  O  1 XX    0.002935  -0.000099  -0.007753  -0.000000   0.006473
   11  O  1 YY   -0.004060   0.000076  -0.010063  -0.000000   0.010831
   12  O  1 ZZ    0.001125   0.000023   0.017816   0.000000  -0.017304
   13  O  1 XY   -0.000000  -0.000000  -0.000000  -0.000091  -0.000000
   14  O  1 XZ    0.000052   0.022812  -0.000174  -0.000000  -0.000517
   15  O  1 YZ    0.000000  -0.000000  -0.000000   0.017991  -0.000000
   16  H  2  S    0.169107   0.320004   0.205469   0.000000  -0.612332
   17  H  2  S   -0.004561   0.022967   0.022996  -0.000000  -0.049384
   18  H  2  X   -0.037253  -0.032533  -0.039821  -0.000000   0.116532
   19  H  2  Y   -0.000000  -0.000000  -0.000000   0.028075  -0.000000
   20  H  2  Z   -0.019529  -0.036182   0.003517   0.000000   0.010854
   21  H  3  S    0.167176  -0.325551   0.208289   0.000000  -0.622190
   22  H  3  S   -0.005781  -0.021631   0.021745   0.000000  -0.047346
   23  H  3  X    0.037206  -0.033033   0.040160   0.000000  -0.117963
   24  H  3  Y   -0.000000   0.000000  -0.000000   0.028737  -0.000000
   25  H  3  Z   -0.019477   0.036652   0.003826   0.000000   0.011249

                      6

    1  O  1  S    0.002349
    2  O  1  S    0.003781
    3  O  1  S    0.003629
    4  O  1  X   -0.879993
    5  O  1  Y    0.000000
    6  O  1  Z    0.003156
    7  O  1  X   -0.026268
    8  O  1  Y   -0.000000
    9  O  1  Z    0.000979
   10  O  1 XX    0.000429
   11  O  1 YY   -0.000629
   12  O  1 ZZ    0.000199
   13  O  1 XY   -0.000000
   14  O  1 XZ    0.028589
   15  O  1 YZ    0.000000
   16  H  2  S    0.631724
   17  H  2  S    0.072091
   18  H  2  X   -0.066089
   19  H  2  Y   -0.000000
   20  H  2  Z   -0.047193
   21  H  3  S   -0.641969
   22  H  3  S   -0.070112
   23  H  3  X   -0.068193
   24  H  3  Y    0.000000
   25  H  3  Z    0.047433

Actually Used Diabatic Molecualr Orbitals:

                      1          2          3          4          5

    1  O  1  S    0.015882   0.000247  -0.008736   0.000000   0.178935
    2  O  1  S    0.487257  -0.000214  -0.165153   0.000000   0.591575
    3  O  1  S    0.393187   0.004100  -0.285732  -0.000000   0.156455
    4  O  1  X   -0.001812   0.537176   0.000407   0.000000  -0.003486
    5  O  1  Y   -0.000000  -0.000000  -0.000000   0.692976  -0.000000
    6  O  1  Z    0.081827   0.000538   0.603211   0.000000   0.749645
    7  O  1  X    0.002191   0.219556   0.000906   0.000000  -0.001128
    8  O  1  Y   -0.000000   0.000000  -0.000000   0.431604  -0.000000
    9  O  1  Z    0.000491   0.001922   0.323883   0.000000  -0.091362
   10  O  1 XX    0.002935  -0.000099  -0.007753  -0.000000   0.006473
   11  O  1 YY   -0.004060   0.000076  -0.010063  -0.000000   0.010831
   12  O  1 ZZ    0.001125   0.000023   0.017816   0.000000  -0.017304
   13  O  1 XY   -0.000000  -0.000000  -0.000000  -0.000091  -0.000000
   14  O  1 XZ    0.000052   0.022812  -0.000174  -0.000000  -0.000517
   15  O  1 YZ    0.000000  -0.000000  -0.000000   0.017991  -0.000000
   16  H  2  S    0.169107   0.320004   0.205469   0.000000  -0.612332
   17  H  2  S   -0.004561   0.022967   0.022996  -0.000000  -0.049384
   18  H  2  X   -0.037253  -0.032533  -0.039821  -0.000000   0.116532
   19  H  2  Y   -0.000000  -0.000000  -0.000000   0.028075  -0.000000
   20  H  2  Z   -0.019529  -0.036182   0.003517   0.000000   0.010854
   21  H  3  S    0.167176  -0.325551   0.208289   0.000000  -0.622190
   22  H  3  S   -0.005781  -0.021631   0.021745   0.000000  -0.047346
   23  H  3  X    0.037206  -0.033033   0.040160   0.000000  -0.117963
   24  H  3  Y   -0.000000   0.000000  -0.000000   0.028737  -0.000000
   25  H  3  Z   -0.019477   0.036652   0.003826   0.000000   0.011249

                      6

    1  O  1  S    0.002349
    2  O  1  S    0.003781
    3  O  1  S    0.003629
    4  O  1  X   -0.879993
    5  O  1  Y    0.000000
    6  O  1  Z    0.003156
    7  O  1  X   -0.026268
    8  O  1  Y   -0.000000
    9  O  1  Z    0.000979
   10  O  1 XX    0.000429
   11  O  1 YY   -0.000629
   12  O  1 ZZ    0.000199
   13  O  1 XY   -0.000000
   14  O  1 XZ    0.028589
   15  O  1 YZ    0.000000
   16  H  2  S    0.631724
   17  H  2  S    0.072091
   18  H  2  X   -0.066089
   19  H  2  Y   -0.000000
   20  H  2  Z   -0.047193
   21  H  3  S   -0.641969
   22  H  3  S   -0.070112
   23  H  3  X   -0.068193
   24  H  3  Y    0.000000
   25  H  3  Z    0.047433

     ------------------------------------------------
        ADIABATIC STATES IN TRANSFORMED ORBITALS:
      !! USE Coefp TO PREPARE DIABATIC REFERENCES !!
     ------------------------------------------------

 State #    1  Energy =     -75.682407418  S =  0.500

      Det      Coef        Coefp    Occupancy (Ignoring core)
      ---      ----        ----    --------- --------- -----
        1    0.986978   -0.986978  222+00
      173   -0.076043   -0.076043  202+02
      168   -0.042977   -0.042977  2+-++-
       63   -0.041784   -0.041784  220+20
       68   -0.041395   -0.041395  2-++-+
        8   -0.036478    0.036478  2-2+0+
       47   -0.032886    0.032886  +22-+0
       98    0.032845   -0.032845  +-2+-+
       93    0.032543   -0.032543  +2-+20
       65   -0.030979   -0.030979  -2++20
      170    0.030909   -0.030909  -+2++-
       95   -0.030545   -0.030545  022+20
       79   -0.029042   -0.029042  202+20
       36    0.026655    0.026655  2+2-0+
        3    0.026596    0.026596  22-++0
      157   -0.026215   -0.026215  220+02
      154    0.022896   -0.022896  2-+++-
       82    0.022379   -0.022379  2+-+-+
      184   -0.020511   -0.020511  +-2++-
       84   -0.020195   -0.020195  -+2+-+
      241    0.020032    0.020032  2+++--

 State #    2  Energy =     -75.593053554  S =  0.500

      Det      Coef        Coefp    Occupancy (Ignoring core)
      ---      ----        ----    --------- --------- -----
       16   -0.988904   -0.988904  22+200
      203    0.077410   -0.077410  20+202
      198    0.042328   -0.042328  2+02+-
       46    0.037871    0.037871  +22200
       18   -0.036157    0.036157  2202+0
       53    0.035423   -0.035423  +-220+
      200   -0.034458   -0.034458  -++2+-
      128   -0.033009   -0.033009  +-+2-+
      123   -0.032091   -0.032091  +20220
      125    0.031599   -0.031599  02+220
      109    0.028215   -0.028215  20+220
       23    0.024819    0.024819  2-+20+
      112   -0.021692   -0.021692  2+02-+
       28   -0.020636    0.020636  2-02++
      214    0.020084   -0.020084  +-+2+-

 State #    3  Energy =     -75.429794100  S =  0.500

      Det      Coef        Coefp    Occupancy (Ignoring core)
      ---      ----        ----    --------- --------- -----
       31    0.990672   -0.990672  2+2200
      113    0.047846    0.047846  20+2-+
      108   -0.047179    0.047179  2+0220
       52   -0.046759   -0.046759  +2-20+
      143    0.032055   -0.032055  +022-+
      110    0.032052    0.032052  -++220
      138   -0.031242   -0.031242  ++-220
      140   -0.030965   -0.030965  0+2220
      202   -0.028834    0.028834  2+0202
        6   -0.028395    0.028395  22200+
       33    0.027751   -0.027751  2+-2+0
       43   -0.027530    0.027530  20-2++
      211    0.025695   -0.025695  +2+20-
       19   -0.024181   -0.024181  2-+2+0
       24    0.021064   -0.021064  -2+20+
      199   -0.020316    0.020316  20+2+-
      234   -0.020101   -0.020101  0+2202

         ----------------------------------------------------
          Transformation matrix between Active CMOs and DMOs
                    Row for CMO and Column for DMO
         ----------------------------------------------------

             1           2           3           4           5

    1    0.9999691  -0.0070100   0.0000364  -0.0000000   0.0000005
    2    0.0070097   0.9998831  -0.0135337   0.0000000  -0.0012525
    3    0.0000619   0.0135336   0.9999079   0.0000000   0.0000013
    4   -0.0000000   0.0000000   0.0000000   1.0000000   0.0000000
    5    0.0012022   0.0011891  -0.0003466   0.0000000   0.9415851
    6   -0.0033366   0.0003939   0.0009149   0.0000000   0.3367727

             6

    1   -0.0035463
    2   -0.0000677
    3    0.0009774
    4   -0.0000000
    5    0.3367706
    6   -0.9415795

     $REFDET GROUP FOUND

 *************************************************************************
     STEP 2: DIABATIZATION USING CONFIGURATION UNIFORMITY
  See Atchity and Ruedenberg, Theor. Chem. Acc. 1997, 97, 47
 *************************************************************************

READ-IN LIST OF DIABATIC PROTOTYPES:

     THE SAME NUMBER OF PROTOTYPE GROUPS & ADIABATS

     THE ADIABS SHOULD HAVE FULLY COVER THE PROTOTYPES

 Approximated Overlap Matrix for truncated adiabats:
   0.9978156410  -0.0000000000  -0.0000000000
  -0.0000000000   0.9967598477   0.0000074370
  -0.0000000000   0.0000074370   0.9978256495


 -------------------------------------------
   - DIABATIC HAMILTONIAN MATRIX ELEMENTS - 
 -------------------------------------------
                                            
 --- DIABATIC ENERGIES (DIAGONAL ELEMENT) ---       HARTREE            EV
 STATE #  1'S GMC-CI-LEVEL DIABATIC ENERGY=     -75.682407418       0.000000000
 STATE #  2'S GMC-CI-LEVEL DIABATIC ENERGY=     -75.593048337       2.431584426
 STATE #  3'S GMC-CI-LEVEL DIABATIC ENERGY=     -75.429799316       6.873816555

 --- DIABATIC COUPLINGS (OFF DIAGONAL ELEMENTS)---  HATREE            EV
 STATE #  1 &  2'S GMC-CI-LEVEL COUPLING  =       0.000000002       0.000000052
 STATE #  1 &  3'S GMC-CI-LEVEL COUPLING  =       0.000000001       0.000000037
 STATE #  2 &  3'S GMC-CI-LEVEL COUPLING  =       0.000922848       0.025111979

 ---------------------------------------
     - ROTATION TO DIABATIC STATES -    
 ---------------------------------------
 ROWS=ADIABATIC, COLUMNS=DIABATIC STATES

             1           2           3

    1    1.0000000   0.0000000   0.0000000
    2   -0.0000000   0.9999840  -0.0056527
    3   -0.0000000   0.0056527   0.9999840

 ---------------------------------------
          - DIABATIC STATES -           
 ---------------------------------------

 State #    1  Energy =     -75.682407418

      Det      Coef        Coefp    Occupancy (Ignoring core)
      ---      ----        ----    --------- --------- -----
        1    0.986978   -0.986978  222+00
      173   -0.076043   -0.076043  202+02
      168   -0.042977   -0.042977  2+-++-
       63   -0.041784   -0.041784  220+20
       68   -0.041395   -0.041395  2-++-+
        8   -0.036478    0.036478  2-2+0+
       47   -0.032886    0.032886  +22-+0
       98    0.032845   -0.032845  +-2+-+
       93    0.032543   -0.032543  +2-+20
       65   -0.030979   -0.030979  -2++20
      170    0.030909   -0.030909  -+2++-
       95   -0.030545   -0.030545  022+20
       79   -0.029042   -0.029042  202+20
       36    0.026655    0.026655  2+2-0+
        3    0.026596    0.026596  22-++0
      157   -0.026215   -0.026215  220+02
      154    0.022896   -0.022896  2-+++-
       82    0.022379   -0.022379  2+-+-+
      184   -0.020511   -0.020511  +-2++-
       84   -0.020195   -0.020195  -+2+-+
      241    0.020032    0.020032  2+++--

 State #    2  Energy =     -75.593048337

      Det      Coef        Coefp    Occupancy (Ignoring core)
      ---      ----        ----    --------- --------- -----
       16   -0.988917   -0.988917  22+200
      203    0.077414   -0.077414  20+202
      198    0.042330   -0.042330  2+02+-
       46    0.037910    0.037910  +22200
       18   -0.036161    0.036161  2202+0
       53    0.035423   -0.035423  +-220+
      200   -0.034459   -0.034459  -++2+-
      128   -0.033012   -0.033012  +-+2-+
      123   -0.032093   -0.032093  +20220
      125    0.031601   -0.031601  02+220
      109    0.028218   -0.028218  20+220
       23    0.024825    0.024825  2-+20+
      112   -0.021695   -0.021695  2+02-+
       28   -0.020635    0.020635  2-02++
      214    0.020085   -0.020085  +-+2+-

 State #    3  Energy =     -75.429799316

      Det      Coef        Coefp    Occupancy (Ignoring core)
      ---      ----        ----    --------- --------- -----
       31    0.990688   -0.990688  2+2200
      113    0.047843    0.047843  20+2-+
      108   -0.047178    0.047178  2+0220
       52   -0.046759   -0.046759  +2-20+
      143    0.032056   -0.032056  +022-+
      110    0.032051    0.032051  -++220
      138   -0.031243   -0.031243  ++-220
      140   -0.030965   -0.030965  0+2220
      202   -0.028832    0.028832  2+0202
        6   -0.028396    0.028396  22200+
       33    0.027751   -0.027751  2+-2+0
       43   -0.027530    0.027530  20-2++
      211    0.025715   -0.025715  +2+20-
       19   -0.024187   -0.024187  2-+2+0
       24    0.021045   -0.021045  -2+20+
      199   -0.020313    0.020313  20+2+-
      234   -0.020101   -0.020101  0+2202

 ---------------------------------------
      - DIABATIC STATES IN CMO -        
 ---------------------------------------

 State #    1  Energy =     -75.682407418

      Det      Coef        Coefp    Occupancy (Ignoring core)
      ---      ----        ----    --------- --------- -----
        1    0.986994   -0.986994  222+00
      173   -0.070730   -0.070730  202+02
       63   -0.039277   -0.039277  220+20
      168    0.035343    0.035343  2+-++-
        8    0.034400   -0.034400  2-2+0+
       79   -0.034328   -0.034328  202+20
       68    0.033881    0.033881  2-++-+
       47   -0.030952    0.030952  +22-+0
       95   -0.029004   -0.029004  022+20
      157   -0.028757   -0.028757  220+02
       93    0.028598   -0.028598  +2-+20
       65   -0.027213   -0.027213  -2++20
       98   -0.026778    0.026778  +-2+-+
       36   -0.025260   -0.025260  2+2-0+
      170   -0.025104    0.025104  -+2++-
        3    0.024709    0.024709  22-++0
      172    0.021751    0.021751  2+-+02
      158   -0.021398    0.021398  2-++02
       78   -0.020230   -0.020230  2+-+20
      241   -0.020032   -0.020032  2+++--

 State #    2  Energy =     -75.593048337

[...]
      200    0.028483    0.028483  -++2+-
      123   -0.028145   -0.028145  +20220
      128    0.026945    0.026945  +-+2-+
       23   -0.023118   -0.023118  2-+20+
      202   -0.021708    0.021708  2+0202
       28    0.020635   -0.020635  2-02++

 State #    3  Energy =     -75.566755249

      Det      Coef        Coefp    Occupancy (Ignoring core)
      ---      ----        ----    --------- --------- -----
       31    0.990631   -0.990631  2+2200
      108   -0.044534    0.044534  2+0220
       52    0.044159    0.044159  +2-20+
      113   -0.040079   -0.040079  20+2-+
      202   -0.031486    0.031486  2+0202
      140   -0.029820   -0.029820  0+2220
      110    0.028225    0.028225  -++220
       43    0.027523   -0.027523  20-2++
        6    0.027050   -0.027050  22200+
      138   -0.026996   -0.026996  ++-220
      143   -0.026397    0.026397  +022-+
       33    0.025641   -0.025641  2+-2+0
      211   -0.024297    0.024297  +2+20-
       19   -0.022303   -0.022303  2-+2+0
      109   -0.021643    0.021643  20+220
      203    0.021631   -0.021631  20+202
      234   -0.021256   -0.021256  0+2202

 ---------------------------------------
    -DIABATIC STATES IN PROTOTYPES-     
 ---------------------------------------

     STATE:    1
 Group Ref#    Coefficients
     1    1    0.998907
     2    2   -0.000000
     3    3   -0.000000

WEIGHT OF LISTED PROTOTYPES:   99.78%

     STATE:    2
 Group Ref#    Coefficients
     1    1   -0.000000
     2    2    0.998379
     3    3    0.000007

WEIGHT OF LISTED PROTOTYPES:   99.68%

     STATE:    3
 Group Ref#    Coefficients
     1    1   -0.000000
     2    2    0.000007
     3    3    0.998912

WEIGHT OF LISTED PROTOTYPES:   99.78%

 --------------------------------------------------
 IN DIRECT MAX. DIABATIZATION FOR GMC-QDPT

 DIRECT MAXIMIZATION (DM) WITHOUT TRUNCATING ADIABATS
 EXPANSIONS INTO THE REFERENCE CONFIGURATION SPACE
 --------------------------------------------------

 -------------------------------------------
 - DM DIABT PT HAMILTONIAN MATRIX ELEMENTS -
 -------------------------------------------
                                            
 --- DIABATIC ENERGIES (DIAGONAL ELEMENT) ---       HARTREE            EV
 STATE #  1'S GMC-PT-LEVEL DIABATIC ENERGY=     -75.802376675       0.000000000
 STATE #  2'S GMC-PT-LEVEL DIABATIC ENERGY=     -75.722961251       2.161003758
 STATE #  3'S GMC-PT-LEVEL DIABATIC ENERGY=     -75.566755249       6.411585578

 --- DIABATIC COUPLINGS (OFF DIAGONAL ELEMENTS)---  HATREE            EV
 STATE #  1 &  2'S GMC-PT-LEVEL COUPLING  =       0.000000002       0.000000042
 STATE #  1 &  3'S GMC-PT-LEVEL COUPLING  =       0.000000001       0.000000037
 STATE #  2 &  3'S GMC-PT-LEVEL COUPLING  =       0.000879390       0.023929409

 ---------------------------------------
     - ROTATION TO DIABATIC STATES -    
 ---------------------------------------
 ROWS=ADIABATIC, COLUMNS=DIABATIC STATES

             1           2           3

    1    1.0000000   0.0000000   0.0000000
    2   -0.0000000   0.9999842  -0.0056294
    3   -0.0000000   0.0056294   0.9999842

 ---------------------------------------
          - DIABATIC STATES -           
 ---------------------------------------

 State #    1  Energy =     -75.802376675

      Det      Coef        Coefp    Occupancy (Ignoring core)
      ---      ----        ----    --------- --------- -----
        1    0.986978   -0.986978  222+00
      173   -0.076043   -0.076043  202+02
      168   -0.042977   -0.042977  2+-++-
       63   -0.041784   -0.041784  220+20
       68   -0.041395   -0.041395  2-++-+
        8   -0.036478    0.036478  2-2+0+
       47   -0.032886    0.032886  +22-+0
       98    0.032845   -0.032845  +-2+-+
       93    0.032543   -0.032543  +2-+20
       65   -0.030979   -0.030979  -2++20
      170    0.030909   -0.030909  -+2++-
       95   -0.030545   -0.030545  022+20
       79   -0.029042   -0.029042  202+20
       36    0.026655    0.026655  2+2-0+
        3    0.026596    0.026596  22-++0
      157   -0.026215   -0.026215  220+02
      154    0.022896   -0.022896  2-+++-
       82    0.022379   -0.022379  2+-+-+
      184   -0.020511   -0.020511  +-2++-
       84   -0.020195   -0.020195  -+2+-+
      241    0.020032    0.020032  2+++--

 State #    2  Energy =     -75.722961251

      Det      Coef        Coefp    Occupancy (Ignoring core)
      ---      ----        ----    --------- --------- -----
       16   -0.988917   -0.988917  22+200
      203    0.077414   -0.077414  20+202
      198    0.042330   -0.042330  2+02+-
       46    0.037910    0.037910  +22200
       18   -0.036161    0.036161  2202+0
       53    0.035423   -0.035423  +-220+
      200   -0.034459   -0.034459  -++2+-
      128   -0.033012   -0.033012  +-+2-+
      123   -0.032093   -0.032093  +20220
      125    0.031601   -0.031601  02+220
      109    0.028218   -0.028218  20+220
       23    0.024825    0.024825  2-+20+
      112   -0.021695   -0.021695  2+02-+
       28   -0.020635    0.020635  2-02++
      214    0.020085   -0.020085  +-+2+-

 State #    3  Energy =     -75.566755249

      Det      Coef        Coefp    Occupancy (Ignoring core)
      ---      ----        ----    --------- --------- -----
       31    0.990688   -0.990688  2+2200
      113    0.047843    0.047843  20+2-+
      108   -0.047178    0.047178  2+0220
       52   -0.046759   -0.046759  +2-20+
      143    0.032056   -0.032056  +022-+
      110    0.032051    0.032051  -++220
      138   -0.031243   -0.031243  ++-220
      140   -0.030965   -0.030965  0+2220
      202   -0.028832    0.028832  2+0202
        6   -0.028396    0.028396  22200+
       33    0.027751   -0.027751  2+-2+0
       43   -0.027530    0.027530  20-2++
      211    0.025715   -0.025715  +2+20-
       19   -0.024187   -0.024187  2-+2+0
       24    0.021045   -0.021045  -2+20+
      199   -0.020313    0.020313  20+2+-
      234   -0.020101   -0.020101  0+2202

 ---------------------------------------
      - DIABATIC STATES IN CMO -        
 ---------------------------------------

 State #    1  Energy =     -75.802376675

      Det      Coef        Coefp    Occupancy (Ignoring core)
      ---      ----        ----    --------- --------- -----
        1    0.986994   -0.986994  222+00
      173   -0.070730   -0.070730  202+02
       63   -0.039277   -0.039277  220+20
      168    0.035343    0.035343  2+-++-
        8    0.034400   -0.034400  2-2+0+
       79   -0.034328   -0.034328  202+20
       68    0.033881    0.033881  2-++-+
       47   -0.030952    0.030952  +22-+0
       95   -0.029004   -0.029004  022+20
      157   -0.028757   -0.028757  220+02
       93    0.028598   -0.028598  +2-+20
       65   -0.027213   -0.027213  -2++20
       98   -0.026778    0.026778  +-2+-+
       36   -0.025260   -0.025260  2+2-0+
      170   -0.025104    0.025104  -+2++-
        3    0.024709    0.024709  22-++0
      172    0.021751    0.021751  2+-+02
      158   -0.021398    0.021398  2-++02
       78   -0.020230   -0.020230  2+-+20
      241   -0.020032   -0.020032  2+++--

 State #    2  Energy =     -75.722961251

      Det      Coef        Coefp    Occupancy (Ignoring core)
      ---      ----        ----    --------- --------- -----
       16   -0.988840   -0.988840  22+200
      203    0.072146   -0.072146  20+202
       46    0.037875    0.037875  +22200
      198   -0.034913    0.034913  2+02+-
       18   -0.033631    0.033631  2202+0
      109    0.033470   -0.033470  20+220
       53   -0.033303    0.033303  +-220+
      125    0.030168   -0.030168  02+220
      200    0.028483    0.028483  -++2+-
      123   -0.028145   -0.028145  +20220
      128    0.026945    0.026945  +-+2-+
       23   -0.023118   -0.023118  2-+20+
      202   -0.021708    0.021708  2+0202
       28    0.020635   -0.020635  2-02++

 State #    3  Energy =     -75.566755249

      Det      Coef        Coefp    Occupancy (Ignoring core)
      ---      ----        ----    --------- --------- -----
       31    0.990631   -0.990631  2+2200
      108   -0.044534    0.044534  2+0220
       52    0.044159    0.044159  +2-20+
      113   -0.040079   -0.040079  20+2-+
      202   -0.031486    0.031486  2+0202
      140   -0.029820   -0.029820  0+2220
      110    0.028225    0.028225  -++220
       43    0.027523   -0.027523  20-2++
        6    0.027050   -0.027050  22200+
      138   -0.026996   -0.026996  ++-220
      143   -0.026397    0.026397  +022-+
       33    0.025641   -0.025641  2+-2+0
      211   -0.024297    0.024297  +2+20-
       19   -0.022303   -0.022303  2-+2+0
      109   -0.021643    0.021643  20+220
      203    0.021631   -0.021631  20+202
      234   -0.021256   -0.021256  0+2202

 ---------------------------------------
    -DIABATIC STATES IN PROTOTYPES-     
 ---------------------------------------

     STATE:    1
 Group Ref#    Coefficients
     1    1    0.998907
     2    2   -0.000000
     3    3   -0.000000

WEIGHT OF LISTED PROTOTYPES:   99.78%

     STATE:    2
 Group Ref#    Coefficients
     1    1   -0.000000
     2    2    0.998379
     3    3    0.000007

WEIGHT OF LISTED PROTOTYPES:   99.68%

     STATE:    3
 Group Ref#    Coefficients
     1    1   -0.000000
     2    2    0.000007
     3    3    0.998912

WEIGHT OF LISTED PROTOTYPES:   99.78%

     DIRECT MAX. DIABATIZATION FINISHED    
 CPU     0: STEP CPU TIME=     0.06 TOTAL CPU TIME=          1.3 (      0.0 MIN)
 TOTAL WALL CLOCK TIME=          3.5 SECONDS, CPU UTILIZATION IS    38.40%

DIABATS FOR SPIN-ORBIT CALCULATION ARE READY

TRANSITION DIPOLES BETWEEN ADIABATS (in A.U.):

STATE PAIR      X         Y         Z
    1    1  0.000771 -0.000000  0.267998
    2    1 -0.000000 -0.164274 -0.000000
    2    2 -0.002225  0.000000  0.454439
    3    1  0.000000 -0.004888 -0.000000
    3    2  0.123862  0.000000  0.006848
    3    3 -0.007211 -0.000000  0.045018


TRANSITION DIPOLES BETWEEN DIABATS (in A.U.):

STATE PAIR      X         Y         Z
    1    1  0.000771  0.000000  0.267998
    2    1 -0.000000 -0.164299 -0.000000
    2    2 -0.000831 -0.000000  0.454504
    3    1  0.000000 -0.003963  0.000000
    3    2  0.123826 -0.000000  0.004542
    3    3 -0.008605 -0.000000  0.044954

TRANSITION DIPOLES BETWEEN DIRECT MAX. DIABATS (in A.U.):

STATE PAIR      X         Y         Z
    1    1  0.000771  0.000000  0.267998
    2    1 -0.000000 -0.164299 -0.000000
    2    2 -0.000831 -0.000000  0.454504
    3    1  0.000000 -0.003963  0.000000
    3    2  0.123826 -0.000000  0.004542
    3    3 -0.008605 -0.000000  0.044954
 No $TRANST Group Found.
 Quit without doing spin-orbit coupling
 ..... DONE WITH MP2 ENERGY .....
 CPU     0: STEP CPU TIME=     0.01 TOTAL CPU TIME=          1.4 (      0.0 MIN)
 TOTAL WALL CLOCK TIME=          3.5 SECONDS, CPU UTILIZATION IS    38.68%
            250000000  WORDS OF DYNAMIC MEMORY USED
 EXECUTION OF GAMESS TERMINATED NORMALLY Thu Jan 25 17:20:27 2024
 DDI: 386504 bytes (0.4 MB / 0 MWords) used by master data server.
Note: The following floating-point exceptions are signalling: IEEE_DENORMAL

 ----------------------------------------
 CPU timing information for all processes
 ========================================
 0: 1.192 + 0.160 = 1.352
 1: 1.108 + 0.98 = 1.206
 ----------------------------------------
Note: The following floating-point exceptions are signalling: IEEE_DENORMAL
 ddikick.x: exited gracefully.
unset echo
----- accounting info -----
Files used on the master node io003 were:
-rwxr-xr-x 1 bjb2chen nooijen   16390 Jan 25 17:20 /home/bjb2chen/gmsscr//H2Ocat_cct_gmcpt_C1_3st_diab_mode9_+0.05x2.F05*
-rw-r--r-- 1 bjb2chen nooijen  182424 Jan 25 17:20 /home/bjb2chen/gmsscr//H2Ocat_cct_gmcpt_C1_3st_diab_mode9_+0.05x2.F09
-rw-r--r-- 1 bjb2chen nooijen  180016 Jan 25 17:20 /home/bjb2chen/gmsscr//H2Ocat_cct_gmcpt_C1_3st_diab_mode9_+0.05x2.F09.001
-rw-r--r-- 1 bjb2chen nooijen 1995920 Jan 25 17:20 /home/bjb2chen/gmsscr//H2Ocat_cct_gmcpt_C1_3st_diab_mode9_+0.05x2.F10
-rw-r--r-- 1 bjb2chen nooijen   40312 Jan 25 17:20 /home/bjb2chen/gmsscr//H2Ocat_cct_gmcpt_C1_3st_diab_mode9_+0.05x2.F13
-rw-r--r-- 1 bjb2chen nooijen   40312 Jan 25 17:20 /home/bjb2chen/gmsscr//H2Ocat_cct_gmcpt_C1_3st_diab_mode9_+0.05x2.F13.001
-rw-r--r-- 1 bjb2chen nooijen  180248 Jan 25 17:20 /home/bjb2chen/gmsscr//H2Ocat_cct_gmcpt_C1_3st_diab_mode9_+0.05x2.F15
-rw-r--r-- 1 bjb2chen nooijen       0 Jan 25 17:20 /home/bjb2chen/gmsscr//H2Ocat_cct_gmcpt_C1_3st_diab_mode9_+0.05x2.F16
-rw-r--r-- 1 bjb2chen nooijen    2408 Jan 25 17:20 /home/bjb2chen/gmsscr//H2Ocat_cct_gmcpt_C1_3st_diab_mode9_+0.05x2.F70
-rw-r--r-- 1 bjb2chen nooijen    2408 Jan 25 17:20 /home/bjb2chen/gmsscr//H2Ocat_cct_gmcpt_C1_3st_diab_mode9_+0.05x2.F70.001
-rw-r--r-- 1 bjb2chen nooijen    2408 Jan 25 17:20 /home/bjb2chen/gmsscr//H2Ocat_cct_gmcpt_C1_3st_diab_mode9_+0.05x2.F71
-rw-r--r-- 1 bjb2chen nooijen    2408 Jan 25 17:20 /home/bjb2chen/gmsscr//H2Ocat_cct_gmcpt_C1_3st_diab_mode9_+0.05x2.F71.001
-rw-r--r-- 1 bjb2chen nooijen    4808 Jan 25 17:20 /home/bjb2chen/gmsscr//H2Ocat_cct_gmcpt_C1_3st_diab_mode9_+0.05x2.F72
-rw-r--r-- 1 bjb2chen nooijen    4808 Jan 25 17:20 /home/bjb2chen/gmsscr//H2Ocat_cct_gmcpt_C1_3st_diab_mode9_+0.05x2.F72.001
-rw-r--r-- 1 bjb2chen nooijen    4808 Jan 25 17:20 /home/bjb2chen/gmsscr//H2Ocat_cct_gmcpt_C1_3st_diab_mode9_+0.05x2.F73
-rw-r--r-- 1 bjb2chen nooijen    4808 Jan 25 17:20 /home/bjb2chen/gmsscr//H2Ocat_cct_gmcpt_C1_3st_diab_mode9_+0.05x2.F73.001
-rw-r--r-- 1 bjb2chen nooijen  184824 Jan 25 17:20 /home/bjb2chen/gmsscr//H2Ocat_cct_gmcpt_C1_3st_diab_mode9_+0.05x2.F74
-rw-r--r-- 1 bjb2chen nooijen  184824 Jan 25 17:20 /home/bjb2chen/gmsscr//H2Ocat_cct_gmcpt_C1_3st_diab_mode9_+0.05x2.F74.001
-rw-r--r-- 1 bjb2chen nooijen  720024 Jan 25 17:20 /home/bjb2chen/gmsscr//H2Ocat_cct_gmcpt_C1_3st_diab_mode9_+0.05x2.F75
-rw-r--r-- 1 bjb2chen nooijen  720024 Jan 25 17:20 /home/bjb2chen/gmsscr//H2Ocat_cct_gmcpt_C1_3st_diab_mode9_+0.05x2.F75.001
-rw-r--r-- 1 bjb2chen nooijen   14448 Jan 25 17:20 /home/bjb2chen/gmsscr//H2Ocat_cct_gmcpt_C1_3st_diab_mode9_+0.05x2.F76
-rw-r--r-- 1 bjb2chen nooijen   14448 Jan 25 17:20 /home/bjb2chen/gmsscr//H2Ocat_cct_gmcpt_C1_3st_diab_mode9_+0.05x2.F76.001
-rw-r--r-- 1 bjb2chen nooijen       0 Jan 25 17:20 /home/bjb2chen/gmsscr//H2Ocat_cct_gmcpt_C1_3st_diab_mode9_+0.05x2.F77
-rw-r--r-- 1 bjb2chen nooijen       0 Jan 25 17:20 /home/bjb2chen/gmsscr//H2Ocat_cct_gmcpt_C1_3st_diab_mode9_+0.05x2.F77.001
-rw-r--r-- 1 bjb2chen nooijen    1544 Jan 25 17:20 /home/bjb2chen/gmsscr//H2Ocat_cct_gmcpt_C1_3st_diab_mode9_+0.05x2.F78
-rw-r--r-- 1 bjb2chen nooijen    1544 Jan 25 17:20 /home/bjb2chen/gmsscr//H2Ocat_cct_gmcpt_C1_3st_diab_mode9_+0.05x2.F78.001
-rw-r--r-- 1 bjb2chen nooijen    9608 Jan 25 17:20 /home/bjb2chen/gmsscr//H2Ocat_cct_gmcpt_C1_3st_diab_mode9_+0.05x2.F79
-rw-r--r-- 1 bjb2chen nooijen    9608 Jan 25 17:20 /home/bjb2chen/gmsscr//H2Ocat_cct_gmcpt_C1_3st_diab_mode9_+0.05x2.F79.001
-rw-r--r-- 1 bjb2chen nooijen     104 Jan 25 17:20 /home/bjb2chen/gmsscr//H2Ocat_cct_gmcpt_C1_3st_diab_mode9_+0.05x2.F80
-rw-r--r-- 1 bjb2chen nooijen     104 Jan 25 17:20 /home/bjb2chen/gmsscr//H2Ocat_cct_gmcpt_C1_3st_diab_mode9_+0.05x2.F80.001
-rw-r--r-- 1 bjb2chen nooijen    9232 Jan 25 17:20 /home/bjb2chen/gmsscr//H2Ocat_cct_gmcpt_C1_3st_diab_mode9_+0.05x2.F81
-rw-r--r-- 1 bjb2chen nooijen    9232 Jan 25 17:20 /home/bjb2chen/gmsscr//H2Ocat_cct_gmcpt_C1_3st_diab_mode9_+0.05x2.F81.001
-rw-r--r-- 1 bjb2chen nooijen      16 Jan 25 17:20 /home/bjb2chen/gmsscr//H2Ocat_cct_gmcpt_C1_3st_diab_mode9_+0.05x2.F82
-rw-r--r-- 1 bjb2chen nooijen      16 Jan 25 17:20 /home/bjb2chen/gmsscr//H2Ocat_cct_gmcpt_C1_3st_diab_mode9_+0.05x2.F82.001
-rw-r--r-- 1 bjb2chen nooijen   10376 Jan 25 17:20 /home/bjb2chen/gmsscr//H2Ocat_cct_gmcpt_C1_3st_diab_mode9_+0.05x2.F83
-rw-r--r-- 1 bjb2chen nooijen   10376 Jan 25 17:20 /home/bjb2chen/gmsscr//H2Ocat_cct_gmcpt_C1_3st_diab_mode9_+0.05x2.F83.001
-rw-r--r-- 1 bjb2chen nooijen   18832 Jan 25 17:20 /home/bjb2chen/gmsscr//H2Ocat_cct_gmcpt_C1_3st_diab_mode9_+0.05x2.F84
-rw-r--r-- 1 bjb2chen nooijen   18832 Jan 25 17:20 /home/bjb2chen/gmsscr//H2Ocat_cct_gmcpt_C1_3st_diab_mode9_+0.05x2.F84.001
-rw-r--r-- 1 bjb2chen nooijen  126160 Jan 25 17:20 /home/bjb2chen/gmsscr//H2Ocat_cct_gmcpt_C1_3st_diab_mode9_+0.05x2.F85
-rw-r--r-- 1 bjb2chen nooijen  126160 Jan 25 17:20 /home/bjb2chen/gmsscr//H2Ocat_cct_gmcpt_C1_3st_diab_mode9_+0.05x2.F85.001
-rw-r--r-- 1 bjb2chen nooijen  128760 Jan 25 17:20 /home/bjb2chen/gmsscr//H2Ocat_cct_gmcpt_C1_3st_diab_mode9_+0.05x2.F86
-rw-r--r-- 1 bjb2chen nooijen  118232 Jan 25 17:20 /home/bjb2chen/gmsscr//H2Ocat_cct_gmcpt_C1_3st_diab_mode9_+0.05x2.F86.001
-rw-r--r-- 1 bjb2chen nooijen     656 Jan 25 17:20 /home/bjb2chen/gmsscr//H2Ocat_cct_gmcpt_C1_3st_diab_mode9_+0.05x2.F87
-rw-r--r-- 1 bjb2chen nooijen     656 Jan 25 17:20 /home/bjb2chen/gmsscr//H2Ocat_cct_gmcpt_C1_3st_diab_mode9_+0.05x2.F87.001
-rw-r--r-- 1 bjb2chen nooijen    8336 Jan 25 17:20 /home/bjb2chen/gmsscr//H2Ocat_cct_gmcpt_C1_3st_diab_mode9_+0.05x2.F88
-rw-r--r-- 1 bjb2chen nooijen    8336 Jan 25 17:20 /home/bjb2chen/gmsscr//H2Ocat_cct_gmcpt_C1_3st_diab_mode9_+0.05x2.F88.001
-rw-r--r-- 1 bjb2chen nooijen     200 Jan 25 17:20 /home/bjb2chen/gmsscr//H2Ocat_cct_gmcpt_C1_3st_diab_mode9_+0.05x2.F89
-rw-r--r-- 1 bjb2chen nooijen     200 Jan 25 17:20 /home/bjb2chen/gmsscr//H2Ocat_cct_gmcpt_C1_3st_diab_mode9_+0.05x2.F89.001
-rw-r--r-- 1 bjb2chen nooijen       0 Jan 25 17:20 /home/bjb2chen/gmsscr//H2Ocat_cct_gmcpt_C1_3st_diab_mode9_+0.05x2.F90
-rw-r--r-- 1 bjb2chen nooijen       0 Jan 25 17:20 /home/bjb2chen/gmsscr//H2Ocat_cct_gmcpt_C1_3st_diab_mode9_+0.05x2.F90.001
-rw-r--r-- 1 bjb2chen nooijen    5560 Jan 25 17:20 /home/bjb2chen/gmsscr//H2Ocat_cct_gmcpt_C1_3st_diab_mode9_+0.05x2.F91
-rw-r--r-- 1 bjb2chen nooijen    5560 Jan 25 17:20 /home/bjb2chen/gmsscr//H2Ocat_cct_gmcpt_C1_3st_diab_mode9_+0.05x2.F91.001
-rw-r--r-- 1 bjb2chen nooijen    7128 Jan 25 17:20 /home/bjb2chen/gmsscr//H2Ocat_cct_gmcpt_C1_3st_diab_mode9_+0.05x2.F92
-rw-r--r-- 1 bjb2chen nooijen    7128 Jan 25 17:20 /home/bjb2chen/gmsscr//H2Ocat_cct_gmcpt_C1_3st_diab_mode9_+0.05x2.F92.001
-rw-r--r-- 1 bjb2chen nooijen    5560 Jan 25 17:20 /home/bjb2chen/gmsscr//H2Ocat_cct_gmcpt_C1_3st_diab_mode9_+0.05x2.F93
-rw-r--r-- 1 bjb2chen nooijen    5560 Jan 25 17:20 /home/bjb2chen/gmsscr//H2Ocat_cct_gmcpt_C1_3st_diab_mode9_+0.05x2.F93.001
-rw-r--r-- 1 bjb2chen nooijen    3880 Jan 25 17:20 /home/bjb2chen/gmsscr//H2Ocat_cct_gmcpt_C1_3st_diab_mode9_+0.05x2.F94
-rw-r--r-- 1 bjb2chen nooijen    3880 Jan 25 17:20 /home/bjb2chen/gmsscr//H2Ocat_cct_gmcpt_C1_3st_diab_mode9_+0.05x2.F94.001
-rw-r--r-- 1 bjb2chen nooijen    1640 Jan 25 17:20 /home/bjb2chen/gmsscr//H2Ocat_cct_gmcpt_C1_3st_diab_mode9_+0.05x2.F95
-rw-r--r-- 1 bjb2chen nooijen    1640 Jan 25 17:20 /home/bjb2chen/gmsscr//H2Ocat_cct_gmcpt_C1_3st_diab_mode9_+0.05x2.F95.001
-rw-r--r-- 1 bjb2chen nooijen    7240 Jan 25 17:20 /home/bjb2chen/gmsscr//H2Ocat_cct_gmcpt_C1_3st_diab_mode9_+0.05x2.F96
-rw-r--r-- 1 bjb2chen nooijen    7240 Jan 25 17:20 /home/bjb2chen/gmsscr//H2Ocat_cct_gmcpt_C1_3st_diab_mode9_+0.05x2.F96.001
-rw-r--r-- 1 bjb2chen nooijen     872 Jan 25 17:20 /home/bjb2chen/gmsscr//H2Ocat_cct_gmcpt_C1_3st_diab_mode9_+0.05x2.F97
-rw-r--r-- 1 bjb2chen nooijen     872 Jan 25 17:20 /home/bjb2chen/gmsscr//H2Ocat_cct_gmcpt_C1_3st_diab_mode9_+0.05x2.F97.001
-rw-r--r-- 1 bjb2chen nooijen    2408 Jan 25 17:20 /home/bjb2chen/gmsscr//H2Ocat_cct_gmcpt_C1_3st_diab_mode9_+0.05x2.F98
-rw-r--r-- 1 bjb2chen nooijen    2408 Jan 25 17:20 /home/bjb2chen/gmsscr//H2Ocat_cct_gmcpt_C1_3st_diab_mode9_+0.05x2.F98.001
-rw-r--r-- 1 bjb2chen nooijen    6024 Jan 25 17:20 /home/bjb2chen/gmsscr//H2Ocat_cct_gmcpt_C1_3st_diab_mode9_+0.05x2.F99
-rw-r--r-- 1 bjb2chen nooijen    6024 Jan 25 17:20 /home/bjb2chen/gmsscr//H2Ocat_cct_gmcpt_C1_3st_diab_mode9_+0.05x2.F99.001
ls: No match.
ls: No match.
ls: No match.
Thu 25 Jan 2024 05:20:34 PM EST
0.412u 0.162s 0:10.92 5.2%	0+0k 40+248io 0pf+0w
