----- GAMESS execution script 'rungms' -----
This job is running on host io002
under operating system Linux at Thu 25 Jan 2024 05:20:23 PM EST
Available scratch disk space (Kbyte units) at beginning of the job is
Filesystem             1K-blocks       Used Available Use% Mounted on
helmholtz.nlogn:/home 6391504896 5248412672 820954112  87% /home
GAMESS temporary binary files will be written to /home/bjb2chen/gmsscr/
GAMESS supplementary output files will be written to /home/bjb2chen/gamess/vibronics/template_examples/H2O
Copying input file H2Ocat_cct_gmcpt_C1_3st_diab_mode8_-0.05_mode7_+0.05.inp to your run's scratch directory...
cp H2Ocat_cct_gmcpt_C1_3st_diab_mode8_-0.05_mode7_+0.05.inp /home/bjb2chen/gmsscr//H2Ocat_cct_gmcpt_C1_3st_diab_mode8_-0.05_mode7_+0.05.F05
unset echo
 
Assuming a single but multicore node.
 
/home/bjb2chen/gamess/ddikick.x /home/bjb2chen/gamess/gamess.00.x H2Ocat_cct_gmcpt_C1_3st_diab_mode8_-0.05_mode7_+0.05 -ddi 1 2 io002:cpus=2 -scr /home/bjb2chen/gmsscr/

 Distributed Data Interface kickoff program.
 Initiating 2 compute processes on 1 nodes to run the following command:
 /home/bjb2chen/gamess/gamess.00.x H2Ocat_cct_gmcpt_C1_3st_diab_mode8_-0.05_mode7_+0.05 

          ******************************************************
          *         GAMESS VERSION = 02 AUG 2018 (R2)         *
          *             FROM IOWA STATE UNIVERSITY             *
          * M.W.SCHMIDT, K.K.BALDRIDGE, J.A.BOATZ, S.T.ELBERT, *
          *   M.S.GORDON, J.H.JENSEN, S.KOSEKI, N.MATSUNAGA,   *
          *          K.A.NGUYEN, S.J.SU, T.L.WINDUS,           *
          *       TOGETHER WITH M.DUPUIS, J.A.MONTGOMERY       *
          *         J.COMPUT.CHEM.  14, 1347-1363(1993)        *
          **************** 64 BIT LINUX VERSION ****************

  SINCE 1993, STUDENTS AND POSTDOCS WORKING AT IOWA STATE UNIVERSITY
  AND ALSO IN THEIR VARIOUS JOBS AFTER LEAVING ISU HAVE MADE IMPORTANT
  CONTRIBUTIONS TO THE CODE:
     IVANA ADAMOVIC, CHRISTINE AIKENS, YURI ALEXEEV, POOJA ARORA,
     ANDREY ASADCHEV, ROB BELL, PRADIPTA BANDYOPADHYAY, JONATHAN BENTZ,
     BRETT BODE, KURT BRORSEN, CALEB CARLIN, GALINA CHABAN, WEI CHEN,
     CHEOL HO CHOI, PAUL DAY, ALBERT DEFUSCO, NUWAN DESILVA, TIM DUDLEY,
     DMITRI FEDOROV, ALEX FINDLATER, GRAHAM FLETCHER, MARK FREITAG,
     KURT GLAESEMANN, ANASTASIA GUININA,
     DAN KEMP, GRANT MERRILL, NORIYUKI MINEZAWA, JONATHAN MULLIN,
     TAKESHI NAGATA, SEAN NEDD, HEATHER NETZLOFF, BOSILJKA NJEGIC, RYAN OLSON,
     MIKE PAK, BUU PHAM,
     SPENCER PRUITT, LUKE ROSKOP, JIM SHOEMAKER, LYUDMILA SLIPCHENKO,
     TONY SMITH, SAROM SOK LEANG, JIE SONG, TETSUYA TAKETSUGU, SIMON WEBB,
     PENG XU, SOOHAENG YOO, FEDERICO ZAHARIEV

  ADDITIONAL CODE HAS BEEN PROVIDED BY COLLABORATORS IN OTHER GROUPS:
     IOWA STATE UNIVERSITY:
          JOE IVANIC, AARON WEST, LAIMUTIS BYTAUTAS, KLAUS RUEDENBERG
     UNIVERSITY OF TOKYO: KIMIHIKO HIRAO, TAKAHITO NAKAJIMA,
          TAKAO TSUNEDA, MUNEAKI KAMIYA, SUSUMU YANAGISAWA,
          KIYOSHI YAGI, MAHITO CHIBA, SEIKEN TOKURA, NAOAKI KAWAKAMI
     UNIVERSITY OF AARHUS: FRANK JENSEN
     UNIVERSITY OF IOWA: VISVALDAS KAIRYS, HUI LI
     NATIONAL INST. OF STANDARDS AND TECHNOLOGY: WALT STEVENS, DAVID GARMER
     UNIVERSITY OF PISA: BENEDETTA MENNUCCI, JACOPO TOMASI
     UNIVERSITY OF MEMPHIS: HENRY KURTZ, PRAKASHAN KORAMBATH
     UNIVERSITY OF ALBERTA: TOBY ZENG, MARIUSZ KLOBUKOWSKI
     UNIVERSITY OF NEW ENGLAND: MARK SPACKMAN
     MIE UNIVERSITY: HIROAKI UMEDA
     NAT. INST. OF ADVANCED INDUSTRIAL SCIENCE AND TECHNOLOGY: KAZUO KITAURA
     MICHIGAN STATE UNIVERSITY:
          KAROL KOWALSKI, MARTA WLOCH, JEFFREY GOUR, JESSE LUTZ,
          WEI LI, JUN SHEN, J. EMILIANO DEUSTUA, PIOTR PIECUCH
     UNIVERSITY OF MINNESOTA:
          YINAN SHU
     UNIVERSITY OF SILESIA: MONIKA MUSIAL, STANISLAW KUCHARSKI
     FACULTES UNIVERSITAIRES NOTRE-DAME DE LA PAIX:
          OLIVIER QUINET, BENOIT CHAMPAGNE
     UNIVERSITY OF CALIFORNIA - SANTA BARBARA: BERNARD KIRTMAN
     INSTITUTE FOR MOLECULAR SCIENCE:
          KAZUYA ISHIMURA, MICHIO KATOUDA, AND SHIGERU NAGASE
     UNIVERSITY OF NOTRE DAME: ANNA POMOGAEVA, DAN CHIPMAN
     KYUSHU UNIVERSITY:
          HARUYUKI NAKANO,
          FENG LONG GU, JACEK KORCHOWIEC, MARCIN MAKOWSKI, AND YURIKO AOKI,
          HIROTOSHI MORI AND EISAKU MIYOSHI
     PENNSYLVANIA STATE UNIVERSITY:
          TZVETELIN IORDANOV, CHET SWALINA, JONATHAN SKONE,
          SHARON HAMMES-SCHIFFER
     WASEDA UNIVERSITY:
          MASATO KOBAYASHI, TOMOKO AKAMA, TSUGUKI TOUMA,
          TAKESHI YOSHIKAWA, YASUHIRO IKABATA, JUNJI SEINO,
          YUYA NAKAJIMA, HIROMI NAKAI
     NANJING UNIVERSITY: SHUHUA LI
     UNIVERSITY OF NEBRASKA:
          PEIFENG SU, DEJUN SI, NANDUN THELLAMUREGE, YALI WANG, HUI LI
     UNIVERSITY OF ZURICH: ROBERTO PEVERATI, KIM BALDRIDGE
     N. COPERNICUS UNIVERSITY AND JACKSON STATE UNIVERSITY:
          MARIA BARYSZ
     UNIVERSITY OF COPENHAGEN: Jimmy Kromann, CASPER STEINMANN
     TOKYO INSTITUTE OF TECHNOLOGY: HIROYA NAKATA
     NAGOYA UNIVERSITY: YOSHIO NISHIMOTO, STEPHAN IRLE
     MOSCOW STATE UNIVERSITY: VLADIMIR MIRONOV


 PARALLEL VERSION RUNNING ON        2 PROCESSORS IN        1 NODES.

 EXECUTION OF GAMESS BEGUN Thu Jan 25 17:20:24 2024

            ECHO OF THE FIRST FEW INPUT CARDS -
 INPUT CARD> !############################################################################# 
 INPUT CARD> !                   D_3h RHF GEOMETRY OPTIMIZATION AND HESSIAN TEMPLATE        
 INPUT CARD> ! ---------------------------------------------------------------------------  
 INPUT CARD> ! Replace the symmetry-correct coordinates, should only be two atoms.          
 INPUT CARD> ! The hydrogen or fluorine should have only one non-zero x,y,z coordinate.     
 INPUT CARD> !                                                                              
 INPUT CARD> ! Basis set?   gbasis=ccd for 2nd row,                                         
 INPUT CARD> !                         cct 3rd/4th,                                         
 INPUT CARD> !                   SPKrTZP for heavy,                                         
 INPUT CARD> !                   SPKrTZC beyond 4th                                         
 INPUT CARD> !                                                                              
 INPUT CARD> !############################################################################# 
 INPUT CARD> $system kdiag=3 mwords=250 memddi=8000 parall=.t. $end                         
 INPUT CARD> $contrl runtyp=energy ispher=1 $end                                            
 INPUT CARD> $contrl icut=9 itol=20 inttyp=rysquad qmttol=1.0d-05 nosym=1 $end              
 INPUT CARD> $contrl scftyp=mcscf  mult=2 maxit=200 icharg=1 mplevl=2 $end                  
 INPUT CARD> $scf    npunch=2 conv=1.0d-06 dirscf=.t. $end                                  
 INPUT CARD> $force  method=seminum $end                                                    
 INPUT CARD> $trans  dirtrf=.t. $end                                                        
 INPUT CARD> $statpt hssend=.t. $end                                                        
 INPUT CARD> $basis  gbasis=ccd $end                                                        
 INPUT CARD> !############################################################################# 
 INPUT CARD> !                                                                              
 INPUT CARD> !                       TURN ON THIS SECTION IF HEAVY ATOM                     
 INPUT CARD> !                                                                              
 INPUT CARD> !############################################################################# 
 INPUT CARD> !                                                                              
 INPUT CARD> -contrl relwfn=LUT-IOTC $end                                                   
 INPUT CARD> -scf  diis=.t. soscf=.f. ethrsh=10.0 $end                                      
 INPUT CARD> -guess iorder(25)=27,25,26 $end                                                
 INPUT CARD> -gmcpt nsolut=100 $end                                                         
 INPUT CARD> !                                                                              
 INPUT CARD> !############################################################################# 
 INPUT CARD> !                                                                              
 INPUT CARD> !       TURN ON THIS SECTION IF GMCPT, CHANGE runtyp=energy, scftyp=mcscf      
 INPUT CARD> !                                                                              
 INPUT CARD> !############################################################################# 
 INPUT CARD> $guess  guess=moread norb=24 purify=.t. norder=1 $end                          
 INPUT CARD> $mcscf  cistep=gmcci fullnr=.t. finci=mos                                      
 INPUT CARD>         acurcy=1.d-6 maxit=100 $end                                            
 INPUT CARD> $mrmp   mrpt=gmcpt rdvecs=.f. $end                                             
 INPUT CARD> $gmcpt  nmofzc=0 nmodoc=1 nmoact=6 nelact=7 stsym(1)=A                         
 INPUT CARD>         reftyp=ormas nspace=1 mstart(1)=2 mine(1)=7 maxe(1)=7                  
 INPUT CARD>         kstate(1)=1,1,1                                                        
 INPUT CARD>         wstate(1)=1,1,1                                                        
 INPUT CARD>         iwgt=0 thrwgt=-1.0 krot=.f. kszdoe=.f. knospn=.f.                      
 INPUT CARD>         thrde=-1.0 edshft=0.02 $end                                            
 INPUT CARD> !if SOC: transt $end, add knospn=.t.                                           
 INPUT CARD> !############################################################################# 
 INPUT CARD> !                                                                              
  250000000 WORDS OF MEMORY AVAILABLE

     BASIS OPTIONS
     -------------
     GBASIS=CCD          IGAUSS=       0      POLAR=NONE    
     NDFUNC=       0     NFFUNC=       0     DIFFSP=       F
     NPFUNC=       0      DIFFS=       F     BASNAM=        


     RUN TITLE
     ---------
  H2O cation diabatization 3 states                                              

 THE POINT GROUP OF THE MOLECULE IS C1      
 THE ORDER OF THE PRINCIPAL AXIS IS     0

 ATOM      ATOMIC                      COORDINATES (BOHR)
           CHARGE         X                   Y                   Z
 O           8.0     0.0000000000        0.0000000000       -0.0816030608
 H           1.0     1.5205076999        0.0000000005        1.0433238622
 H           1.0    -1.5205077001       -0.0000000005        1.0433238624

          INTERNUCLEAR DISTANCES (ANGS.)
          ------------------------------

                1 O          2 H          3 H     

   1 O       0.0000000    1.0008873 *  1.0008873 *
   2 H       1.0008873 *  0.0000000    1.6092362 *
   3 H       1.0008873 *  1.6092362 *  0.0000000  

  * ... LESS THAN  3.000


     ATOMIC BASIS SET
     ----------------
 THE CONTRACTED PRIMITIVE FUNCTIONS HAVE BEEN UNNORMALIZED
 THE CONTRACTED BASIS FUNCTIONS ARE NOW NORMALIZED TO UNITY

  SHELL TYPE  PRIMITIVE        EXPONENT          CONTRACTION COEFFICIENT(S)

 O         

      1   S       1         11720.0000000    0.000709645947
      1   S       2          1759.0000000    0.005467272292
      1   S       3           400.8000000    0.027823118610
      1   S       4           113.7000000    0.104747739711
      1   S       5            37.0300000    0.282920846357
      1   S       6            13.2700000    0.448495238698
      1   S       7             5.0250000    0.270816885213
      1   S       8             1.0130000    0.015450291607

      2   S       9         11720.0000000   -0.000314443412
      2   S      10          1759.0000000   -0.002482137681
      2   S      11           400.8000000   -0.012316355382
      2   S      12           113.7000000   -0.050538917344
      2   S      13            37.0300000   -0.139384903316
      2   S      14            13.2700000   -0.325077494818
      2   S      15             5.0250000   -0.229848307588
      2   S      16             1.0130000    1.095379346788

      3   S      17             0.3023000    1.000000000000

      4   P      18            17.7000000    0.062679166282
      4   P      19             3.8540000    0.333536565879
      4   P      20             1.0460000    0.741239641640

      5   P      21             0.2753000    1.000000000000

      6   D      22             1.1850000    1.000000000000

 H         

      7   S      23            13.0100000    0.033498726390
      7   S      24             1.9620000    0.234800801174
      7   S      25             0.4446000    0.813682957883

      8   S      26             0.1220000    1.000000000000

      9   P      27             0.7270000    1.000000000000

 H         

     10   S      28            13.0100000    0.033498726390
     10   S      29             1.9620000    0.234800801174
     10   S      30             0.4446000    0.813682957883

     11   S      31             0.1220000    1.000000000000

     12   P      32             0.7270000    1.000000000000

 TOTAL NUMBER OF BASIS SET SHELLS             =   12
 NUMBER OF CARTESIAN GAUSSIAN BASIS FUNCTIONS =   25
 NOTE: THIS RUN WILL RESTRICT THE MO VARIATION SPACE TO SPHERICAL HARMONICS.
 THE NUMBER OF ORBITALS KEPT IN THE VARIATIONAL SPACE WILL BE PRINTED LATER.
 NUMBER OF ELECTRONS                          =    9
 CHARGE OF MOLECULE                           =    1
 SPIN MULTIPLICITY                            =    2
 NUMBER OF OCCUPIED ORBITALS (ALPHA)          =    5
 NUMBER OF OCCUPIED ORBITALS (BETA )          =    4
 TOTAL NUMBER OF ATOMS                        =    3
 THE NUCLEAR REPULSION ENERGY IS        8.7881676548

     $CONTRL OPTIONS
     ---------------
 SCFTYP=MCSCF        RUNTYP=ENERGY       EXETYP=RUN     
 MPLEVL=       2     CITYP =NONE         CCTYP =NONE         VBTYP =NONE    
 DFTTYP=NONE         TDDFT =NONE    
 MULT  =       2     ICHARG=       1     NZVAR =       0     COORD =UNIQUE  
 PP    =NONE         RELWFN=NONE         LOCAL =NONE         NUMGRD=       F
 ISPHER=       1     NOSYM =       1     MAXIT =     200     UNITS =ANGS    
 PLTORB=       F     MOLPLT=       F     AIMPAC=       F     FRIEND=        
 NPRINT=       7     IREST =       0     GEOM  =INPUT   
 NORMF =       0     NORMP =       0     ITOL  =      20     ICUT  =       9
 INTTYP=RYSQUAD      GRDTYP=BEST         QMTTOL= 1.0E-05

     $SYSTEM OPTIONS
     ---------------
  REPLICATED MEMORY=   250000000 WORDS (ON EVERY NODE).
 DISTRIBUTED MEMDDI=        8000 MILLION WORDS IN AGGREGATE,
 MEMDDI DISTRIBUTED OVER   2 PROCESSORS IS  4000000000 WORDS/PROCESSOR.
 TOTAL MEMORY REQUESTED ON EACH PROCESSOR=  4250000000 WORDS.
 TIMLIM=      525600.00 MINUTES, OR     365.0 DAYS.
 PARALL= T  BALTYP=  DLB     KDIAG=    3  COREFL= F
 MXSEQ2=     300 MXSEQ3=     150  mem10=         0

          ----------------
          PROPERTIES INPUT
          ----------------

     MOMENTS            FIELD           POTENTIAL          DENSITY
 IEMOM =       1   IEFLD =       0   IEPOT =       0   IEDEN =       0
 WHERE =COMASS     WHERE =NUCLEI     WHERE =NUCLEI     WHERE =NUCLEI  
 OUTPUT=BOTH       OUTPUT=BOTH       OUTPUT=BOTH       OUTPUT=BOTH    
 IEMINT=       0   IEFINT=       0                     IEDINT=       0
                                                       MORB  =       0

     -------------------------------
     INTEGRAL TRANSFORMATION OPTIONS
     -------------------------------
     NWORD  =            0
     CUTOFF = 1.0E-09     MPTRAN =       0
     DIRTRF =       T     AOINTS =DUP     

          ----------------------
          MCSCF INPUT PARAMETERS
          ----------------------
 CONVERGER SELECTION: FOCAS = F  SOSCF = F  FULLNR = T  QUD = F  JACOBI = F
 SECULAR EQUATION METHOD CISTEP = GMCCI   
 --- GENERAL INPUT OPTIONS:
 MAXIT =     100  MICIT =       1  ACURCY= 1.000E-06
 DAMP  =   0.000  CANONC=       T  ENGTOL= 1.000E-10
 EKT   =       F  NPUNCH=       2  NWORD =         0
 REGENERATE CI AFTER CONVERGENCE = NONE    
 DIABATIZATION AFTER CONVERGENCE =        F
 --- INPUT FOR FULLNR CONVERGER:
 METHOD=DM2       FORS  =       F  DROPC =       T
 LINSER=       F  FCORE =       F  NORB  =      25

          ----------------------
          INTEGRAL INPUT OPTIONS
          ----------------------
 NOPK  =       1 NORDER=       0 SCHWRZ=       T

 ------------------------------------------
 MULTIREFERENCE PERTURBATION THEORY CONTROL
 ------------------------------------------
 MRPT=GMCPT    READ CONVERGED MCSCF VECTORS= F


     ------------------------------------------
     THE POINT GROUP IS C1 , NAXIS= 1, ORDER= 1
     ------------------------------------------

 -- VARIATIONAL SPACE WILL BE RESTRICTED TO PURE SPHERICAL HARMONICS ONLY --
 AFTER EXCLUDING CONTAMINANT COMBINATIONS FROM THE CARTESIAN GAUSSIAN BASIS
 SET, THE NUMBER OF SPHERICAL HARMONICS KEPT IN THE VARIATION SPACE IS   24

     DIMENSIONS OF THE SYMMETRY SUBSPACES ARE
 A   =   24

 ..... DONE SETTING UP THE RUN .....
 CPU     0: STEP CPU TIME=     0.04 TOTAL CPU TIME=          0.0 (      0.0 MIN)
 TOTAL WALL CLOCK TIME=          0.3 SECONDS, CPU UTILIZATION IS    13.79%

          ********************
          1 ELECTRON INTEGRALS
          ********************
 TIME TO DO   DIPOLE INTEGRALS=      0.00
 ...... END OF ONE-ELECTRON INTEGRALS ......
 CPU     0: STEP CPU TIME=     0.00 TOTAL CPU TIME=          0.0 (      0.0 MIN)
 TOTAL WALL CLOCK TIME=          0.3 SECONDS, CPU UTILIZATION IS    13.79%

          -------------
          GUESS OPTIONS
          -------------
          GUESS =MOREAD            NORB  =      24          NORDER=       1
          MIX   =       F          PRTMO =       F          PUNMO =       F
          TOLZ  = 1.0E-08          TOLE  = 1.0E-05
          SYMDEN=       F          PURIFY=       T

 INITIAL GUESS ORBITALS GENERATED BY MOREAD   ROUTINE.

 STATISTICS FOR GENERATION OF SYMMETRY ORBITAL -Q- MATRIX
 NUMBER OF CARTESIAN ATOMIC ORBITALS=         25
 NUMBER OF SPHERICAL CONTAMINANTS DROPPED=     1
 NUMBER OF LINEARLY DEPENDENT MOS DROPPED=     0
 TOTAL NUMBER OF MOS IN VARIATION SPACE=      24
 ORBITAL PURIFICATION WILL OCCUR

 SYMMETRIES FOR INITIAL GUESS ORBITALS FOLLOW.   BOTH SET(S).
     5 ORBITALS ARE OCCUPIED (    1 CORE ORBITALS).
     1=A        2=A        3=A        4=A        5=A        6=A        7=A   
     8=A        9=A       10=A       11=A       12=A       13=A       14=A   
    15=A       16=A       17=A       18=A       19=A       20=A       21=A   
    22=A       23=A       24=A   
 ...... END OF INITIAL ORBITAL SELECTION ......
 CPU     0: STEP CPU TIME=     0.01 TOTAL CPU TIME=          0.0 (      0.0 MIN)
 TOTAL WALL CLOCK TIME=          0.3 SECONDS, CPU UTILIZATION IS    16.67%

                    ----------------------
                    AO INTEGRAL TECHNOLOGY
                    ----------------------
     S,P,L SHELL ROTATED AXIS INTEGRALS, REPROGRAMMED BY
        KAZUYA ISHIMURA (IMS) AND JOSE SIERRA (SYNSTAR).
     S,P,D,L SHELL ROTATED AXIS INTEGRALS PROGRAMMED BY
        KAZUYA ISHIMURA (INSTITUTE FOR MOLECULAR SCIENCE).
     S,P,D,F,G SHELL TO TOTAL QUARTET ANGULAR MOMENTUM SUM 5,
        ERIC PROGRAM BY GRAHAM FLETCHER (ELORET AND NASA ADVANCED
        SUPERCOMPUTING DIVISION, AMES RESEARCH CENTER).
     S,P,D,F,G,L SHELL GENERAL RYS QUADRATURE PROGRAMMED BY
        MICHEL DUPUIS (PACIFIC NORTHWEST NATIONAL LABORATORY).

          --------------------
          2 ELECTRON INTEGRALS
          --------------------

 DIRECT SCF METHOD SKIPS INTEGRAL STORAGE ON DISK.
 DIRECT TRANSFORMATION SKIPS AO INTEGRAL STORAGE ON DISK.
  ...... END OF TWO-ELECTRON INTEGRALS .....
 STEP CPU TIME =     0.02 TOTAL CPU TIME =          0.1 (      0.0 MIN)
 TOTAL WALL CLOCK TIME=          0.3 SECONDS, CPU UTILIZATION IS    21.88%
 DDI: Creating Array [0] - 625 x 28 = 17500 words.
 DDI: Creating Array [1] - 17 x 196 = 3332 words.
 DDI: Creating Array [2] - 28 x 28 = 784 words.
 DDI: Creating Array [3] - 325 x 28 = 9100 words.

          -----------------
          MCSCF CALCULATION
          -----------------

 ----- NUCLEAR ENERGY ----- =         8.7881676548

     -------------------------------------------------
     GMC-PT/GMC-QDPT or general MCSCF input parameters
     -------------------------------------------------
 # of frozen core orbs. =         0 ->         0
 # of doubly occ. orbs. =         1
 # of active      orbs. =         6
 # of virtual     orbs. =        17
 # of active electrons  =         7
 # of states in CI      =         3
 Highest state in CI    =         3
 kstate =  1 1 1
 avecoe =  0.333 0.333 0.333
 State symmetry           = A           
 Assigned symmetry number = 1

 <<<Act. MO sym.: 111111

 <<<Division of 1-ext.:  0 0
 <<<Division of 2-ext.:  0 1

 *** Reference space

 Reference type: ORMAS (= Occupation restricted multiple active space)
 # of orbitals          =  6
 # of minimum electrons =  7
 # of maximum electrons =  7
 State symmetry    =    1 (input)
 2*Sz              =    1 (input)
 Spin multiplicity =    2 (input)
 Dimension of reference space =       300  (from       792 walks)

 Dimension of reference space =       300  (from       300 walks)

 <<<Ionized spaces for Ref-CI:
      0:          300 /   -1-0:          625 /  0-1-0:          690

 EVALUATING EXCHANGE INTEGRALS FOR DIRECT INTEGRAL TRANSFORMATION
 SCHWARZ INEQUALITY OVERHEAD:       325 INTEGRALS, T=        0.00

     --------------------------------------------
     PARTIAL TWO ELECTRON INTEGRAL TRANSFORMATION
     --------------------------------------------

 NUMBER OF CORE MOLECULAR ORBITALS     =    1
 NUMBER OF OCCUPIED MOLECULAR ORBITALS =    7
 TOTAL NUMBER OF MOLECULAR ORBITALS    =   24
 TOTAL NUMBER OF ATOMIC ORBITALS       =   25
 THRESHOLD FOR KEEPING TRANSFORMED 2E- INTEGRALS = 1.000E-09

 -------------------------------     ------------------------------
 DISTRIBUTED DATA TRANSFORMATION     PROGRAM WRITTEN BY G. FLETCHER
 -------------------------------     ------------------------------

 THE DISTRIBUTED MEMORY REQUIRED FOR THIS STEP IS MEMDDI=         1 MWORDS
 CREATING DISTRIBUTED STORAGE FOR [VIR OCC|VIR OCC] INTEGRALS
 CREATING DISTRIBUTED STORAGE FOR [VIR OCC|OCC OCC] INTEGRALS
 CREATING DISTRIBUTED STORAGE FOR [OCC OCC|OCC OCC] INTEGRALS
 CREATING DISTRIBUTED STORAGE FOR [VIR VIR|OCC OCC] INTEGRALS
 FOR    2 PROCESSORS, THE REPLICATED MEMORY NEEDED IS       62207 WORDS.
 SCHWARZ INEQUALITY OVERHEAD:       325 INTEGRALS, T=        0.00

      DIRECT 4-INDEX TRANSFORMATION 
      SCHWARZ INEQUALITY TEST SKIPPED          0 INTEGRAL BLOCKS
 ----- FROZEN CORE ENERGY =       -61.2218717044
 ... END OF INTEGRAL TRANSFORMATION ...
 CPU     0: STEP CPU TIME=     0.05 TOTAL CPU TIME=          0.1 (      0.0 MIN)
 TOTAL WALL CLOCK TIME=          0.4 SECONDS, CPU UTILIZATION IS    30.00%

     --------------------------------     -----------------------------
     MCHF NEWTON-RAPHSON OPTIMIZATION     CODE WRITTEN BY MICHEL DUPUIS
     --------------------------------     -----------------------------
     PARALLEL VERSION WRITTEN BY G. FLETCHER (ELORET)
     NASA ADVANCED SUPERCOMPUTING DIVISION, AMES RESEARCH CENTER

 NUMBER OF INDEPENDENT ORBITAL ROTATION PARAMETERS =    44
 ..... DONE SOLVING NEWTON-RAPHSON EQUATIONS .....
 CPU     0: STEP CPU TIME=     0.07 TOTAL CPU TIME=          0.2 (      0.0 MIN)
 TOTAL WALL CLOCK TIME=          0.5 SECONDS, CPU UTILIZATION IS    38.00%
 ..... DONE WITH NTN-RPH ORBITAL ROTATIONS ..... 
 CPU     0: STEP CPU TIME=     0.00 TOTAL CPU TIME=          0.2 (      0.0 MIN)
 TOTAL WALL CLOCK TIME=          0.5 SECONDS, CPU UTILIZATION IS    38.00%
 MAXIMUM MEMORY USED BY NTN-RPH CODE WAS     51289 WORDS.

 ITER     TOTAL ENERGY      DEL(E)  LAGRANGIAN ASYMMETRY   SQCDF  MICIT   DAMP
   1      -75.568134090 -0.568134090  0.003654   10    2 1.300E-05  1   0.0000
   2      -75.568146610 -0.000012519  0.000113   12    5 2.296E-07  1   0.0000
   3      -75.568146641 -0.000000031  0.000030   12    5 1.734E-08  1   0.0000
   4      -75.568146643 -0.000000002  0.000008   12    5 1.929E-09  1   0.0000
   5      -75.568146643 -0.000000000  0.000002   12    5 2.613E-10  1   0.0000
   6      -75.568146643 -0.000000000  0.000001   10    4 3.814E-11  1   0.0000

          --------------------
          LAGRANGIAN CONVERGED
          --------------------

 FINAL MCSCF ENERGY IS      -75.5681466432 AFTER   6 ITERATIONS

 -MCCI- BASED ON OPTIMIZED ORBITALS
 ----------------------------------

 PLEASE NOTE: IF THE ACTIVE ORBITALS ARE CANONICALIZED BELOW,
 THE FOLLOWING CI EXPANSION COEFFICIENTS AND THE DENSITY DO NOT
 CORRESPOND TO THE PRINTED ORBITALS.  THE PRINTED EXPANSIONS MATCH
 THE ORBITALS USED DURING THE LAST ITERATION.  IF YOU WISH TO SEE
 CI EXPANSIONS BASED ON THE CANONICAL (OR NATURAL) ORBITALS, YOU
 MUST RUN A CI CALCULATION WITH THAT ORBITAL CHOICE READ IN $VEC.

 Averaged energy =     -75.568146643

 State #    1  Energy =     -75.682422849  S =  0.500

      Det      Coef    Occupancy (Ignoring core)
      ---      ----    --------- --------- -----
        1   -0.987117  111100111000
      173   -0.075825  101101101001

 State #    2  Energy =     -75.591950705  S =  0.500

      Det      Coef    Occupancy (Ignoring core)
      ---      ----    --------- --------- -----
       16    0.988931  111100110100
      203    0.077217  101101100101

 State #    3  Energy =     -75.430066376  S =  0.500

      Det      Coef    Occupancy (Ignoring core)
      ---      ----    --------- --------- -----
       31   -0.990804  111100101100

 DENSITY MATRIX OVER ACTIVE MO-S

             1           2           3           4           5

    1    1.9896782
    2    0.0000000   1.6505800
    3    0.0075936   0.0000000   1.6563705
    4   -0.0000000  -0.0000000   0.0000000   1.6655756
    5   -0.0048277   0.0000000   0.0142764   0.0000000   0.0182329
    6    0.0000000   0.0204283  -0.0000000  -0.0000000  -0.0000000

             6

    6    0.0195628

 FORMING THE "STANDARD FOCK OPERATOR" IN DIRECT AO INTEGRAL MODE...
 ONLY THE    1 CORE AND   17 VIRTUAL ORBITALS WILL BE CANONICALIZED

          ----------------------
          MCSCF NATURAL ORBITALS
          ----------------------

                      1          2          3          4          5
                  -21.0909     1.9899     1.6656     1.6563     1.6508
                     A          A          A          A          A   
    1  O  1  S    1.000783   0.015280   0.000000  -0.007446   0.000000
    2  O  1  S   -0.003317   0.482109   0.000000  -0.171159  -0.000000
    3  O  1  S   -0.006720   0.384061   0.000000  -0.295704  -0.000000
    4  O  1  X   -0.000000   0.000000   0.000000  -0.000000   0.548702
    5  O  1  Y   -0.000000   0.000000   0.693099   0.000000  -0.000000
    6  O  1  Z    0.000432   0.093931   0.000000   0.607538   0.000000
    7  O  1  X   -0.000000   0.000000   0.000000   0.000000   0.219585
    8  O  1  Y   -0.000000   0.000000   0.431150   0.000000  -0.000000
    9  O  1  Z   -0.000582   0.006723   0.000000   0.320634   0.000000
   10  O  1 XX    0.000043   0.002674   0.000000  -0.007826  -0.000000
   11  O  1 YY   -0.000016  -0.004274   0.000000  -0.009869  -0.000000
   12  O  1 ZZ   -0.000027   0.001600   0.000000   0.017695  -0.000000
   13  O  1 XY   -0.000000  -0.000000   0.000000  -0.000000  -0.000000
   14  O  1 XZ   -0.000000   0.000000   0.000000   0.000000   0.022658
   15  O  1 YZ   -0.000000   0.000000   0.018109   0.000000  -0.000000
   16  H  2  S   -0.001541   0.175361   0.000000   0.198900   0.315224
   17  H  2  S    0.000502  -0.004721   0.000000   0.021704   0.021074
   18  H  2  X    0.000718  -0.038523  -0.000000  -0.038433  -0.031630
   19  H  2  Y   -0.000000   0.000000   0.028619   0.000000  -0.000000
   20  H  2  Z    0.000516  -0.019787  -0.000000   0.004014  -0.036085
   21  H  3  S   -0.001541   0.175361  -0.000000   0.198900  -0.315224
   22  H  3  S    0.000502  -0.004721  -0.000000   0.021704  -0.021074
   23  H  3  X   -0.000718   0.038523  -0.000000   0.038433  -0.031630
   24  H  3  Y   -0.000000  -0.000000   0.028619   0.000000  -0.000000
   25  H  3  Z    0.000516  -0.019787   0.000000   0.004014   0.036085

                      6          7
                    0.0193     0.0181
                     A          A   
    1  O  1  S   -0.000000   0.179152
    2  O  1  S    0.000000   0.594192
    3  O  1  S    0.000000   0.165800
    4  O  1  X    0.873491  -0.000000
    5  O  1  Y    0.000000  -0.000000
    6  O  1  Z    0.000000   0.747649
    7  O  1  X    0.023831  -0.000000
    8  O  1  Y   -0.000000  -0.000000
    9  O  1  Z    0.000000  -0.090636
   10  O  1 XX    0.000000   0.007843
   11  O  1 YY   -0.000000   0.011123
   12  O  1 ZZ   -0.000000  -0.018965
   13  O  1 XY    0.000000  -0.000000
   14  O  1 XZ   -0.029779  -0.000000
   15  O  1 YZ   -0.000000  -0.000000
   16  H  2  S   -0.643452  -0.622432
   17  H  2  S   -0.070792  -0.047826
   18  H  2  X    0.067533   0.118869
   19  H  2  Y    0.000000   0.000000
   20  H  2  Z    0.048588   0.011278
   21  H  3  S    0.643452  -0.622432
   22  H  3  S    0.070792  -0.047826
   23  H  3  X    0.067533  -0.118869
   24  H  3  Y    0.000000  -0.000000
   25  H  3  Z   -0.048588   0.011278

          ------------------------
          MCSCF OPTIMIZED ORBITALS
          ------------------------

                      1          2          3          4          5
                  -21.0909     0.0000     0.0000     0.0000     0.0000
                     A          A          A          A          A   
    1  O  1  S    1.000783   0.015890   0.000000  -0.008661   0.000000
    2  O  1  S   -0.003317   0.487335  -0.000000  -0.165366   0.000000
    3  O  1  S   -0.006720   0.391069  -0.000000  -0.288358  -0.000000
    4  O  1  X   -0.000000  -0.000000   0.537722   0.000000  -0.000000
    5  O  1  Y   -0.000000  -0.000000   0.000000  -0.000000   0.693099
    6  O  1  Z    0.000432   0.082004  -0.000000   0.602964  -0.000000
    7  O  1  X   -0.000000   0.000000   0.219269   0.000000  -0.000000
    8  O  1  Y   -0.000000   0.000000   0.000000   0.000000   0.431150
    9  O  1  Z   -0.000582  -0.000765  -0.000000   0.321483  -0.000000
   10  O  1 XX    0.000043   0.002870  -0.000000  -0.007831  -0.000000
   11  O  1 YY   -0.000016  -0.004022  -0.000000  -0.010060   0.000000
   12  O  1 ZZ   -0.000027   0.001151   0.000000   0.017891   0.000000
   13  O  1 XY   -0.000000  -0.000000   0.000000  -0.000000  -0.000000
   14  O  1 XZ   -0.000000   0.000000   0.023029   0.000000  -0.000000
   15  O  1 YZ   -0.000000  -0.000000  -0.000000  -0.000000   0.018109
   16  H  2  S   -0.001541   0.169266   0.323256   0.208248  -0.000000
   17  H  2  S    0.000502  -0.005330   0.021959   0.022007   0.000000
   18  H  2  X    0.000718  -0.037347  -0.032473  -0.040332  -0.000000
   19  H  2  Y   -0.000000   0.000000  -0.000000  -0.000000   0.028619
   20  H  2  Z    0.000516  -0.019844  -0.036690   0.003466   0.000000
   21  H  3  S   -0.001541   0.169266  -0.323256   0.208248   0.000000
   22  H  3  S    0.000502  -0.005330  -0.021959   0.022007  -0.000000
   23  H  3  X   -0.000718   0.037347  -0.032473   0.040332  -0.000000
   24  H  3  Y   -0.000000  -0.000000  -0.000000   0.000000   0.028619
   25  H  3  Z    0.000516  -0.019844   0.036690   0.003466  -0.000000

                      6          7          8          9         10
                    0.0000     0.0000     0.1313     0.1693     0.6612
                     A          A          A          A          A   
    1  O  1  S    0.179045   0.000000   0.097337   0.000000  -0.013920
    2  O  1  S    0.591564   0.000000   0.127304   0.000000   0.104418
    3  O  1  S    0.162320   0.000000  -0.970196  -0.000000   0.589376
    4  O  1  X   -0.000000   0.880293   0.000000   0.076678   0.000000
    5  O  1  Y    0.000000   0.000000  -0.000000  -0.000000   0.000000
    6  O  1  Z    0.752738   0.000000   0.193406   0.000000  -0.524751
    7  O  1  X   -0.000000   0.026579   0.000000  -0.435123   0.000000
    8  O  1  Y    0.000000   0.000000  -0.000000   0.000000   0.000000
    9  O  1  Z   -0.087833  -0.000000  -0.397577  -0.000000   1.080106
   10  O  1 XX    0.007768   0.000000  -0.046696  -0.000000  -0.066771
   11  O  1 YY    0.011045  -0.000000   0.056715   0.000000   0.033598
   12  O  1 ZZ   -0.018813  -0.000000  -0.010018   0.000000   0.033173
   13  O  1 XY    0.000000   0.000000  -0.000000   0.000000  -0.000000
   14  O  1 XZ   -0.000000  -0.029493  -0.000000  -0.077645   0.000000
   15  O  1 YZ    0.000000   0.000000  -0.000000  -0.000000   0.000000
   16  H  2  S   -0.621061  -0.639455  -0.393249  -0.497088  -0.725440
   17  H  2  S   -0.047622  -0.070523   0.990823   1.568673   0.031315
   18  H  2  X    0.118615   0.067132  -0.102433  -0.041943  -0.089386
   19  H  2  Y    0.000000   0.000000   0.000000   0.000000  -0.000000
   20  H  2  Z    0.011358   0.048132  -0.057843  -0.075399   0.240375
   21  H  3  S   -0.621061   0.639455  -0.393249   0.497088  -0.725440
   22  H  3  S   -0.047622   0.070523   0.990823  -1.568673   0.031315
   23  H  3  X   -0.118615   0.067132   0.102433  -0.041943   0.089386
   24  H  3  Y   -0.000000   0.000000  -0.000000   0.000000   0.000000
   25  H  3  Z    0.011358  -0.048132  -0.057843   0.075399   0.240375

                     11         12         13         14         15
                    0.7322     0.7554     1.0360     1.0365     1.2621
                     A          A          A          A          A   
    1  O  1  S    0.000000  -0.000000   0.274533   0.000000   0.000000
    2  O  1  S    0.000000  -0.000000   0.674215   0.000000   0.000000
    3  O  1  S    0.000000  -0.000000  -0.663707  -0.000000   0.000000
    4  O  1  X   -0.523034  -0.000000  -0.000000   0.000000  -0.000000
    5  O  1  Y    0.000000  -0.921981  -0.000000  -0.000000   0.072330
    6  O  1  Z    0.000000  -0.000000  -0.308568  -0.000000   0.000000
    7  O  1  X    1.776263   0.000000  -0.000000   0.000000   0.000000
    8  O  1  Y   -0.000000   1.009568  -0.000000   0.000000  -0.673248
    9  O  1  Z   -0.000000  -0.000000   0.825611   0.000000   0.000000
   10  O  1 XX    0.000000  -0.000000   0.096328   0.000000   0.000000
   11  O  1 YY    0.000000  -0.000000   0.038381   0.000000   0.000000
   12  O  1 ZZ    0.000000  -0.000000  -0.134709  -0.000000   0.000000
   13  O  1 XY    0.000000  -0.000000  -0.000000   0.153496   0.000000
   14  O  1 XZ   -0.028817  -0.000000   0.000000   0.000000  -0.000000
   15  O  1 YZ   -0.000000   0.004337  -0.000000   0.000000   0.182291
   16  H  2  S   -0.678994  -0.000000  -0.230682  -0.000000   0.000000
   17  H  2  S   -0.600532  -0.000000   0.193898   0.000000  -0.000000
   18  H  2  X    0.218181   0.000000   0.365195   0.000000  -0.000000
   19  H  2  Y   -0.000000   0.064261  -0.000000   0.675046   0.752632
   20  H  2  Z    0.019031   0.000000  -0.443058  -0.000000  -0.000000
   21  H  3  S    0.678994   0.000000  -0.230682  -0.000000  -0.000000
   22  H  3  S    0.600532   0.000000   0.193898   0.000000   0.000000
   23  H  3  X    0.218181   0.000000  -0.365195  -0.000000  -0.000000
   24  H  3  Y   -0.000000   0.064261   0.000000  -0.675046   0.752632
   25  H  3  Z   -0.019031  -0.000000  -0.443058  -0.000000   0.000000

                     16         17         18         19         20
                    1.4184     1.4617     1.8034     1.8043     2.7386
                     A          A          A          A          A   
    1  O  1  S   -0.708762   0.000000   0.023019   0.000000   0.000000
    2  O  1  S   -1.548621   0.000000   0.149533   0.000000   0.000000
    3  O  1  S    2.626515  -0.000000   1.404294   0.000000   0.000000
    4  O  1  X    0.000000  -0.097581  -0.000000   0.529138   0.000000
    5  O  1  Y   -0.000000  -0.000000  -0.000000   0.000000  -0.030044
    6  O  1  Z    0.028647  -0.000000   0.393027   0.000000   0.000000
    7  O  1  X    0.000000   0.978090  -0.000000   0.339491  -0.000000
    8  O  1  Y   -0.000000   0.000000  -0.000000  -0.000000   0.288754
    9  O  1  Z    0.895803  -0.000000   0.433779   0.000000   0.000000
   10  O  1 XX   -0.023855   0.000000  -0.121512  -0.000000   0.000000
   11  O  1 YY    0.162236  -0.000000   0.187065   0.000000   0.000000
   12  O  1 ZZ   -0.138382   0.000000  -0.065553  -0.000000   0.000000
   13  O  1 XY   -0.000000   0.000000  -0.000000   0.000000  -0.000000
   14  O  1 XZ   -0.000000  -0.027761   0.000000  -0.097572  -0.000000
   15  O  1 YZ   -0.000000   0.000000  -0.000000  -0.000000   1.025256
   16  H  2  S   -0.747340  -0.402477  -0.383086  -0.085249   0.000000
   17  H  2  S   -0.318319  -0.118650  -0.298952  -0.464104  -0.000000
   18  H  2  X    0.269567  -0.418822   0.815395   0.734814   0.000000
   19  H  2  Y    0.000000  -0.000000   0.000000   0.000000  -0.374041
   20  H  2  Z   -0.198220   0.691055   0.558872   0.567367   0.000000
   21  H  3  S   -0.747340   0.402477  -0.383086   0.085249  -0.000000
   22  H  3  S   -0.318319   0.118650  -0.298952   0.464104   0.000000
   23  H  3  X   -0.269567  -0.418822  -0.815395   0.734813   0.000000
   24  H  3  Y   -0.000000  -0.000000  -0.000000   0.000000  -0.374041
   25  H  3  Z   -0.198220  -0.691055   0.558872  -0.567367  -0.000000

                     21         22         23         24
                    2.8060     2.9437     3.3269     3.5807
                     A          A          A          A   
    1  O  1  S    0.000000  -0.088357  -0.226426  -0.000000
    2  O  1  S    0.000000  -0.160007  -0.368697   0.000000
    3  O  1  S   -0.000000   0.567393   2.151302   0.000000
    4  O  1  X   -0.000000   0.000000  -0.000000   0.317272
    5  O  1  Y   -0.000000   0.000000  -0.000000  -0.000000
    6  O  1  Z    0.000000   0.005329   0.251982   0.000000
    7  O  1  X   -0.000000  -0.000000  -0.000000   1.141348
    8  O  1  Y    0.000000   0.000000  -0.000000   0.000000
    9  O  1  Z   -0.000000   0.524485   0.873228   0.000000
   10  O  1 XX   -0.000000  -0.626291   0.975744   0.000000
   11  O  1 YY    0.000000  -0.432589  -1.045722  -0.000000
   12  O  1 ZZ   -0.000000   1.058880   0.069978  -0.000000
   13  O  1 XY    1.050464  -0.000000   0.000000  -0.000000
   14  O  1 XZ   -0.000000   0.000000  -0.000000   1.301360
   15  O  1 YZ    0.000000   0.000000  -0.000000   0.000000
   16  H  2  S    0.000000  -0.296184  -1.041300  -0.924282
   17  H  2  S   -0.000000  -0.045436  -0.203462  -0.293878
   18  H  2  X    0.000000   0.361700   0.600304   0.583588
   19  H  2  Y   -0.357878   0.000000   0.000000   0.000000
   20  H  2  Z    0.000000  -0.294735   0.467669   0.457487
   21  H  3  S    0.000000  -0.296184  -1.041300   0.924282
   22  H  3  S   -0.000000  -0.045436  -0.203462   0.293878
   23  H  3  X   -0.000000  -0.361700  -0.600304   0.583588
   24  H  3  Y    0.357878  -0.000000  -0.000000   0.000000
   25  H  3  Z    0.000000  -0.294735   0.467669  -0.457487
 .....DONE WITH MCSCF ITERATIONS.....
 CPU     0: STEP CPU TIME=     0.59 TOTAL CPU TIME=          0.8 (      0.0 MIN)
 TOTAL WALL CLOCK TIME=          1.9 SECONDS, CPU UTILIZATION IS    40.00%

     ----------------------------------------------------------------
     PROPERTY VALUES FOR THE MCSCF SELF-CONSISTENT FIELD WAVEFUNCTION
     ----------------------------------------------------------------

          -----------------
          ENERGY COMPONENTS
          -----------------

         WAVEFUNCTION NORMALIZATION =       1.0000000000

                ONE ELECTRON ENERGY =    -117.3706831414
                TWO ELECTRON ENERGY =      33.0143688434
           NUCLEAR REPULSION ENERGY =       8.7881676548
                                      ------------------
                       TOTAL ENERGY =     -75.5681466432

 ELECTRON-ELECTRON POTENTIAL ENERGY =      33.0143688434
  NUCLEUS-ELECTRON POTENTIAL ENERGY =    -193.0067408291
   NUCLEUS-NUCLEUS POTENTIAL ENERGY =       8.7881676548
                                      ------------------
             TOTAL POTENTIAL ENERGY =    -151.2042043310
               TOTAL KINETIC ENERGY =      75.6360576878
                 VIRIAL RATIO (V/T) =       1.9991021340

          ---------------------------------------
          MULLIKEN AND LOWDIN POPULATION ANALYSES
          ---------------------------------------

     ATOMIC MULLIKEN POPULATION IN EACH MOLECULAR ORBITAL

                      1          2          3          4          5

                  2.000000   1.989861   1.665576   1.656324   1.650836

    1             2.000455   1.571419   1.636011   1.444094   1.057086
    2            -0.000228   0.209221   0.014782   0.106115   0.296875
    3            -0.000228   0.209221   0.014782   0.106115   0.296875

                      6          7

                  0.019307   0.018096

    1             0.009360   0.008808
    2             0.004973   0.004644
    3             0.004973   0.004644
 WARNING! MCSCF POPULATIONS SHOWN ABOVE ARE FOR THE NATURAL ORBITALS.
 IGNORE THE ABOVE DATA FOR MCSCF FUNCTIONS WHICH ARE NOT OF -FORS- TYPE.
 THE FOLLOWING POPULATIONS ARE CORRECT FOR ANY MCSCF WAVEFUNCTION.

               ----- POPULATIONS IN EACH AO -----
                             MULLIKEN      LOWDIN
              1  O  1  S      2.00179     1.90482
              2  O  1  S      0.90617     0.63079
              3  O  1  S      0.78975     0.47933
              4  O  1  X      0.75741     0.68059
              5  O  1  Y      1.06091     1.01333
              6  O  1  Z      0.89661     0.83743
              7  O  1  X      0.30316     0.40707
              8  O  1  Y      0.57426     0.57272
              9  O  1  Z      0.42889     0.50859
             10  O  1 XX      0.00102     0.18828
             11  O  1 YY      0.00054     0.17371
             12  O  1 ZZ     -0.00000     0.17868
             13  O  1 XY      0.00587    -0.00000
             14  O  1 XZ      0.00084     0.01201
             15  O  1 YZ      0.00000     0.00029
             16  H  2  S      0.54839     0.43727
             17  H  2  S      0.00780     0.11705
             18  H  2  X      0.04206     0.06459
             19  H  2  Y      0.01478     0.03962
             20  H  2  Z      0.02334     0.04765
             21  H  3  S      0.54839     0.43727
             22  H  3  S      0.00780     0.11705
             23  H  3  X      0.04206     0.06459
             24  H  3  Y      0.01478     0.03962
             25  H  3  Z      0.02334     0.04765

          ----- MULLIKEN ATOMIC OVERLAP POPULATIONS -----
          (OFF-DIAGONAL ELEMENTS NEED TO BE MULTIPLIED BY 2)

             1           2           3

    1    7.1348826
    2    0.2961752   0.3437226
    3    0.2961752  -0.0035143   0.3437226

          TOTAL MULLIKEN AND LOWDIN ATOMIC POPULATIONS
       ATOM         MULL.POP.    CHARGE          LOW.POP.     CHARGE
    1 O             7.727233    0.272767         7.587639    0.412361
    2 H             0.636383    0.363617         0.706181    0.293819
    3 H             0.636383    0.363617         0.706181    0.293819

          MULLIKEN SPHERICAL HARMONIC POPULATIONS
       ATOM           S       P       D      F      G      H      I    TOTAL
    1 O             3.70    4.02    0.01   0.00   0.00   0.00   0.00    7.73
    2 H             0.56    0.08    0.00   0.00   0.00   0.00   0.00    0.64
    3 H             0.56    0.08    0.00   0.00   0.00   0.00   0.00    0.64

          ---------------------
          ELECTROSTATIC MOMENTS
          ---------------------

 POINT   1           X           Y           Z (BOHR)    CHARGE
                -0.000000    0.000000    0.044293        1.00 (A.U.)
         DX          DY          DZ         /D/  (DEBYE)
    -0.000000    0.000000    2.498816    2.498816
 ...... END OF PROPERTY EVALUATION ......
 CPU     0: STEP CPU TIME=     0.01 TOTAL CPU TIME=          0.8 (      0.0 MIN)
 TOTAL WALL CLOCK TIME=          2.0 SECONDS, CPU UTILIZATION IS    40.31%

     -------------------------------------------------
     GMC-PT/GMC-QDPT or general MCSCF input parameters
     -------------------------------------------------
 # of frozen core orbs. =         0 ->         0
 # of doubly occ. orbs. =         1
 # of active      orbs. =         6
 # of virtual     orbs. =        17
 # of active electrons  =         7
 # of states in CI      =         3
 Highest state in CI    =         3
 kstate =  1 1 1
 avecoe =  0.333 0.333 0.333
 State symmetry           = A           
 Assigned symmetry number = 1

 <<<Act. MO sym.: 111111

 <<<Division of 1-ext.:  0 0
 <<<Division of 2-ext.:  0 1

     ------------------------
     Orbital canonicalization
     ------------------------

 MOs are canonicalized for core, virtual, and invariant-active orbital spaces.
 This is a part of the GMC-QDPT calculation.
 SCHWARZ INEQUALITY OVERHEAD:       325 INTEGRALS, T=        0.00
 DIRECT TRANSFORMATION SKIPS AO INTEGRAL STORAGE ON DISK.

 Averaged energy =     -75.568146643

 State #    1  Energy =     -75.682422849  S =  0.500
 State #    2  Energy =     -75.591950705  S =  0.500
 State #    3  Energy =     -75.430066376  S =  0.500

 Orbital energies for filled orbital space
  -21.090865
 Orbital energies for active orbital space
   -1.793180  -1.077134  -0.950246  -0.887001   0.388774
    0.360065
 Orbital energies for external orbital space
    0.131313   0.169281   0.661191   0.732223   0.755384
    1.036008   1.036458   1.262146   1.418353   1.461696
    1.803373   1.804265   2.738551   2.806046   2.943694
    3.326929   3.580672

 Zero values mean non-canonical orbitals.
 ... done with orbital canonicalization ...
 CPU     0: STEP CPU TIME=     0.13 TOTAL CPU TIME=          0.9 (      0.0 MIN)
 TOTAL WALL CLOCK TIME=          2.3 SECONDS, CPU UTILIZATION IS    39.48%

     --------------------------------------------
     PARTIAL TWO ELECTRON INTEGRAL TRANSFORMATION
     --------------------------------------------

 NUMBER OF CORE MOLECULAR ORBITALS     =    0
 NUMBER OF OCCUPIED MOLECULAR ORBITALS =    7
 TOTAL NUMBER OF MOLECULAR ORBITALS    =   24
 TOTAL NUMBER OF ATOMIC ORBITALS       =   25
 THRESHOLD FOR KEEPING TRANSFORMED 2E- INTEGRALS = 1.000E-09
 AO INTEGRALS WILL BE CALCULATED IN DIRECT MODE...
 DIRECT TRANSFORMATION SKIPS AO INTEGRAL STORAGE ON DISK.
 SCHWARZ INEQUALITY OVERHEAD:       325 INTEGRALS, T=        0.00

 PLAN A: REQUIREMENTS FOR FULLY IN-MEMORY TRANSFORMATION:
 # OF WORDS AVAILABLE =            250000000
 # OF WORDS NEEDED    =               165605

 PARALLEL ONLY WORKS WITH THE SEGMENTED ALGORITHM.
 ADJUSTING MEMORY TO USE SEGMENTED ALGORITHM.


 PLAN B: REQUIREMENTS FOR THE SEGMENTED TRANSFORMATION:
       MINIMUM=         116855 WORDS FOR 1 MOLECULAR ORBITAL PER PASS
       MAXIMUM=         141230 WORDS FOR ALL MOLECULAR ORBITALS IN 1 PASS
              (           8125 EXTRA WORDS INCLUDES 1 EXTRA ORBITAL/PASS)
 THIS RUN USES=         141230 WORDS,
 DISTRIBUTING   2 PASSES EACH CONTAINING     4 ORBITALS OVER   2 PROCESSORS.

 CHOOSING SEGMENTED PARTIAL TRANSFORMATION...
 DIRECT TRANSFORMATION SKIPS AO INTEGRAL STORAGE ON DISK.
 PASS #   1 TOOK        0.05 SECONDS.
 ASSIGNING PASS #   2 TO A DIFFERENT PROCESSOR.
 TOTAL NUMBER OF TRANSFORMED 2E- INTEGRALS KEPT =         5431
 ... END OF INTEGRAL TRANSFORMATION ...
 CPU     0: STEP CPU TIME=     0.05 TOTAL CPU TIME=          1.0 (      0.0 MIN)
 TOTAL WALL CLOCK TIME=          2.4 SECONDS, CPU UTILIZATION IS    40.59%

     --------     ------------------------------------------
     GMC-QDPT     Program written by H.Nakano (Kyushu Univ.)
     --------     ------------------------------------------

 *** Reference space

 Reference type: ORMAS (= Occupation restricted multiple active space)
 # of orbitals          =  6
 # of minimum electrons =  7
 # of maximum electrons =  7
 State symmetry    =    1 (input)
 2*Sz              =    1 (input)
 Spin multiplicity =    2 (input)
 Dimension of reference space =       300  (from       792 walks)

 Dimension of reference space =       300  (from       300 walks)

 <<<Ionized spaces for Ref-CI:
      0:          300 /   -1-0:          625 /  0-1-0:          690

 ***                    ***
 *** Reference space CI ***
 ***                    ***

 Reference wavefunctions:

 State #    1  Energy =     -75.682422849  S =  0.500

      Det      Coef    Occupancy (Ignoring core)
      ---      ----    --------- --------- -----
        1    0.987108  111100111000
      173    0.075829  101101101001

 State #    2  Energy =     -75.591950705  S =  0.500

      Det      Coef    Occupancy (Ignoring core)
      ---      ----    --------- --------- -----
       16   -0.988997  111100110100
      203   -0.077225  101101100101

 State #    3  Energy =     -75.430066376  S =  0.500

      Det      Coef    Occupancy (Ignoring core)
      ---      ----    --------- --------- -----
       31   -0.990814  111100101100

 Diagonalization: CPU/Wall time =           0.06 /           0.10 sec.

 Oscillator strength (invalid if E(1)/=E(GS)):
 -----------------------------------------
   State                        f
 -----------------------------------------
     2     F(REF-CI)=        0.0016622286
     3     F(REF-CI)=        0.0000000000
 -----------------------------------------

 Dipole moment matrix elements, x, y, z, in A.U.

 Dimension of ionized spaces for PT:
 (N-2) space:          690 /  (N-1) space:          886 /  N space:          690
 (N+1) space:          480 /  (N+2) space:          200

 <<<Ionized spaces for internal:
         0:          300 /      -1-0:          625 /     0-1-0:          690
  -1-0-1-0:          886 / 0-1-0-1-0:          786

 Diagonal elements of averaged one-particle density matrix:
       2       3       4       5       6       7
  0.9963  0.9901  0.9933  0.9988  0.0101  0.0114
  0.9935  0.6605  0.6630  0.6668  0.0082  0.0081

 Orbital energies:
 -------- Doubly-occupied orbitals (highest several orbs.) -------
             1
 -2.109086D+01
 -------- Active orbitals ----------------------------------------
             2            3            4            5            6
 -1.793180D+00-1.077134D+00-9.502457D-01-8.870006D-01 3.887744D-01
             7
  3.600653D-01
 -------- External orbitals (lowest several orbs.) ---------------
             8            9           10           11           12
  1.313127D-01 1.692814D-01 6.611908D-01 7.322228D-01 7.553837D-01
            13           14           15           16           17
  1.036008D+00 1.036458D+00 1.262146D+00 1.418353D+00 1.461696D+00

 *** Quasi-degeneracy checking

 === Det (|Ci| > 1.0D-01 and dE < 5.0D-03)

 # of small denominators (single excitations)
 State       dEmin  dE < 5.0D-03  dE < 5.0D-04  dE < 5.0D-05  dE < 5.0D-06
 ----- ----------- ------------- ------------- ------------- -------------
     1    5.00D-03             0             0             0             0
     2    5.00D-03             0             0             0             0
     3    5.00D-03             0             0             0             0

 # of small denominators (double excitations)
 State       dEmin  dE < 5.0D-03  dE < 5.0D-04  dE < 5.0D-05  dE < 5.0D-06
 ----- ----------- ------------- ------------- ------------- -------------
     1    5.00D-03             0             0             0             0
     2    5.00D-03             0             0             0             0
     3    5.00D-03             0             0             0             0

 *** Zeroth-Order Setup (Granovsky's zeroth-order vectors)
 Zeroth-order effective Hamiltonian
  (= Sum_i e(i)*<I|a+(i)a(i)|J> ):
                   1            2            3
     1 -8.455305D+00
     2 -1.484529D-16-8.404712D+00
     3 -1.780309D-10 4.489570D-10-8.288868D+00

 Zeroth-order vectors:
 State #    1
       MC st            1           3           2
       Coeff    1.000D+00   1.070D-09   0.000D+00
 State #    2
       MC st            2           3           1
       Coeff   -1.000D+00   3.876D-09   0.000D+00
 State #    3
       MC st            3           2           1
       Coeff   -1.000D+00  -3.876D-09   1.070D-09

 *** GMC-QDPT computation

 (Integral reading:  CPU/Wall time =           0.00 /           0.00 sec.)

 One-external:
   0 -ionized terms: CPU/Wall time =           0.01 /           0.00 sec.
 (-1)-ionized terms: CPU/Wall time =           0.01 /           0.03 sec.
 (+1)-ionized terms: CPU/Wall time =           0.00 /           0.01 sec.
 (+1)-ionized terms: CPU/Wall time =           0.00 /           0.00 sec.
 (+2)-ionized terms: CPU/Wall time =           0.01 /           0.00 sec.

 Internal:
 # of macro loops for internal contribution =         1 (input)
 Loop:    1
 Dimension of internal CISD space     =         0  (after screening)
 Space construction: CPU/Wall time =           0.00 /           0.01 sec.
 Internal terms:     CPU/Wall time =           0.00 /           0.00 sec.

 Two-external:
   0 -ionized terms: CPU/Wall time =           0.00 /           0.00 sec.
 (-1)-ionized terms: CPU/Wall time =           0.02 /           0.03 sec.
 (-2)-ionized terms: CPU/Wall time =           0.03 /           0.04 sec.

 Total time:         CPU/Wall time =           0.08 /           0.12 sec.

 ***                  ***
 *** GMC-QDPT Results ***
 ***                  ***

 Diagonal elements of effective Hamiltonian:
 Heff(  1) =   -75.80238369
 Heff(  2) =   -75.72186872
 Heff(  3) =   -75.56699259

 Off-diagonal elements of effective Hamiltonian:
                   1            2
     2 -2.964043D-16
     3 -2.625849D-10-5.767416D-10

 ******** GMC-QDPT energies ********
 ----------------------------------------------------------------------------
   State                        1st order                           2nd order
 ----------------------------------------------------------------------------
     1     E(REF-CI)=      -75.6824228489   E(GMC-QDPT2)=      -75.8023836878
     2     E(REF-CI)=      -75.5919507051   E(GMC-QDPT2)=      -75.7218687208
     3     E(REF-CI)=      -75.4300663757   E(GMC-QDPT2)=      -75.5669925927
 ----------------------------------------------------------------------------

 Excitation energies (invalid if E(1)/=E(GS)):
 ----------------------------------------------------------------------------
   State                        1st order                           2nd order
 ----------------------------------------------------------------------------

     TZ Sorted GMC-PT ENERGIES:
         1      -75.8023836878
         2      -75.7218687208
         3      -75.5669925927
     2     E(REF-CI)=        2.4618737 eV   E(GMC-QDPT2)=        2.1909250 eV
     3     E(REF-CI)=        6.8669729 eV   E(GMC-QDPT2)=        6.4053212 eV
 ----------------------------------------------------------------------------

 Main characters of perturbed GMC-QDPT states:

 State #    1  Energy =     -75.802383688  S =  0.500

      Det      Coef    Occupancy (Ignoring core)
      ---      ----    --------- --------- -----
        1    0.987108  111100111000
      173    0.075829  101101101001

 State #    2  Energy =     -75.721868721  S =  0.500

      Det      Coef    Occupancy (Ignoring core)
      ---      ----    --------- --------- -----
       16   -0.988997  111100110100
      203   -0.077225  101101100101

 State #    3  Energy =     -75.566992593  S =  0.500

      Det      Coef    Occupancy (Ignoring core)
      ---      ----    --------- --------- -----
       31    0.990814  111100101100

 <<<Max |V/de| = 4.653D-02  Thresh = 1.000D+00

 Oscillator strength (invalid if E(1)/=E(GS)):
 ----------------------------------------------------------------------------
   State                        1st order                           2nd order
 ----------------------------------------------------------------------------
     2     F(REF-CI)=        0.0016622286     F(GMC-PT2)=        0.0014792872
     3     F(REF-CI)=        0.0000000000     F(GMC-PT2)=        0.0000000000
 ----------------------------------------------------------------------------

 Dipole moment matrix elements, x, y, z, in A.U.
States    1    1       -0.0000000008        0.0000000000        0.2713921039
States    1    2       -0.0000000020        0.1660097378        0.0000000000
States    1    3       -0.0000000000        0.0000000000       -0.0000000015
States    2    1       -0.0000000020        0.1660097378        0.0000000000
States    2    2       -0.0000000030       -0.0000000000        0.4593408290
States    2    3       -0.1210445805       -0.0000000002        0.0000000004
States    3    1       -0.0000000000        0.0000000000       -0.0000000015
States    3    2       -0.1210445805       -0.0000000002        0.0000000004
States    3    3        0.0000000023        0.0000000000        0.0478575653

 Oscillator strength (valid only when positive): 
 ----------------------------------------------------------------------------
  States                        1st order                           2nd order
 ----------------------------------------------------------------------------
  1  1     F(REF-CI)=        0.0000000000     F(GMC-PT2)=        0.0000000000
  1  2     F(REF-CI)=       -0.0016622286     F(GMC-PT2)=       -0.0014792872
  1  3     F(REF-CI)=       -0.0000000000     F(GMC-PT2)=       -0.0000000000
  2  1     F(REF-CI)=        0.0016622286     F(GMC-PT2)=        0.0014792872
  2  2     F(REF-CI)=        0.0000000000     F(GMC-PT2)=        0.0000000000
  2  3     F(REF-CI)=       -0.0015812635     F(GMC-PT2)=       -0.0015128084
  3  1     F(REF-CI)=        0.0000000000     F(GMC-PT2)=        0.0000000000
  3  2     F(REF-CI)=        0.0015812635     F(GMC-PT2)=        0.0015128084
  3  3     F(REF-CI)=        0.0000000000     F(GMC-PT2)=        0.0000000000
 CPU     0: STEP CPU TIME=     0.15 TOTAL CPU TIME=          1.1 (      0.0 MIN)
 TOTAL WALL CLOCK TIME=          2.8 SECONDS, CPU UTILIZATION IS    39.86%

     !!! DIABATIZATION FOR REF CI STATES !!!

 *******************************************************
          $DMO GROUP FOUND IN THE INPUT.
        DIABATIZATION OF ADIABATIC STATES BEGINS.
     PROGRAMMED BY TAO ZENG (CARLETON UNIVERSITY).
               Email: toby.zeng@carleton.ca
     See T. Zeng, J. Chem. Phys. 2017, 146, 144103
 *******************************************************

 *************************************************************************
     STEP 1: TRANSFORMATION OF ADIABATIC STATES TO THE DMO REPRESENTATION
         See Atchity and Ruedenberg, J. Chem. Phys. 1999, 111, 2910
 *************************************************************************

Read in Diabatic Molecualr Orbitals:

                      1          2          3          4          5

    1  O  1  S    0.015878  -0.000000  -0.008727   0.000000   0.178914
    2  O  1  S    0.487244  -0.000000  -0.165140   0.000000   0.591558
    3  O  1  S    0.393189  -0.000000  -0.285720   0.000000   0.156384
    4  O  1  X    0.000000   0.537196  -0.000000   0.000000   0.000000
    5  O  1  Y    0.000000  -0.000000  -0.000000   0.692976   0.000000
    6  O  1  Z    0.081813  -0.000000   0.603221   0.000000   0.749592
    7  O  1  X    0.000000   0.219567  -0.000000   0.000000   0.000000
    8  O  1  Y    0.000000  -0.000000  -0.000000   0.431611   0.000000
    9  O  1  Z    0.000497  -0.000000   0.323888   0.000000  -0.091342
   10  O  1 XX    0.002930  -0.000000  -0.007755   0.000000   0.006467
   11  O  1 YY   -0.004055  -0.000000  -0.010061   0.000000   0.010826
   12  O  1 ZZ    0.001125  -0.000000   0.017816   0.000000  -0.017293
   13  O  1 XY    0.000000  -0.000000  -0.000000   0.000000   0.000000
   14  O  1 XZ    0.000000   0.022805  -0.000000   0.000000   0.000000
   15  O  1 YZ    0.000000  -0.000000  -0.000000   0.017991   0.000000
   16  H  2  S    0.168156   0.322747   0.206861   0.000000  -0.617218
   17  H  2  S   -0.005178   0.022298   0.022370   0.000000  -0.048357
   18  H  2  X   -0.037236  -0.032785  -0.039991   0.000000   0.117245
   19  H  2  Y    0.000000  -0.000000  -0.000000   0.028405   0.000000
   20  H  2  Z   -0.019504  -0.036419   0.003670   0.000000   0.011059
   21  H  3  S    0.168156  -0.322747   0.206861   0.000000  -0.617218
   22  H  3  S   -0.005178  -0.022298   0.022370   0.000000  -0.048357
   23  H  3  X    0.037236  -0.032785   0.039991   0.000000  -0.117245
   24  H  3  Y    0.000000  -0.000000  -0.000000   0.028405   0.000000
   25  H  3  Z   -0.019504   0.036419   0.003670   0.000000   0.011059

                      6

    1  O  1  S   -0.000000
    2  O  1  S   -0.000000
    3  O  1  S   -0.000000
    4  O  1  X   -0.879968
    5  O  1  Y   -0.000000
    6  O  1  Z   -0.000000
    7  O  1  X   -0.026245
    8  O  1  Y   -0.000000
    9  O  1  Z   -0.000000
   10  O  1 XX   -0.000000
   11  O  1 YY   -0.000000
   12  O  1 ZZ   -0.000000
   13  O  1 XY   -0.000000
   14  O  1 XZ    0.028582
   15  O  1 YZ   -0.000000
   16  H  2  S    0.636798
   17  H  2  S    0.071096
   18  H  2  X   -0.067134
   19  H  2  Y   -0.000000
   20  H  2  Z   -0.047320
   21  H  3  S   -0.636798
   22  H  3  S   -0.071096
   23  H  3  X   -0.067134
   24  H  3  Y   -0.000000
   25  H  3  Z    0.047320

NUMBER OF SUB ACTIVE SPACES:   1
ROTATE ACTIVE MOS TO DMOS IN EACH SUB-SPACE

SPACE  1:

OVERLAP BETWEEN ORTHONORMAL AND PRE-ORTHONORMAL REF. DMOS

             1           2           3           4           5

    1    1.0008927   0.0000000   0.0008858   0.0000000  -0.0012308
    2    0.0000000   0.9993446  -0.0000000   0.0000000   0.0000000
    3    0.0008858  -0.0000000   1.0009169   0.0000000  -0.0010553
    4   -0.0000000   0.0000000  -0.0000000   1.0001193   0.0000000
    5   -0.0012308   0.0000000  -0.0010553   0.0000000   0.9980189
    6    0.0000000  -0.0012341  -0.0000000   0.0000000   0.0000000

             6

    1    0.0000000
    2   -0.0012341
    3   -0.0000000
    4    0.0000000
    5    0.0000000
    6    0.9980049
REFERENCE DMOS AFTER ORTHONORMALIZATION:

                      1          2          3          4          5

    1  O  1  S    0.016092  -0.000000  -0.008544   0.000000   0.179280
    2  O  1  S    0.487684  -0.000000  -0.164795   0.000000   0.593160
    3  O  1  S    0.393284  -0.000000  -0.285641   0.000000   0.156877
    4  O  1  X    0.000000   0.536461   0.000000   0.000000   0.000000
    5  O  1  Y    0.000000  -0.000000   0.000000   0.692893   0.000000
    6  O  1  Z    0.082131  -0.000000   0.603389   0.000000   0.751819
    7  O  1  X    0.000000   0.219678   0.000000   0.000000   0.000000
    8  O  1  Y    0.000000  -0.000000   0.000000   0.431559   0.000000
    9  O  1  Z    0.000098   0.000000   0.323495  -0.000000  -0.091181
   10  O  1 XX    0.002942  -0.000000  -0.007744   0.000000   0.006475
   11  O  1 YY   -0.004029  -0.000000  -0.010037   0.000000   0.010832
   12  O  1 ZZ    0.001087   0.000000   0.017781  -0.000000  -0.017307
   13  O  1 XY    0.000000   0.000000   0.000000   0.000000   0.000000
   14  O  1 XZ   -0.000000   0.022856  -0.000000  -0.000000  -0.000000
   15  O  1 YZ    0.000000  -0.000000   0.000000   0.017989   0.000000
   16  H  2  S    0.167064   0.323747   0.205872  -0.000000  -0.618019
   17  H  2  S   -0.005253   0.022400   0.022303  -0.000000  -0.048436
   18  H  2  X   -0.037023  -0.032890  -0.039798   0.000000   0.117390
   19  H  2  Y    0.000000  -0.000000   0.000000   0.028402   0.000000
   20  H  2  Z   -0.019476  -0.036502   0.003695   0.000000   0.011061
   21  H  3  S    0.167064  -0.323747   0.205872   0.000000  -0.618019
   22  H  3  S   -0.005253  -0.022400   0.022303   0.000000  -0.048436
   23  H  3  X    0.037023  -0.032890   0.039798   0.000000  -0.117390
   24  H  3  Y    0.000000  -0.000000   0.000000   0.028402   0.000000
   25  H  3  Z   -0.019476   0.036502   0.003695  -0.000000   0.011061

                      6

    1  O  1  S   -0.000000
    2  O  1  S   -0.000000
    3  O  1  S   -0.000000
    4  O  1  X   -0.881064
    5  O  1  Y   -0.000000
    6  O  1  Z   -0.000000
    7  O  1  X   -0.026026
    8  O  1  Y   -0.000000
    9  O  1  Z    0.000000
   10  O  1 XX   -0.000000
   11  O  1 YY   -0.000000
   12  O  1 ZZ    0.000000
   13  O  1 XY    0.000000
   14  O  1 XZ    0.028668
   15  O  1 YZ   -0.000000
   16  H  2  S    0.638471
   17  H  2  S    0.071266
   18  H  2  X   -0.067309
   19  H  2  Y   -0.000000
   20  H  2  Z   -0.047459
   21  H  3  S   -0.638471
   22  H  3  S   -0.071266
   23  H  3  X   -0.067309
   24  H  3  Y   -0.000000
   25  H  3  Z    0.047459

 -------------------------------------------
       MAXIMIZING MORMO OVERLAP TERM        
 -------------------------------------------
   SWEEP    VALUE       PROGRESS
     0     5.99996
     1     5.99998     0.00002671
     2     5.99998     0.00000000
     3     5.99998     0.00000000
 THE ROTATION IS DONE
FLIPPING SIGN FOR ORBITAL   6
ACTIVE ORBITALS AFTER MORMO:

                      1          2          3          4          5

    1  O  1  S    0.016117   0.000000  -0.008458   0.000000   0.179034
    2  O  1  S    0.488207  -0.000000  -0.164311   0.000000   0.591138
    3  O  1  S    0.391524  -0.000000  -0.287841   0.000000   0.162142
    4  O  1  X    0.000000   0.536634  -0.000000  -0.000000   0.000000
    5  O  1  Y    0.000000   0.000000   0.000000   0.693099   0.000000
    6  O  1  Z    0.082395   0.000000   0.603829   0.000000   0.752002
    7  O  1  X    0.000000   0.219236   0.000000  -0.000000  -0.000000
    8  O  1  Y    0.000000   0.000000   0.000000   0.431150   0.000000
    9  O  1  Z   -0.001158  -0.000000   0.321389   0.000000  -0.088170
   10  O  1 XX    0.002887  -0.000000  -0.007821   0.000000   0.007772
   11  O  1 YY   -0.003999   0.000000  -0.010052   0.000000   0.011061
   12  O  1 ZZ    0.001112   0.000000   0.017873   0.000000  -0.018833
   13  O  1 XY   -0.000000   0.000000  -0.000000   0.000000   0.000000
   14  O  1 XZ   -0.000000   0.023066  -0.000000  -0.000000  -0.000000
   15  O  1 YZ    0.000000   0.000000   0.000000   0.018109   0.000000
   16  H  2  S    0.168318   0.324046   0.207743  -0.000000  -0.621487
   17  H  2  S   -0.005408   0.022046   0.021953   0.000000  -0.047639
   18  H  2  X   -0.037166  -0.032556  -0.040240   0.000000   0.118703
   19  H  2  Y    0.000000   0.000000   0.000000   0.028619  -0.000000
   20  H  2  Z   -0.019833  -0.036750   0.003460   0.000000   0.011379
   21  H  3  S    0.168318  -0.324046   0.207743   0.000000  -0.621487
   22  H  3  S   -0.005408  -0.022046   0.021953  -0.000000  -0.047639
   23  H  3  X    0.037166  -0.032556   0.040240   0.000000  -0.118703
   24  H  3  Y   -0.000000   0.000000  -0.000000   0.028619   0.000000
   25  H  3  Z   -0.019833   0.036750   0.003460  -0.000000   0.011379

                      6

    1  O  1  S    0.000000
    2  O  1  S    0.000000
    3  O  1  S    0.000000
    4  O  1  X   -0.880956
    5  O  1  Y   -0.000000
    6  O  1  Z    0.000000
    7  O  1  X   -0.026849
    8  O  1  Y   -0.000000
    9  O  1  Z   -0.000000
   10  O  1 XX    0.000000
   11  O  1 YY    0.000000
   12  O  1 ZZ   -0.000000
   13  O  1 XY   -0.000000
   14  O  1 XZ    0.029464
   15  O  1 YZ   -0.000000
   16  H  2  S    0.639055
   17  H  2  S    0.070495
   18  H  2  X   -0.067091
   19  H  2  Y   -0.000000
   20  H  2  Z   -0.048087
   21  H  3  S   -0.639055
   22  H  3  S   -0.070495
   23  H  3  X   -0.067091
   24  H  3  Y   -0.000000
   25  H  3  Z    0.048087

Actually Used Diabatic Molecualr Orbitals:

                      1          2          3          4          5

    1  O  1  S    0.016117   0.000000  -0.008458   0.000000   0.179034
    2  O  1  S    0.488207  -0.000000  -0.164311   0.000000   0.591138
    3  O  1  S    0.391524  -0.000000  -0.287841   0.000000   0.162142
    4  O  1  X    0.000000   0.536634  -0.000000  -0.000000   0.000000
    5  O  1  Y    0.000000   0.000000   0.000000   0.693099   0.000000
    6  O  1  Z    0.082395   0.000000   0.603829   0.000000   0.752002
    7  O  1  X    0.000000   0.219236   0.000000  -0.000000  -0.000000
    8  O  1  Y    0.000000   0.000000   0.000000   0.431150   0.000000
    9  O  1  Z   -0.001158  -0.000000   0.321389   0.000000  -0.088170
   10  O  1 XX    0.002887  -0.000000  -0.007821   0.000000   0.007772
   11  O  1 YY   -0.003999   0.000000  -0.010052   0.000000   0.011061
   12  O  1 ZZ    0.001112   0.000000   0.017873   0.000000  -0.018833
   13  O  1 XY   -0.000000   0.000000  -0.000000   0.000000   0.000000
   14  O  1 XZ   -0.000000   0.023066  -0.000000  -0.000000  -0.000000
   15  O  1 YZ    0.000000   0.000000   0.000000   0.018109   0.000000
   16  H  2  S    0.168318   0.324046   0.207743  -0.000000  -0.621487
   17  H  2  S   -0.005408   0.022046   0.021953   0.000000  -0.047639
   18  H  2  X   -0.037166  -0.032556  -0.040240   0.000000   0.118703
   19  H  2  Y    0.000000   0.000000   0.000000   0.028619  -0.000000
   20  H  2  Z   -0.019833  -0.036750   0.003460   0.000000   0.011379
   21  H  3  S    0.168318  -0.324046   0.207743   0.000000  -0.621487
   22  H  3  S   -0.005408  -0.022046   0.021953  -0.000000  -0.047639
   23  H  3  X    0.037166  -0.032556   0.040240   0.000000  -0.118703
   24  H  3  Y   -0.000000   0.000000  -0.000000   0.028619   0.000000
   25  H  3  Z   -0.019833   0.036750   0.003460  -0.000000   0.011379

                      6

    1  O  1  S    0.000000
    2  O  1  S    0.000000
    3  O  1  S    0.000000
    4  O  1  X   -0.880956
    5  O  1  Y   -0.000000
    6  O  1  Z    0.000000
    7  O  1  X   -0.026849
    8  O  1  Y   -0.000000
    9  O  1  Z   -0.000000
   10  O  1 XX    0.000000
   11  O  1 YY    0.000000
   12  O  1 ZZ   -0.000000
   13  O  1 XY   -0.000000
   14  O  1 XZ    0.029464
   15  O  1 YZ   -0.000000
   16  H  2  S    0.639055
   17  H  2  S    0.070495
   18  H  2  X   -0.067091
   19  H  2  Y   -0.000000
   20  H  2  Z   -0.048087
   21  H  3  S   -0.639055
   22  H  3  S   -0.070495
   23  H  3  X   -0.067091
   24  H  3  Y   -0.000000
   25  H  3  Z    0.048087

     ------------------------------------------------
        ADIABATIC STATES IN TRANSFORMED ORBITALS:
      !! USE Coefp TO PREPARE DIABATIC REFERENCES !!
     ------------------------------------------------

 State #    1  Energy =     -75.682422849  S =  0.500

      Det      Coef        Coefp    Occupancy (Ignoring core)
      ---      ----        ----    --------- --------- -----
        1   -0.987105    0.987105  222+00
      173    0.075777    0.075777  202+02
      168    0.042895    0.042895  2+-++-
       63    0.041752    0.041752  220+20
       68    0.041359    0.041359  2-++-+
        8    0.037526   -0.037526  2-2+0+
       47    0.032760   -0.032760  +22-+0
       98   -0.032693    0.032693  +-2+-+
       93   -0.032285    0.032285  +2-+20
       65    0.030770    0.030770  -2++20
      170   -0.030698    0.030698  -+2++-
       95    0.030357    0.030357  022+20
       79    0.028706    0.028706  202+20
       36   -0.026499   -0.026499  2+2-0+
      157    0.026296    0.026296  220+02
        3   -0.024961   -0.024961  22-++0
      154   -0.022696    0.022696  2-+++-
       82   -0.022186    0.022186  2+-+-+
      184    0.020400    0.020400  +-2++-
      241   -0.020150   -0.020150  2+++--
       84    0.020085    0.020085  -+2+-+

 State #    2  Energy =     -75.591950705  S =  0.500

      Det      Coef        Coefp    Occupancy (Ignoring core)
      ---      ----        ----    --------- --------- -----
       16   -0.988870   -0.988870  22+200
      203    0.077175   -0.077175  20+202
      198    0.042222   -0.042222  2+02+-
       46    0.040318    0.040318  +22200
       53    0.035612   -0.035612  +-220+
       18   -0.034676    0.034676  2202+0
      200   -0.034267   -0.034267  -++2+-
      128   -0.032976   -0.032976  +-+2-+
      123   -0.031977   -0.031977  +20220
      125    0.031450   -0.031450  02+220
      109    0.027911   -0.027911  20+220
       23    0.026054    0.026054  2-+20+
      112   -0.021508   -0.021508  2+02-+
       28   -0.020714    0.020714  2-02++
      214    0.020030   -0.020030  +-+2+-

 State #    3  Energy =     -75.430066376  S =  0.500

      Det      Coef        Coefp    Occupancy (Ignoring core)
      ---      ----        ----    --------- --------- -----
       31    0.990781   -0.990781  2+2200
      113    0.047738    0.047738  20+2-+
      108   -0.047000    0.047000  2+0220
       52   -0.046805   -0.046805  +2-20+
      143    0.031827   -0.031827  +022-+
      110    0.031738    0.031738  -++220
      138   -0.030926   -0.030926  ++-220
      140   -0.030734   -0.030734  0+2220
       33    0.028988   -0.028988  2+-2+0
      202   -0.028890    0.028890  2+0202
        6   -0.028137    0.028137  22200+
       43   -0.027624    0.027624  20-2++
      211    0.025703   -0.025703  +2+20-
       19   -0.023920   -0.023920  2-+2+0
       24    0.021102   -0.021102  -2+20+
      199   -0.020114    0.020114  20+2+-
      234   -0.020082   -0.020082  0+2202

         ----------------------------------------------------
          Transformation matrix between Active CMOs and DMOs
                    Row for CMO and Column for DMO
         ----------------------------------------------------

             1           2           3           4           5

    1    0.9999953  -0.0000000   0.0026987  -0.0000000  -0.0014644
    2   -0.0000000   0.9999990   0.0000000   0.0000000   0.0000000
    3   -0.0027008   0.0000000   0.9999954   0.0000000  -0.0014105
    4   -0.0000000   0.0000000   0.0000000   1.0000000  -0.0000000
    5    0.0014606  -0.0000000   0.0014144  -0.0000000   0.9999979
    6   -0.0000000  -0.0013905   0.0000000  -0.0000000   0.0000000

             6

    1    0.0000000
    2   -0.0013905
    3   -0.0000000
    4    0.0000000
    5   -0.0000000
    6   -0.9999990

     $REFDET GROUP FOUND

 *************************************************************************
     STEP 2: DIABATIZATION USING CONFIGURATION UNIFORMITY
  See Atchity and Ruedenberg, Theor. Chem. Acc. 1997, 97, 47
 *************************************************************************

READ-IN LIST OF DIABATIC PROTOTYPES:

     THE SAME NUMBER OF PROTOTYPE GROUPS & ADIABATS

     THE ADIABS SHOULD HAVE FULLY COVER THE PROTOTYPES

 Approximated Overlap Matrix for truncated adiabats:
   0.9978858084   0.0000000000   0.0000000000
   0.0000000000   0.9967133173  -0.0000000001
   0.0000000000  -0.0000000001   0.9979604334


 -------------------------------------------
   - DIABATIC HAMILTONIAN MATRIX ELEMENTS - 
 -------------------------------------------
                                            
 --- DIABATIC ENERGIES (DIAGONAL ELEMENT) ---       HARTREE            EV
 STATE #  1'S GMC-CI-LEVEL DIABATIC ENERGY=     -75.682422849       0.000000000
 STATE #  2'S GMC-CI-LEVEL DIABATIC ENERGY=     -75.591950705       2.461872429
 STATE #  3'S GMC-CI-LEVEL DIABATIC ENERGY=     -75.430066376       6.866969404

 --- DIABATIC COUPLINGS (OFF DIAGONAL ELEMENTS)---  HATREE            EV
 STATE #  1 &  2'S GMC-CI-LEVEL COUPLING  =      -0.000000000      -0.000000000
 STATE #  1 &  3'S GMC-CI-LEVEL COUPLING  =       0.000000001       0.000000040
 STATE #  2 &  3'S GMC-CI-LEVEL COUPLING  =       0.000000004       0.000000107

 ---------------------------------------
     - ROTATION TO DIABATIC STATES -    
 ---------------------------------------
 ROWS=ADIABATIC, COLUMNS=DIABATIC STATES

             1           2           3

    1   -1.0000000   0.0000000  -0.0000000
    2   -0.0000000   1.0000000   0.0000000
    3   -0.0000000  -0.0000000   1.0000000

 ---------------------------------------
          - DIABATIC STATES -           
 ---------------------------------------

 State #    1  Energy =     -75.682422849

      Det      Coef        Coefp    Occupancy (Ignoring core)
      ---      ----        ----    --------- --------- -----
        1    0.987105   -0.987105  222+00
      173   -0.075777   -0.075777  202+02
      168   -0.042895   -0.042895  2+-++-
       63   -0.041752   -0.041752  220+20
       68   -0.041359   -0.041359  2-++-+
        8   -0.037526    0.037526  2-2+0+
       47   -0.032760    0.032760  +22-+0
       98    0.032693   -0.032693  +-2+-+
       93    0.032285   -0.032285  +2-+20
       65   -0.030770   -0.030770  -2++20
      170    0.030698   -0.030698  -+2++-
       95   -0.030357   -0.030357  022+20
       79   -0.028706   -0.028706  202+20
       36    0.026499    0.026499  2+2-0+
      157   -0.026296   -0.026296  220+02
        3    0.024961    0.024961  22-++0
      154    0.022696   -0.022696  2-+++-
       82    0.022186   -0.022186  2+-+-+
      184   -0.020400   -0.020400  +-2++-
      241    0.020150    0.020150  2+++--
       84   -0.020085   -0.020085  -+2+-+

 State #    2  Energy =     -75.591950705

      Det      Coef        Coefp    Occupancy (Ignoring core)
      ---      ----        ----    --------- --------- -----
       16   -0.988870   -0.988870  22+200
      203    0.077175   -0.077175  20+202
      198    0.042222   -0.042222  2+02+-
       46    0.040318    0.040318  +22200
       53    0.035612   -0.035612  +-220+
       18   -0.034676    0.034676  2202+0
      200   -0.034267   -0.034267  -++2+-
      128   -0.032976   -0.032976  +-+2-+
      123   -0.031977   -0.031977  +20220
      125    0.031450   -0.031450  02+220
      109    0.027911   -0.027911  20+220
       23    0.026054    0.026054  2-+20+
      112   -0.021508   -0.021508  2+02-+
       28   -0.020714    0.020714  2-02++
      214    0.020030   -0.020030  +-+2+-

 State #    3  Energy =     -75.430066376

      Det      Coef        Coefp    Occupancy (Ignoring core)
      ---      ----        ----    --------- --------- -----
       31    0.990781   -0.990781  2+2200
      113    0.047738    0.047738  20+2-+
      108   -0.047000    0.047000  2+0220
       52   -0.046805   -0.046805  +2-20+
      143    0.031827   -0.031827  +022-+
      110    0.031738    0.031738  -++220
      138   -0.030926   -0.030926  ++-220
      140   -0.030734   -0.030734  0+2220
       33    0.028988   -0.028988  2+-2+0
      202   -0.028890    0.028890  2+0202
        6   -0.028137    0.028137  22200+
       43   -0.027624    0.027624  20-2++
      211    0.025703   -0.025703  +2+20-
       19   -0.023920   -0.023920  2-+2+0
       24    0.021102   -0.021102  -2+20+
      199   -0.020114    0.020114  20+2+-
      234   -0.020082   -0.020082  0+2202

 ---------------------------------------
      - DIABATIC STATES IN CMO -        
 ---------------------------------------

 State #    1  Energy =     -75.682422849

      Det      Coef        Coefp    Occupancy (Ignoring core)
      ---      ----        ----    --------- --------- -----
        1    0.987108   -0.987108  222+00
      173   -0.075829   -0.075829  202+02
      168    0.042835    0.042835  2+-++-
       63   -0.041532   -0.041532  220+20
       68    0.041236    0.041236  2-++-+
        8    0.036198   -0.036198  2-2+0+
       47   -0.032788    0.032788  +22-+0
       98   -0.032723    0.032723  +-2+-+
       93    0.032303   -0.032303  +2-+20
      170   -0.030825    0.030825  -+2++-
       65   -0.030758   -0.030758  -2++20
       95   -0.030526   -0.030526  022+20
       79   -0.028706   -0.028706  202+20
       36   -0.026497   -0.026497  2+2-0+
        3    0.026327    0.026327  22-++0
      157   -0.026295   -0.026295  220+02
      154   -0.022642    0.022642  2-+++-
       82   -0.022132    0.022132  2+-+-+
      184    0.020460    0.020460  +-2++-
       84    0.020145    0.020145  -+2+-+
      241   -0.020123   -0.020123  2+++--

[...]
        6    0.028142   -0.028142  22200+
       43    0.027572   -0.027572  20-2++
       33    0.027487   -0.027487  2+-2+0
      211   -0.025702    0.025702  +2+20-
       19   -0.023850   -0.023850  2-+2+0
       24   -0.021151    0.021151  -2+20+
      199    0.020099   -0.020099  20+2+-
      234   -0.020041   -0.020041  0+2202

 ---------------------------------------
    -DIABATIC STATES IN PROTOTYPES-     
 ---------------------------------------

     STATE:    1
 Group Ref#    Coefficients
     1    1    0.998942
     2    2   -0.000000
     3    3   -0.000000

WEIGHT OF LISTED PROTOTYPES:   99.79%

     STATE:    2
 Group Ref#    Coefficients
     1    1    0.000000
     2    2    0.998355
     3    3   -0.000000

WEIGHT OF LISTED PROTOTYPES:   99.67%

     STATE:    3
 Group Ref#    Coefficients
     1    1   -0.000000
     2    2   -0.000000
     3    3    0.998980

WEIGHT OF LISTED PROTOTYPES:   99.80%

 --------------------------------------------------
 IN DIRECT MAX. DIABATIZATION FOR GMC-QDPT

 DIRECT MAXIMIZATION (DM) WITHOUT TRUNCATING ADIABATS
 EXPANSIONS INTO THE REFERENCE CONFIGURATION SPACE
 --------------------------------------------------

 -------------------------------------------
 - DM DIABT PT HAMILTONIAN MATRIX ELEMENTS -
 -------------------------------------------
                                            
 --- DIABATIC ENERGIES (DIAGONAL ELEMENT) ---       HARTREE            EV
 STATE #  1'S GMC-PT-LEVEL DIABATIC ENERGY=     -75.802383688       0.000000000
 STATE #  2'S GMC-PT-LEVEL DIABATIC ENERGY=     -75.721868721       2.190923847
 STATE #  3'S GMC-PT-LEVEL DIABATIC ENERGY=     -75.566992593       6.405317949

 --- DIABATIC COUPLINGS (OFF DIAGONAL ELEMENTS)---  HATREE            EV
 STATE #  1 &  2'S GMC-PT-LEVEL COUPLING  =      -0.000000000      -0.000000000
 STATE #  1 &  3'S GMC-PT-LEVEL COUPLING  =       0.000000002       0.000000042
 STATE #  2 &  3'S GMC-PT-LEVEL COUPLING  =       0.000000004       0.000000112

 ---------------------------------------
     - ROTATION TO DIABATIC STATES -    
 ---------------------------------------
 ROWS=ADIABATIC, COLUMNS=DIABATIC STATES

             1           2           3

    1   -1.0000000   0.0000000  -0.0000000
    2   -0.0000000   1.0000000   0.0000000
    3    0.0000000   0.0000000  -1.0000000

 ---------------------------------------
          - DIABATIC STATES -           
 ---------------------------------------

 State #    1  Energy =     -75.802383688

      Det      Coef        Coefp    Occupancy (Ignoring core)
      ---      ----        ----    --------- --------- -----
        1    0.987105   -0.987105  222+00
      173   -0.075777   -0.075777  202+02
      168   -0.042895   -0.042895  2+-++-
       63   -0.041752   -0.041752  220+20
       68   -0.041359   -0.041359  2-++-+
        8   -0.037526    0.037526  2-2+0+
       47   -0.032760    0.032760  +22-+0
       98    0.032693   -0.032693  +-2+-+
       93    0.032285   -0.032285  +2-+20
       65   -0.030770   -0.030770  -2++20
      170    0.030698   -0.030698  -+2++-
       95   -0.030357   -0.030357  022+20
       79   -0.028706   -0.028706  202+20
       36    0.026499    0.026499  2+2-0+
      157   -0.026296   -0.026296  220+02
        3    0.024961    0.024961  22-++0
      154    0.022696   -0.022696  2-+++-
       82    0.022186   -0.022186  2+-+-+
      184   -0.020400   -0.020400  +-2++-
      241    0.020150    0.020150  2+++--
       84   -0.020085   -0.020085  -+2+-+

 State #    2  Energy =     -75.721868721

      Det      Coef        Coefp    Occupancy (Ignoring core)
      ---      ----        ----    --------- --------- -----
       16   -0.988870   -0.988870  22+200
      203    0.077175   -0.077175  20+202
      198    0.042222   -0.042222  2+02+-
       46    0.040318    0.040318  +22200
       53    0.035612   -0.035612  +-220+
       18   -0.034676    0.034676  2202+0
      200   -0.034267   -0.034267  -++2+-
      128   -0.032976   -0.032976  +-+2-+
      123   -0.031977   -0.031977  +20220
      125    0.031450   -0.031450  02+220
      109    0.027911   -0.027911  20+220
       23    0.026054    0.026054  2-+20+
      112   -0.021508   -0.021508  2+02-+
       28   -0.020714    0.020714  2-02++
      214    0.020030   -0.020030  +-+2+-

 State #    3  Energy =     -75.566992593

      Det      Coef        Coefp    Occupancy (Ignoring core)
      ---      ----        ----    --------- --------- -----
       31    0.990781   -0.990781  2+2200
      113    0.047738    0.047738  20+2-+
      108   -0.047000    0.047000  2+0220
       52   -0.046805   -0.046805  +2-20+
      143    0.031827   -0.031827  +022-+
      110    0.031738    0.031738  -++220
      138   -0.030926   -0.030926  ++-220
      140   -0.030734   -0.030734  0+2220
       33    0.028988   -0.028988  2+-2+0
      202   -0.028890    0.028890  2+0202
        6   -0.028137    0.028137  22200+
       43   -0.027624    0.027624  20-2++
      211    0.025703   -0.025703  +2+20-
       19   -0.023920   -0.023920  2-+2+0
       24    0.021102   -0.021102  -2+20+
      199   -0.020114    0.020114  20+2+-
      234   -0.020082   -0.020082  0+2202

 ---------------------------------------
      - DIABATIC STATES IN CMO -        
 ---------------------------------------

 State #    1  Energy =     -75.802383688

      Det      Coef        Coefp    Occupancy (Ignoring core)
      ---      ----        ----    --------- --------- -----
        1    0.987108   -0.987108  222+00
      173   -0.075829   -0.075829  202+02
      168    0.042835    0.042835  2+-++-
       63   -0.041532   -0.041532  220+20
       68    0.041236    0.041236  2-++-+
        8    0.036198   -0.036198  2-2+0+
       47   -0.032788    0.032788  +22-+0
       98   -0.032723    0.032723  +-2+-+
       93    0.032303   -0.032303  +2-+20
      170   -0.030825    0.030825  -+2++-
       65   -0.030758   -0.030758  -2++20
       95   -0.030526   -0.030526  022+20
       79   -0.028706   -0.028706  202+20
       36   -0.026497   -0.026497  2+2-0+
        3    0.026327    0.026327  22-++0
      157   -0.026295   -0.026295  220+02
      154   -0.022642    0.022642  2-+++-
       82   -0.022132    0.022132  2+-+-+
      184    0.020460    0.020460  +-2++-
       84    0.020145    0.020145  -+2+-+
      241   -0.020123   -0.020123  2+++--

 State #    2  Energy =     -75.721868721

      Det      Coef        Coefp    Occupancy (Ignoring core)
      ---      ----        ----    --------- --------- -----
       16   -0.988997   -0.988997  22+200
      203    0.077225   -0.077225  20+202
      198   -0.042158    0.042158  2+02+-
       46    0.037723    0.037723  +22200
       18   -0.036086    0.036086  2202+0
       53   -0.035527    0.035527  +-220+
      200    0.034352    0.034352  -++2+-
      128    0.032881    0.032881  +-+2-+
      123   -0.031839   -0.031839  +20220
      125    0.031570   -0.031570  02+220
      109    0.027880   -0.027880  20+220
       23   -0.024768   -0.024768  2-+20+
      112    0.021481    0.021481  2+02-+
       28    0.020677   -0.020677  2-02++
      214   -0.020030    0.020030  +-+2+-

 State #    3  Energy =     -75.566992593

      Det      Coef        Coefp    Occupancy (Ignoring core)
      ---      ----        ----    --------- --------- -----
       31    0.990814   -0.990814  2+2200
      113   -0.047672   -0.047672  20+2-+
      108   -0.046875    0.046875  2+0220
       52    0.046852    0.046852  +2-20+
      143   -0.031989    0.031989  +022-+
      110    0.031800    0.031800  -++220
      138   -0.030999   -0.030999  ++-220
      140   -0.030910   -0.030910  0+2220
      202   -0.028907    0.028907  2+0202
        6    0.028142   -0.028142  22200+
       43    0.027572   -0.027572  20-2++
       33    0.027487   -0.027487  2+-2+0
      211   -0.025702    0.025702  +2+20-
       19   -0.023850   -0.023850  2-+2+0
       24   -0.021151    0.021151  -2+20+
      199    0.020099   -0.020099  20+2+-
      234   -0.020041   -0.020041  0+2202

 ---------------------------------------
    -DIABATIC STATES IN PROTOTYPES-     
 ---------------------------------------

     STATE:    1
 Group Ref#    Coefficients
     1    1    0.998942
     2    2   -0.000000
     3    3   -0.000000

WEIGHT OF LISTED PROTOTYPES:   99.79%

     STATE:    2
 Group Ref#    Coefficients
     1    1    0.000000
     2    2    0.998355
     3    3   -0.000000

WEIGHT OF LISTED PROTOTYPES:   99.67%

     STATE:    3
 Group Ref#    Coefficients
     1    1   -0.000000
     2    2   -0.000000
     3    3    0.998980

WEIGHT OF LISTED PROTOTYPES:   99.80%

     DIRECT MAX. DIABATIZATION FINISHED    
 CPU     0: STEP CPU TIME=     0.04 TOTAL CPU TIME=          1.2 (      0.0 MIN)
 TOTAL WALL CLOCK TIME=          2.9 SECONDS, CPU UTILIZATION IS    40.28%

DIABATS FOR SPIN-ORBIT CALCULATION ARE READY

TRANSITION DIPOLES BETWEEN ADIABATS (in A.U.):

STATE PAIR      X         Y         Z
    1    1 -0.000000  0.000000  0.271392
    2    1 -0.000000  0.166010  0.000000
    2    2 -0.000000 -0.000000  0.459341
    3    1 -0.000000  0.000000 -0.000000
    3    2 -0.121045 -0.000000  0.000000
    3    3  0.000000  0.000000  0.047858


TRANSITION DIPOLES BETWEEN DIABATS (in A.U.):

STATE PAIR      X         Y         Z
    1    1 -0.000000  0.000000  0.271392
    2    1  0.000000 -0.166010 -0.000000
    2    2 -0.000000 -0.000000  0.459341
    3    1 -0.000000 -0.000000 -0.000000
    3    2  0.121045 -0.000000  0.000000
    3    3  0.000000  0.000000  0.047858

TRANSITION DIPOLES BETWEEN DIRECT MAX. DIABATS (in A.U.):

STATE PAIR      X         Y         Z
    1    1 -0.000000  0.000000  0.271392
    2    1  0.000000 -0.166010 -0.000000
    2    2 -0.000000 -0.000000  0.459341
    3    1 -0.000000 -0.000000 -0.000000
    3    2  0.121045 -0.000000  0.000000
    3    3  0.000000  0.000000  0.047858
 No $TRANST Group Found.
 Quit without doing spin-orbit coupling
 ..... DONE WITH MP2 ENERGY .....
 CPU     0: STEP CPU TIME=     0.00 TOTAL CPU TIME=          1.2 (      0.0 MIN)
 TOTAL WALL CLOCK TIME=          2.9 SECONDS, CPU UTILIZATION IS    40.28%
            250000000  WORDS OF DYNAMIC MEMORY USED
 EXECUTION OF GAMESS TERMINATED NORMALLY Thu Jan 25 17:20:27 2024
 DDI: 386504 bytes (0.4 MB / 0 MWords) used by master data server.
Note: The following floating-point exceptions are signalling: IEEE_DENORMAL

 ----------------------------------------
 CPU timing information for all processes
 ========================================
 0: 1.50 + 0.129 = 1.180
 1: 0.976 + 0.70 = 1.46
 ----------------------------------------
Note: The following floating-point exceptions are signalling: IEEE_DENORMAL
 ddikick.x: exited gracefully.
unset echo
----- accounting info -----
Files used on the master node io002 were:
-rwxr-xr-x 1 bjb2chen nooijen   16380 Jan 25 17:20 /home/bjb2chen/gmsscr//H2Ocat_cct_gmcpt_C1_3st_diab_mode8_-0.05_mode7_+0.05.F05*
-rw-r--r-- 1 bjb2chen nooijen  182424 Jan 25 17:20 /home/bjb2chen/gmsscr//H2Ocat_cct_gmcpt_C1_3st_diab_mode8_-0.05_mode7_+0.05.F09
-rw-r--r-- 1 bjb2chen nooijen  180016 Jan 25 17:20 /home/bjb2chen/gmsscr//H2Ocat_cct_gmcpt_C1_3st_diab_mode8_-0.05_mode7_+0.05.F09.001
-rw-r--r-- 1 bjb2chen nooijen 1995920 Jan 25 17:20 /home/bjb2chen/gmsscr//H2Ocat_cct_gmcpt_C1_3st_diab_mode8_-0.05_mode7_+0.05.F10
-rw-r--r-- 1 bjb2chen nooijen   33168 Jan 25 17:20 /home/bjb2chen/gmsscr//H2Ocat_cct_gmcpt_C1_3st_diab_mode8_-0.05_mode7_+0.05.F13
-rw-r--r-- 1 bjb2chen nooijen   33168 Jan 25 17:20 /home/bjb2chen/gmsscr//H2Ocat_cct_gmcpt_C1_3st_diab_mode8_-0.05_mode7_+0.05.F13.001
-rw-r--r-- 1 bjb2chen nooijen  180248 Jan 25 17:20 /home/bjb2chen/gmsscr//H2Ocat_cct_gmcpt_C1_3st_diab_mode8_-0.05_mode7_+0.05.F15
-rw-r--r-- 1 bjb2chen nooijen       0 Jan 25 17:20 /home/bjb2chen/gmsscr//H2Ocat_cct_gmcpt_C1_3st_diab_mode8_-0.05_mode7_+0.05.F16
-rw-r--r-- 1 bjb2chen nooijen    2408 Jan 25 17:20 /home/bjb2chen/gmsscr//H2Ocat_cct_gmcpt_C1_3st_diab_mode8_-0.05_mode7_+0.05.F70
-rw-r--r-- 1 bjb2chen nooijen    2408 Jan 25 17:20 /home/bjb2chen/gmsscr//H2Ocat_cct_gmcpt_C1_3st_diab_mode8_-0.05_mode7_+0.05.F70.001
-rw-r--r-- 1 bjb2chen nooijen    2408 Jan 25 17:20 /home/bjb2chen/gmsscr//H2Ocat_cct_gmcpt_C1_3st_diab_mode8_-0.05_mode7_+0.05.F71
-rw-r--r-- 1 bjb2chen nooijen    2408 Jan 25 17:20 /home/bjb2chen/gmsscr//H2Ocat_cct_gmcpt_C1_3st_diab_mode8_-0.05_mode7_+0.05.F71.001
-rw-r--r-- 1 bjb2chen nooijen    4808 Jan 25 17:20 /home/bjb2chen/gmsscr//H2Ocat_cct_gmcpt_C1_3st_diab_mode8_-0.05_mode7_+0.05.F72
-rw-r--r-- 1 bjb2chen nooijen    4808 Jan 25 17:20 /home/bjb2chen/gmsscr//H2Ocat_cct_gmcpt_C1_3st_diab_mode8_-0.05_mode7_+0.05.F72.001
-rw-r--r-- 1 bjb2chen nooijen    4808 Jan 25 17:20 /home/bjb2chen/gmsscr//H2Ocat_cct_gmcpt_C1_3st_diab_mode8_-0.05_mode7_+0.05.F73
-rw-r--r-- 1 bjb2chen nooijen    4808 Jan 25 17:20 /home/bjb2chen/gmsscr//H2Ocat_cct_gmcpt_C1_3st_diab_mode8_-0.05_mode7_+0.05.F73.001
-rw-r--r-- 1 bjb2chen nooijen  184824 Jan 25 17:20 /home/bjb2chen/gmsscr//H2Ocat_cct_gmcpt_C1_3st_diab_mode8_-0.05_mode7_+0.05.F74
-rw-r--r-- 1 bjb2chen nooijen  184824 Jan 25 17:20 /home/bjb2chen/gmsscr//H2Ocat_cct_gmcpt_C1_3st_diab_mode8_-0.05_mode7_+0.05.F74.001
-rw-r--r-- 1 bjb2chen nooijen  720024 Jan 25 17:20 /home/bjb2chen/gmsscr//H2Ocat_cct_gmcpt_C1_3st_diab_mode8_-0.05_mode7_+0.05.F75
-rw-r--r-- 1 bjb2chen nooijen  720024 Jan 25 17:20 /home/bjb2chen/gmsscr//H2Ocat_cct_gmcpt_C1_3st_diab_mode8_-0.05_mode7_+0.05.F75.001
-rw-r--r-- 1 bjb2chen nooijen   14448 Jan 25 17:20 /home/bjb2chen/gmsscr//H2Ocat_cct_gmcpt_C1_3st_diab_mode8_-0.05_mode7_+0.05.F76
-rw-r--r-- 1 bjb2chen nooijen   14448 Jan 25 17:20 /home/bjb2chen/gmsscr//H2Ocat_cct_gmcpt_C1_3st_diab_mode8_-0.05_mode7_+0.05.F76.001
-rw-r--r-- 1 bjb2chen nooijen       0 Jan 25 17:20 /home/bjb2chen/gmsscr//H2Ocat_cct_gmcpt_C1_3st_diab_mode8_-0.05_mode7_+0.05.F77
-rw-r--r-- 1 bjb2chen nooijen       0 Jan 25 17:20 /home/bjb2chen/gmsscr//H2Ocat_cct_gmcpt_C1_3st_diab_mode8_-0.05_mode7_+0.05.F77.001
-rw-r--r-- 1 bjb2chen nooijen    1544 Jan 25 17:20 /home/bjb2chen/gmsscr//H2Ocat_cct_gmcpt_C1_3st_diab_mode8_-0.05_mode7_+0.05.F78
-rw-r--r-- 1 bjb2chen nooijen    1544 Jan 25 17:20 /home/bjb2chen/gmsscr//H2Ocat_cct_gmcpt_C1_3st_diab_mode8_-0.05_mode7_+0.05.F78.001
-rw-r--r-- 1 bjb2chen nooijen    9608 Jan 25 17:20 /home/bjb2chen/gmsscr//H2Ocat_cct_gmcpt_C1_3st_diab_mode8_-0.05_mode7_+0.05.F79
-rw-r--r-- 1 bjb2chen nooijen    9608 Jan 25 17:20 /home/bjb2chen/gmsscr//H2Ocat_cct_gmcpt_C1_3st_diab_mode8_-0.05_mode7_+0.05.F79.001
-rw-r--r-- 1 bjb2chen nooijen     104 Jan 25 17:20 /home/bjb2chen/gmsscr//H2Ocat_cct_gmcpt_C1_3st_diab_mode8_-0.05_mode7_+0.05.F80
-rw-r--r-- 1 bjb2chen nooijen     104 Jan 25 17:20 /home/bjb2chen/gmsscr//H2Ocat_cct_gmcpt_C1_3st_diab_mode8_-0.05_mode7_+0.05.F80.001
-rw-r--r-- 1 bjb2chen nooijen    9232 Jan 25 17:20 /home/bjb2chen/gmsscr//H2Ocat_cct_gmcpt_C1_3st_diab_mode8_-0.05_mode7_+0.05.F81
-rw-r--r-- 1 bjb2chen nooijen    9232 Jan 25 17:20 /home/bjb2chen/gmsscr//H2Ocat_cct_gmcpt_C1_3st_diab_mode8_-0.05_mode7_+0.05.F81.001
-rw-r--r-- 1 bjb2chen nooijen      16 Jan 25 17:20 /home/bjb2chen/gmsscr//H2Ocat_cct_gmcpt_C1_3st_diab_mode8_-0.05_mode7_+0.05.F82
-rw-r--r-- 1 bjb2chen nooijen      16 Jan 25 17:20 /home/bjb2chen/gmsscr//H2Ocat_cct_gmcpt_C1_3st_diab_mode8_-0.05_mode7_+0.05.F82.001
-rw-r--r-- 1 bjb2chen nooijen   10376 Jan 25 17:20 /home/bjb2chen/gmsscr//H2Ocat_cct_gmcpt_C1_3st_diab_mode8_-0.05_mode7_+0.05.F83
-rw-r--r-- 1 bjb2chen nooijen   10376 Jan 25 17:20 /home/bjb2chen/gmsscr//H2Ocat_cct_gmcpt_C1_3st_diab_mode8_-0.05_mode7_+0.05.F83.001
-rw-r--r-- 1 bjb2chen nooijen   18832 Jan 25 17:20 /home/bjb2chen/gmsscr//H2Ocat_cct_gmcpt_C1_3st_diab_mode8_-0.05_mode7_+0.05.F84
-rw-r--r-- 1 bjb2chen nooijen   18832 Jan 25 17:20 /home/bjb2chen/gmsscr//H2Ocat_cct_gmcpt_C1_3st_diab_mode8_-0.05_mode7_+0.05.F84.001
-rw-r--r-- 1 bjb2chen nooijen   73968 Jan 25 17:20 /home/bjb2chen/gmsscr//H2Ocat_cct_gmcpt_C1_3st_diab_mode8_-0.05_mode7_+0.05.F85
-rw-r--r-- 1 bjb2chen nooijen   73968 Jan 25 17:20 /home/bjb2chen/gmsscr//H2Ocat_cct_gmcpt_C1_3st_diab_mode8_-0.05_mode7_+0.05.F85.001
-rw-r--r-- 1 bjb2chen nooijen   82424 Jan 25 17:20 /home/bjb2chen/gmsscr//H2Ocat_cct_gmcpt_C1_3st_diab_mode8_-0.05_mode7_+0.05.F86
-rw-r--r-- 1 bjb2chen nooijen   72536 Jan 25 17:20 /home/bjb2chen/gmsscr//H2Ocat_cct_gmcpt_C1_3st_diab_mode8_-0.05_mode7_+0.05.F86.001
-rw-r--r-- 1 bjb2chen nooijen     656 Jan 25 17:20 /home/bjb2chen/gmsscr//H2Ocat_cct_gmcpt_C1_3st_diab_mode8_-0.05_mode7_+0.05.F87
-rw-r--r-- 1 bjb2chen nooijen     656 Jan 25 17:20 /home/bjb2chen/gmsscr//H2Ocat_cct_gmcpt_C1_3st_diab_mode8_-0.05_mode7_+0.05.F87.001
-rw-r--r-- 1 bjb2chen nooijen    5296 Jan 25 17:20 /home/bjb2chen/gmsscr//H2Ocat_cct_gmcpt_C1_3st_diab_mode8_-0.05_mode7_+0.05.F88
-rw-r--r-- 1 bjb2chen nooijen    5296 Jan 25 17:20 /home/bjb2chen/gmsscr//H2Ocat_cct_gmcpt_C1_3st_diab_mode8_-0.05_mode7_+0.05.F88.001
-rw-r--r-- 1 bjb2chen nooijen     200 Jan 25 17:20 /home/bjb2chen/gmsscr//H2Ocat_cct_gmcpt_C1_3st_diab_mode8_-0.05_mode7_+0.05.F89
-rw-r--r-- 1 bjb2chen nooijen     200 Jan 25 17:20 /home/bjb2chen/gmsscr//H2Ocat_cct_gmcpt_C1_3st_diab_mode8_-0.05_mode7_+0.05.F89.001
-rw-r--r-- 1 bjb2chen nooijen       0 Jan 25 17:20 /home/bjb2chen/gmsscr//H2Ocat_cct_gmcpt_C1_3st_diab_mode8_-0.05_mode7_+0.05.F90
-rw-r--r-- 1 bjb2chen nooijen       0 Jan 25 17:20 /home/bjb2chen/gmsscr//H2Ocat_cct_gmcpt_C1_3st_diab_mode8_-0.05_mode7_+0.05.F90.001
-rw-r--r-- 1 bjb2chen nooijen    5560 Jan 25 17:20 /home/bjb2chen/gmsscr//H2Ocat_cct_gmcpt_C1_3st_diab_mode8_-0.05_mode7_+0.05.F91
-rw-r--r-- 1 bjb2chen nooijen    5560 Jan 25 17:20 /home/bjb2chen/gmsscr//H2Ocat_cct_gmcpt_C1_3st_diab_mode8_-0.05_mode7_+0.05.F91.001
-rw-r--r-- 1 bjb2chen nooijen    7128 Jan 25 17:20 /home/bjb2chen/gmsscr//H2Ocat_cct_gmcpt_C1_3st_diab_mode8_-0.05_mode7_+0.05.F92
-rw-r--r-- 1 bjb2chen nooijen    7128 Jan 25 17:20 /home/bjb2chen/gmsscr//H2Ocat_cct_gmcpt_C1_3st_diab_mode8_-0.05_mode7_+0.05.F92.001
-rw-r--r-- 1 bjb2chen nooijen    5560 Jan 25 17:20 /home/bjb2chen/gmsscr//H2Ocat_cct_gmcpt_C1_3st_diab_mode8_-0.05_mode7_+0.05.F93
-rw-r--r-- 1 bjb2chen nooijen    5560 Jan 25 17:20 /home/bjb2chen/gmsscr//H2Ocat_cct_gmcpt_C1_3st_diab_mode8_-0.05_mode7_+0.05.F93.001
-rw-r--r-- 1 bjb2chen nooijen    3880 Jan 25 17:20 /home/bjb2chen/gmsscr//H2Ocat_cct_gmcpt_C1_3st_diab_mode8_-0.05_mode7_+0.05.F94
-rw-r--r-- 1 bjb2chen nooijen    3880 Jan 25 17:20 /home/bjb2chen/gmsscr//H2Ocat_cct_gmcpt_C1_3st_diab_mode8_-0.05_mode7_+0.05.F94.001
-rw-r--r-- 1 bjb2chen nooijen    1640 Jan 25 17:20 /home/bjb2chen/gmsscr//H2Ocat_cct_gmcpt_C1_3st_diab_mode8_-0.05_mode7_+0.05.F95
-rw-r--r-- 1 bjb2chen nooijen    1640 Jan 25 17:20 /home/bjb2chen/gmsscr//H2Ocat_cct_gmcpt_C1_3st_diab_mode8_-0.05_mode7_+0.05.F95.001
-rw-r--r-- 1 bjb2chen nooijen    7240 Jan 25 17:20 /home/bjb2chen/gmsscr//H2Ocat_cct_gmcpt_C1_3st_diab_mode8_-0.05_mode7_+0.05.F96
-rw-r--r-- 1 bjb2chen nooijen    7240 Jan 25 17:20 /home/bjb2chen/gmsscr//H2Ocat_cct_gmcpt_C1_3st_diab_mode8_-0.05_mode7_+0.05.F96.001
-rw-r--r-- 1 bjb2chen nooijen     872 Jan 25 17:20 /home/bjb2chen/gmsscr//H2Ocat_cct_gmcpt_C1_3st_diab_mode8_-0.05_mode7_+0.05.F97
-rw-r--r-- 1 bjb2chen nooijen     872 Jan 25 17:20 /home/bjb2chen/gmsscr//H2Ocat_cct_gmcpt_C1_3st_diab_mode8_-0.05_mode7_+0.05.F97.001
-rw-r--r-- 1 bjb2chen nooijen    2408 Jan 25 17:20 /home/bjb2chen/gmsscr//H2Ocat_cct_gmcpt_C1_3st_diab_mode8_-0.05_mode7_+0.05.F98
-rw-r--r-- 1 bjb2chen nooijen    2408 Jan 25 17:20 /home/bjb2chen/gmsscr//H2Ocat_cct_gmcpt_C1_3st_diab_mode8_-0.05_mode7_+0.05.F98.001
-rw-r--r-- 1 bjb2chen nooijen    6024 Jan 25 17:20 /home/bjb2chen/gmsscr//H2Ocat_cct_gmcpt_C1_3st_diab_mode8_-0.05_mode7_+0.05.F99
-rw-r--r-- 1 bjb2chen nooijen    6024 Jan 25 17:20 /home/bjb2chen/gmsscr//H2Ocat_cct_gmcpt_C1_3st_diab_mode8_-0.05_mode7_+0.05.F99.001
ls: No match.
ls: No match.
ls: No match.
Thu 25 Jan 2024 05:20:33 PM EST
0.357u 0.108s 0:09.17 4.9%	0+0k 32+240io 0pf+0w
