----- GAMESS execution script 'rungms' -----
This job is running on host io003
under operating system Linux at Tue 01 Nov 2022 12:10:40 PM EDT
Available scratch disk space (Kbyte units) at beginning of the job is
Filesystem                  1K-blocks      Used Available Use% Mounted on
/dev/mapper/scratch-scratch 768943464 394188844 335667928  55% /scratch
GAMESS temporary binary files will be written to /scratch/bjb2chen
GAMESS supplementary output files will be written to /home/bjb2chen/.gamess_ascii_files/267495
Copying input file h2scat_cct_gmcpt_6o7e_3st_diab_as0.3.inp to your run's scratch directory...
cp h2scat_cct_gmcpt_6o7e_3st_diab_as0.3.inp /scratch/bjb2chen/h2scat_cct_gmcpt_6o7e_3st_diab_as0.3.F05
unset echo
/home/bjb2chen/gamess/ddikick.x /home/bjb2chen/gamess/gamess.00.x h2scat_cct_gmcpt_6o7e_3st_diab_as0.3 -ddi 1 1 io003 -scr /scratch/bjb2chen

 Distributed Data Interface kickoff program.
 Initiating 1 compute processes on 1 nodes to run the following command:
 /home/bjb2chen/gamess/gamess.00.x h2scat_cct_gmcpt_6o7e_3st_diab_as0.3 

          ******************************************************
          *         GAMESS VERSION = 02 AUG 2018 (R2)         *
          *             FROM IOWA STATE UNIVERSITY             *
          * M.W.SCHMIDT, K.K.BALDRIDGE, J.A.BOATZ, S.T.ELBERT, *
          *   M.S.GORDON, J.H.JENSEN, S.KOSEKI, N.MATSUNAGA,   *
          *          K.A.NGUYEN, S.J.SU, T.L.WINDUS,           *
          *       TOGETHER WITH M.DUPUIS, J.A.MONTGOMERY       *
          *         J.COMPUT.CHEM.  14, 1347-1363(1993)        *
          **************** 64 BIT LINUX VERSION ****************

  SINCE 1993, STUDENTS AND POSTDOCS WORKING AT IOWA STATE UNIVERSITY
  AND ALSO IN THEIR VARIOUS JOBS AFTER LEAVING ISU HAVE MADE IMPORTANT
  CONTRIBUTIONS TO THE CODE:
     IVANA ADAMOVIC, CHRISTINE AIKENS, YURI ALEXEEV, POOJA ARORA,
     ANDREY ASADCHEV, ROB BELL, PRADIPTA BANDYOPADHYAY, JONATHAN BENTZ,
     BRETT BODE, KURT BRORSEN, CALEB CARLIN, GALINA CHABAN, WEI CHEN,
     CHEOL HO CHOI, PAUL DAY, ALBERT DEFUSCO, NUWAN DESILVA, TIM DUDLEY,
     DMITRI FEDOROV, ALEX FINDLATER, GRAHAM FLETCHER, MARK FREITAG,
     KURT GLAESEMANN, ANASTASIA GUININA,
     DAN KEMP, GRANT MERRILL, NORIYUKI MINEZAWA, JONATHAN MULLIN,
     TAKESHI NAGATA, SEAN NEDD, HEATHER NETZLOFF, BOSILJKA NJEGIC, RYAN OLSON,
     MIKE PAK, BUU PHAM,
     SPENCER PRUITT, LUKE ROSKOP, JIM SHOEMAKER, LYUDMILA SLIPCHENKO,
     TONY SMITH, SAROM SOK LEANG, JIE SONG, TETSUYA TAKETSUGU, SIMON WEBB,
     PENG XU, SOOHAENG YOO, FEDERICO ZAHARIEV

  ADDITIONAL CODE HAS BEEN PROVIDED BY COLLABORATORS IN OTHER GROUPS:
     IOWA STATE UNIVERSITY:
          JOE IVANIC, AARON WEST, LAIMUTIS BYTAUTAS, KLAUS RUEDENBERG
     UNIVERSITY OF TOKYO: KIMIHIKO HIRAO, TAKAHITO NAKAJIMA,
          TAKAO TSUNEDA, MUNEAKI KAMIYA, SUSUMU YANAGISAWA,
          KIYOSHI YAGI, MAHITO CHIBA, SEIKEN TOKURA, NAOAKI KAWAKAMI
     UNIVERSITY OF AARHUS: FRANK JENSEN
     UNIVERSITY OF IOWA: VISVALDAS KAIRYS, HUI LI
     NATIONAL INST. OF STANDARDS AND TECHNOLOGY: WALT STEVENS, DAVID GARMER
     UNIVERSITY OF PISA: BENEDETTA MENNUCCI, JACOPO TOMASI
     UNIVERSITY OF MEMPHIS: HENRY KURTZ, PRAKASHAN KORAMBATH
     UNIVERSITY OF ALBERTA: TOBY ZENG, MARIUSZ KLOBUKOWSKI
     UNIVERSITY OF NEW ENGLAND: MARK SPACKMAN
     MIE UNIVERSITY: HIROAKI UMEDA
     NAT. INST. OF ADVANCED INDUSTRIAL SCIENCE AND TECHNOLOGY: KAZUO KITAURA
     MICHIGAN STATE UNIVERSITY:
          KAROL KOWALSKI, MARTA WLOCH, JEFFREY GOUR, JESSE LUTZ,
          WEI LI, JUN SHEN, J. EMILIANO DEUSTUA, PIOTR PIECUCH
     UNIVERSITY OF MINNESOTA:
          YINAN SHU
     UNIVERSITY OF SILESIA: MONIKA MUSIAL, STANISLAW KUCHARSKI
     FACULTES UNIVERSITAIRES NOTRE-DAME DE LA PAIX:
          OLIVIER QUINET, BENOIT CHAMPAGNE
     UNIVERSITY OF CALIFORNIA - SANTA BARBARA: BERNARD KIRTMAN
     INSTITUTE FOR MOLECULAR SCIENCE:
          KAZUYA ISHIMURA, MICHIO KATOUDA, AND SHIGERU NAGASE
     UNIVERSITY OF NOTRE DAME: ANNA POMOGAEVA, DAN CHIPMAN
     KYUSHU UNIVERSITY:
          HARUYUKI NAKANO,
          FENG LONG GU, JACEK KORCHOWIEC, MARCIN MAKOWSKI, AND YURIKO AOKI,
          HIROTOSHI MORI AND EISAKU MIYOSHI
     PENNSYLVANIA STATE UNIVERSITY:
          TZVETELIN IORDANOV, CHET SWALINA, JONATHAN SKONE,
          SHARON HAMMES-SCHIFFER
     WASEDA UNIVERSITY:
          MASATO KOBAYASHI, TOMOKO AKAMA, TSUGUKI TOUMA,
          TAKESHI YOSHIKAWA, YASUHIRO IKABATA, JUNJI SEINO,
          YUYA NAKAJIMA, HIROMI NAKAI
     NANJING UNIVERSITY: SHUHUA LI
     UNIVERSITY OF NEBRASKA:
          PEIFENG SU, DEJUN SI, NANDUN THELLAMUREGE, YALI WANG, HUI LI
     UNIVERSITY OF ZURICH: ROBERTO PEVERATI, KIM BALDRIDGE
     N. COPERNICUS UNIVERSITY AND JACKSON STATE UNIVERSITY:
          MARIA BARYSZ
     UNIVERSITY OF COPENHAGEN: Jimmy Kromann, CASPER STEINMANN
     TOKYO INSTITUTE OF TECHNOLOGY: HIROYA NAKATA
     NAGOYA UNIVERSITY: YOSHIO NISHIMOTO, STEPHAN IRLE
     MOSCOW STATE UNIVERSITY: VLADIMIR MIRONOV

 EXECUTION OF GAMESS BEGUN Tue Nov  1 12:10:40 2022

            ECHO OF THE FIRST FEW INPUT CARDS -
 INPUT CARD> !Step 4: single point gmcpt calculation averaging 3 states                     
 INPUT CARD> !        for H2S+ at H2S structure. The RHF orbitals at                        
 INPUT CARD> !        the MP2 optimized structure is taken as the initial                   
 INPUT CARD> !        guess of orbitals in the $VEC group. 3 states are asked               
 INPUT CARD> !        for because state 4 and 5 are a bit higher. Now with the DMO group.   
 INPUT CARD> !        The calculation should generate the DMO for diabatization calculation.
 INPUT CARD> !        Now with the REFDET group to do diabatization.                        
 INPUT CARD> $system kdiag=3 mwords=100 memddi=1000 parall=.t. $end                         
 INPUT CARD> $contrl runtyp=energy ispher=1 $end                                            
 INPUT CARD> $contrl icut=9 itol=20 inttyp=rysquad qmttol=1.0d-05 nosym=1 $end              
 INPUT CARD> $scf    npunch=2 conv=1.0d-06 dirscf=.t.      $end                             
 INPUT CARD> $contrl scftyp=mcscf  mult=2 maxit=200 icharg=1 mplevl=2 $end                  
 INPUT CARD> $guess  guess=moread norb=67 purify=.t. $end                                   
 INPUT CARD> $basis  gbasis=cct $end                                                        
 INPUT CARD> $mcscf  cistep=gmcci fullnr=.t. finci=mos                                      
 INPUT CARD>         acurcy=1.d-6 maxit=100 $end                                            
 INPUT CARD> $trans  dirtrf=.t. $end                                                        
 INPUT CARD> $mrmp   mrpt=gmcpt rdvecs=.f. $end                                             
 INPUT CARD> $gmcpt  nmofzc=1 nmodoc=4 nmoact=6 nelact=7 stsym(1)=A                         
 INPUT CARD>         reftyp=ormas nspace=1 mstart(1)=6 mine(1)=7 maxe(1)=7                  
 INPUT CARD>         kstate(1)=1,1,1                                                        
 INPUT CARD>         wstate(1)=1,1,1                                                        
 INPUT CARD>         iwgt=0 thrwgt=-1.0 krot=.f. kszdoe=.f. knospn=.f.                      
 INPUT CARD>         thrde=-1.0 edshft=0.02 $end                                            
 INPUT CARD> $data                                                                          
 INPUT CARD> H2S+ 5 states calculation at H2S structure.                                    
 INPUT CARD> C1                                                                             
 INPUT CARD>S 16.0 -.009444126 0 -.1250090427                                               
 INPUT CARD>H 1.0 -.8100784961 0 .6548836484                                                
 INPUT CARD>H 1.0 1.1096721221 0 .9433053914                                                
 INPUT CARD> $END                                                                           
 INPUT CARD>--- OPTIMIZED RHF      MO-S --- GENERATED AT Thu Oct 27 10:13:22 2022           
 INPUT CARD>E=     -398.9058481329, E(NUC)=   12.9846624426                                 
 INPUT CARD> $VEC                                                                           
 INPUT CARD> 1  1 1.00011026E+00 1.43520516E-04 1.30762006E-04-7.19841046E-04-4.04367933E-05
 INPUT CARD> 1  2 0.00000000E+00 0.00000000E+00 1.46481549E-04 0.00000000E+00 0.00000000E+00
 INPUT CARD> 1  3 1.53800072E-04 0.00000000E+00 0.00000000E+00-7.74673354E-05 0.00000000E+00
 INPUT CARD> 1  4 0.00000000E+00-6.12563802E-06 8.50208756E-06-9.50065215E-06 9.98564596E-07
 INPUT CARD> 1  5 0.00000000E+00 0.00000000E+00 0.00000000E+00 1.49530933E-05-4.16980391E-05
 INPUT CARD> 1  6 2.67449458E-05 0.00000000E+00 0.00000000E+00 0.00000000E+00 0.00000000E+00
 INPUT CARD> 1  7 0.00000000E+00-1.67146408E-06 0.00000000E+00 1.76499637E-05 0.00000000E+00
 INPUT CARD> 1  8-1.54074593E-05 0.00000000E+00 0.00000000E+00 0.00000000E+00-1.83884890E-06
 INPUT CARD> 1  9 2.36115839E-06-5.22309483E-07 0.00000000E+00 0.00000000E+00 0.00000000E+00
 INPUT CARD> 1 10-6.24513082E-07-9.98605962E-05 1.10759173E-05-2.55516507E-06 0.00000000E+00
 INPUT CARD> 1 11 2.50401905E-06-4.41737445E-05 0.00000000E+00 3.25175870E-05-2.07356794E-06
 INPUT CARD> 1 12 6.55129107E-07 1.41843883E-06 0.00000000E+00-1.34329310E-06 0.00000000E+00
 INPUT CARD> 1 13-6.24513082E-07-9.98605962E-05 1.10759173E-05 2.55516507E-06 0.00000000E+00
 INPUT CARD> 1 14 2.50401905E-06 4.41737445E-05 0.00000000E+00 3.25175870E-05-2.07356794E-06
 INPUT CARD> 1 15 6.55129107E-07 1.41843883E-06 0.00000000E+00 1.34329310E-06 0.00000000E+00
 INPUT CARD> 2  1 3.15060126E-04-9.47897368E-01 1.19814733E-03-7.03217165E-02-2.35194099E-03
  100000000 WORDS OF MEMORY AVAILABLE

     BASIS OPTIONS
     -------------
     GBASIS=CCT          IGAUSS=       0      POLAR=NONE    
     NDFUNC=       0     NFFUNC=       0     DIFFSP=       F
     NPFUNC=       0      DIFFS=       F     BASNAM=        


     RUN TITLE
     ---------
  H2S+ 5 states calculation at H2S structure.                                    

 THE POINT GROUP OF THE MOLECULE IS C1      
 THE ORDER OF THE PRINCIPAL AXIS IS     0

 ATOM      ATOMIC                      COORDINATES (BOHR)
           CHARGE         X                   Y                   Z
 S          16.0    -0.0178468103        0.0000000000       -0.2362328367
 H           1.0    -1.5308263862        0.0000000000        1.2375506493
 H           1.0     2.0969762470        0.0000000000        1.7825887125

          INTERNUCLEAR DISTANCES (ANGS.)
          ------------------------------

                1 S          2 H          3 H     

   1 S       0.0000000    1.1176976 *  1.5471641 *
   2 H       1.1176976 *  0.0000000    1.9412958 *
   3 H       1.5471641 *  1.9412958 *  0.0000000  

  * ... LESS THAN  3.000


     ATOMIC BASIS SET
     ----------------
 THE CONTRACTED PRIMITIVE FUNCTIONS HAVE BEEN UNNORMALIZED
 THE CONTRACTED BASIS FUNCTIONS ARE NOW NORMALIZED TO UNITY

  SHELL TYPE  PRIMITIVE        EXPONENT          CONTRACTION COEFFICIENT(S)

 S         

      1   S       1        374100.0000000    0.000054209268
      1   S       2         56050.0000000    0.000420818270
      1   S       3         12760.0000000    0.002206787384
      1   S       4          3615.0000000    0.009191777710
      1   S       5          1183.0000000    0.032109497373
      1   S       6           428.8000000    0.094660037747
      1   S       7           167.8000000    0.223610482509
      1   S       8            69.4700000    0.374360324545
      1   S       9            29.8400000    0.329079276830
      1   S      10            12.7200000    0.084696407407
      1   S      11             5.2440000    0.000440812524
      1   S      12             2.2190000    0.001648126146
      1   S      13             0.3490000    0.000301279703

      2   S      14        374100.0000000   -0.000015779023
      2   S      15         56050.0000000   -0.000122365697
      2   S      16         12760.0000000   -0.000644045337
      2   S      17          3615.0000000   -0.002689248357
      2   S      18          1183.0000000   -0.009569414953
      2   S      19           428.8000000   -0.029175032745
      2   S      20           167.8000000   -0.075823808684
      2   S      21            69.4700000   -0.154211865224
      2   S      22            29.8400000   -0.205508406220
      2   S      23            12.7200000    0.008626751105
      2   S      24             5.2440000    0.544021768700
      2   S      25             2.2190000    0.570956375443
      2   S      26             0.3490000   -0.009668025289

      3   S      27        374100.0000000    0.000006823816
      3   S      28         56050.0000000    0.000052878906
      3   S      29         12760.0000000    0.000278673749
      3   S      30          3615.0000000    0.001162407410
      3   S      31          1183.0000000    0.004149991892
      3   S      32           428.8000000    0.012665073653
      3   S      33           167.8000000    0.033294544367
      3   S      34            69.4700000    0.068749008698
      3   S      35            29.8400000    0.096101773381
      3   S      36            12.7200000   -0.005670123205
      3   S      37             5.2440000   -0.320764818841
      3   S      38             2.2190000   -0.598947641366
      3   S      39             0.3490000    1.120107735959

      4   S      40             0.7767000    1.000000000000

      5   S      41             0.1322000    1.000000000000

      6   P      42           574.4000000    0.002496922983
      6   P      43           135.8000000    0.019870751061
      6   P      44            43.1900000    0.091254916388
      6   P      45            15.8700000    0.262462200493
      6   P      46             6.2080000    0.447290816633
      6   P      47             2.4830000    0.365836568252
      6   P      48             0.3229000   -0.005183992799

      7   P      49           574.4000000   -0.001064023915
      7   P      50           135.8000000   -0.008474448710
      7   P      51            43.1900000   -0.039919557083
      7   P      52            15.8700000   -0.117571603827
      7   P      53             6.2080000   -0.212591326962
      7   P      54             2.4830000   -0.166354909681
      7   P      55             0.3229000    0.977014802934

      8   P      56             0.8688000    1.000000000000

      9   P      57             0.1098000    1.000000000000

     10   D      58             0.8120000    1.000000000000

     11   D      59             0.2730000    1.000000000000

     12   F      60             0.5570000    1.000000000000

     13   D      61             3.7560000    1.000000000000

 H         

     14   S      62            33.8700000    0.025494863235
     14   S      63             5.0950000    0.190362765893
     14   S      64             1.1590000    0.852162022245

     15   S      65             0.3258000    1.000000000000

     16   S      66             0.1027000    1.000000000000

     17   P      67             1.4070000    1.000000000000

     18   P      68             0.3880000    1.000000000000

     19   D      69             1.0570000    1.000000000000

 H         

     20   S      70            33.8700000    0.025494863235
     20   S      71             5.0950000    0.190362765893
     20   S      72             1.1590000    0.852162022245

     21   S      73             0.3258000    1.000000000000

     22   S      74             0.1027000    1.000000000000

     23   P      75             1.4070000    1.000000000000

     24   P      76             0.3880000    1.000000000000

     25   D      77             1.0570000    1.000000000000

 TOTAL NUMBER OF BASIS SET SHELLS             =   25
 NUMBER OF CARTESIAN GAUSSIAN BASIS FUNCTIONS =   75
 NOTE: THIS RUN WILL RESTRICT THE MO VARIATION SPACE TO SPHERICAL HARMONICS.
 THE NUMBER OF ORBITALS KEPT IN THE VARIATIONAL SPACE WILL BE PRINTED LATER.
 NUMBER OF ELECTRONS                          =   17
 CHARGE OF MOLECULE                           =    1
 SPIN MULTIPLICITY                            =    2
 NUMBER OF OCCUPIED ORBITALS (ALPHA)          =    9
 NUMBER OF OCCUPIED ORBITALS (BETA )          =    8
 TOTAL NUMBER OF ATOMS                        =    3
 THE NUCLEAR REPULSION ENERGY IS       13.3203241807

     $CONTRL OPTIONS
     ---------------
 SCFTYP=MCSCF        RUNTYP=ENERGY       EXETYP=RUN     
 MPLEVL=       2     CITYP =NONE         CCTYP =NONE         VBTYP =NONE    
 DFTTYP=NONE         TDDFT =NONE    
 MULT  =       2     ICHARG=       1     NZVAR =       0     COORD =UNIQUE  
 PP    =NONE         RELWFN=NONE         LOCAL =NONE         NUMGRD=       F
 ISPHER=       1     NOSYM =       1     MAXIT =     200     UNITS =ANGS    
 PLTORB=       F     MOLPLT=       F     AIMPAC=       F     FRIEND=        
 NPRINT=       7     IREST =       0     GEOM  =INPUT   
 NORMF =       0     NORMP =       0     ITOL  =      20     ICUT  =       9
 INTTYP=RYSQUAD      GRDTYP=BEST         QMTTOL= 1.0E-05

     $SYSTEM OPTIONS
     ---------------
  REPLICATED MEMORY=   100000000 WORDS (ON EVERY NODE).
 DISTRIBUTED MEMDDI=        1000 MILLION WORDS IN AGGREGATE,
 MEMDDI DISTRIBUTED OVER   1 PROCESSORS IS  1000000000 WORDS/PROCESSOR.
 TOTAL MEMORY REQUESTED ON EACH PROCESSOR=  1100000000 WORDS.
 TIMLIM=      525600.00 MINUTES, OR     365.0 DAYS.
 PARALL= T  BALTYP=  DLB     KDIAG=    3  COREFL= F
 MXSEQ2=     300 MXSEQ3=     150  mem10=         0

          ----------------
          PROPERTIES INPUT
          ----------------

     MOMENTS            FIELD           POTENTIAL          DENSITY
 IEMOM =       1   IEFLD =       0   IEPOT =       0   IEDEN =       0
 WHERE =COMASS     WHERE =NUCLEI     WHERE =NUCLEI     WHERE =NUCLEI  
 OUTPUT=BOTH       OUTPUT=BOTH       OUTPUT=BOTH       OUTPUT=BOTH    
 IEMINT=       0   IEFINT=       0                     IEDINT=       0
                                                       MORB  =       0

     -------------------------------
     INTEGRAL TRANSFORMATION OPTIONS
     -------------------------------
     NWORD  =            0
     CUTOFF = 1.0E-09     MPTRAN =       0
     DIRTRF =       T     AOINTS =DUP     

          ----------------------
          MCSCF INPUT PARAMETERS
          ----------------------
 CONVERGER SELECTION: FOCAS = F  SOSCF = F  FULLNR = T  QUD = F  JACOBI = F
 SECULAR EQUATION METHOD CISTEP = GMCCI   
 --- GENERAL INPUT OPTIONS:
 MAXIT =     100  MICIT =       1  ACURCY= 1.000E-06
 DAMP  =   0.000  CANONC=       T  ENGTOL= 1.000E-10
 EKT   =       F  NPUNCH=       2  NWORD =         0
 REGENERATE CI AFTER CONVERGENCE = NONE    
 DIABATIZATION AFTER CONVERGENCE =        F
 --- INPUT FOR FULLNR CONVERGER:
 METHOD=DM2       FORS  =       F  DROPC =       T
 LINSER=       F  FCORE =       F  NORB  =      75

          ----------------------
          INTEGRAL INPUT OPTIONS
          ----------------------
 NOPK  =       1 NORDER=       0 SCHWRZ=       T

 ------------------------------------------
 MULTIREFERENCE PERTURBATION THEORY CONTROL
 ------------------------------------------
 MRPT=GMCPT    READ CONVERGED MCSCF VECTORS= F


     ------------------------------------------
     THE POINT GROUP IS C1 , NAXIS= 1, ORDER= 1
     ------------------------------------------

 -- VARIATIONAL SPACE WILL BE RESTRICTED TO PURE SPHERICAL HARMONICS ONLY --
 AFTER EXCLUDING CONTAMINANT COMBINATIONS FROM THE CARTESIAN GAUSSIAN BASIS
 SET, THE NUMBER OF SPHERICAL HARMONICS KEPT IN THE VARIATION SPACE IS   67

     DIMENSIONS OF THE SYMMETRY SUBSPACES ARE
 A   =   67

 ..... DONE SETTING UP THE RUN .....
 CPU     0: STEP CPU TIME=     0.04 TOTAL CPU TIME=          0.0 (      0.0 MIN)
 TOTAL WALL CLOCK TIME=          0.0 SECONDS, CPU UTILIZATION IS   100.00%

          ********************
          1 ELECTRON INTEGRALS
          ********************
 TIME TO DO   DIPOLE INTEGRALS=      0.00
 ...... END OF ONE-ELECTRON INTEGRALS ......
 CPU     0: STEP CPU TIME=     0.00 TOTAL CPU TIME=          0.0 (      0.0 MIN)
 TOTAL WALL CLOCK TIME=          0.0 SECONDS, CPU UTILIZATION IS   100.00%

          -------------
          GUESS OPTIONS
          -------------
          GUESS =MOREAD            NORB  =      67          NORDER=       0
          MIX   =       F          PRTMO =       F          PUNMO =       F
          TOLZ  = 1.0E-08          TOLE  = 1.0E-05
          SYMDEN=       F          PURIFY=       T

 INITIAL GUESS ORBITALS GENERATED BY MOREAD   ROUTINE.

 STATISTICS FOR GENERATION OF SYMMETRY ORBITAL -Q- MATRIX
 NUMBER OF CARTESIAN ATOMIC ORBITALS=         75
 NUMBER OF SPHERICAL CONTAMINANTS DROPPED=     8
 NUMBER OF LINEARLY DEPENDENT MOS DROPPED=     0
 TOTAL NUMBER OF MOS IN VARIATION SPACE=      67
 ORBITAL PURIFICATION WILL OCCUR

 SYMMETRIES FOR INITIAL GUESS ORBITALS FOLLOW.   BOTH SET(S).
     9 ORBITALS ARE OCCUPIED (    5 CORE ORBITALS).
     1=A        2=A        3=A        4=A        5=A        6=A        7=A   
     8=A        9=A       10=A       11=A       12=A       13=A       14=A   
    15=A       16=A       17=A       18=A       19=A       20=A       21=A   
    22=A       23=A       24=A       25=A       26=A       27=A       28=A   
    29=A       30=A       31=A       32=A       33=A       34=A       35=A   
    36=A       37=A       38=A       39=A       40=A       41=A       42=A   
    43=A       44=A       45=A       46=A       47=A       48=A       49=A   
    50=A       51=A       52=A       53=A       54=A       55=A       56=A   
    57=A       58=A       59=A       60=A       61=A       62=A       63=A   
    64=A       65=A       66=A       67=A   
 ...... END OF INITIAL ORBITAL SELECTION ......
 CPU     0: STEP CPU TIME=     0.02 TOTAL CPU TIME=          0.1 (      0.0 MIN)
 TOTAL WALL CLOCK TIME=          0.1 SECONDS, CPU UTILIZATION IS   100.00%

                    ----------------------
                    AO INTEGRAL TECHNOLOGY
                    ----------------------
     S,P,L SHELL ROTATED AXIS INTEGRALS, REPROGRAMMED BY
        KAZUYA ISHIMURA (IMS) AND JOSE SIERRA (SYNSTAR).
     S,P,D,L SHELL ROTATED AXIS INTEGRALS PROGRAMMED BY
        KAZUYA ISHIMURA (INSTITUTE FOR MOLECULAR SCIENCE).
     S,P,D,F,G SHELL TO TOTAL QUARTET ANGULAR MOMENTUM SUM 5,
        ERIC PROGRAM BY GRAHAM FLETCHER (ELORET AND NASA ADVANCED
        SUPERCOMPUTING DIVISION, AMES RESEARCH CENTER).
     S,P,D,F,G,L SHELL GENERAL RYS QUADRATURE PROGRAMMED BY
        MICHEL DUPUIS (PACIFIC NORTHWEST NATIONAL LABORATORY).

          --------------------
          2 ELECTRON INTEGRALS
          --------------------

 DIRECT SCF METHOD SKIPS INTEGRAL STORAGE ON DISK.
 DIRECT TRANSFORMATION SKIPS AO INTEGRAL STORAGE ON DISK.
  ...... END OF TWO-ELECTRON INTEGRALS .....
 STEP CPU TIME =     0.01 TOTAL CPU TIME =          0.1 (      0.0 MIN)
 TOTAL WALL CLOCK TIME=          0.1 SECONDS, CPU UTILIZATION IS   100.00%
 DDI: Creating Array [0] - 5625 x 66 = 371250 words.
 DDI: Creating Array [1] - 56 x 726 = 40656 words.
 DDI: Creating Array [2] - 66 x 66 = 4356 words.
 DDI: Creating Array [3] - 2850 x 66 = 188100 words.

          -----------------
          MCSCF CALCULATION
          -----------------

 ----- NUCLEAR ENERGY ----- =        13.3203241807

     -------------------------------------------------
     GMC-PT/GMC-QDPT or general MCSCF input parameters
     -------------------------------------------------
 # of frozen core orbs. =         1 ->         0
 # of doubly occ. orbs. =         4
 # of active      orbs. =         6
 # of virtual     orbs. =        56
 # of active electrons  =         7
 # of states in CI      =         3
 Highest state in CI    =         3
 kstate =  1 1 1
 avecoe =  0.333 0.333 0.333
 State symmetry           = A           
 Assigned symmetry number = 1

 <<<Act. MO sym.: 111111

 <<<Division of 1-ext.:  0
 <<<Division of 2-ext.:  0

 *** Reference space

 Reference type: ORMAS (= Occupation restricted multiple active space)
 # of orbitals          =  6
 # of minimum electrons =  7
 # of maximum electrons =  7
 State symmetry    =    1 (input)
 2*Sz              =    1 (input)
 Spin multiplicity =    2 (input)
 Dimension of reference space =       300  (from       792 walks)

 Dimension of reference space =       300  (from       300 walks)

 <<<Ionized spaces for Ref-CI:
      0:          300 /   -1-0:          625 /  0-1-0:          690

 EVALUATING EXCHANGE INTEGRALS FOR DIRECT INTEGRAL TRANSFORMATION
 SCHWARZ INEQUALITY OVERHEAD:      2850 INTEGRALS, T=        0.01

     --------------------------------------------
     PARTIAL TWO ELECTRON INTEGRAL TRANSFORMATION
     --------------------------------------------

 NUMBER OF CORE MOLECULAR ORBITALS     =    5
 NUMBER OF OCCUPIED MOLECULAR ORBITALS =   11
 TOTAL NUMBER OF MOLECULAR ORBITALS    =   67
 TOTAL NUMBER OF ATOMIC ORBITALS       =   75
 THRESHOLD FOR KEEPING TRANSFORMED 2E- INTEGRALS = 1.000E-09

 -------------------------------     ------------------------------
 DISTRIBUTED DATA TRANSFORMATION     PROGRAM WRITTEN BY G. FLETCHER
 -------------------------------     ------------------------------

 THE DISTRIBUTED MEMORY REQUIRED FOR THIS STEP IS MEMDDI=         1 MWORDS
 CREATING DISTRIBUTED STORAGE FOR [VIR OCC|VIR OCC] INTEGRALS
 CREATING DISTRIBUTED STORAGE FOR [VIR OCC|OCC OCC] INTEGRALS
 CREATING DISTRIBUTED STORAGE FOR [OCC OCC|OCC OCC] INTEGRALS
 CREATING DISTRIBUTED STORAGE FOR [VIR VIR|OCC OCC] INTEGRALS
 FOR    1 PROCESSORS, THE REPLICATED MEMORY NEEDED IS      304672 WORDS.
 SCHWARZ INEQUALITY OVERHEAD:      2850 INTEGRALS, T=        0.01

      DIRECT 4-INDEX TRANSFORMATION 
      SCHWARZ INEQUALITY TEST SKIPPED          0 INTEGRAL BLOCKS
 ----- FROZEN CORE ENERGY =      -395.7058050351
 ... END OF INTEGRAL TRANSFORMATION ...
 CPU     0: STEP CPU TIME=     1.99 TOTAL CPU TIME=          2.1 (      0.0 MIN)
 TOTAL WALL CLOCK TIME=          2.1 SECONDS, CPU UTILIZATION IS   100.00%

     --------------------------------     -----------------------------
     MCHF NEWTON-RAPHSON OPTIMIZATION     CODE WRITTEN BY MICHEL DUPUIS
     --------------------------------     -----------------------------
     PARALLEL VERSION WRITTEN BY G. FLETCHER (ELORET)
     NASA ADVANCED SUPERCOMPUTING DIVISION, AMES RESEARCH CENTER

 NUMBER OF INDEPENDENT ORBITAL ROTATION PARAMETERS =   392
 ..... DONE SOLVING NEWTON-RAPHSON EQUATIONS .....
 CPU     0: STEP CPU TIME=     0.31 TOTAL CPU TIME=          2.4 (      0.0 MIN)
 TOTAL WALL CLOCK TIME=          2.4 SECONDS, CPU UTILIZATION IS    99.16%
 ..... DONE WITH NTN-RPH ORBITAL ROTATIONS ..... 
 CPU     0: STEP CPU TIME=     0.00 TOTAL CPU TIME=          2.4 (      0.0 MIN)
 TOTAL WALL CLOCK TIME=          2.4 SECONDS, CPU UTILIZATION IS    99.16%
 MAXIMUM MEMORY USED BY NTN-RPH CODE WAS    110094 WORDS.

 ITER     TOTAL ENERGY      DEL(E)  LAGRANGIAN ASYMMETRY   SQCDF  MICIT   DAMP
   1     -398.173668042 -0.173668042  0.122730   14    9 9.117E-02  1   0.0000
   2     -398.223752031 -0.050083988  0.015733   14    9 3.131E-01  1   0.0000
   3     -398.240677948 -0.016925918  0.005850   13   10 2.601E-01  1   0.0040
   4     -398.248517179 -0.007839230  0.002897   13   10 3.706E-02  1   0.0031
   5     -398.249527510 -0.001010331  0.000720   21   10 3.419E-03  1   0.0000
   6     -398.249678978 -0.000151468  0.000626   21   10 1.990E-03  1   0.0000
   7     -398.249782471 -0.000103493  0.000524   21   10 1.457E-03  1   0.0000
   8     -398.249862097 -0.000079626  0.000440   21   10 1.086E-03  1   0.0000
   9     -398.249922227 -0.000060130  0.000365   21   10 7.746E-04  1   0.0000
  10     -398.249965119 -0.000042892  0.000294   21   10 5.198E-04  1   0.0000
  11     -398.249993754 -0.000028635  0.000231   21   10 3.282E-04  1   0.0000
  12     -398.250011711 -0.000017957  0.000176   21   10 1.965E-04  1   0.0000
  13     -398.250022387 -0.000010676  0.000132   21   10 1.127E-04  1   0.0000
  14     -398.250028472 -0.000006085  0.000097   21   10 6.254E-05  1   0.0000
  15     -398.250031830 -0.000003358  0.000071   21   10 3.385E-05  1   0.0000
  16     -398.250033640 -0.000001810  0.000051   21   10 1.799E-05  1   0.0000
  17     -398.250034599 -0.000000959  0.000037   21   10 9.440E-06  1   0.0000
  18     -398.250035100 -0.000000502  0.000026   21   10 4.905E-06  1   0.0000
  19     -398.250035360 -0.000000260  0.000019   21   10 2.531E-06  1   0.0000
  20     -398.250035495 -0.000000134  0.000013   21   10 1.300E-06  1   0.0000
  21     -398.250035563 -0.000000069  0.000010   21   10 6.654E-07  1   0.0000
  22     -398.250035599 -0.000000035  0.000007   21   10 3.397E-07  1   0.0000
  23     -398.250035616 -0.000000018  0.000005   21   10 1.730E-07  1   0.0000
  24     -398.250035626 -0.000000009  0.000003   21   10 8.803E-08  1   0.0000
  25     -398.250035630 -0.000000005  0.000002   21   10 4.477E-08  1   0.0000
  26     -398.250035633 -0.000000002  0.000002   21   10 2.273E-08  1   0.0000
  27     -398.250035634 -0.000000001  0.000001   21   10 1.158E-08  1   0.0000
  28     -398.250035634 -0.000000001  0.000001   21   10 5.845E-09  1   0.0000

          --------------------
          LAGRANGIAN CONVERGED
          --------------------

 FINAL MCSCF ENERGY IS     -398.2500356345 AFTER  28 ITERATIONS

 -MCCI- BASED ON OPTIMIZED ORBITALS
 ----------------------------------

 PLEASE NOTE: IF THE ACTIVE ORBITALS ARE CANONICALIZED BELOW,
 THE FOLLOWING CI EXPANSION COEFFICIENTS AND THE DENSITY DO NOT
 CORRESPOND TO THE PRINTED ORBITALS.  THE PRINTED EXPANSIONS MATCH
 THE ORBITALS USED DURING THE LAST ITERATION.  IF YOU WISH TO SEE
 CI EXPANSIONS BASED ON THE CANONICAL (OR NATURAL) ORBITALS, YOU
 MUST RUN A CI CALCULATION WITH THAT ORBITAL CHOICE READ IN $VEC.

 Averaged energy =    -398.250035634

 State #    1  Energy =    -398.355037903  S =  0.500

      Det      Coef    Occupancy (Ignoring core)
      ---      ----    --------- --------- -----
        1   -0.970840  111100111000
        5    0.087649  011110111000
        8   -0.087259  101101111000
       47    0.066203  111010011100
      157   -0.076297  110101110001
      166    0.060182  111100101001
      173   -0.066322  101101101001

 State #    2  Energy =    -398.241537275  S =  0.500

      Det      Coef    Occupancy (Ignoring core)
      ---      ----    --------- --------- -----
       16   -0.940961  111100110100
       18    0.063340  110110110100
       23   -0.054497  101101110100
       31    0.243761  111100101100
       34   -0.053478  101110101100
       53    0.062444  101101011100
       62    0.075380  111010110010
      121   -0.064024  111100010110
      196    0.075998  111100100101
      203   -0.064275  101101100101

 State #    3  Energy =    -398.153531725  S =  0.500

      Det      Coef    Occupancy (Ignoring core)
      ---      ----    --------- --------- -----
        2    0.096852  111010111000
       16    0.224559  111100110100
       18   -0.068211  110110110100
       19    0.064556  101110110100
       22   -0.062388  110101110100
       23    0.082769  101101110100
       24   -0.050543  011101110100
       31    0.914566  111100101100
       33    0.055299  110110101100
       37    0.052537  110101101100
       46   -0.175028  111100011100
       52   -0.079487  110101011100
       77   -0.075468  111010101010
      136    0.065915  111100001110
      202   -0.074891  110101100101

 DENSITY MATRIX OVER ACTIVE MO-S

             1           2           3           4           5

    1    1.9700331
    2   -0.0661782   1.6562983
    3    0.0111316  -0.0230385   1.6386077
    4    0.0000000  -0.0000000   0.0000000   1.6461527
    5    0.0936419  -0.0270108   0.0256323   0.0000000   0.0431889
    6    0.0370159   0.0804906   0.0022367  -0.0000000   0.0164686

             6

    6    0.0457193

 FORMING THE "STANDARD FOCK OPERATOR" IN DIRECT AO INTEGRAL MODE...
 ONLY THE    5 CORE AND   56 VIRTUAL ORBITALS WILL BE CANONICALIZED

          ----------------------
          MCSCF NATURAL ORBITALS
          ----------------------

                      1          2          3          4          5
                  -92.3421    -9.3460    -7.0279    -7.0257    -7.0242
                     A          A          A          A          A   
    1  S  1  S    1.000111  -0.000388   0.000462  -0.000253   0.000000
    2  S  1  S    0.000145   0.947390   0.004695  -0.004017   0.000000
    3  S  1  S    0.000253  -0.006841   0.001387   0.001054   0.000000
    4  S  1  S   -0.000696   0.069639  -0.001155   0.001498   0.000000
    5  S  1  S   -0.000007   0.000253   0.001791  -0.000768   0.000000
    6  S  1  X   -0.000006   0.000437   0.763780   0.593576   0.000000
    7  S  1  Y    0.000000  -0.000000  -0.000000   0.000000   0.970995
    8  S  1  Z    0.000107   0.002512  -0.593634   0.765160   0.000000
    9  S  1  X   -0.000050   0.001244  -0.004013  -0.002257   0.000000
   10  S  1  Y    0.000000  -0.000000  -0.000000   0.000000  -0.000101
   11  S  1  Z    0.000149  -0.002330   0.002627  -0.001322   0.000000
   12  S  1  X   -0.000004   0.000421   0.050403   0.039729   0.000000
   13  S  1  Y    0.000000  -0.000000  -0.000000   0.000000   0.060419
   14  S  1  Z   -0.000053   0.000801  -0.038211   0.050121   0.000000
   15  S  1  X   -0.000002   0.000060   0.001098   0.001043   0.000000
   16  S  1  Y    0.000000  -0.000000  -0.000000   0.000000   0.001551
   17  S  1  Z   -0.000005   0.000112  -0.000470   0.001117   0.000000
   18  S  1 XX    0.000009   0.000051   0.000035  -0.000110   0.000000
   19  S  1 YY   -0.000010  -0.000048   0.000156  -0.000269   0.000000
   20  S  1 ZZ    0.000001  -0.000003  -0.000190   0.000379   0.000000
   21  S  1 XY    0.000000  -0.000000  -0.000000   0.000000  -0.000062
   22  S  1 XZ    0.000001   0.000259   0.000357   0.000289   0.000000
   23  S  1 YZ    0.000000  -0.000000  -0.000000   0.000000   0.000241
   24  S  1 XX    0.000014  -0.000285   0.000168   0.000166   0.000000
   25  S  1 YY   -0.000037   0.000604  -0.000827   0.000598   0.000000
   26  S  1 ZZ    0.000023  -0.000319   0.000659  -0.000765   0.000000
   27  S  1 XY    0.000000  -0.000000  -0.000000   0.000000   0.000054
   28  S  1 XZ   -0.000020   0.000331  -0.002046  -0.001274   0.000000
   29  S  1 YZ    0.000000  -0.000000  -0.000000   0.000000  -0.000202
   30  S  1 XXX  -0.000001  -0.000000   0.000114   0.000119   0.000000
   31  S  1 YYY   0.000000  -0.000000  -0.000000   0.000000  -0.000155
   32  S  1 ZZZ  -0.000002  -0.000022   0.000071  -0.000012   0.000000
   33  S  1 XXY   0.000000  -0.000000  -0.000000   0.000000   0.000136
   34  S  1 XXZ   0.000016  -0.000056  -0.000135  -0.000035   0.000000
   35  S  1 YYX  -0.000001  -0.000003   0.000056   0.000150   0.000000
   36  S  1 YYZ  -0.000013   0.000085   0.000040   0.000051   0.000000
   37  S  1 ZZX   0.000002   0.000003  -0.000208  -0.000310   0.000000
   38  S  1 ZZY   0.000000  -0.000000  -0.000000   0.000000   0.000071
   39  S  1 XYZ   0.000000  -0.000000  -0.000000   0.000000  -0.000052
   40  S  1 XX   -0.000001   0.000410   0.000392  -0.000272   0.000000
   41  S  1 YY    0.000001  -0.000516   0.000073  -0.000250   0.000000
   42  S  1 ZZ    0.000000   0.000107  -0.000465   0.000521   0.000000
   43  S  1 XY    0.000000  -0.000000  -0.000000   0.000000   0.000132
   44  S  1 XZ   -0.000003   0.000245   0.000176   0.000338   0.000000
   45  S  1 YZ    0.000000  -0.000000  -0.000000   0.000000   0.000597
   46  H  2  S    0.000026  -0.000850  -0.001166   0.000411   0.000000
   47  H  2  S   -0.000109   0.001003  -0.007820   0.000268   0.000000
   48  H  2  S    0.000018  -0.000539   0.000193   0.000361   0.000000
   49  H  2  X    0.000009   0.000047  -0.000309   0.000056   0.000000
   50  H  2  Y    0.000000  -0.000000  -0.000000   0.000000   0.000007
   51  H  2  Z   -0.000008  -0.000043   0.000293  -0.000095   0.000000
   52  H  2  X   -0.000043   0.000651  -0.002120   0.000587   0.000000
   53  H  2  Y    0.000000  -0.000000  -0.000000   0.000000   0.000209
   54  H  2  Z    0.000034  -0.000523   0.001938   0.000402   0.000000
   55  H  2 XX    0.000003   0.000072  -0.000215   0.000024   0.000000
   56  H  2 YY   -0.000004  -0.000112   0.000335  -0.000120   0.000000
   57  H  2 ZZ    0.000001   0.000041  -0.000120   0.000096   0.000000
   58  H  2 XY    0.000000  -0.000000  -0.000000   0.000000  -0.000030
   59  H  2 XZ   -0.000009  -0.000189   0.000632  -0.000089   0.000000
   60  H  2 YZ    0.000000  -0.000000  -0.000000   0.000000   0.000036
   61  H  3  S    0.000014  -0.000226  -0.000086   0.000357   0.000000
   62  H  3  S   -0.000040   0.000058   0.000792   0.002917   0.000000
   63  H  3  S    0.000009  -0.000225  -0.000437  -0.000223   0.000000
   64  H  3  X    0.000002  -0.000022   0.000007  -0.000051   0.000000
   65  H  3  Y    0.000000  -0.000000  -0.000000   0.000000   0.000042
   66  H  3  Z    0.000002  -0.000023  -0.000022  -0.000046   0.000000
   67  H  3  X    0.000028  -0.000169  -0.000109  -0.001238   0.000000
   68  H  3  Y    0.000000  -0.000000  -0.000000   0.000000   0.000081
   69  H  3  Z    0.000020  -0.000113  -0.000568  -0.000993   0.000000
   70  H  3 XX   -0.000005   0.000017  -0.000118  -0.000004   0.000000
   71  H  3 YY    0.000005   0.000013   0.000004   0.000082   0.000000
   72  H  3 ZZ   -0.000000  -0.000031   0.000114  -0.000078   0.000000
   73  H  3 XY    0.000000  -0.000000  -0.000000   0.000000  -0.000033
   74  H  3 XZ   -0.000008  -0.000028   0.000034  -0.000098   0.000000
   75  H  3 YZ    0.000000  -0.000000  -0.000000   0.000000  -0.000025

                      6          7          8          9         10
                    1.9893     1.6638     1.6462     1.6220     0.0552
                     A          A          A          A          A   
    1  S  1  S    0.000042   0.002289  -0.000000  -0.000904  -0.000796
    2  S  1  S    0.004210   0.020322  -0.000000  -0.012618  -0.014476
    3  S  1  S    0.553724   0.276767  -0.000000  -0.171809  -0.162305
    4  S  1  S    0.071447   0.036253  -0.000000  -0.030567  -0.027594
    5  S  1  S    0.219112   0.216583  -0.000000  -0.123491  -0.177256
    6  S  1  X    0.020797  -0.016849  -0.000000  -0.008044  -0.044908
    7  S  1  Y   -0.000000   0.000000   0.008952  -0.000000  -0.000000
    8  S  1  Z   -0.027485   0.011456  -0.000000  -0.002408  -0.024280
    9  S  1  X   -0.057830   0.342429  -0.000000   0.248968  -0.510518
   10  S  1  Y   -0.000000   0.000000   0.622912  -0.000000  -0.000000
   11  S  1  Z    0.084755  -0.298509  -0.000000   0.382783  -0.336245
   12  S  1  X   -0.039028   0.143294  -0.000000   0.098434  -0.191534
   13  S  1  Y   -0.000000   0.000000   0.240133  -0.000000  -0.000000
   14  S  1  Z    0.047249  -0.127262  -0.000000   0.147225  -0.136087
   15  S  1  X   -0.008801   0.082080  -0.000000   0.074664  -0.134290
   16  S  1  Y   -0.000000   0.000000   0.284832  -0.000000  -0.000000
   17  S  1  Z    0.016956  -0.084271  -0.000000   0.136469  -0.111255
   18  S  1 XX    0.010315  -0.007832  -0.000000   0.004954   0.022386
   19  S  1 YY   -0.018338   0.020273  -0.000000  -0.015373  -0.091186
   20  S  1 ZZ    0.008024  -0.012440  -0.000000   0.010418   0.068800
   21  S  1 XY   -0.000000   0.000000  -0.002605  -0.000000  -0.000000
   22  S  1 XZ   -0.022128   0.053777  -0.000000   0.027323   0.093915
   23  S  1 YZ   -0.000000   0.000000   0.011516  -0.000000  -0.000000
   24  S  1 XX    0.003061  -0.002448  -0.000000   0.005818   0.027981
   25  S  1 YY   -0.008019   0.019079  -0.000000  -0.020736  -0.113189
   26  S  1 ZZ    0.004957  -0.016630  -0.000000   0.014918   0.085208
   27  S  1 XY   -0.000000   0.000000   0.001470  -0.000000  -0.000000
   28  S  1 XZ   -0.009985   0.049267  -0.000000   0.027388   0.071691
   29  S  1 YZ   -0.000000   0.000000   0.024161  -0.000000  -0.000000
   30  S  1 XXX   0.000473   0.000261  -0.000000  -0.000901  -0.003367
   31  S  1 YYY  -0.000000   0.000000  -0.005516  -0.000000  -0.000000
   32  S  1 ZZZ  -0.001821  -0.000867  -0.000000   0.000189   0.001343
   33  S  1 XXY  -0.000000   0.000000   0.005201  -0.000000  -0.000000
   34  S  1 XXZ   0.008094  -0.007838  -0.000000   0.008291   0.013233
   35  S  1 YYX   0.002912  -0.011612  -0.000000  -0.005821  -0.012817
   36  S  1 YYZ  -0.005651   0.009000  -0.000000  -0.008545  -0.015035
   37  S  1 ZZX  -0.003547   0.011263  -0.000000   0.007029   0.017334
   38  S  1 ZZY  -0.000000   0.000000   0.002200  -0.000000  -0.000000
   39  S  1 XYZ  -0.000000   0.000000   0.001811  -0.000000  -0.000000
   40  S  1 XX    0.002094  -0.001955  -0.000000   0.000852   0.004126
   41  S  1 YY   -0.003910   0.004733  -0.000000  -0.003199  -0.012411
   42  S  1 ZZ    0.001816  -0.002778  -0.000000   0.002348   0.008285
   43  S  1 XY   -0.000000   0.000000  -0.000596  -0.000000  -0.000000
   44  S  1 XZ   -0.005639   0.011391  -0.000000   0.005283   0.011343
   45  S  1 YZ   -0.000000   0.000000   0.002642  -0.000000  -0.000000
   46  H  2  S    0.144080  -0.161937  -0.000000  -0.003765  -0.029901
   47  H  2  S    0.163380  -0.203403  -0.000000  -0.001383  -0.036199
   48  H  2  S    0.000346  -0.040704  -0.000000   0.000216   0.010058
   49  H  2  X    0.013619  -0.010026  -0.000000   0.004017  -0.005494
   50  H  2  Y   -0.000000   0.000000   0.009250  -0.000000  -0.000000
   51  H  2  Z   -0.012739   0.010357  -0.000000   0.005259  -0.003634
   52  H  2  X    0.016444  -0.001319  -0.000000   0.009154  -0.013801
   53  H  2  Y   -0.000000   0.000000   0.024879  -0.000000  -0.000000
   54  H  2  Z   -0.014878   0.000437  -0.000000   0.015743   0.001119
   55  H  2 XX    0.001709  -0.000869  -0.000000   0.002935  -0.003667
   56  H  2 YY   -0.002946   0.002164  -0.000000  -0.000110   0.001630
   57  H  2 ZZ    0.001237  -0.001296  -0.000000  -0.002826   0.002037
   58  H  2 XY   -0.000000   0.000000   0.002795  -0.000000  -0.000000
   59  H  2 XZ   -0.004639   0.002656  -0.000000   0.000387  -0.000891
   60  H  2 YZ   -0.000000   0.000000  -0.002810  -0.000000  -0.000000
   61  H  3  S    0.041520   0.053914  -0.000000   0.152713   0.265875
   62  H  3  S    0.063580   0.091891  -0.000000   0.303978   0.638013
   63  H  3  S   -0.000499   0.014298  -0.000000   0.073729   0.081051
   64  H  3  X   -0.004079  -0.002492  -0.000000  -0.007073  -0.017428
   65  H  3  Y   -0.000000   0.000000   0.002993  -0.000000  -0.000000
   66  H  3  Z   -0.003133  -0.005020  -0.000000  -0.006044  -0.014219
   67  H  3  X   -0.011334  -0.004617  -0.000000  -0.030130  -0.092699
   68  H  3  Y   -0.000000   0.000000   0.019199  -0.000000  -0.000000
   69  H  3  Z   -0.008363  -0.016684  -0.000000  -0.020150  -0.067163
   70  H  3 XX    0.000908  -0.000682  -0.000000   0.002011   0.008325
   71  H  3 YY   -0.001047  -0.001178  -0.000000  -0.002505  -0.009940
   72  H  3 ZZ    0.000139   0.001860  -0.000000   0.000494   0.001615
   73  H  3 XY   -0.000000   0.000000  -0.001915  -0.000000  -0.000000
   74  H  3 XZ    0.001810   0.002197  -0.000000   0.003365   0.014879
   75  H  3 YZ   -0.000000   0.000000  -0.001727  -0.000000  -0.000000

                     11
                    0.0235
                     A   
    1  S  1  S   -0.010214
    2  S  1  S   -0.072297
    3  S  1  S   -0.209770
    4  S  1  S   -0.002262
    5  S  1  S   -0.241783
    6  S  1  X    0.055129
    7  S  1  Y   -0.000000
    8  S  1  Z   -0.053927
    9  S  1  X    0.360126
   10  S  1  Y   -0.000000
   11  S  1  Z   -0.330366
   12  S  1  X    0.118436
   13  S  1  Y   -0.000000
   14  S  1  Z   -0.106184
   15  S  1  X    0.069148
   16  S  1  Y   -0.000000
   17  S  1  Z   -0.108527
   18  S  1 XX    0.137336
   19  S  1 YY   -0.321465
   20  S  1 ZZ    0.184129
   21  S  1 XY   -0.000000
   22  S  1 XZ   -0.181162
   23  S  1 YZ   -0.000000
   24  S  1 XX    0.153851
   25  S  1 YY   -0.352886
   26  S  1 ZZ    0.199036
   27  S  1 XY   -0.000000
   28  S  1 XZ   -0.138579
   29  S  1 YZ   -0.000000
   30  S  1 XXX   0.001494
   31  S  1 YYY  -0.000000
   32  S  1 ZZZ  -0.004599
   33  S  1 XXY  -0.000000
   34  S  1 XXZ   0.027228
   35  S  1 YYX   0.009573
   36  S  1 YYZ  -0.021058
   37  S  1 ZZX  -0.011577
   38  S  1 ZZY  -0.000000
   39  S  1 XYZ  -0.000000
   40  S  1 XX    0.015043
   41  S  1 YY   -0.035155
   42  S  1 ZZ    0.020112
   43  S  1 XY   -0.000000
   44  S  1 XZ   -0.019459
   45  S  1 YZ   -0.000000
   46  H  2  S    0.253182
   47  H  2  S    0.374088
   48  H  2  S    0.050407
   49  H  2  X    0.017288
   50  H  2  Y   -0.000000
   51  H  2  Z   -0.009627
   52  H  2  X    0.049350
   53  H  2  Y   -0.000000
   54  H  2  Z   -0.023789
   55  H  2 XX    0.004332
   56  H  2 YY   -0.000942
   57  H  2 ZZ   -0.003390
   58  H  2 XY   -0.000000
   59  H  2 XZ   -0.000665
   60  H  2 YZ   -0.000000
   61  H  3  S    0.000392
   62  H  3  S    0.023076
   63  H  3  S    0.036230
   64  H  3  X    0.002754
   65  H  3  Y   -0.000000
   66  H  3  Z    0.000774
   67  H  3  X    0.005878
   68  H  3  Y   -0.000000
   69  H  3  Z    0.004701
   70  H  3 XX   -0.000619
   71  H  3 YY    0.001800
   72  H  3 ZZ   -0.001182
   73  H  3 XY   -0.000000
   74  H  3 XZ   -0.002136
   75  H  3 YZ   -0.000000

          ------------------------
          MCSCF OPTIMIZED ORBITALS
          ------------------------

                      1          2          3          4          5
                  -92.3421    -9.3460    -7.0279    -7.0257    -7.0242
                     A          A          A          A          A   
    1  S  1  S    1.000111  -0.000388   0.000462  -0.000253   0.000000
    2  S  1  S    0.000145   0.947390   0.004695  -0.004017   0.000000
    3  S  1  S    0.000253  -0.006841   0.001387   0.001054   0.000000
    4  S  1  S   -0.000696   0.069639  -0.001155   0.001498   0.000000
    5  S  1  S   -0.000007   0.000253   0.001791  -0.000768   0.000000
    6  S  1  X   -0.000006   0.000437   0.763780   0.593576   0.000000
    7  S  1  Y    0.000000  -0.000000  -0.000000   0.000000   0.970995
    8  S  1  Z    0.000107   0.002512  -0.593634   0.765160   0.000000
    9  S  1  X   -0.000050   0.001244  -0.004013  -0.002257   0.000000
   10  S  1  Y    0.000000  -0.000000  -0.000000   0.000000  -0.000101
   11  S  1  Z    0.000149  -0.002330   0.002627  -0.001322   0.000000
   12  S  1  X   -0.000004   0.000421   0.050403   0.039729   0.000000
   13  S  1  Y    0.000000  -0.000000  -0.000000   0.000000   0.060419
   14  S  1  Z   -0.000053   0.000801  -0.038211   0.050121   0.000000
   15  S  1  X   -0.000002   0.000060   0.001098   0.001043   0.000000
   16  S  1  Y    0.000000  -0.000000  -0.000000   0.000000   0.001551
   17  S  1  Z   -0.000005   0.000112  -0.000470   0.001117   0.000000
   18  S  1 XX    0.000009   0.000051   0.000035  -0.000110   0.000000
   19  S  1 YY   -0.000010  -0.000048   0.000156  -0.000269   0.000000
   20  S  1 ZZ    0.000001  -0.000003  -0.000190   0.000379   0.000000
   21  S  1 XY    0.000000  -0.000000  -0.000000   0.000000  -0.000062
   22  S  1 XZ    0.000001   0.000259   0.000357   0.000289   0.000000
   23  S  1 YZ    0.000000  -0.000000  -0.000000   0.000000   0.000241
   24  S  1 XX    0.000014  -0.000285   0.000168   0.000166   0.000000
   25  S  1 YY   -0.000037   0.000604  -0.000827   0.000598   0.000000
   26  S  1 ZZ    0.000023  -0.000319   0.000659  -0.000765   0.000000
   27  S  1 XY    0.000000  -0.000000  -0.000000   0.000000   0.000054
   28  S  1 XZ   -0.000020   0.000331  -0.002046  -0.001274   0.000000
   29  S  1 YZ    0.000000  -0.000000  -0.000000   0.000000  -0.000202
   30  S  1 XXX  -0.000001  -0.000000   0.000114   0.000119   0.000000
   31  S  1 YYY   0.000000  -0.000000  -0.000000   0.000000  -0.000155
   32  S  1 ZZZ  -0.000002  -0.000022   0.000071  -0.000012   0.000000
   33  S  1 XXY   0.000000  -0.000000  -0.000000   0.000000   0.000136
   34  S  1 XXZ   0.000016  -0.000056  -0.000135  -0.000035   0.000000
   35  S  1 YYX  -0.000001  -0.000003   0.000056   0.000150   0.000000
   36  S  1 YYZ  -0.000013   0.000085   0.000040   0.000051   0.000000
   37  S  1 ZZX   0.000002   0.000003  -0.000208  -0.000310   0.000000
   38  S  1 ZZY   0.000000  -0.000000  -0.000000   0.000000   0.000071
   39  S  1 XYZ   0.000000  -0.000000  -0.000000   0.000000  -0.000052
   40  S  1 XX   -0.000001   0.000410   0.000392  -0.000272   0.000000
   41  S  1 YY    0.000001  -0.000516   0.000073  -0.000250   0.000000
   42  S  1 ZZ    0.000000   0.000107  -0.000465   0.000521   0.000000
   43  S  1 XY    0.000000  -0.000000  -0.000000   0.000000   0.000132
   44  S  1 XZ   -0.000003   0.000245   0.000176   0.000338   0.000000
   45  S  1 YZ    0.000000  -0.000000  -0.000000   0.000000   0.000597
   46  H  2  S    0.000026  -0.000850  -0.001166   0.000411   0.000000
   47  H  2  S   -0.000109   0.001003  -0.007820   0.000268   0.000000
   48  H  2  S    0.000018  -0.000539   0.000193   0.000361   0.000000
   49  H  2  X    0.000009   0.000047  -0.000309   0.000056   0.000000
   50  H  2  Y    0.000000  -0.000000  -0.000000   0.000000   0.000007
   51  H  2  Z   -0.000008  -0.000043   0.000293  -0.000095   0.000000
   52  H  2  X   -0.000043   0.000651  -0.002120   0.000587   0.000000
   53  H  2  Y    0.000000  -0.000000  -0.000000   0.000000   0.000209
   54  H  2  Z    0.000034  -0.000523   0.001938   0.000402   0.000000
   55  H  2 XX    0.000003   0.000072  -0.000215   0.000024   0.000000
   56  H  2 YY   -0.000004  -0.000112   0.000335  -0.000120   0.000000
   57  H  2 ZZ    0.000001   0.000041  -0.000120   0.000096   0.000000
   58  H  2 XY    0.000000  -0.000000  -0.000000   0.000000  -0.000030
   59  H  2 XZ   -0.000009  -0.000189   0.000632  -0.000089   0.000000
   60  H  2 YZ    0.000000  -0.000000  -0.000000   0.000000   0.000036
   61  H  3  S    0.000014  -0.000226  -0.000086   0.000357   0.000000
   62  H  3  S   -0.000040   0.000058   0.000792   0.002917   0.000000
   63  H  3  S    0.000009  -0.000225  -0.000437  -0.000223   0.000000
   64  H  3  X    0.000002  -0.000022   0.000007  -0.000051   0.000000
   65  H  3  Y    0.000000  -0.000000  -0.000000   0.000000   0.000042
   66  H  3  Z    0.000002  -0.000023  -0.000022  -0.000046   0.000000
   67  H  3  X    0.000028  -0.000169  -0.000109  -0.001238   0.000000
   68  H  3  Y    0.000000  -0.000000  -0.000000   0.000000   0.000081
   69  H  3  Z    0.000020  -0.000113  -0.000568  -0.000993   0.000000
   70  H  3 XX   -0.000005   0.000017  -0.000118  -0.000004   0.000000
   71  H  3 YY    0.000005   0.000013   0.000004   0.000082   0.000000
   72  H  3 ZZ   -0.000000  -0.000031   0.000114  -0.000078   0.000000
   73  H  3 XY    0.000000  -0.000000  -0.000000   0.000000  -0.000033
   74  H  3 XZ   -0.000008  -0.000028   0.000034  -0.000098   0.000000
   75  H  3 YZ    0.000000  -0.000000  -0.000000   0.000000  -0.000025

                      6          7          8          9         10
                    0.0000     0.0000     0.0000     0.0000     0.0000
                     A          A          A          A          A   
    1  S  1  S    0.000133   0.001604  -0.002239   0.000000   0.008046
    2  S  1  S    0.004563   0.009625  -0.023193   0.000000   0.062996
    3  S  1  S    0.565421  -0.001102  -0.283906   0.000000   0.287527
    4  S  1  S    0.072535  -0.006196  -0.043365   0.000000   0.023189
    5  S  1  S    0.229986   0.050571  -0.225237   0.000000   0.305365
    6  S  1  X    0.015519  -0.025602   0.005196   0.000000  -0.009322
    7  S  1  Y    0.000000   0.000000   0.000000   0.008952   0.000000
    8  S  1  Z   -0.027259   0.014404  -0.011151   0.000000   0.054604
    9  S  1  X    0.011557   0.395000  -0.023594   0.000000   0.072503
   10  S  1  Y    0.000000   0.000000   0.000000   0.622912   0.000000
   11  S  1  Z    0.037509  -0.002335   0.481496   0.000000   0.480612
   12  S  1  X   -0.009776   0.166747  -0.015135   0.000000   0.038506
   13  S  1  Y    0.000000   0.000000   0.000000   0.240133   0.000000
   14  S  1  Z    0.026557  -0.014389   0.193762   0.000000   0.174865
   15  S  1  X    0.008077   0.103346   0.005985   0.000000   0.038444
   16  S  1  Y    0.000000   0.000000   0.000000   0.284832   0.000000
   17  S  1  Z    0.005126   0.018469   0.157450   0.000000   0.157794
   18  S  1 XX    0.013041  -0.010418   0.010879   0.000000  -0.115799
   19  S  1 YY   -0.026682   0.021291  -0.029808   0.000000   0.297378
   20  S  1 ZZ    0.013641  -0.010874   0.018930   0.000000  -0.181579
   21  S  1 XY    0.000000   0.000000   0.000000  -0.002605   0.000000
   22  S  1 XZ   -0.008622   0.072775  -0.013825   0.000000   0.069076
   23  S  1 YZ    0.000000   0.000000   0.000000   0.011516   0.000000
   24  S  1 XX    0.007642  -0.004927   0.008091   0.000000  -0.132176
   25  S  1 YY   -0.019003   0.015803  -0.033342   0.000000   0.335866
   26  S  1 ZZ    0.011361  -0.010876   0.025251   0.000000  -0.203691
   27  S  1 XY    0.000000   0.000000   0.000000   0.001470   0.000000
   28  S  1 XZ    0.002250   0.064461  -0.010229   0.000000   0.053247
   29  S  1 YZ    0.000000   0.000000   0.000000   0.024161   0.000000
   30  S  1 XXX   0.000303  -0.000612  -0.000869   0.000000   0.001175
   31  S  1 YYY   0.000000   0.000000   0.000000  -0.005516   0.000000
   32  S  1 ZZZ  -0.001957   0.000062   0.000569   0.000000   0.002411
   33  S  1 XXY   0.000000   0.000000   0.000000   0.005201   0.000000
   34  S  1 XXZ   0.008389  -0.003291   0.012172   0.000000  -0.028439
   35  S  1 YYX  -0.000222  -0.013775   0.002751   0.000000   0.001786
   36  S  1 YYZ  -0.005763   0.003208  -0.012936   0.000000   0.025204
   37  S  1 ZZX  -0.000184   0.014596  -0.001586   0.000000  -0.003362
   38  S  1 ZZY   0.000000   0.000000   0.000000   0.002200   0.000000
   39  S  1 XYZ   0.000000   0.000000   0.000000   0.001811   0.000000
   40  S  1 XX    0.002274  -0.001929   0.002181   0.000000  -0.013746
   41  S  1 YY   -0.004562   0.003615  -0.006131   0.000000   0.034025
   42  S  1 ZZ    0.002287  -0.001685   0.003949   0.000000  -0.020278
   43  S  1 XY    0.000000   0.000000   0.000000  -0.000596   0.000000
   44  S  1 XZ   -0.002811   0.014216  -0.003282   0.000000   0.006365
   45  S  1 YZ    0.000000   0.000000   0.000000   0.002642   0.000000
   46  H  2  S    0.114422  -0.166108   0.106811   0.000000  -0.157723
   47  H  2  S    0.128065  -0.205527   0.136511   0.000000  -0.241287
   48  H  2  S   -0.005635  -0.032819   0.026118   0.000000  -0.043496
   49  H  2  X    0.011903  -0.008772   0.010132   0.000000  -0.008236
   50  H  2  Y    0.000000   0.000000   0.000000   0.009250   0.000000
   51  H  2  Z   -0.010456   0.013974  -0.003078   0.000000   0.008830
   52  H  2  X    0.017002  -0.001205   0.009090   0.000000  -0.026239
   53  H  2  Y    0.000000   0.000000   0.000000   0.024879   0.000000
   54  H  2  Z   -0.013549   0.014089   0.011097   0.000000   0.016175
   55  H  2 XX    0.001679   0.000516   0.002916   0.000000  -0.000614
   56  H  2 YY   -0.002430   0.002251  -0.001562   0.000000  -0.000575
   57  H  2 ZZ    0.000751  -0.002766  -0.001353   0.000000   0.001189
   58  H  2 XY    0.000000   0.000000   0.000000   0.002795   0.000000
   59  H  2 XZ   -0.004066   0.003185  -0.001588   0.000000   0.000829
   60  H  2 YZ    0.000000   0.000000   0.000000  -0.002810   0.000000
   61  H  3  S    0.076570   0.134285   0.091022   0.000000  -0.176427
   62  H  3  S    0.136618   0.261418   0.191388   0.000000  -0.441581
   63  H  3  S    0.013202   0.057088   0.050049   0.000000  -0.080876
   64  H  3  X   -0.005840  -0.006052  -0.004356   0.000000   0.009455
   65  H  3  Y    0.000000   0.000000   0.000000   0.002993   0.000000
   66  H  3  Z   -0.005182  -0.007349  -0.001916   0.000000   0.008843
   67  H  3  X   -0.018870  -0.022683  -0.022275   0.000000   0.057246
   68  H  3  Y    0.000000   0.000000   0.000000   0.019199   0.000000
   69  H  3  Z   -0.016137  -0.025522  -0.006536   0.000000   0.041307
   70  H  3 XX    0.001322   0.000801   0.002133   0.000000  -0.005072
   71  H  3 YY   -0.001898  -0.002589  -0.001377   0.000000   0.005296
   72  H  3 ZZ    0.000576   0.001788  -0.000756   0.000000  -0.000224
   73  H  3 XY    0.000000   0.000000   0.000000  -0.001915   0.000000
   74  H  3 XZ    0.003138   0.003894   0.001508   0.000000  -0.008336
   75  H  3 YZ    0.000000   0.000000   0.000000  -0.001727   0.000000

                     11         12         13         14         15
                    0.0000    -0.0469     0.0452     0.1314     0.1540
                     A          A          A          A          A   
    1  S  1  S   -0.006220  -0.002924   0.000409   0.005846   0.015739
    2  S  1  S   -0.037503  -0.030045   0.005631   0.043433   0.108478
    3  S  1  S   -0.009909  -0.232010   0.010772   0.145203   0.265378
    4  S  1  S    0.020044  -0.022208   0.019260   0.008902  -0.005630
    5  S  1  S   -0.024835  -1.759845   0.044945   0.268598   0.458343
    6  S  1  X    0.069476   0.049994  -0.086950  -0.005032   0.014355
    7  S  1  Y    0.000000  -0.000000   0.000000   0.000000  -0.000000
    8  S  1  Z   -0.018266  -0.058723  -0.000027  -0.136513  -0.230858
    9  S  1  X    0.641041   0.163974  -0.362671   0.009319   0.041729
   10  S  1  Y    0.000000  -0.000000   0.000000   0.000000  -0.000000
   11  S  1  Z    0.027876  -0.214930   0.001654  -0.432587  -0.778117
   12  S  1  X    0.229883   0.029685  -0.050825   0.009525  -0.004330
   13  S  1  Y    0.000000  -0.000000   0.000000   0.000000  -0.000000
   14  S  1  Z    0.029404  -0.032620   0.009284  -0.017333  -0.047797
   15  S  1  X    0.151477   0.411871  -0.148495  -0.330665  -0.051119
   16  S  1  Y    0.000000  -0.000000   0.000000   0.000000  -0.000000
   17  S  1  Z    0.010565  -0.789098  -0.115990   0.743973   1.621175
   18  S  1 XX    0.075817  -0.022379   0.000998  -0.117994   0.068834
   19  S  1 YY   -0.148831   0.049460   0.019708   0.006265   0.017943
   20  S  1 ZZ    0.073014  -0.027081  -0.020706   0.111728  -0.086777
   21  S  1 XY    0.000000  -0.000000   0.000000   0.000000  -0.000000
   22  S  1 XZ   -0.188241   0.001118  -0.065763   0.000052  -0.012302
   23  S  1 YZ    0.000000  -0.000000   0.000000   0.000000  -0.000000
   24  S  1 XX    0.082968  -0.109893  -0.031515  -0.463945   0.257730
   25  S  1 YY   -0.153851   0.269592   0.130088  -0.063922  -0.116486
   26  S  1 ZZ    0.070883  -0.159699  -0.098573   0.527867  -0.141245
   27  S  1 XY    0.000000  -0.000000   0.000000   0.000000  -0.000000
   28  S  1 XZ   -0.143250   0.052932  -0.154293  -0.079593  -0.051775
   29  S  1 YZ    0.000000  -0.000000   0.000000   0.000000  -0.000000
   30  S  1 XXX   0.003474  -0.000874   0.001562   0.001045   0.005997
   31  S  1 YYY   0.000000  -0.000000   0.000000   0.000000  -0.000000
   32  S  1 ZZZ  -0.004133   0.000646   0.001410   0.006982   0.003708
   33  S  1 XXY   0.000000  -0.000000   0.000000   0.000000  -0.000000
   34  S  1 XXZ   0.008602  -0.020920  -0.009421  -0.005408   0.012180
   35  S  1 YYX   0.015250  -0.002848  -0.000561   0.004350  -0.006578
   36  S  1 YYZ  -0.003057   0.020053   0.007529  -0.003960  -0.017155
   37  S  1 ZZX  -0.019911   0.004020  -0.001535  -0.005753  -0.001468
   38  S  1 ZZY   0.000000  -0.000000   0.000000   0.000000  -0.000000
   39  S  1 XYZ   0.000000  -0.000000   0.000000   0.000000  -0.000000
   40  S  1 XX    0.007045  -0.006234  -0.000295  -0.040449   0.022121
   41  S  1 YY   -0.014446   0.015021   0.007454  -0.000839   0.000069
   42  S  1 ZZ    0.007401  -0.008787  -0.007160   0.041289  -0.022190
   43  S  1 XY    0.000000  -0.000000   0.000000   0.000000  -0.000000
   44  S  1 XZ   -0.020870  -0.001744  -0.016875  -0.001510  -0.003833
   45  S  1 YZ    0.000000  -0.000000   0.000000   0.000000  -0.000000
   46  H  2  S    0.187144  -0.012549   0.026204  -0.017564   0.013047
   47  H  2  S    0.271705   0.140259   0.317986  -0.219357  -0.277926
   48  H  2  S    0.024822   2.168049  -1.360631  -0.471825  -0.389645
   49  H  2  X    0.015558  -0.018887   0.017675  -0.002612   0.006227
   50  H  2  Y    0.000000  -0.000000   0.000000   0.000000  -0.000000
   51  H  2  Z   -0.003324   0.015726  -0.012823   0.000956   0.010291
   52  H  2  X    0.043820   0.149589  -0.063201   0.094580  -0.153085
   53  H  2  Y    0.000000  -0.000000   0.000000   0.000000  -0.000000
   54  H  2  Z   -0.016424  -0.120556   0.027076   0.103937  -0.109351
   55  H  2 XX    0.005704   0.003311  -0.001583   0.000114  -0.005551
   56  H  2 YY   -0.001783  -0.004792   0.001847  -0.000662   0.003843
   57  H  2 ZZ   -0.003921   0.001482  -0.000264   0.000548   0.001708
   58  H  2 XY    0.000000  -0.000000   0.000000   0.000000  -0.000000
   59  H  2 XZ    0.000282  -0.006412   0.000988   0.001159  -0.003667
   60  H  2 YZ    0.000000  -0.000000   0.000000   0.000000  -0.000000
   61  H  3  S   -0.187975  -0.014412  -0.010927  -0.022138   0.018720
   62  H  3  S   -0.440290  -0.199712  -0.561235  -0.246170  -0.217339
   63  H  3  S   -0.032302   0.756856   1.683686   0.279821  -0.318478
   64  H  3  X    0.014321   0.011096   0.014721   0.009347  -0.014337
   65  H  3  Y    0.000000  -0.000000   0.000000   0.000000  -0.000000
   66  H  3  Z    0.010564   0.008337   0.012951  -0.006249   0.003204
   67  H  3  X    0.071003  -0.051411  -0.002283  -0.145672   0.191083
   68  H  3  Y    0.000000  -0.000000   0.000000   0.000000  -0.000000
   69  H  3  Z    0.051250  -0.028006  -0.033718   0.147582  -0.019587
   70  H  3 XX   -0.006508   0.001943   0.002746  -0.000706  -0.006059
   71  H  3 YY    0.008400  -0.001637  -0.003767  -0.003119   0.000823
   72  H  3 ZZ   -0.001892  -0.000305   0.001021   0.003825   0.005236
   73  H  3 XY    0.000000  -0.000000   0.000000   0.000000  -0.000000
   74  H  3 XZ   -0.012190   0.003486   0.005843   0.004450   0.002686
   75  H  3 YZ    0.000000  -0.000000   0.000000   0.000000  -0.000000

                     16         17         18         19         20
                    0.1646     0.1813     0.1875     0.1945     0.3425
                     A          A          A          A          A   
    1  S  1  S    0.000000   0.000000  -0.000000  -0.023950  -0.038800
    2  S  1  S    0.000000   0.000000  -0.000000  -0.163115  -0.281060
    3  S  1  S    0.000000   0.000000  -0.000000  -0.284173  -0.734757
    4  S  1  S    0.000000   0.000000  -0.000000  -0.027175  -0.211349
    5  S  1  S    0.000000   0.000000  -0.000000  -0.279496   5.656682
    6  S  1  X    0.000000   0.000000  -0.000000  -0.149411  -0.539956
    7  S  1  Y   -0.284698  -0.180377  -0.065211  -0.000000  -0.000000
    8  S  1  Z    0.000000   0.000000  -0.000000  -0.089181   0.617729
    9  S  1  X    0.000000   0.000000  -0.000000  -0.568290  -1.116189
   10  S  1  Y   -0.936724  -0.559697  -0.236346  -0.000000  -0.000000
   11  S  1  Z    0.000000   0.000000  -0.000000  -0.263046   1.214294
   12  S  1  X    0.000000   0.000000  -0.000000  -0.066360   0.061980
   13  S  1  Y   -0.047890  -0.016461  -0.023753  -0.000000  -0.000000
   14  S  1  Z    0.000000   0.000000  -0.000000  -0.030955  -0.141085
   15  S  1  X    0.000000   0.000000  -0.000000   2.565193  -1.266533
   16  S  1  Y    1.180856   0.754023   0.115723  -0.000000  -0.000000
   17  S  1  Z    0.000000   0.000000  -0.000000   0.095951   1.597102
   18  S  1 XX    0.000000   0.000000  -0.000000  -0.036785   0.008872
   19  S  1 YY    0.000000   0.000000  -0.000000   0.041728  -0.013776
   20  S  1 ZZ    0.000000   0.000000  -0.000000  -0.004944   0.004904
   21  S  1 XY    0.082399  -0.120933  -0.066511  -0.000000  -0.000000
   22  S  1 XZ    0.000000   0.000000  -0.000000  -0.019947  -0.197959
   23  S  1 YZ   -0.003457  -0.066672   0.148262  -0.000000  -0.000000
   24  S  1 XX    0.000000   0.000000  -0.000000  -0.185725   0.109704
   25  S  1 YY    0.000000   0.000000  -0.000000   0.129603  -0.339879
   26  S  1 ZZ    0.000000   0.000000  -0.000000   0.056122   0.230175
   27  S  1 XY    0.350424  -0.593134  -0.291243  -0.000000  -0.000000
   28  S  1 XZ    0.000000   0.000000  -0.000000   0.482906  -1.207070
   29  S  1 YZ    0.096232  -0.277711   0.704405  -0.000000  -0.000000
   30  S  1 XXX   0.000000   0.000000  -0.000000  -0.008313   0.036886
   31  S  1 YYY  -0.002380   0.000761  -0.006165  -0.000000  -0.000000
   32  S  1 ZZZ   0.000000   0.000000  -0.000000   0.002926  -0.040591
   33  S  1 XXY  -0.000213   0.003607  -0.004344  -0.000000  -0.000000
   34  S  1 XXZ   0.000000   0.000000  -0.000000   0.004061   0.173790
   35  S  1 YYX   0.000000   0.000000  -0.000000  -0.051403   0.085867
   36  S  1 YYZ   0.000000   0.000000  -0.000000  -0.007986  -0.119332
   37  S  1 ZZX   0.000000   0.000000  -0.000000   0.062555  -0.135355
   38  S  1 ZZY   0.003407  -0.004628   0.012615  -0.000000  -0.000000
   39  S  1 XYZ   0.001110  -0.008296  -0.005000  -0.000000  -0.000000
   40  S  1 XX    0.000000   0.000000  -0.000000  -0.011374  -0.013480
   41  S  1 YY    0.000000   0.000000  -0.000000   0.008811   0.022219
   42  S  1 ZZ    0.000000   0.000000  -0.000000   0.002563  -0.008739
   43  S  1 XY    0.028723  -0.044499  -0.023698  -0.000000  -0.000000
   44  S  1 XZ    0.000000   0.000000  -0.000000   0.002476  -0.020378
   45  S  1 YZ    0.003576  -0.021940   0.054333  -0.000000  -0.000000
   46  H  2  S    0.000000   0.000000  -0.000000  -0.000816   0.096063
   47  H  2  S    0.000000   0.000000  -0.000000   0.624680  -2.958002
   48  H  2  S    0.000000   0.000000  -0.000000   1.732446  -2.834125
   49  H  2  X    0.000000   0.000000  -0.000000   0.010279  -0.017661
   50  H  2  Y    0.007714   0.003707  -0.003036  -0.000000  -0.000000
   51  H  2  Z    0.000000   0.000000  -0.000000   0.006465   0.022221
   52  H  2  X    0.000000   0.000000  -0.000000   0.081761  -1.090763
   53  H  2  Y   -0.122314   0.018264   0.159825  -0.000000  -0.000000
   54  H  2  Z    0.000000   0.000000  -0.000000  -0.182542   0.953292
   55  H  2 XX    0.000000   0.000000  -0.000000   0.000260  -0.033847
   56  H  2 YY    0.000000   0.000000  -0.000000   0.001345   0.051191
   57  H  2 ZZ    0.000000   0.000000  -0.000000  -0.001606  -0.017343
   58  H  2 XY    0.001302  -0.001335  -0.001804  -0.000000  -0.000000
   59  H  2 XZ    0.000000   0.000000  -0.000000  -0.009132   0.079428
   60  H  2 YZ   -0.000911  -0.001085   0.002203  -0.000000  -0.000000
   61  H  3  S    0.000000   0.000000  -0.000000   0.055276   0.064937
   62  H  3  S    0.000000   0.000000  -0.000000   0.048909   0.323444
   63  H  3  S    0.000000   0.000000  -0.000000  -1.875647  -0.825323
   64  H  3  X    0.000000   0.000000  -0.000000  -0.011619  -0.013075
   65  H  3  Y   -0.004759   0.015323  -0.005879  -0.000000  -0.000000
   66  H  3  Z    0.000000   0.000000  -0.000000  -0.017824  -0.005962
   67  H  3  X    0.000000   0.000000  -0.000000   0.180165   0.205905
   68  H  3  Y    0.113546  -0.229731   0.092785  -0.000000  -0.000000
   69  H  3  Z    0.000000   0.000000  -0.000000   0.223743   0.110134
   70  H  3 XX    0.000000   0.000000  -0.000000  -0.004185  -0.015956
   71  H  3 YY    0.000000   0.000000  -0.000000   0.007570   0.012365
   72  H  3 ZZ    0.000000   0.000000  -0.000000  -0.003385   0.003591
   73  H  3 XY    0.004761  -0.000980  -0.002404  -0.000000  -0.000000
   74  H  3 XZ    0.000000   0.000000  -0.000000  -0.015376  -0.006857
   75  H  3 YZ    0.002117   0.000337   0.004892  -0.000000  -0.000000

                     21         22         23         24         25
                    0.4510     0.5813     0.6668     0.7138     0.8291
                     A          A          A          A          A   
    1  S  1  S   -0.046541  -0.015729  -0.000000  -0.001442   0.000000
    2  S  1  S   -0.323754  -0.109877  -0.000000  -0.011344   0.000000
    3  S  1  S   -0.625580  -0.249648  -0.000000  -0.062559   0.000000
    4  S  1  S   -0.178317   0.020742  -0.000000   0.056369   0.000000
    5  S  1  S    4.262352  -0.186617  -0.000000  -1.125706   0.000000
    6  S  1  X   -0.546432   0.201109  -0.000000   0.220275   0.000000
    7  S  1  Y   -0.000000  -0.000000   0.064676   0.000000  -0.211390
    8  S  1  Z    0.436809  -0.172091  -0.000000  -0.165607   0.000000
    9  S  1  X   -1.229219   0.565891  -0.000000   0.647451   0.000000
   10  S  1  Y   -0.000000  -0.000000   0.118927   0.000000  -0.559752
   11  S  1  Z    1.009888  -0.478351  -0.000000  -0.468837   0.000000
   12  S  1  X    0.054936  -0.005513  -0.000000   0.042917   0.000000
   13  S  1  Y   -0.000000  -0.000000  -0.026506   0.000000  -0.008357
   14  S  1  Z   -0.038239  -0.002388  -0.000000  -0.019243   0.000000
   15  S  1  X   -0.090303   0.016540  -0.000000   0.579125   0.000000
   16  S  1  Y   -0.000000  -0.000000  -0.285061   0.000000  -0.391061
   17  S  1  Z    1.450187   0.004918  -0.000000  -0.624145   0.000000
   18  S  1 XX    0.093193  -0.060603  -0.000000   0.060893   0.000000
   19  S  1 YY   -0.140442   0.027605  -0.000000   0.060953   0.000000
   20  S  1 ZZ    0.047249   0.032997  -0.000000  -0.121846   0.000000
   21  S  1 XY   -0.000000  -0.000000  -0.094205   0.000000   0.014675
   22  S  1 XZ    0.001206   0.082400  -0.000000   0.113764   0.000000
   23  S  1 YZ   -0.000000  -0.000000  -0.074700   0.000000  -0.082786
   24  S  1 XX    0.706494  -0.393201  -0.000000   0.003030   0.000000
   25  S  1 YY   -1.025021   0.331588  -0.000000   0.390807   0.000000
   26  S  1 ZZ    0.318527   0.061613  -0.000000  -0.393837   0.000000
   27  S  1 XY   -0.000000  -0.000000  -0.576611   0.000000   0.658403
   28  S  1 XZ   -0.182924   0.976258  -0.000000   0.767490   0.000000
   29  S  1 YZ   -0.000000  -0.000000  -0.255162   0.000000  -0.816009
   30  S  1 XXX   0.002958   0.009546  -0.000000  -0.060470   0.000000
   31  S  1 YYY  -0.000000  -0.000000  -0.049105   0.000000  -0.007166
   32  S  1 ZZZ  -0.030582  -0.004275  -0.000000   0.034881   0.000000
   33  S  1 XXY  -0.000000  -0.000000   0.040358   0.000000   0.012526
   34  S  1 XXZ   0.111282  -0.013167  -0.000000  -0.052344   0.000000
   35  S  1 YYX   0.071775  -0.027337  -0.000000   0.006618   0.000000
   36  S  1 YYZ  -0.070253   0.018902  -0.000000   0.005546   0.000000
   37  S  1 ZZX  -0.075743   0.014529  -0.000000   0.074511   0.000000
   38  S  1 ZZY  -0.000000  -0.000000   0.025523   0.000000  -0.002913
   39  S  1 XYZ  -0.000000  -0.000000   0.030812   0.000000   0.039162
   40  S  1 XX    0.025515  -0.021692  -0.000000   0.016527   0.000000
   41  S  1 YY   -0.034954   0.010688  -0.000000   0.013011   0.000000
   42  S  1 ZZ    0.009440   0.011003  -0.000000  -0.029537   0.000000
   43  S  1 XY   -0.000000  -0.000000  -0.031882   0.000000   0.008730
   44  S  1 XZ    0.035751   0.036949  -0.000000   0.028065   0.000000
   45  S  1 YZ   -0.000000  -0.000000  -0.023899   0.000000  -0.024412
   46  H  2  S   -0.009303   0.052780  -0.000000  -0.015810   0.000000
   47  H  2  S   -2.594329   1.845856  -0.000000   2.135591   0.000000
   48  H  2  S   -1.406279  -0.735487  -0.000000  -0.202205   0.000000
   49  H  2  X   -0.025515   0.033067  -0.000000   0.035040   0.000000
   50  H  2  Y   -0.000000  -0.000000   0.016069   0.000000  -0.097241
   51  H  2  Z    0.022443  -0.033603  -0.000000  -0.022857   0.000000
   52  H  2  X   -0.559372  -0.100569  -0.000000  -0.259434   0.000000
   53  H  2  Y   -0.000000  -0.000000  -0.312160   0.000000   1.666304
   54  H  2  Z    0.706639   0.270904  -0.000000  -0.136455   0.000000
   55  H  2 XX   -0.009431  -0.008142  -0.000000   0.009351   0.000000
   56  H  2 YY    0.035748   0.012032  -0.000000  -0.016319   0.000000
   57  H  2 ZZ   -0.026318  -0.003890  -0.000000   0.006968   0.000000
   58  H  2 XY   -0.000000  -0.000000  -0.010885   0.000000   0.041590
   59  H  2 XZ    0.058055   0.000676  -0.000000   0.002575   0.000000
   60  H  2 YZ   -0.000000  -0.000000   0.009225   0.000000  -0.041414
   61  H  3  S   -0.038763  -0.002425  -0.000000   0.005731   0.000000
   62  H  3  S   -1.259100  -0.461308  -0.000000  -0.241181   0.000000
   63  H  3  S   -0.206657   0.283985  -0.000000   0.315044   0.000000
   64  H  3  X    0.004212  -0.028082  -0.000000   0.052019   0.000000
   65  H  3  Y   -0.000000  -0.000000  -0.085020   0.000000  -0.024066
   66  H  3  Z   -0.000687   0.034110  -0.000000  -0.051034   0.000000
   67  H  3  X   -0.029046   0.435925  -0.000000  -0.704621   0.000000
   68  H  3  Y   -0.000000  -0.000000   1.126563   0.000000   0.310086
   69  H  3  Z    0.025195  -0.422796  -0.000000   0.663426   0.000000
   70  H  3 XX   -0.008776  -0.006645  -0.000000  -0.007445   0.000000
   71  H  3 YY    0.014279   0.008196  -0.000000   0.005451   0.000000
   72  H  3 ZZ   -0.005503  -0.001551  -0.000000   0.001995   0.000000
   73  H  3 XY   -0.000000  -0.000000  -0.000160   0.000000   0.004369
   74  H  3 XZ   -0.021709  -0.013479  -0.000000  -0.000935   0.000000
   75  H  3 YZ   -0.000000  -0.000000   0.000507   0.000000   0.000110

                     26         27         28         29         30
                    0.8404     1.0354     1.1559     1.3725     1.3850
                     A          A          A          A          A   
    1  S  1  S    0.003667  -0.007181  -0.141203  -0.000000  -0.019001
    2  S  1  S    0.027365  -0.044206  -0.977155  -0.000000  -0.141425
    3  S  1  S    0.063558   0.025857  -1.575024  -0.000000  -0.256590
    4  S  1  S    0.025106  -0.157299  -0.182614  -0.000000  -0.050685
    5  S  1  S   -0.789224   2.653001  -2.440595  -0.000000  -0.836809
    6  S  1  X    0.052908   0.280322   1.061521  -0.000000   0.167427
    7  S  1  Y   -0.000000   0.000000  -0.000000   0.060334   0.000000
    8  S  1  Z   -0.225748   0.439451  -0.853454  -0.000000  -0.192842
    9  S  1  X    0.078981   0.761348   2.376989  -0.000000   0.384984
   10  S  1  Y   -0.000000   0.000000  -0.000000   0.119173   0.000000
   11  S  1  Z   -0.586709   1.155016  -1.890123  -0.000000  -0.505241
   12  S  1  X   -0.032193  -0.014999  -0.106975  -0.000000   0.002496
   13  S  1  Y   -0.000000   0.000000  -0.000000  -0.037966   0.000000
   14  S  1  Z   -0.018520   0.022823   0.047843  -0.000000  -0.062551
   15  S  1  X    0.014318   0.934726   1.131425  -0.000000   0.237627
   16  S  1  Y   -0.000000   0.000000  -0.000000  -0.018774   0.000000
   17  S  1  Z   -0.642672   0.923928  -0.509018  -0.000000  -0.293134
   18  S  1 XX    0.056117  -0.096741   0.245098  -0.000000  -0.983227
   19  S  1 YY    0.095723   0.075000  -0.331547  -0.000000   0.185290
   20  S  1 ZZ   -0.151839   0.021742   0.086449  -0.000000   0.797937
   21  S  1 XY   -0.000000   0.000000  -0.000000   0.897256   0.000000
   22  S  1 XZ   -0.045659  -0.061700  -0.373561  -0.000000  -0.159446
   23  S  1 YZ   -0.000000   0.000000  -0.000000  -0.652131   0.000000
   24  S  1 XX    0.962400   0.258852  -0.598883  -0.000000   0.844833
   25  S  1 YY    0.135322  -0.898083   1.060695  -0.000000   0.099880
   26  S  1 ZZ   -1.097721   0.639231  -0.461812  -0.000000  -0.944713
   27  S  1 XY   -0.000000   0.000000  -0.000000  -0.766074   0.000000
   28  S  1 XZ    0.336579   1.186888   2.182615  -0.000000   0.453362
   29  S  1 YZ   -0.000000   0.000000  -0.000000   0.561447   0.000000
   30  S  1 XXX  -0.035925  -0.036775  -0.044000  -0.000000  -0.134115
   31  S  1 YYY  -0.000000   0.000000  -0.000000   0.021135   0.000000
   32  S  1 ZZZ   0.000480  -0.017080  -0.004178  -0.000000   0.244649
   33  S  1 XXY  -0.000000   0.000000  -0.000000  -0.024685   0.000000
   34  S  1 XXZ   0.021012   0.007015   0.036220  -0.000000  -0.163841
   35  S  1 YYX  -0.028424   0.000095   0.072164  -0.000000   0.084570
   36  S  1 YYZ  -0.021656   0.015901  -0.030615  -0.000000  -0.164389
   37  S  1 ZZX   0.076623   0.049244  -0.013132  -0.000000   0.095364
   38  S  1 ZZY  -0.000000   0.000000  -0.000000  -0.003670   0.000000
   39  S  1 XYZ  -0.000000   0.000000  -0.000000   0.075153   0.000000
   40  S  1 XX    0.023814  -0.008740   0.032962  -0.000000  -0.118511
   41  S  1 YY    0.013431  -0.003124  -0.043296  -0.000000   0.021950
   42  S  1 ZZ   -0.037245   0.011864   0.010334  -0.000000   0.096562
   43  S  1 XY   -0.000000   0.000000  -0.000000   0.112099   0.000000
   44  S  1 XZ   -0.008870   0.013809  -0.047308  -0.000000  -0.023558
   45  S  1 YZ   -0.000000   0.000000  -0.000000  -0.082534   0.000000
   46  H  2  S   -0.002573  -0.021636   0.244138  -0.000000  -0.007778
   47  H  2  S    0.865726  -0.332882   4.038682  -0.000000   1.083226
   48  H  2  S    0.322781  -0.061757   1.744047  -0.000000   0.316071
   49  H  2  X   -0.064371   0.045708  -0.032353  -0.000000   0.039501
   50  H  2  Y   -0.000000   0.000000  -0.000000  -0.078628   0.000000
   51  H  2  Z   -0.077917   0.021224   0.035821  -0.000000   0.048391
   52  H  2  X    1.316756  -0.544731   1.588359  -0.000000   0.436936
   53  H  2  Y   -0.000000   0.000000  -0.000000  -0.097803   0.000000
   54  H  2  Z    1.047731  -0.159856  -1.709376  -0.000000  -0.208714
   55  H  2 XX    0.061118  -0.022594   0.012103  -0.000000   0.070605
   56  H  2 YY   -0.009796   0.028020  -0.027394  -0.000000  -0.025708
   57  H  2 ZZ   -0.051323  -0.005427   0.015290  -0.000000  -0.044898
   58  H  2 XY   -0.000000   0.000000  -0.000000  -0.046719   0.000000
   59  H  2 XZ   -0.006919   0.004548  -0.040012  -0.000000  -0.002775
   60  H  2 YZ   -0.000000   0.000000  -0.000000   0.050074   0.000000
   61  H  3  S   -0.017606  -0.105900   0.026528  -0.000000   0.030844
   62  H  3  S    0.315432  -1.362427  -0.532995  -0.000000  -0.054666
   63  H  3  S   -0.205833  -1.599326  -0.388687  -0.000000   0.082333
   64  H  3  X    0.025670  -0.091338   0.010997  -0.000000   0.021001
   65  H  3  Y   -0.000000   0.000000  -0.000000   0.004687   0.000000
   66  H  3  Z   -0.031246  -0.075351  -0.011232  -0.000000   0.030467
   67  H  3  X   -0.076716   1.628031   0.170898  -0.000000  -0.260231
   68  H  3  Y   -0.000000   0.000000  -0.000000   0.013775   0.000000
   69  H  3  Z    0.509659   1.475178   0.402864  -0.000000   0.079617
   70  H  3 XX    0.027083  -0.025455  -0.026691  -0.000000   0.056791
   71  H  3 YY   -0.015662   0.038664   0.032999  -0.000000   0.004781
   72  H  3 ZZ   -0.011421  -0.013208  -0.006308  -0.000000  -0.061571
   73  H  3 XY   -0.000000   0.000000  -0.000000  -0.022148   0.000000
   74  H  3 XZ   -0.025926  -0.045358  -0.038498  -0.000000  -0.036692
   75  H  3 YZ   -0.000000   0.000000  -0.000000  -0.000136   0.000000

                     31         32         33         34         35
                    1.4066     1.4184     1.5541     1.6577     1.6737
                     A          A          A          A          A   
    1  S  1  S    0.000000  -0.034000  -0.000000  -0.099972   0.042595
    2  S  1  S    0.000000  -0.262184  -0.000000  -0.772358   0.340442
    3  S  1  S    0.000000  -0.506390  -0.000000  -1.452533   0.670729
    4  S  1  S    0.000000  -0.171739  -0.000000  -0.520905   0.290787
    5  S  1  S    0.000000  -0.283194  -0.000000  -1.942150   0.163260
    6  S  1  X    0.000000   0.322143  -0.000000   0.555451  -0.309591
    7  S  1  Y   -0.006827  -0.000000  -0.000714   0.000000   0.000000
    8  S  1  Z    0.000000  -0.178123  -0.000000  -0.781433   0.415373
    9  S  1  X    0.000000   0.662427  -0.000000   1.585625  -0.663808
   10  S  1  Y   -0.039264  -0.000000  -0.002119   0.000000   0.000000
   11  S  1  Z    0.000000  -0.452214  -0.000000  -1.766805   0.822863
   12  S  1  X    0.000000  -0.106654  -0.000000   0.469403   0.001223
   13  S  1  Y   -0.014814  -0.000000  -0.000865   0.000000   0.000000
   14  S  1  Z    0.000000  -0.068303  -0.000000  -0.047528  -0.128282
   15  S  1  X    0.000000   0.243324  -0.000000   0.700727   0.309995
   16  S  1  Y   -0.053122  -0.000000  -0.009366   0.000000   0.000000
[...]
       22   -0.058525    0.058525  22020+
       24   -0.050336    0.050336  -2+20+
       18    0.044780   -0.044780  2202+0
      108    0.041627   -0.041627  2+0220
      113   -0.041613   -0.041613  20+2-+
       49   -0.041572    0.041572  +-22+0
      211   -0.040846    0.040846  +2+20-
       34    0.033408   -0.033408  2022+0
      199    0.032751   -0.032751  20+2+-
       54    0.030519   -0.030519  02220+
       35    0.026656    0.026656  -+22+0
      171    0.020022   -0.020022  2+2002

 ---------------------------------------
      - DIABATIC STATES IN CMO -        
 ---------------------------------------

 State #    1  Energy =    -398.591316823

      Det      Coef        Coefp    Occupancy (Ignoring core)
      ---      ----        ----    --------- --------- -----
        1   -0.979718    0.979718  222+00
      157    0.115138    0.115138  220+02
       47    0.061296   -0.061296  +22-+0
      173    0.052586    0.052586  202+02
      172   -0.044472   -0.044472  2+-+02
       79    0.043063    0.043063  202+20
      158    0.042844   -0.042844  2-++02
        7   -0.037506   -0.037506  22-+0+
        8   -0.034577    0.034577  2-2+0+
        5   -0.034029   -0.034029  -22++0
       36    0.030664    0.030664  2+2-0+
       17   -0.030185    0.030185  22+-+0
       91   -0.027267   -0.027267  +22+-0
       64   -0.025053    0.025053  2-++20
       78    0.024946    0.024946  2+-+20
       32    0.024295    0.024295  2+2-+0
       63    0.023946    0.023946  220+20
       95    0.023094    0.023094  022+20
       21    0.022378   -0.022378  22+-0+
      168   -0.021162   -0.021162  2+-++-

 State #    2  Energy =    -398.480373674

      Det      Coef        Coefp    Occupancy (Ignoring core)
      ---      ----        ----    --------- --------- -----
       16    0.911259    0.911259  22+200
       31   -0.351276    0.351276  2+2200
      202    0.076285   -0.076285  2+0202
       62   -0.072116   -0.072116  22+020
      203   -0.072037    0.072037  20+202
        2   -0.072016    0.072016  2220+0
       37    0.050116   -0.050116  2+-20+
       38   -0.049671    0.049671  20220+
       49   -0.040270    0.040270  +-22+0
       53    0.038968   -0.038968  +-220+
       22    0.038803   -0.038803  22020+
       52    0.033961    0.033961  +2-20+
       19   -0.032182   -0.032182  2-+2+0
      109   -0.029869    0.029869  20+220
      196   -0.029819   -0.029819  2++20-
       77    0.028354   -0.028354  2+2020
       24   -0.026189    0.026189  -2+20+
       18    0.025928   -0.025928  2202+0
       48    0.023962    0.023962  +2-2+0
       33    0.023777   -0.023777  2+-2+0
       66    0.023231   -0.023231  22+0-+
       39   -0.022852   -0.022852  -+220+
       35    0.022803    0.022803  -+22+0
      219   -0.021255    0.021255  02+202
       23   -0.020297   -0.020297  2-+20+
      112   -0.020040   -0.020040  2+02-+

 State #    3  Energy =    -398.403721770

      Det      Coef        Coefp    Occupancy (Ignoring core)
      ---      ----        ----    --------- --------- -----
       31   -0.892755    0.892755  2+2200
       16   -0.355580   -0.355580  22+200
       22    0.139292   -0.139292  22020+
      202    0.095445   -0.095445  2+0202
        6   -0.091252    0.091252  22200+
       37   -0.085344    0.085344  2+-20+
       23    0.076254    0.076254  2-+20+
       77    0.067056   -0.067056  2+2020
       52   -0.064381   -0.064381  +2-20+
       49   -0.043096    0.043096  +-22+0
        2   -0.039892    0.039892  2220+0
      109    0.035347   -0.035347  20+220
      211    0.034720   -0.034720  +2+20-
      108    0.030976   -0.030976  2+0220
       24    0.029661   -0.029661  -2+20+
       18    0.027102   -0.027102  2202+0
       62    0.025231    0.025231  22+020
      156    0.024493    0.024493  22+002
      171    0.023853   -0.023853  2+2002
       35    0.023810    0.023810  -+22+0
      113    0.022561    0.022561  20+2-+
      167    0.022485   -0.022485  2+20+-

 ---------------------------------------
    -DIABATIC STATES IN PROTOTYPES-     
 ---------------------------------------

     STATE:    1
 Group Ref#    Coefficients
     1    1    0.988162
     2    2   -0.000000
     3    3    0.000000

WEIGHT OF LISTED PROTOTYPES:   97.65%

     STATE:    2
 Group Ref#    Coefficients
     1    1    0.000000
     2    2    0.987900
     3    3   -0.005810

WEIGHT OF LISTED PROTOTYPES:   97.60%

     STATE:    3
 Group Ref#    Coefficients
     1    1   -0.000000
     2    2   -0.005810
     3    3    0.957504

WEIGHT OF LISTED PROTOTYPES:   91.68%

 --------------------------------------------------
 IN DIRECT MAX. DIABATIZATION FOR GMC-QDPT

 DIRECT MAXIMIZATION (DM) WITHOUT TRUNCATING ADIABATS
 EXPANSIONS INTO THE REFERENCE CONFIGURATION SPACE
 --------------------------------------------------

 -------------------------------------------
 - DM DIABT PT HAMILTONIAN MATRIX ELEMENTS -
 -------------------------------------------
                                            
 --- DIABATIC ENERGIES (DIAGONAL ELEMENT) ---       HARTREE            EV
 STATE #  1'S GMC-PT-LEVEL DIABATIC ENERGY=    -398.591316823       0.000000000
 STATE #  2'S GMC-PT-LEVEL DIABATIC ENERGY=    -398.480370118       3.019013630
 STATE #  3'S GMC-PT-LEVEL DIABATIC ENERGY=    -398.403725326       5.104624631

 --- DIABATIC COUPLINGS (OFF DIAGONAL ELEMENTS)---  HATREE            EV
 STATE #  1 &  2'S GMC-PT-LEVEL COUPLING  =       0.000000000       0.000000000
 STATE #  1 &  3'S GMC-PT-LEVEL COUPLING  =       0.000000000       0.000000000
 STATE #  2 &  3'S GMC-PT-LEVEL COUPLING  =       0.019055648       0.518530589

 ---------------------------------------
     - ROTATION TO DIABATIC STATES -    
 ---------------------------------------
 ROWS=ADIABATIC, COLUMNS=DIABATIC STATES

             1           2           3

    1   -1.0000000   0.0000000   0.0000000
    2   -0.0000000   0.9735018  -0.2286794
    3   -0.0000000  -0.2286794  -0.9735018

 ---------------------------------------
          - DIABATIC STATES -           
 ---------------------------------------

 State #    1  Energy =    -398.591316823

      Det      Coef        Coefp    Occupancy (Ignoring core)
      ---      ----        ----    --------- --------- -----
        1   -0.971348    0.971348  222+00
      181   -0.095720   -0.095720  +22+0-
        9    0.089436    0.089436  -22+0+
      157    0.078988    0.078988  220+02
      173    0.073987    0.073987  202+02
       47    0.067640   -0.067640  +22-+0
      168    0.047166    0.047166  2+-++-
      154   -0.044252    0.044252  2-+++-
       63    0.041457    0.041457  220+20
        8    0.040660   -0.040660  2-2+0+
       68    0.040485    0.040485  2-++-+
       82   -0.038832    0.038832  2+-+-+
       91   -0.034204   -0.034204  +22+-0
        5   -0.033436   -0.033436  -22++0
       79    0.032337    0.032337  202+20
       36   -0.028903   -0.028903  2+2-0+
       17   -0.026480    0.026480  22+-+0
       61    0.026270    0.026270  22++-0
       21   -0.025374    0.025374  22+-0+
       95    0.024642    0.024642  022+20
      172   -0.022461   -0.022461  2+-+02
      158    0.021391   -0.021391  2-++02
      169   -0.021033   -0.021033  202++-
       83    0.020081   -0.020081  202+-+

 State #    2  Energy =    -398.480370118

      Det      Coef        Coefp    Occupancy (Ignoring core)
      ---      ----        ----    --------- --------- -----
       16    0.968213    0.968213  22+200
      211    0.086742   -0.086742  +2+20-
       24   -0.086515    0.086515  -2+20+
       62   -0.079939   -0.079939  22+020
      203   -0.077800    0.077800  20+202
        2   -0.070318    0.070318  2220+0
       53   -0.065291    0.065291  +-220+
       18    0.061670   -0.061670  2202+0
       48    0.043704    0.043704  +2-2+0
       39    0.042297    0.042297  -+220+
      112    0.042108    0.042108  2+02-+
       34   -0.040014    0.040014  2022+0
       46   -0.037978   -0.037978  +22200
      198   -0.035850    0.035850  2+02+-
      196    0.033620    0.033620  2++20-
       20   -0.033547    0.033547  -2+2+0
      109   -0.031747    0.031747  20+220
       23   -0.026211   -0.026211  2-+20+
       38    0.025965   -0.025965  20220+
      226    0.022994    0.022994  ++220-
      219   -0.021712    0.021712  02+202
      113   -0.021173   -0.021173  20+2-+
      125   -0.020989    0.020989  02+220
        6   -0.020939    0.020939  22200+
      200    0.020551    0.020551  -++2+-

 State #    3  Energy =    -398.403725326

      Det      Coef        Coefp    Occupancy (Ignoring core)
      ---      ----        ----    --------- --------- -----
       31   -0.929751    0.929751  2+2200
       46   -0.202560   -0.202560  +22200
       52    0.091181    0.091181  +2-20+
      226   -0.088165   -0.088165  ++220-
       37    0.083863   -0.083863  2+-20+
       39    0.081031    0.081031  -+220+
      202    0.078153   -0.078153  2+0202
       77    0.077991   -0.077991  2+2020
        2   -0.077177    0.077177  2220+0
       38   -0.072453    0.072453  20220+
       23   -0.070114   -0.070114  2-+20+
       33   -0.066611    0.066611  2+-2+0
        6    0.061896   -0.061896  22200+
       19    0.060803    0.060803  2-+2+0
       22   -0.058524    0.058524  22020+
       24   -0.050328    0.050328  -2+20+
       18    0.044775   -0.044775  2202+0
      108    0.041626   -0.041626  2+0220
      113   -0.041611   -0.041611  20+2-+
       49   -0.041572    0.041572  +-22+0
      211   -0.040854    0.040854  +2+20-
       34    0.033411   -0.033411  2022+0
      199    0.032749   -0.032749  20+2+-
       54    0.030518   -0.030518  02220+
       35    0.026657    0.026657  -+22+0
      171    0.020022   -0.020022  2+2002

 ---------------------------------------
      - DIABATIC STATES IN CMO -        
 ---------------------------------------

 State #    1  Energy =    -398.591316823

      Det      Coef        Coefp    Occupancy (Ignoring core)
      ---      ----        ----    --------- --------- -----
        1   -0.979718    0.979718  222+00
      157    0.115138    0.115138  220+02
       47    0.061296   -0.061296  +22-+0
      173    0.052586    0.052586  202+02
      172   -0.044472   -0.044472  2+-+02
       79    0.043063    0.043063  202+20
      158    0.042844   -0.042844  2-++02
        7   -0.037506   -0.037506  22-+0+
        8   -0.034577    0.034577  2-2+0+
        5   -0.034029   -0.034029  -22++0
       36    0.030664    0.030664  2+2-0+
       17   -0.030185    0.030185  22+-+0
       91   -0.027267   -0.027267  +22+-0
       64   -0.025053    0.025053  2-++20
       78    0.024946    0.024946  2+-+20
       32    0.024295    0.024295  2+2-+0
       63    0.023946    0.023946  220+20
       95    0.023094    0.023094  022+20
       21    0.022378   -0.022378  22+-0+
      168   -0.021162   -0.021162  2+-++-

 State #    2  Energy =    -398.480370118

      Det      Coef        Coefp    Occupancy (Ignoring core)
      ---      ----        ----    --------- --------- -----
       16    0.911225    0.911225  22+200
       31   -0.351359    0.351359  2+2200
      202    0.076294   -0.076294  2+0202
       62   -0.072114   -0.072114  22+020
      203   -0.072038    0.072038  20+202
        2   -0.072020    0.072020  2220+0
       37    0.050108   -0.050108  2+-20+
       38   -0.049670    0.049670  20220+
       49   -0.040274    0.040274  +-22+0
       53    0.038969   -0.038969  +-220+
       22    0.038816   -0.038816  22020+
       52    0.033955    0.033955  +2-20+
       19   -0.032182   -0.032182  2-+2+0
      109   -0.029866    0.029866  20+220
      196   -0.029818   -0.029818  2++20-
       77    0.028360   -0.028360  2+2020
       24   -0.026186    0.026186  -2+20+
       18    0.025930   -0.025930  2202+0
       48    0.023964    0.023964  +2-2+0
       33    0.023775   -0.023775  2+-2+0
       66    0.023230   -0.023230  22+0-+
       39   -0.022853   -0.022853  -+220+
       35    0.022805    0.022805  -+22+0
      219   -0.021254    0.021254  02+202
       23   -0.020289   -0.020289  2-+20+
      112   -0.020040   -0.020040  2+02-+

 State #    3  Energy =    -398.403725326

      Det      Coef        Coefp    Occupancy (Ignoring core)
      ---      ----        ----    --------- --------- -----
       31   -0.892722    0.892722  2+2200
       16   -0.355665   -0.355665  22+200
       22    0.139288   -0.139288  22020+
      202    0.095438   -0.095438  2+0202
        6   -0.091251    0.091251  22200+
       37   -0.085349    0.085349  2+-20+
       23    0.076256    0.076256  2-+20+
       77    0.067053   -0.067053  2+2020
       52   -0.064384   -0.064384  +2-20+
       49   -0.043092    0.043092  +-22+0
        2   -0.039885    0.039885  2220+0
      109    0.035350   -0.035350  20+220
      211    0.034721   -0.034721  +2+20-
      108    0.030977   -0.030977  2+0220
       24    0.029664   -0.029664  -2+20+
       18    0.027099   -0.027099  2202+0
       62    0.025237    0.025237  22+020
      156    0.024494    0.024494  22+002
      171    0.023853   -0.023853  2+2002
       35    0.023808    0.023808  -+22+0
      113    0.022562    0.022562  20+2-+
      167    0.022484   -0.022484  2+20+-

 ---------------------------------------
    -DIABATIC STATES IN PROTOTYPES-     
 ---------------------------------------

     STATE:    1
 Group Ref#    Coefficients
     1    1    0.988162
     2    2   -0.000000
     3    3    0.000000

WEIGHT OF LISTED PROTOTYPES:   97.65%

     STATE:    2
 Group Ref#    Coefficients
     1    1    0.000000
     2    2    0.987899
     3    3   -0.005720

WEIGHT OF LISTED PROTOTYPES:   97.60%

     STATE:    3
 Group Ref#    Coefficients
     1    1   -0.000000
     2    2   -0.005902
     3    3    0.957504

WEIGHT OF LISTED PROTOTYPES:   91.68%

     DIRECT MAX. DIABATIZATION FINISHED    
 CPU     0: STEP CPU TIME=     0.03 TOTAL CPU TIME=         66.7 (      1.1 MIN)
 TOTAL WALL CLOCK TIME=         66.8 SECONDS, CPU UTILIZATION IS    99.85%

DIABATS FOR SPIN-ORBIT CALCULATION ARE READY

TRANSITION DIPOLES BETWEEN ADIABATS (in A.U.):

STATE PAIR      X         Y         Z
    1    1  0.324517 -0.000000  1.999369
    2    1 -0.000000  0.239754 -0.000000
    2    2  0.193743 -0.000000  2.118965
    3    1 -0.000000 -0.195734  0.000000
    3    2 -0.181520  0.000000 -0.242705
    3    3  0.160640  0.000000  1.701426


TRANSITION DIPOLES BETWEEN DIABATS (in A.U.):

STATE PAIR      X         Y         Z
    1    1  0.324517 -0.000000  1.999369
    2    1 -0.000000 -0.278149  0.000000
    2    2  0.272803 -0.000000  2.205169
    3    1 -0.000000 -0.135747  0.000000
    3    2  0.155184 -0.000000  0.124424
    3    3  0.081580  0.000000  1.615222

TRANSITION DIPOLES BETWEEN DIRECT MAX. DIABATS (in A.U.):

STATE PAIR      X         Y         Z
    1    1  0.324517 -0.000000  1.999369
    2    1 -0.000000 -0.278162  0.000000
    2    2  0.272832 -0.000000  2.205192
    3    1 -0.000000 -0.135721  0.000000
    3    2  0.155166 -0.000000  0.124369
    3    3  0.081551  0.000000  1.615199
 No $TRANST Group Found.
 Quit without doing spin-orbit coupling
 ..... DONE WITH MP2 ENERGY .....
 CPU     0: STEP CPU TIME=     0.01 TOTAL CPU TIME=         66.7 (      1.1 MIN)
 TOTAL WALL CLOCK TIME=         66.8 SECONDS, CPU UTILIZATION IS    99.85%
            100000000  WORDS OF DYNAMIC MEMORY USED
 EXECUTION OF GAMESS TERMINATED NORMALLY Tue Nov  1 12:11:47 2022
 DDI: 5098536 bytes (4.9 MB / 0 MWords) used by master data server.

 ----------------------------------------
 CPU timing information for all processes
 ========================================
 0: 66.401 + 0.304 = 66.705
 ----------------------------------------
Note: The following floating-point exceptions are signalling: IEEE_DENORMAL
 ddikick.x: exited gracefully.
unset echo
----- accounting info -----
Files used on the master node io003 were:
-rwxr-xr-x 1 bjb2chen nooijen   91665 Nov  1 12:10 /scratch/bjb2chen/h2scat_cct_gmcpt_6o7e_3st_diab_as0.3.F05*
-rw-r--r-- 1 bjb2chen nooijen 1817856 Nov  1 12:11 /scratch/bjb2chen/h2scat_cct_gmcpt_6o7e_3st_diab_as0.3.F09
-rw-r--r-- 1 bjb2chen nooijen 2290400 Nov  1 12:11 /scratch/bjb2chen/h2scat_cct_gmcpt_6o7e_3st_diab_as0.3.F10
-rw-r--r-- 1 bjb2chen nooijen  328432 Nov  1 12:11 /scratch/bjb2chen/h2scat_cct_gmcpt_6o7e_3st_diab_as0.3.F13
-rw-r--r-- 1 bjb2chen nooijen  180552 Nov  1 12:11 /scratch/bjb2chen/h2scat_cct_gmcpt_6o7e_3st_diab_as0.3.F15
-rw-r--r-- 1 bjb2chen nooijen       0 Nov  1 12:10 /scratch/bjb2chen/h2scat_cct_gmcpt_6o7e_3st_diab_as0.3.F16
-rw-r--r-- 1 bjb2chen nooijen    2408 Nov  1 12:11 /scratch/bjb2chen/h2scat_cct_gmcpt_6o7e_3st_diab_as0.3.F70
-rw-r--r-- 1 bjb2chen nooijen    2408 Nov  1 12:11 /scratch/bjb2chen/h2scat_cct_gmcpt_6o7e_3st_diab_as0.3.F71
-rw-r--r-- 1 bjb2chen nooijen    4808 Nov  1 12:11 /scratch/bjb2chen/h2scat_cct_gmcpt_6o7e_3st_diab_as0.3.F72
-rw-r--r-- 1 bjb2chen nooijen    4808 Nov  1 12:11 /scratch/bjb2chen/h2scat_cct_gmcpt_6o7e_3st_diab_as0.3.F73
-rw-r--r-- 1 bjb2chen nooijen  369624 Nov  1 12:11 /scratch/bjb2chen/h2scat_cct_gmcpt_6o7e_3st_diab_as0.3.F74
-rw-r--r-- 1 bjb2chen nooijen  720024 Nov  1 12:11 /scratch/bjb2chen/h2scat_cct_gmcpt_6o7e_3st_diab_as0.3.F75
-rw-r--r-- 1 bjb2chen nooijen   14448 Nov  1 12:11 /scratch/bjb2chen/h2scat_cct_gmcpt_6o7e_3st_diab_as0.3.F76
-rw-r--r-- 1 bjb2chen nooijen       0 Nov  1 12:10 /scratch/bjb2chen/h2scat_cct_gmcpt_6o7e_3st_diab_as0.3.F77
-rw-r--r-- 1 bjb2chen nooijen    4232 Nov  1 12:11 /scratch/bjb2chen/h2scat_cct_gmcpt_6o7e_3st_diab_as0.3.F78
-rw-r--r-- 1 bjb2chen nooijen    9608 Nov  1 12:11 /scratch/bjb2chen/h2scat_cct_gmcpt_6o7e_3st_diab_as0.3.F79
-rw-r--r-- 1 bjb2chen nooijen     104 Nov  1 12:11 /scratch/bjb2chen/h2scat_cct_gmcpt_6o7e_3st_diab_as0.3.F80
-rw-r--r-- 1 bjb2chen nooijen   69712 Nov  1 12:11 /scratch/bjb2chen/h2scat_cct_gmcpt_6o7e_3st_diab_as0.3.F81
-rw-r--r-- 1 bjb2chen nooijen     136 Nov  1 12:11 /scratch/bjb2chen/h2scat_cct_gmcpt_6o7e_3st_diab_as0.3.F82
-rw-r--r-- 1 bjb2chen nooijen   10376 Nov  1 12:11 /scratch/bjb2chen/h2scat_cct_gmcpt_6o7e_3st_diab_as0.3.F83
-rw-r--r-- 1 bjb2chen nooijen  105616 Nov  1 12:11 /scratch/bjb2chen/h2scat_cct_gmcpt_6o7e_3st_diab_as0.3.F84
-rw-r--r-- 1 bjb2chen nooijen  646032 Nov  1 12:11 /scratch/bjb2chen/h2scat_cct_gmcpt_6o7e_3st_diab_as0.3.F85
-rw-r--r-- 1 bjb2chen nooijen 5205568 Nov  1 12:11 /scratch/bjb2chen/h2scat_cct_gmcpt_6o7e_3st_diab_as0.3.F86
-rw-r--r-- 1 bjb2chen nooijen     656 Nov  1 12:11 /scratch/bjb2chen/h2scat_cct_gmcpt_6o7e_3st_diab_as0.3.F87
-rw-r--r-- 1 bjb2chen nooijen   10512 Nov  1 12:11 /scratch/bjb2chen/h2scat_cct_gmcpt_6o7e_3st_diab_as0.3.F88
-rw-r--r-- 1 bjb2chen nooijen     536 Nov  1 12:11 /scratch/bjb2chen/h2scat_cct_gmcpt_6o7e_3st_diab_as0.3.F89
-rw-r--r-- 1 bjb2chen nooijen       0 Nov  1 12:10 /scratch/bjb2chen/h2scat_cct_gmcpt_6o7e_3st_diab_as0.3.F90
-rw-r--r-- 1 bjb2chen nooijen    5560 Nov  1 12:11 /scratch/bjb2chen/h2scat_cct_gmcpt_6o7e_3st_diab_as0.3.F91
-rw-r--r-- 1 bjb2chen nooijen    7128 Nov  1 12:11 /scratch/bjb2chen/h2scat_cct_gmcpt_6o7e_3st_diab_as0.3.F92
-rw-r--r-- 1 bjb2chen nooijen    5560 Nov  1 12:11 /scratch/bjb2chen/h2scat_cct_gmcpt_6o7e_3st_diab_as0.3.F93
-rw-r--r-- 1 bjb2chen nooijen    3880 Nov  1 12:11 /scratch/bjb2chen/h2scat_cct_gmcpt_6o7e_3st_diab_as0.3.F94
-rw-r--r-- 1 bjb2chen nooijen    1640 Nov  1 12:11 /scratch/bjb2chen/h2scat_cct_gmcpt_6o7e_3st_diab_as0.3.F95
-rw-r--r-- 1 bjb2chen nooijen    7240 Nov  1 12:11 /scratch/bjb2chen/h2scat_cct_gmcpt_6o7e_3st_diab_as0.3.F96
-rw-r--r-- 1 bjb2chen nooijen     872 Nov  1 12:11 /scratch/bjb2chen/h2scat_cct_gmcpt_6o7e_3st_diab_as0.3.F97
-rw-r--r-- 1 bjb2chen nooijen    2408 Nov  1 12:11 /scratch/bjb2chen/h2scat_cct_gmcpt_6o7e_3st_diab_as0.3.F98
-rw-r--r-- 1 bjb2chen nooijen    6024 Nov  1 12:11 /scratch/bjb2chen/h2scat_cct_gmcpt_6o7e_3st_diab_as0.3.F99
ls: No match.
ls: No match.
ls: No match.
Tue 01 Nov 2022 12:11:50 PM EDT
0.118u 0.006s 1:09.96 0.1%	0+0k 184+360io 0pf+0w
