----- GAMESS execution script 'rungms' -----
This job is running on host io003
under operating system Linux at Tue 01 Nov 2022 12:07:36 PM EDT
Available scratch disk space (Kbyte units) at beginning of the job is
Filesystem                  1K-blocks      Used Available Use% Mounted on
/dev/mapper/scratch-scratch 768943464 394188844 335667928  55% /scratch
GAMESS temporary binary files will be written to /scratch/bjb2chen
GAMESS supplementary output files will be written to /home/bjb2chen/.gamess_ascii_files/267495
Copying input file h2scat_cct_gmcpt_6o7e_3st_diab_as0.1.inp to your run's scratch directory...
cp h2scat_cct_gmcpt_6o7e_3st_diab_as0.1.inp /scratch/bjb2chen/h2scat_cct_gmcpt_6o7e_3st_diab_as0.1.F05
unset echo
/home/bjb2chen/gamess/ddikick.x /home/bjb2chen/gamess/gamess.00.x h2scat_cct_gmcpt_6o7e_3st_diab_as0.1 -ddi 1 1 io003 -scr /scratch/bjb2chen

 Distributed Data Interface kickoff program.
 Initiating 1 compute processes on 1 nodes to run the following command:
 /home/bjb2chen/gamess/gamess.00.x h2scat_cct_gmcpt_6o7e_3st_diab_as0.1 

          ******************************************************
          *         GAMESS VERSION = 02 AUG 2018 (R2)         *
          *             FROM IOWA STATE UNIVERSITY             *
          * M.W.SCHMIDT, K.K.BALDRIDGE, J.A.BOATZ, S.T.ELBERT, *
          *   M.S.GORDON, J.H.JENSEN, S.KOSEKI, N.MATSUNAGA,   *
          *          K.A.NGUYEN, S.J.SU, T.L.WINDUS,           *
          *       TOGETHER WITH M.DUPUIS, J.A.MONTGOMERY       *
          *         J.COMPUT.CHEM.  14, 1347-1363(1993)        *
          **************** 64 BIT LINUX VERSION ****************

  SINCE 1993, STUDENTS AND POSTDOCS WORKING AT IOWA STATE UNIVERSITY
  AND ALSO IN THEIR VARIOUS JOBS AFTER LEAVING ISU HAVE MADE IMPORTANT
  CONTRIBUTIONS TO THE CODE:
     IVANA ADAMOVIC, CHRISTINE AIKENS, YURI ALEXEEV, POOJA ARORA,
     ANDREY ASADCHEV, ROB BELL, PRADIPTA BANDYOPADHYAY, JONATHAN BENTZ,
     BRETT BODE, KURT BRORSEN, CALEB CARLIN, GALINA CHABAN, WEI CHEN,
     CHEOL HO CHOI, PAUL DAY, ALBERT DEFUSCO, NUWAN DESILVA, TIM DUDLEY,
     DMITRI FEDOROV, ALEX FINDLATER, GRAHAM FLETCHER, MARK FREITAG,
     KURT GLAESEMANN, ANASTASIA GUININA,
     DAN KEMP, GRANT MERRILL, NORIYUKI MINEZAWA, JONATHAN MULLIN,
     TAKESHI NAGATA, SEAN NEDD, HEATHER NETZLOFF, BOSILJKA NJEGIC, RYAN OLSON,
     MIKE PAK, BUU PHAM,
     SPENCER PRUITT, LUKE ROSKOP, JIM SHOEMAKER, LYUDMILA SLIPCHENKO,
     TONY SMITH, SAROM SOK LEANG, JIE SONG, TETSUYA TAKETSUGU, SIMON WEBB,
     PENG XU, SOOHAENG YOO, FEDERICO ZAHARIEV

  ADDITIONAL CODE HAS BEEN PROVIDED BY COLLABORATORS IN OTHER GROUPS:
     IOWA STATE UNIVERSITY:
          JOE IVANIC, AARON WEST, LAIMUTIS BYTAUTAS, KLAUS RUEDENBERG
     UNIVERSITY OF TOKYO: KIMIHIKO HIRAO, TAKAHITO NAKAJIMA,
          TAKAO TSUNEDA, MUNEAKI KAMIYA, SUSUMU YANAGISAWA,
          KIYOSHI YAGI, MAHITO CHIBA, SEIKEN TOKURA, NAOAKI KAWAKAMI
     UNIVERSITY OF AARHUS: FRANK JENSEN
     UNIVERSITY OF IOWA: VISVALDAS KAIRYS, HUI LI
     NATIONAL INST. OF STANDARDS AND TECHNOLOGY: WALT STEVENS, DAVID GARMER
     UNIVERSITY OF PISA: BENEDETTA MENNUCCI, JACOPO TOMASI
     UNIVERSITY OF MEMPHIS: HENRY KURTZ, PRAKASHAN KORAMBATH
     UNIVERSITY OF ALBERTA: TOBY ZENG, MARIUSZ KLOBUKOWSKI
     UNIVERSITY OF NEW ENGLAND: MARK SPACKMAN
     MIE UNIVERSITY: HIROAKI UMEDA
     NAT. INST. OF ADVANCED INDUSTRIAL SCIENCE AND TECHNOLOGY: KAZUO KITAURA
     MICHIGAN STATE UNIVERSITY:
          KAROL KOWALSKI, MARTA WLOCH, JEFFREY GOUR, JESSE LUTZ,
          WEI LI, JUN SHEN, J. EMILIANO DEUSTUA, PIOTR PIECUCH
     UNIVERSITY OF MINNESOTA:
          YINAN SHU
     UNIVERSITY OF SILESIA: MONIKA MUSIAL, STANISLAW KUCHARSKI
     FACULTES UNIVERSITAIRES NOTRE-DAME DE LA PAIX:
          OLIVIER QUINET, BENOIT CHAMPAGNE
     UNIVERSITY OF CALIFORNIA - SANTA BARBARA: BERNARD KIRTMAN
     INSTITUTE FOR MOLECULAR SCIENCE:
          KAZUYA ISHIMURA, MICHIO KATOUDA, AND SHIGERU NAGASE
     UNIVERSITY OF NOTRE DAME: ANNA POMOGAEVA, DAN CHIPMAN
     KYUSHU UNIVERSITY:
          HARUYUKI NAKANO,
          FENG LONG GU, JACEK KORCHOWIEC, MARCIN MAKOWSKI, AND YURIKO AOKI,
          HIROTOSHI MORI AND EISAKU MIYOSHI
     PENNSYLVANIA STATE UNIVERSITY:
          TZVETELIN IORDANOV, CHET SWALINA, JONATHAN SKONE,
          SHARON HAMMES-SCHIFFER
     WASEDA UNIVERSITY:
          MASATO KOBAYASHI, TOMOKO AKAMA, TSUGUKI TOUMA,
          TAKESHI YOSHIKAWA, YASUHIRO IKABATA, JUNJI SEINO,
          YUYA NAKAJIMA, HIROMI NAKAI
     NANJING UNIVERSITY: SHUHUA LI
     UNIVERSITY OF NEBRASKA:
          PEIFENG SU, DEJUN SI, NANDUN THELLAMUREGE, YALI WANG, HUI LI
     UNIVERSITY OF ZURICH: ROBERTO PEVERATI, KIM BALDRIDGE
     N. COPERNICUS UNIVERSITY AND JACKSON STATE UNIVERSITY:
          MARIA BARYSZ
     UNIVERSITY OF COPENHAGEN: Jimmy Kromann, CASPER STEINMANN
     TOKYO INSTITUTE OF TECHNOLOGY: HIROYA NAKATA
     NAGOYA UNIVERSITY: YOSHIO NISHIMOTO, STEPHAN IRLE
     MOSCOW STATE UNIVERSITY: VLADIMIR MIRONOV

 EXECUTION OF GAMESS BEGUN Tue Nov  1 12:07:36 2022

            ECHO OF THE FIRST FEW INPUT CARDS -
 INPUT CARD> !Step 4: single point gmcpt calculation averaging 3 states                     
 INPUT CARD> !        for H2S+ at H2S structure. The RHF orbitals at                        
 INPUT CARD> !        the MP2 optimized structure is taken as the initial                   
 INPUT CARD> !        guess of orbitals in the $VEC group. 3 states are asked               
 INPUT CARD> !        for because state 4 and 5 are a bit higher. Now with the DMO group.   
 INPUT CARD> !        The calculation should generate the DMO for diabatization calculation.
 INPUT CARD> !        Now with the REFDET group to do diabatization.                        
 INPUT CARD> $system kdiag=3 mwords=100 memddi=1000 parall=.t. $end                         
 INPUT CARD> $contrl runtyp=energy ispher=1 $end                                            
 INPUT CARD> $contrl icut=9 itol=20 inttyp=rysquad qmttol=1.0d-05 nosym=1 $end              
 INPUT CARD> $scf    npunch=2 conv=1.0d-06 dirscf=.t.      $end                             
 INPUT CARD> $contrl scftyp=mcscf  mult=2 maxit=200 icharg=1 mplevl=2 $end                  
 INPUT CARD> $guess  guess=moread norb=67 purify=.t. $end                                   
 INPUT CARD> $basis  gbasis=cct $end                                                        
 INPUT CARD> $mcscf  cistep=gmcci fullnr=.t. finci=mos                                      
 INPUT CARD>         acurcy=1.d-6 maxit=100 $end                                            
 INPUT CARD> $trans  dirtrf=.t. $end                                                        
 INPUT CARD> $mrmp   mrpt=gmcpt rdvecs=.f. $end                                             
 INPUT CARD> $gmcpt  nmofzc=1 nmodoc=4 nmoact=6 nelact=7 stsym(1)=A                         
 INPUT CARD>         reftyp=ormas nspace=1 mstart(1)=6 mine(1)=7 maxe(1)=7                  
 INPUT CARD>         kstate(1)=1,1,1                                                        
 INPUT CARD>         wstate(1)=1,1,1                                                        
 INPUT CARD>         iwgt=0 thrwgt=-1.0 krot=.f. kszdoe=.f. knospn=.f.                      
 INPUT CARD>         thrde=-1.0 edshft=0.02 $end                                            
 INPUT CARD> $data                                                                          
 INPUT CARD> H2S+ 5 states calculation at H2S structure.                                    
 INPUT CARD> C1                                                                             
 INPUT CARD>S 16.0 -.003148042 0 -.1250090427                                               
 INPUT CARD>H 1.0 -.9099430381 0 .7510242304                                                
 INPUT CARD>H 1.0 1.0098075801 0 .8471648114                                                
 INPUT CARD> $END                                                                           
 INPUT CARD>--- OPTIMIZED RHF      MO-S --- GENERATED AT Thu Oct 27 10:13:22 2022           
 INPUT CARD>E=     -398.9058481329, E(NUC)=   12.9846624426                                 
 INPUT CARD> $VEC                                                                           
 INPUT CARD> 1  1 1.00011026E+00 1.43520516E-04 1.30762006E-04-7.19841046E-04-4.04367933E-05
 INPUT CARD> 1  2 0.00000000E+00 0.00000000E+00 1.46481549E-04 0.00000000E+00 0.00000000E+00
 INPUT CARD> 1  3 1.53800072E-04 0.00000000E+00 0.00000000E+00-7.74673354E-05 0.00000000E+00
 INPUT CARD> 1  4 0.00000000E+00-6.12563802E-06 8.50208756E-06-9.50065215E-06 9.98564596E-07
 INPUT CARD> 1  5 0.00000000E+00 0.00000000E+00 0.00000000E+00 1.49530933E-05-4.16980391E-05
 INPUT CARD> 1  6 2.67449458E-05 0.00000000E+00 0.00000000E+00 0.00000000E+00 0.00000000E+00
 INPUT CARD> 1  7 0.00000000E+00-1.67146408E-06 0.00000000E+00 1.76499637E-05 0.00000000E+00
 INPUT CARD> 1  8-1.54074593E-05 0.00000000E+00 0.00000000E+00 0.00000000E+00-1.83884890E-06
 INPUT CARD> 1  9 2.36115839E-06-5.22309483E-07 0.00000000E+00 0.00000000E+00 0.00000000E+00
 INPUT CARD> 1 10-6.24513082E-07-9.98605962E-05 1.10759173E-05-2.55516507E-06 0.00000000E+00
 INPUT CARD> 1 11 2.50401905E-06-4.41737445E-05 0.00000000E+00 3.25175870E-05-2.07356794E-06
 INPUT CARD> 1 12 6.55129107E-07 1.41843883E-06 0.00000000E+00-1.34329310E-06 0.00000000E+00
 INPUT CARD> 1 13-6.24513082E-07-9.98605962E-05 1.10759173E-05 2.55516507E-06 0.00000000E+00
 INPUT CARD> 1 14 2.50401905E-06 4.41737445E-05 0.00000000E+00 3.25175870E-05-2.07356794E-06
 INPUT CARD> 1 15 6.55129107E-07 1.41843883E-06 0.00000000E+00 1.34329310E-06 0.00000000E+00
 INPUT CARD> 2  1 3.15060126E-04-9.47897368E-01 1.19814733E-03-7.03217165E-02-2.35194099E-03
  100000000 WORDS OF MEMORY AVAILABLE

     BASIS OPTIONS
     -------------
     GBASIS=CCT          IGAUSS=       0      POLAR=NONE    
     NDFUNC=       0     NFFUNC=       0     DIFFSP=       F
     NPFUNC=       0      DIFFS=       F     BASNAM=        


     RUN TITLE
     ---------
  H2S+ 5 states calculation at H2S structure.                                    

 THE POINT GROUP OF THE MOLECULE IS C1      
 THE ORDER OF THE PRINCIPAL AXIS IS     0

 ATOM      ATOMIC                      COORDINATES (BOHR)
           CHARGE         X                   Y                   Z
 S          16.0    -0.0059489368        0.0000000000       -0.2362328367
 H           1.0    -1.7195430064        0.0000000000        1.4192300056
 H           1.0     1.9082596267        0.0000000000        1.6009093600

          INTERNUCLEAR DISTANCES (ANGS.)
          ------------------------------

                1 S          2 H          3 H     

   1 S       0.0000000    1.2608376 *  1.4039947 *
   2 H       1.2608376 *  0.0000000    1.9221565 *
   3 H       1.4039947 *  1.9221565 *  0.0000000  

  * ... LESS THAN  3.000


     ATOMIC BASIS SET
     ----------------
 THE CONTRACTED PRIMITIVE FUNCTIONS HAVE BEEN UNNORMALIZED
 THE CONTRACTED BASIS FUNCTIONS ARE NOW NORMALIZED TO UNITY

  SHELL TYPE  PRIMITIVE        EXPONENT          CONTRACTION COEFFICIENT(S)

 S         

      1   S       1        374100.0000000    0.000054209268
      1   S       2         56050.0000000    0.000420818270
      1   S       3         12760.0000000    0.002206787384
      1   S       4          3615.0000000    0.009191777710
      1   S       5          1183.0000000    0.032109497373
      1   S       6           428.8000000    0.094660037747
      1   S       7           167.8000000    0.223610482509
      1   S       8            69.4700000    0.374360324545
      1   S       9            29.8400000    0.329079276830
      1   S      10            12.7200000    0.084696407407
      1   S      11             5.2440000    0.000440812524
      1   S      12             2.2190000    0.001648126146
      1   S      13             0.3490000    0.000301279703

      2   S      14        374100.0000000   -0.000015779023
      2   S      15         56050.0000000   -0.000122365697
      2   S      16         12760.0000000   -0.000644045337
      2   S      17          3615.0000000   -0.002689248357
      2   S      18          1183.0000000   -0.009569414953
      2   S      19           428.8000000   -0.029175032745
      2   S      20           167.8000000   -0.075823808684
      2   S      21            69.4700000   -0.154211865224
      2   S      22            29.8400000   -0.205508406220
      2   S      23            12.7200000    0.008626751105
      2   S      24             5.2440000    0.544021768700
      2   S      25             2.2190000    0.570956375443
      2   S      26             0.3490000   -0.009668025289

      3   S      27        374100.0000000    0.000006823816
      3   S      28         56050.0000000    0.000052878906
      3   S      29         12760.0000000    0.000278673749
      3   S      30          3615.0000000    0.001162407410
      3   S      31          1183.0000000    0.004149991892
      3   S      32           428.8000000    0.012665073653
      3   S      33           167.8000000    0.033294544367
      3   S      34            69.4700000    0.068749008698
      3   S      35            29.8400000    0.096101773381
      3   S      36            12.7200000   -0.005670123205
      3   S      37             5.2440000   -0.320764818841
      3   S      38             2.2190000   -0.598947641366
      3   S      39             0.3490000    1.120107735959

      4   S      40             0.7767000    1.000000000000

      5   S      41             0.1322000    1.000000000000

      6   P      42           574.4000000    0.002496922983
      6   P      43           135.8000000    0.019870751061
      6   P      44            43.1900000    0.091254916388
      6   P      45            15.8700000    0.262462200493
      6   P      46             6.2080000    0.447290816633
      6   P      47             2.4830000    0.365836568252
      6   P      48             0.3229000   -0.005183992799

      7   P      49           574.4000000   -0.001064023915
      7   P      50           135.8000000   -0.008474448710
      7   P      51            43.1900000   -0.039919557083
      7   P      52            15.8700000   -0.117571603827
      7   P      53             6.2080000   -0.212591326962
      7   P      54             2.4830000   -0.166354909681
      7   P      55             0.3229000    0.977014802934

      8   P      56             0.8688000    1.000000000000

      9   P      57             0.1098000    1.000000000000

     10   D      58             0.8120000    1.000000000000

     11   D      59             0.2730000    1.000000000000

     12   F      60             0.5570000    1.000000000000

     13   D      61             3.7560000    1.000000000000

 H         

     14   S      62            33.8700000    0.025494863235
     14   S      63             5.0950000    0.190362765893
     14   S      64             1.1590000    0.852162022245

     15   S      65             0.3258000    1.000000000000

     16   S      66             0.1027000    1.000000000000

     17   P      67             1.4070000    1.000000000000

     18   P      68             0.3880000    1.000000000000

     19   D      69             1.0570000    1.000000000000

 H         

     20   S      70            33.8700000    0.025494863235
     20   S      71             5.0950000    0.190362765893
     20   S      72             1.1590000    0.852162022245

     21   S      73             0.3258000    1.000000000000

     22   S      74             0.1027000    1.000000000000

     23   P      75             1.4070000    1.000000000000

     24   P      76             0.3880000    1.000000000000

     25   D      77             1.0570000    1.000000000000

 TOTAL NUMBER OF BASIS SET SHELLS             =   25
 NUMBER OF CARTESIAN GAUSSIAN BASIS FUNCTIONS =   75
 NOTE: THIS RUN WILL RESTRICT THE MO VARIATION SPACE TO SPHERICAL HARMONICS.
 THE NUMBER OF ORBITALS KEPT IN THE VARIATIONAL SPACE WILL BE PRINTED LATER.
 NUMBER OF ELECTRONS                          =   17
 CHARGE OF MOLECULE                           =    1
 SPIN MULTIPLICITY                            =    2
 NUMBER OF OCCUPIED ORBITALS (ALPHA)          =    9
 NUMBER OF OCCUPIED ORBITALS (BETA )          =    8
 TOTAL NUMBER OF ATOMS                        =    3
 THE NUCLEAR REPULSION ENERGY IS       13.0210837504

     $CONTRL OPTIONS
     ---------------
 SCFTYP=MCSCF        RUNTYP=ENERGY       EXETYP=RUN     
 MPLEVL=       2     CITYP =NONE         CCTYP =NONE         VBTYP =NONE    
 DFTTYP=NONE         TDDFT =NONE    
 MULT  =       2     ICHARG=       1     NZVAR =       0     COORD =UNIQUE  
 PP    =NONE         RELWFN=NONE         LOCAL =NONE         NUMGRD=       F
 ISPHER=       1     NOSYM =       1     MAXIT =     200     UNITS =ANGS    
 PLTORB=       F     MOLPLT=       F     AIMPAC=       F     FRIEND=        
 NPRINT=       7     IREST =       0     GEOM  =INPUT   
 NORMF =       0     NORMP =       0     ITOL  =      20     ICUT  =       9
 INTTYP=RYSQUAD      GRDTYP=BEST         QMTTOL= 1.0E-05

     $SYSTEM OPTIONS
     ---------------
  REPLICATED MEMORY=   100000000 WORDS (ON EVERY NODE).
 DISTRIBUTED MEMDDI=        1000 MILLION WORDS IN AGGREGATE,
 MEMDDI DISTRIBUTED OVER   1 PROCESSORS IS  1000000000 WORDS/PROCESSOR.
 TOTAL MEMORY REQUESTED ON EACH PROCESSOR=  1100000000 WORDS.
 TIMLIM=      525600.00 MINUTES, OR     365.0 DAYS.
 PARALL= T  BALTYP=  DLB     KDIAG=    3  COREFL= F
 MXSEQ2=     300 MXSEQ3=     150  mem10=         0

          ----------------
          PROPERTIES INPUT
          ----------------

     MOMENTS            FIELD           POTENTIAL          DENSITY
 IEMOM =       1   IEFLD =       0   IEPOT =       0   IEDEN =       0
 WHERE =COMASS     WHERE =NUCLEI     WHERE =NUCLEI     WHERE =NUCLEI  
 OUTPUT=BOTH       OUTPUT=BOTH       OUTPUT=BOTH       OUTPUT=BOTH    
 IEMINT=       0   IEFINT=       0                     IEDINT=       0
                                                       MORB  =       0

     -------------------------------
     INTEGRAL TRANSFORMATION OPTIONS
     -------------------------------
     NWORD  =            0
     CUTOFF = 1.0E-09     MPTRAN =       0
     DIRTRF =       T     AOINTS =DUP     

          ----------------------
          MCSCF INPUT PARAMETERS
          ----------------------
 CONVERGER SELECTION: FOCAS = F  SOSCF = F  FULLNR = T  QUD = F  JACOBI = F
 SECULAR EQUATION METHOD CISTEP = GMCCI   
 --- GENERAL INPUT OPTIONS:
 MAXIT =     100  MICIT =       1  ACURCY= 1.000E-06
 DAMP  =   0.000  CANONC=       T  ENGTOL= 1.000E-10
 EKT   =       F  NPUNCH=       2  NWORD =         0
 REGENERATE CI AFTER CONVERGENCE = NONE    
 DIABATIZATION AFTER CONVERGENCE =        F
 --- INPUT FOR FULLNR CONVERGER:
 METHOD=DM2       FORS  =       F  DROPC =       T
 LINSER=       F  FCORE =       F  NORB  =      75

          ----------------------
          INTEGRAL INPUT OPTIONS
          ----------------------
 NOPK  =       1 NORDER=       0 SCHWRZ=       T

 ------------------------------------------
 MULTIREFERENCE PERTURBATION THEORY CONTROL
 ------------------------------------------
 MRPT=GMCPT    READ CONVERGED MCSCF VECTORS= F


     ------------------------------------------
     THE POINT GROUP IS C1 , NAXIS= 1, ORDER= 1
     ------------------------------------------

 -- VARIATIONAL SPACE WILL BE RESTRICTED TO PURE SPHERICAL HARMONICS ONLY --
 AFTER EXCLUDING CONTAMINANT COMBINATIONS FROM THE CARTESIAN GAUSSIAN BASIS
 SET, THE NUMBER OF SPHERICAL HARMONICS KEPT IN THE VARIATION SPACE IS   67

     DIMENSIONS OF THE SYMMETRY SUBSPACES ARE
 A   =   67

 ..... DONE SETTING UP THE RUN .....
 CPU     0: STEP CPU TIME=     0.03 TOTAL CPU TIME=          0.0 (      0.0 MIN)
 TOTAL WALL CLOCK TIME=          0.1 SECONDS, CPU UTILIZATION IS    60.00%

          ********************
          1 ELECTRON INTEGRALS
          ********************
 TIME TO DO   DIPOLE INTEGRALS=      0.00
 ...... END OF ONE-ELECTRON INTEGRALS ......
 CPU     0: STEP CPU TIME=     0.00 TOTAL CPU TIME=          0.0 (      0.0 MIN)
 TOTAL WALL CLOCK TIME=          0.1 SECONDS, CPU UTILIZATION IS    60.00%

          -------------
          GUESS OPTIONS
          -------------
          GUESS =MOREAD            NORB  =      67          NORDER=       0
          MIX   =       F          PRTMO =       F          PUNMO =       F
          TOLZ  = 1.0E-08          TOLE  = 1.0E-05
          SYMDEN=       F          PURIFY=       T

 INITIAL GUESS ORBITALS GENERATED BY MOREAD   ROUTINE.

 STATISTICS FOR GENERATION OF SYMMETRY ORBITAL -Q- MATRIX
 NUMBER OF CARTESIAN ATOMIC ORBITALS=         75
 NUMBER OF SPHERICAL CONTAMINANTS DROPPED=     8
 NUMBER OF LINEARLY DEPENDENT MOS DROPPED=     0
 TOTAL NUMBER OF MOS IN VARIATION SPACE=      67
 ORBITAL PURIFICATION WILL OCCUR

 SYMMETRIES FOR INITIAL GUESS ORBITALS FOLLOW.   BOTH SET(S).
     9 ORBITALS ARE OCCUPIED (    5 CORE ORBITALS).
     1=A        2=A        3=A        4=A        5=A        6=A        7=A   
     8=A        9=A       10=A       11=A       12=A       13=A       14=A   
    15=A       16=A       17=A       18=A       19=A       20=A       21=A   
    22=A       23=A       24=A       25=A       26=A       27=A       28=A   
    29=A       30=A       31=A       32=A       33=A       34=A       35=A   
    36=A       37=A       38=A       39=A       40=A       41=A       42=A   
    43=A       44=A       45=A       46=A       47=A       48=A       49=A   
    50=A       51=A       52=A       53=A       54=A       55=A       56=A   
    57=A       58=A       59=A       60=A       61=A       62=A       63=A   
    64=A       65=A       66=A       67=A   
 ...... END OF INITIAL ORBITAL SELECTION ......
 CPU     0: STEP CPU TIME=     0.02 TOTAL CPU TIME=          0.1 (      0.0 MIN)
 TOTAL WALL CLOCK TIME=          0.1 SECONDS, CPU UTILIZATION IS    83.33%

                    ----------------------
                    AO INTEGRAL TECHNOLOGY
                    ----------------------
     S,P,L SHELL ROTATED AXIS INTEGRALS, REPROGRAMMED BY
        KAZUYA ISHIMURA (IMS) AND JOSE SIERRA (SYNSTAR).
     S,P,D,L SHELL ROTATED AXIS INTEGRALS PROGRAMMED BY
        KAZUYA ISHIMURA (INSTITUTE FOR MOLECULAR SCIENCE).
     S,P,D,F,G SHELL TO TOTAL QUARTET ANGULAR MOMENTUM SUM 5,
        ERIC PROGRAM BY GRAHAM FLETCHER (ELORET AND NASA ADVANCED
        SUPERCOMPUTING DIVISION, AMES RESEARCH CENTER).
     S,P,D,F,G,L SHELL GENERAL RYS QUADRATURE PROGRAMMED BY
        MICHEL DUPUIS (PACIFIC NORTHWEST NATIONAL LABORATORY).

          --------------------
          2 ELECTRON INTEGRALS
          --------------------

 DIRECT SCF METHOD SKIPS INTEGRAL STORAGE ON DISK.
 DIRECT TRANSFORMATION SKIPS AO INTEGRAL STORAGE ON DISK.
  ...... END OF TWO-ELECTRON INTEGRALS .....
 STEP CPU TIME =     0.01 TOTAL CPU TIME =          0.1 (      0.0 MIN)
 TOTAL WALL CLOCK TIME=          0.1 SECONDS, CPU UTILIZATION IS    75.00%
 DDI: Creating Array [0] - 5625 x 66 = 371250 words.
 DDI: Creating Array [1] - 56 x 726 = 40656 words.
 DDI: Creating Array [2] - 66 x 66 = 4356 words.
 DDI: Creating Array [3] - 2850 x 66 = 188100 words.

          -----------------
          MCSCF CALCULATION
          -----------------

 ----- NUCLEAR ENERGY ----- =        13.0210837504

     -------------------------------------------------
     GMC-PT/GMC-QDPT or general MCSCF input parameters
     -------------------------------------------------
 # of frozen core orbs. =         1 ->         0
 # of doubly occ. orbs. =         4
 # of active      orbs. =         6
 # of virtual     orbs. =        56
 # of active electrons  =         7
 # of states in CI      =         3
 Highest state in CI    =         3
 kstate =  1 1 1
 avecoe =  0.333 0.333 0.333
 State symmetry           = A           
 Assigned symmetry number = 1

 <<<Act. MO sym.: 111111

 <<<Division of 1-ext.:  0
 <<<Division of 2-ext.:  0

 *** Reference space

 Reference type: ORMAS (= Occupation restricted multiple active space)
 # of orbitals          =  6
 # of minimum electrons =  7
 # of maximum electrons =  7
 State symmetry    =    1 (input)
 2*Sz              =    1 (input)
 Spin multiplicity =    2 (input)
 Dimension of reference space =       300  (from       792 walks)

 Dimension of reference space =       300  (from       300 walks)

 <<<Ionized spaces for Ref-CI:
      0:          300 /   -1-0:          625 /  0-1-0:          690

 EVALUATING EXCHANGE INTEGRALS FOR DIRECT INTEGRAL TRANSFORMATION
 SCHWARZ INEQUALITY OVERHEAD:      2850 INTEGRALS, T=        0.01

     --------------------------------------------
     PARTIAL TWO ELECTRON INTEGRAL TRANSFORMATION
     --------------------------------------------

 NUMBER OF CORE MOLECULAR ORBITALS     =    5
 NUMBER OF OCCUPIED MOLECULAR ORBITALS =   11
 TOTAL NUMBER OF MOLECULAR ORBITALS    =   67
 TOTAL NUMBER OF ATOMIC ORBITALS       =   75
 THRESHOLD FOR KEEPING TRANSFORMED 2E- INTEGRALS = 1.000E-09

 -------------------------------     ------------------------------
 DISTRIBUTED DATA TRANSFORMATION     PROGRAM WRITTEN BY G. FLETCHER
 -------------------------------     ------------------------------

 THE DISTRIBUTED MEMORY REQUIRED FOR THIS STEP IS MEMDDI=         1 MWORDS
 CREATING DISTRIBUTED STORAGE FOR [VIR OCC|VIR OCC] INTEGRALS
 CREATING DISTRIBUTED STORAGE FOR [VIR OCC|OCC OCC] INTEGRALS
 CREATING DISTRIBUTED STORAGE FOR [OCC OCC|OCC OCC] INTEGRALS
 CREATING DISTRIBUTED STORAGE FOR [VIR VIR|OCC OCC] INTEGRALS
 FOR    1 PROCESSORS, THE REPLICATED MEMORY NEEDED IS      304672 WORDS.
 SCHWARZ INEQUALITY OVERHEAD:      2850 INTEGRALS, T=        0.01

      DIRECT 4-INDEX TRANSFORMATION 
      SCHWARZ INEQUALITY TEST SKIPPED          0 INTEGRAL BLOCKS
 ----- FROZEN CORE ENERGY =      -395.5170070035
 ... END OF INTEGRAL TRANSFORMATION ...
 CPU     0: STEP CPU TIME=     2.00 TOTAL CPU TIME=          2.1 (      0.0 MIN)
 TOTAL WALL CLOCK TIME=          2.1 SECONDS, CPU UTILIZATION IS    99.04%

     --------------------------------     -----------------------------
     MCHF NEWTON-RAPHSON OPTIMIZATION     CODE WRITTEN BY MICHEL DUPUIS
     --------------------------------     -----------------------------
     PARALLEL VERSION WRITTEN BY G. FLETCHER (ELORET)
     NASA ADVANCED SUPERCOMPUTING DIVISION, AMES RESEARCH CENTER

 NUMBER OF INDEPENDENT ORBITAL ROTATION PARAMETERS =   392
 ..... DONE SOLVING NEWTON-RAPHSON EQUATIONS .....
 CPU     0: STEP CPU TIME=     0.27 TOTAL CPU TIME=          2.3 (      0.0 MIN)
 TOTAL WALL CLOCK TIME=          2.3 SECONDS, CPU UTILIZATION IS    99.57%
 ..... DONE WITH NTN-RPH ORBITAL ROTATIONS ..... 
 CPU     0: STEP CPU TIME=     0.00 TOTAL CPU TIME=          2.3 (      0.0 MIN)
 TOTAL WALL CLOCK TIME=          2.3 SECONDS, CPU UTILIZATION IS    99.57%
 MAXIMUM MEMORY USED BY NTN-RPH CODE WAS    110094 WORDS.

 ITER     TOTAL ENERGY      DEL(E)  LAGRANGIAN ASYMMETRY   SQCDF  MICIT   DAMP
   1     -398.232222045 -0.232222045  0.119053   14    9 1.231E-01  1   0.0000
   2     -398.269021295 -0.036799250  0.015499   14    9 3.663E-01  1   0.0000
   3     -398.286649118 -0.017627823  0.006829   13   10 1.671E-01  1   0.0064
   4     -398.292826394 -0.006177276  0.002279   13   10 1.512E-02  1   0.0016
   5     -398.293277719 -0.000451324  0.000590   21   10 1.612E-03  1   0.0000
   6     -398.293351330 -0.000073611  0.000458   21   10 8.142E-04  1   0.0000
   7     -398.293393286 -0.000041957  0.000353   21   10 5.074E-04  1   0.0000
   8     -398.293420207 -0.000026921  0.000279   21   10 3.391E-04  1   0.0000
   9     -398.293438287 -0.000018080  0.000223   21   10 2.327E-04  1   0.0000
  10     -398.293450652 -0.000012366  0.000180   21   10 1.608E-04  1   0.0000
  11     -398.293459145 -0.000008493  0.000145   21   10 1.108E-04  1   0.0000
  12     -398.293464958 -0.000005814  0.000117   21   10 7.579E-05  1   0.0000
  13     -398.293468912 -0.000003953  0.000094   21   10 5.142E-05  1   0.0000
  14     -398.293471578 -0.000002667  0.000076   21   10 3.459E-05  1   0.0000
  15     -398.293473363 -0.000001785  0.000062   16   10 2.309E-05  1   0.0000
  16     -398.293474549 -0.000001186  0.000052   16   10 1.530E-05  1   0.0000
  17     -398.293475331 -0.000000783  0.000042   16   10 1.008E-05  1   0.0000
  18     -398.293475845 -0.000000514  0.000035   16   10 6.606E-06  1   0.0000
  19     -398.293476180 -0.000000336  0.000028   16   10 4.311E-06  1   0.0000
  20     -398.293476399 -0.000000218  0.000023   16   10 2.804E-06  1   0.0000
  21     -398.293476540 -0.000000142  0.000019   16   10 1.802E-06  1   0.0000
  22     -398.293476632 -0.000000091  0.000015   16   10 1.197E-06  1   0.0000
  23     -398.293476691 -0.000000059  0.000012   16   10 7.594E-07  1   0.0000
  24     -398.293476729 -0.000000038  0.000010   16   10 4.887E-07  1   0.0000
  25     -398.293476753 -0.000000025  0.000008   16   10 3.148E-07  1   0.0000
  26     -398.293476769 -0.000000016  0.000006   16   10 2.024E-07  1   0.0000
  27     -398.293476779 -0.000000010  0.000005   16   10 1.301E-07  1   0.0000
  28     -398.293476786 -0.000000006  0.000004   16   10 8.333E-08  1   0.0000
  29     -398.293476790 -0.000000004  0.000003   16   10 5.358E-08  1   0.0000
  30     -398.293476793 -0.000000003  0.000003   16   10 3.437E-08  1   0.0000
  31     -398.293476794 -0.000000002  0.000002   16   10 2.203E-08  1   0.0000
  32     -398.293476795 -0.000000001  0.000002   16   10 1.412E-08  1   0.0000
  33     -398.293476796 -0.000000001  0.000001   16   10 9.046E-09  1   0.0000
  34     -398.293476797 -0.000000000  0.000001   16   10 5.766E-09  1   0.0000
  35     -398.293476797 -0.000000000  0.000001   16   10 3.707E-09  1   0.0000

          --------------------
          LAGRANGIAN CONVERGED
          --------------------

 FINAL MCSCF ENERGY IS     -398.2934767969 AFTER  35 ITERATIONS

 -MCCI- BASED ON OPTIMIZED ORBITALS
 ----------------------------------

 PLEASE NOTE: IF THE ACTIVE ORBITALS ARE CANONICALIZED BELOW,
 THE FOLLOWING CI EXPANSION COEFFICIENTS AND THE DENSITY DO NOT
 CORRESPOND TO THE PRINTED ORBITALS.  THE PRINTED EXPANSIONS MATCH
 THE ORBITALS USED DURING THE LAST ITERATION.  IF YOU WISH TO SEE
 CI EXPANSIONS BASED ON THE CANONICAL (OR NATURAL) ORBITALS, YOU
 MUST RUN A CI CALCULATION WITH THAT ORBITAL CHOICE READ IN $VEC.

 Averaged energy =    -398.293476797

 State #    1  Energy =    -398.400694333  S =  0.500

      Det      Coef    Occupancy (Ignoring core)
      ---      ----    --------- --------- -----
        1    0.974622  111100111000
        5   -0.085731  011110111000
        8    0.085611  101101111000
       47   -0.063359  111010011100
      157    0.077866  110101110001
      166   -0.057914  111100101001
      173    0.067827  101101101001

 State #    2  Energy =    -398.282209304  S =  0.500

      Det      Coef    Occupancy (Ignoring core)
      ---      ----    --------- --------- -----
       16    0.969884  111100110100
       18   -0.072795  110110110100
       23    0.063982  101101110100
       31   -0.086501  111100101100
       53   -0.066237  101101011100
       62   -0.067955  111010110010
      121    0.066576  111100010110
      196   -0.080872  111100100101
      203    0.070719  101101100101

 State #    3  Energy =    -398.197526754  S =  0.500

      Det      Coef    Occupancy (Ignoring core)
      ---      ----    --------- --------- -----
        6    0.057495  111001111000
       16    0.081136  111100110100
       19    0.060893  101110110100
       31    0.967836  111100101100
       46   -0.059460  111100011100
       52   -0.085696  110101011100
       77   -0.071570  111010101010
      136    0.069048  111100001110
      202   -0.077026  110101100101

 DENSITY MATRIX OVER ACTIVE MO-S

             1           2           3           4           5

    1    1.9802434
    2   -0.0227282   1.6484655
    3    0.0028359  -0.0061408   1.6444475
    4   -0.0000000   0.0000000  -0.0000000   1.6548183
    5    0.0940537  -0.0099379   0.0377542   0.0000000   0.0333324
    6    0.0102857   0.0768786  -0.0008910  -0.0000000   0.0051619

             6

    6    0.0386929

 FORMING THE "STANDARD FOCK OPERATOR" IN DIRECT AO INTEGRAL MODE...
 ONLY THE    5 CORE AND   56 VIRTUAL ORBITALS WILL BE CANONICALIZED

          ----------------------
          MCSCF NATURAL ORBITALS
          ----------------------

                      1          2          3          4          5
                  -92.3460    -9.3468    -7.0274    -7.0266    -7.0251
                     A          A          A          A          A   
    1  S  1  S    1.000106  -0.000233   0.000180  -0.000301  -0.000000
    2  S  1  S    0.000111   0.948317   0.002076  -0.004615  -0.000000
    3  S  1  S    0.000212  -0.004178  -0.000232   0.001915  -0.000000
    4  S  1  S   -0.000683   0.069458  -0.000772   0.001802  -0.000000
    5  S  1  S   -0.000007   0.001082   0.000568  -0.000515  -0.000000
    6  S  1  X    0.000001   0.000192   0.900483   0.354550  -0.000000
    7  S  1  Y    0.000000  -0.000000  -0.000000   0.000000   0.971167
    8  S  1  Z    0.000108   0.002637  -0.354797   0.901738  -0.000000
    9  S  1  X   -0.000010   0.000259  -0.003507  -0.001240  -0.000000
   10  S  1  Y    0.000000  -0.000000  -0.000000   0.000000   0.000279
   11  S  1  Z    0.000135  -0.001411   0.000941  -0.001280  -0.000000
   12  S  1  X   -0.000002   0.000082   0.059699   0.023569  -0.000000
   13  S  1  Y    0.000000  -0.000000  -0.000000   0.000000   0.060260
   14  S  1  Z   -0.000055   0.001073  -0.022950   0.058629  -0.000000
   15  S  1  X   -0.000000   0.000008   0.001390   0.000591  -0.000000
   16  S  1  Y    0.000000  -0.000000  -0.000000   0.000000   0.001615
   17  S  1  Z   -0.000005   0.000231  -0.000388   0.001277  -0.000000
   18  S  1 XX    0.000009   0.000138  -0.000022   0.000002  -0.000000
   19  S  1 YY   -0.000011  -0.000196   0.000176  -0.000421  -0.000000
   20  S  1 ZZ    0.000002   0.000058  -0.000154   0.000419  -0.000000
   21  S  1 XY    0.000000  -0.000000  -0.000000   0.000000  -0.000021
   22  S  1 XZ    0.000002   0.000029   0.000662   0.000198  -0.000000
   23  S  1 YZ    0.000000  -0.000000  -0.000000   0.000000   0.000218
   24  S  1 XX    0.000013  -0.000202   0.000028   0.000124  -0.000000
   25  S  1 YY   -0.000034   0.000433  -0.000373   0.000660  -0.000000
   26  S  1 ZZ    0.000022  -0.000231   0.000345  -0.000785  -0.000000
   27  S  1 XY    0.000000  -0.000000  -0.000000   0.000000   0.000009
   28  S  1 XZ   -0.000004   0.000073  -0.002090  -0.000737  -0.000000
   29  S  1 YZ    0.000000  -0.000000  -0.000000   0.000000  -0.000150
   30  S  1 XXX  -0.000000   0.000001   0.000110   0.000055  -0.000000
   31  S  1 YYY   0.000000  -0.000000  -0.000000   0.000000  -0.000169
   32  S  1 ZZZ  -0.000002  -0.000053   0.000058  -0.000089  -0.000000
   33  S  1 XXY   0.000000  -0.000000  -0.000000   0.000000   0.000148
   34  S  1 XXZ   0.000016   0.000047  -0.000119   0.000176  -0.000000
   35  S  1 YYX  -0.000001   0.000006   0.000082   0.000063  -0.000000
   36  S  1 YYZ  -0.000014   0.000024   0.000042  -0.000056  -0.000000
   37  S  1 ZZX   0.000001  -0.000007  -0.000230  -0.000137  -0.000000
   38  S  1 ZZY   0.000000  -0.000000  -0.000000   0.000000   0.000079
   39  S  1 XYZ   0.000000  -0.000000  -0.000000   0.000000  -0.000029
   40  S  1 XX   -0.000001   0.000416   0.000235  -0.000434  -0.000000
   41  S  1 YY    0.000002  -0.000522   0.000051  -0.000238  -0.000000
   42  S  1 ZZ   -0.000000   0.000106  -0.000286   0.000672  -0.000000
   43  S  1 XY    0.000000  -0.000000  -0.000000   0.000000   0.000054
   44  S  1 XZ   -0.000001   0.000083   0.000297   0.000187  -0.000000
   45  S  1 YZ    0.000000  -0.000000  -0.000000   0.000000   0.000632
   46  H  2  S    0.000014  -0.000320  -0.000634   0.000585  -0.000000
   47  H  2  S   -0.000069   0.000245  -0.004578   0.001217  -0.000000
   48  H  2  S    0.000014  -0.000444   0.000344   0.000187  -0.000000
   49  H  2  X    0.000002  -0.000037   0.000102  -0.000016  -0.000000
   50  H  2  Y    0.000000  -0.000000  -0.000000   0.000000   0.000014
   51  H  2  Z   -0.000002   0.000046  -0.000098   0.000024  -0.000000
   52  H  2  X   -0.000034   0.000269  -0.001275   0.000675  -0.000000
   53  H  2  Y    0.000000  -0.000000  -0.000000   0.000000   0.000143
   54  H  2  Z    0.000025  -0.000175   0.001362   0.000101  -0.000000
   55  H  2 XX    0.000000   0.000020  -0.000001   0.000032  -0.000000
   56  H  2 YY   -0.000002   0.000010  -0.000043  -0.000030  -0.000000
   57  H  2 ZZ    0.000002  -0.000030   0.000044  -0.000002  -0.000000
   58  H  2 XY    0.000000  -0.000000  -0.000000   0.000000  -0.000049
   59  H  2 XZ   -0.000006   0.000024   0.000002   0.000005  -0.000000
   60  H  2 YZ    0.000000  -0.000000  -0.000000   0.000000   0.000054
   61  H  3  S    0.000013  -0.000171   0.000066   0.000672  -0.000000
   62  H  3  S   -0.000057   0.000092   0.001891   0.002880  -0.000000
   63  H  3  S    0.000011  -0.000340  -0.000417  -0.000132  -0.000000
   64  H  3  X    0.000002   0.000012   0.000051   0.000056  -0.000000
   65  H  3  Y    0.000000  -0.000000  -0.000000   0.000000   0.000037
   66  H  3  Z    0.000002   0.000017   0.000018   0.000070  -0.000000
   67  H  3  X    0.000032  -0.000170  -0.000427  -0.001102  -0.000000
   68  H  3  Y    0.000000  -0.000000  -0.000000   0.000000   0.000113
   69  H  3  Z    0.000024  -0.000099  -0.000912  -0.000690  -0.000000
   70  H  3 XX   -0.000003   0.000006  -0.000102  -0.000023  -0.000000
   71  H  3 YY    0.000002   0.000041   0.000079   0.000134  -0.000000
   72  H  3 ZZ    0.000001  -0.000047   0.000023  -0.000111  -0.000000
   73  H  3 XY    0.000000  -0.000000  -0.000000   0.000000   0.000013
   74  H  3 XZ   -0.000001  -0.000079  -0.000062  -0.000209  -0.000000
   75  H  3 YZ    0.000000  -0.000000  -0.000000   0.000000   0.000019

                      6          7          8          9         10
                    1.9865     1.6548     1.6546     1.6413     0.0376
                     A          A          A          A          A   
    1  S  1  S    0.001142  -0.000000   0.001629  -0.001614  -0.001624
    2  S  1  S    0.009300  -0.000000   0.015377  -0.017903  -0.018285
    3  S  1  S    0.577107  -0.000000   0.193327  -0.227202  -0.134118
    4  S  1  S    0.072771  -0.000000   0.027971  -0.036623  -0.019911
    5  S  1  S    0.240199  -0.000000   0.152970  -0.176962  -0.158187
    6  S  1  X    0.006889  -0.000000  -0.018194  -0.009987  -0.080964
    7  S  1  Y    0.000000   0.009137  -0.000000  -0.000000   0.000000
    8  S  1  Z   -0.023066  -0.000000   0.007965  -0.007443  -0.027029
    9  S  1  X   -0.019261  -0.000000   0.357096   0.223825  -0.632780
   10  S  1  Y    0.000000   0.621746  -0.000000  -0.000000   0.000000
   11  S  1  Z    0.072695  -0.000000  -0.260753   0.404650  -0.256248
   12  S  1  X   -0.013313  -0.000000   0.149118   0.091628  -0.214955
   13  S  1  Y    0.000000   0.239120  -0.000000  -0.000000   0.000000
   14  S  1  Z    0.038523  -0.000000  -0.108086   0.161350  -0.096069
   15  S  1  X   -0.003002  -0.000000   0.089899   0.061005  -0.149026
   16  S  1  Y    0.000000   0.287847  -0.000000  -0.000000   0.000000
   17  S  1  Z    0.015804  -0.000000  -0.080805   0.136361  -0.087539
   18  S  1 XX    0.009136  -0.000000  -0.005485   0.006263   0.022697
   19  S  1 YY   -0.015565  -0.000000   0.014967  -0.018938  -0.079554
   20  S  1 ZZ    0.006429  -0.000000  -0.009482   0.012675   0.056857
   21  S  1 XY    0.000000  -0.000925  -0.000000  -0.000000   0.000000
   22  S  1 XZ   -0.007373  -0.000000   0.053532   0.029833   0.145680
   23  S  1 YZ    0.000000   0.011812  -0.000000  -0.000000   0.000000
   24  S  1 XX    0.002583  -0.000000  -0.001746   0.003540   0.024254
   25  S  1 YY   -0.005693  -0.000000   0.014565  -0.021009  -0.083693
   26  S  1 ZZ    0.003110  -0.000000  -0.012819   0.017469   0.059438
   27  S  1 XY    0.000000   0.000497  -0.000000  -0.000000   0.000000
   28  S  1 XZ   -0.002829  -0.000000   0.046779   0.026462   0.083565
   29  S  1 YZ    0.000000   0.025877  -0.000000  -0.000000   0.000000
   30  S  1 XXX   0.000126  -0.000000  -0.000157  -0.000356  -0.001602
   31  S  1 YYY   0.000000  -0.007032  -0.000000  -0.000000   0.000000
   32  S  1 ZZZ  -0.001934  -0.000000  -0.000454   0.000377   0.002007
   33  S  1 XXY   0.000000   0.006240  -0.000000  -0.000000   0.000000
   34  S  1 XXZ   0.007695  -0.000000  -0.006655   0.009341   0.011589
   35  S  1 YYX   0.001008  -0.000000  -0.011676  -0.006326  -0.017744
   36  S  1 YYZ  -0.005100  -0.000000   0.007265  -0.009848  -0.014281
   37  S  1 ZZX  -0.001178  -0.000000   0.011887   0.006804   0.019893
   38  S  1 ZZY   0.000000   0.003195  -0.000000  -0.000000   0.000000
   39  S  1 XYZ   0.000000   0.000568  -0.000000  -0.000000   0.000000
   40  S  1 XX    0.001569  -0.000000  -0.001273   0.001317   0.003368
   41  S  1 YY   -0.002799  -0.000000   0.003300  -0.003997  -0.009686
   42  S  1 ZZ    0.001230  -0.000000  -0.002027   0.002680   0.006317
   43  S  1 XY    0.000000  -0.000191  -0.000000  -0.000000   0.000000
   44  S  1 XZ   -0.001790  -0.000000   0.010704   0.005761   0.016489
   45  S  1 YZ    0.000000   0.002589  -0.000000  -0.000000   0.000000
   46  H  2  S    0.102221  -0.000000  -0.166535   0.005581  -0.100924
   47  H  2  S    0.135084  -0.000000  -0.260096   0.018947  -0.182493
   48  H  2  S    0.000839  -0.000000  -0.050234   0.007139   0.008964
   49  H  2  X    0.009792  -0.000000  -0.009844   0.002915  -0.011088
   50  H  2  Y    0.000000   0.006526  -0.000000  -0.000000   0.000000
   51  H  2  Z   -0.008682  -0.000000   0.010366   0.003613   0.004179
   52  H  2  X    0.017532  -0.000000  -0.013370   0.009204  -0.037058
   53  H  2  Y    0.000000   0.024169  -0.000000  -0.000000   0.000000
   54  H  2  Z   -0.014797  -0.000000   0.011798   0.013368   0.024687
   55  H  2 XX    0.001613  -0.000000  -0.001027   0.002639  -0.004083
   56  H  2 YY   -0.002383  -0.000000   0.002558  -0.000291   0.003808
   57  H  2 ZZ    0.000770  -0.000000  -0.001531  -0.002348   0.000275
   58  H  2 XY    0.000000   0.002417  -0.000000  -0.000000   0.000000
   59  H  2 XZ   -0.003853  -0.000000   0.003240   0.000259   0.003169
   60  H  2 YZ    0.000000  -0.002330  -0.000000  -0.000000   0.000000
   61  H  3  S    0.067857  -0.000000   0.067393   0.151551   0.286829
   62  H  3  S    0.098273  -0.000000   0.108240   0.278149   0.633494
   63  H  3  S    0.000432  -0.000000   0.016831   0.060146   0.046154
   64  H  3  X   -0.006526  -0.000000  -0.002701  -0.008714  -0.024827
   65  H  3  Y    0.000000   0.004479  -0.000000  -0.000000   0.000000
   66  H  3  Z   -0.005428  -0.000000  -0.006686  -0.006994  -0.019028
   67  H  3  X   -0.015131  -0.000000  -0.002758  -0.024941  -0.104210
   68  H  3  Y    0.000000   0.022141  -0.000000  -0.000000   0.000000
   69  H  3  Z   -0.011952  -0.000000  -0.018302  -0.013537  -0.075204
   70  H  3 XX    0.001355  -0.000000  -0.001228   0.002190   0.009659
   71  H  3 YY   -0.001746  -0.000000  -0.001157  -0.002644  -0.011089
   72  H  3 ZZ    0.000391  -0.000000   0.002386   0.000454   0.001430
   73  H  3 XY    0.000000  -0.002126  -0.000000  -0.000000   0.000000
   74  H  3 XZ    0.002905  -0.000000   0.002122   0.003307   0.015343
   75  H  3 YZ    0.000000  -0.001967  -0.000000  -0.000000   0.000000

                     11
                    0.0252
                     A   
    1  S  1  S   -0.009520
    2  S  1  S   -0.077359
    3  S  1  S   -0.306342
    4  S  1  S   -0.033506
    5  S  1  S   -0.349281
    6  S  1  X    0.050189
    7  S  1  Y    0.000000
    8  S  1  Z   -0.075549
    9  S  1  X    0.310067
   10  S  1  Y    0.000000
   11  S  1  Z   -0.506899
   12  S  1  X    0.098612
   13  S  1  Y    0.000000
   14  S  1  Z   -0.172658
   15  S  1  X    0.061909
   16  S  1  Y    0.000000
   17  S  1  Z   -0.168364
   18  S  1 XX    0.087798
   19  S  1 YY   -0.252582
   20  S  1 ZZ    0.164784
   21  S  1 XY    0.000000
   22  S  1 XZ   -0.109733
   23  S  1 YZ    0.000000
   24  S  1 XX    0.089871
   25  S  1 YY   -0.249889
   26  S  1 ZZ    0.160018
   27  S  1 XY    0.000000
   28  S  1 XZ   -0.067620
   29  S  1 YZ    0.000000
   30  S  1 XXX  -0.000175
   31  S  1 YYY   0.000000
   32  S  1 ZZZ   0.001221
   33  S  1 XXY   0.000000
   34  S  1 XXZ   0.033761
   35  S  1 YYX   0.010542
   36  S  1 YYZ  -0.035399
   37  S  1 ZZX  -0.010307
   38  S  1 ZZY   0.000000
   39  S  1 XYZ   0.000000
   40  S  1 XX    0.010258
   41  S  1 YY   -0.027298
   42  S  1 ZZ    0.017040
   43  S  1 XY    0.000000
   44  S  1 XZ   -0.011582
   45  S  1 YZ    0.000000
   46  H  2  S    0.299021
   47  H  2  S    0.579583
   48  H  2  S    0.051883
   49  H  2  X    0.027205
   50  H  2  Y    0.000000
   51  H  2  Z   -0.020857
   52  H  2  X    0.092845
   53  H  2  Y    0.000000
   54  H  2  Z   -0.060612
   55  H  2 XX    0.008926
   56  H  2 YY   -0.007948
   57  H  2 ZZ   -0.000978
   58  H  2 XY    0.000000
   59  H  2 XZ   -0.010740
   60  H  2 YZ    0.000000
   61  H  3  S    0.089139
   62  H  3  S    0.220329
   63  H  3  S    0.048992
   64  H  3  X   -0.005606
   65  H  3  Y    0.000000
   66  H  3  Z   -0.006503
   67  H  3  X   -0.029087
   68  H  3  Y    0.000000
   69  H  3  Z   -0.018295
   70  H  3 XX    0.003021
   71  H  3 YY   -0.001989
   72  H  3 ZZ   -0.001032
   73  H  3 XY    0.000000
   74  H  3 XZ    0.004072
   75  H  3 YZ    0.000000

          ------------------------
          MCSCF OPTIMIZED ORBITALS
          ------------------------

                      1          2          3          4          5
                  -92.3460    -9.3468    -7.0274    -7.0266    -7.0251
                     A          A          A          A          A   
    1  S  1  S    1.000106  -0.000233   0.000180  -0.000301  -0.000000
    2  S  1  S    0.000111   0.948317   0.002076  -0.004615  -0.000000
    3  S  1  S    0.000212  -0.004178  -0.000232   0.001915  -0.000000
    4  S  1  S   -0.000683   0.069458  -0.000772   0.001802  -0.000000
    5  S  1  S   -0.000007   0.001082   0.000568  -0.000515  -0.000000
    6  S  1  X    0.000001   0.000192   0.900483   0.354550  -0.000000
    7  S  1  Y    0.000000  -0.000000  -0.000000   0.000000   0.971167
    8  S  1  Z    0.000108   0.002637  -0.354797   0.901738  -0.000000
    9  S  1  X   -0.000010   0.000259  -0.003507  -0.001240  -0.000000
   10  S  1  Y    0.000000  -0.000000  -0.000000   0.000000   0.000279
   11  S  1  Z    0.000135  -0.001411   0.000941  -0.001280  -0.000000
   12  S  1  X   -0.000002   0.000082   0.059699   0.023569  -0.000000
   13  S  1  Y    0.000000  -0.000000  -0.000000   0.000000   0.060260
   14  S  1  Z   -0.000055   0.001073  -0.022950   0.058629  -0.000000
   15  S  1  X   -0.000000   0.000008   0.001390   0.000591  -0.000000
   16  S  1  Y    0.000000  -0.000000  -0.000000   0.000000   0.001615
   17  S  1  Z   -0.000005   0.000231  -0.000388   0.001277  -0.000000
   18  S  1 XX    0.000009   0.000138  -0.000022   0.000002  -0.000000
   19  S  1 YY   -0.000011  -0.000196   0.000176  -0.000421  -0.000000
   20  S  1 ZZ    0.000002   0.000058  -0.000154   0.000419  -0.000000
   21  S  1 XY    0.000000  -0.000000  -0.000000   0.000000  -0.000021
   22  S  1 XZ    0.000002   0.000029   0.000662   0.000198  -0.000000
   23  S  1 YZ    0.000000  -0.000000  -0.000000   0.000000   0.000218
   24  S  1 XX    0.000013  -0.000202   0.000028   0.000124  -0.000000
   25  S  1 YY   -0.000034   0.000433  -0.000373   0.000660  -0.000000
   26  S  1 ZZ    0.000022  -0.000231   0.000345  -0.000785  -0.000000
   27  S  1 XY    0.000000  -0.000000  -0.000000   0.000000   0.000009
   28  S  1 XZ   -0.000004   0.000073  -0.002090  -0.000737  -0.000000
   29  S  1 YZ    0.000000  -0.000000  -0.000000   0.000000  -0.000150
   30  S  1 XXX  -0.000000   0.000001   0.000110   0.000055  -0.000000
   31  S  1 YYY   0.000000  -0.000000  -0.000000   0.000000  -0.000169
   32  S  1 ZZZ  -0.000002  -0.000053   0.000058  -0.000089  -0.000000
   33  S  1 XXY   0.000000  -0.000000  -0.000000   0.000000   0.000148
   34  S  1 XXZ   0.000016   0.000047  -0.000119   0.000176  -0.000000
   35  S  1 YYX  -0.000001   0.000006   0.000082   0.000063  -0.000000
   36  S  1 YYZ  -0.000014   0.000024   0.000042  -0.000056  -0.000000
   37  S  1 ZZX   0.000001  -0.000007  -0.000230  -0.000137  -0.000000
   38  S  1 ZZY   0.000000  -0.000000  -0.000000   0.000000   0.000079
   39  S  1 XYZ   0.000000  -0.000000  -0.000000   0.000000  -0.000029
   40  S  1 XX   -0.000001   0.000416   0.000235  -0.000434  -0.000000
   41  S  1 YY    0.000002  -0.000522   0.000051  -0.000238  -0.000000
   42  S  1 ZZ   -0.000000   0.000106  -0.000286   0.000672  -0.000000
   43  S  1 XY    0.000000  -0.000000  -0.000000   0.000000   0.000054
   44  S  1 XZ   -0.000001   0.000083   0.000297   0.000187  -0.000000
   45  S  1 YZ    0.000000  -0.000000  -0.000000   0.000000   0.000632
   46  H  2  S    0.000014  -0.000320  -0.000634   0.000585  -0.000000
   47  H  2  S   -0.000069   0.000245  -0.004578   0.001217  -0.000000
   48  H  2  S    0.000014  -0.000444   0.000344   0.000187  -0.000000
   49  H  2  X    0.000002  -0.000037   0.000102  -0.000016  -0.000000
   50  H  2  Y    0.000000  -0.000000  -0.000000   0.000000   0.000014
   51  H  2  Z   -0.000002   0.000046  -0.000098   0.000024  -0.000000
   52  H  2  X   -0.000034   0.000269  -0.001275   0.000675  -0.000000
   53  H  2  Y    0.000000  -0.000000  -0.000000   0.000000   0.000143
   54  H  2  Z    0.000025  -0.000175   0.001362   0.000101  -0.000000
   55  H  2 XX    0.000000   0.000020  -0.000001   0.000032  -0.000000
   56  H  2 YY   -0.000002   0.000010  -0.000043  -0.000030  -0.000000
   57  H  2 ZZ    0.000002  -0.000030   0.000044  -0.000002  -0.000000
   58  H  2 XY    0.000000  -0.000000  -0.000000   0.000000  -0.000049
   59  H  2 XZ   -0.000006   0.000024   0.000002   0.000005  -0.000000
   60  H  2 YZ    0.000000  -0.000000  -0.000000   0.000000   0.000054
   61  H  3  S    0.000013  -0.000171   0.000066   0.000672  -0.000000
   62  H  3  S   -0.000057   0.000092   0.001891   0.002880  -0.000000
   63  H  3  S    0.000011  -0.000340  -0.000417  -0.000132  -0.000000
   64  H  3  X    0.000002   0.000012   0.000051   0.000056  -0.000000
   65  H  3  Y    0.000000  -0.000000  -0.000000   0.000000   0.000037
   66  H  3  Z    0.000002   0.000017   0.000018   0.000070  -0.000000
   67  H  3  X    0.000032  -0.000170  -0.000427  -0.001102  -0.000000
   68  H  3  Y    0.000000  -0.000000  -0.000000   0.000000   0.000113
   69  H  3  Z    0.000024  -0.000099  -0.000912  -0.000690  -0.000000
   70  H  3 XX   -0.000003   0.000006  -0.000102  -0.000023  -0.000000
   71  H  3 YY    0.000002   0.000041   0.000079   0.000134  -0.000000
   72  H  3 ZZ    0.000001  -0.000047   0.000023  -0.000111  -0.000000
   73  H  3 XY    0.000000  -0.000000  -0.000000   0.000000   0.000013
   74  H  3 XZ   -0.000001  -0.000079  -0.000062  -0.000209  -0.000000
   75  H  3 YZ    0.000000  -0.000000  -0.000000   0.000000   0.000019

                      6          7          8          9         10
                    0.0000     0.0000     0.0000     0.0000     0.0000
                     A          A          A          A          A   
    1  S  1  S    0.000783   0.000595  -0.002437   0.000000   0.009181
    2  S  1  S    0.006270   0.003821  -0.025035   0.000000   0.076845
    3  S  1  S    0.566461   0.001586  -0.294898   0.000000   0.354486
    4  S  1  S    0.071597  -0.001387  -0.045752   0.000000   0.041360
    5  S  1  S    0.226937   0.018298  -0.236953   0.000000   0.388691
    6  S  1  X    0.005201  -0.025658   0.001818   0.000000  -0.006586
    7  S  1  Y    0.000000   0.000000   0.000000   0.009137   0.000000
    8  S  1  Z   -0.026387   0.005120  -0.012766   0.000000   0.078000
    9  S  1  X    0.004524   0.387755  -0.007079   0.000000   0.016172
   10  S  1  Y    0.000000   0.000000   0.000000   0.621746   0.000000
   11  S  1  Z    0.037643   0.000413   0.469093   0.000000   0.581469
   12  S  1  X   -0.003278   0.164067  -0.004700   0.000000   0.011003
   13  S  1  Y    0.000000   0.000000   0.000000   0.239120   0.000000
   14  S  1  Z    0.025583  -0.004463   0.190101   0.000000   0.203474
   15  S  1  X    0.002729   0.100862   0.001923   0.000000   0.013789
   16  S  1  Y    0.000000   0.000000   0.000000   0.287847   0.000000
   17  S  1  Z    0.004554   0.006520   0.154143   0.000000   0.193803
   18  S  1 XX    0.013011  -0.003240   0.010429   0.000000  -0.087572
   19  S  1 YY   -0.027218   0.006844  -0.030323   0.000000   0.259039
   20  S  1 ZZ    0.014207  -0.003604   0.019894   0.000000  -0.171467
   21  S  1 XY    0.000000   0.000000   0.000000  -0.000925   0.000000
   22  S  1 XZ   -0.003479   0.070161  -0.004965   0.000000   0.029214
   23  S  1 YZ    0.000000   0.000000   0.000000   0.011812   0.000000
   24  S  1 XX    0.006788  -0.001143   0.006073   0.000000  -0.090546
   25  S  1 YY   -0.017463   0.004474  -0.031681   0.000000   0.259018
   26  S  1 ZZ    0.010675  -0.003331   0.025608   0.000000  -0.168472
   27  S  1 XY    0.000000   0.000000   0.000000   0.000497   0.000000
   28  S  1 XZ    0.000492   0.058781  -0.003829   0.000000   0.020908
   29  S  1 YZ    0.000000   0.000000   0.000000   0.025877   0.000000
   30  S  1 XXX   0.000056  -0.000393  -0.000232   0.000000   0.000897
   31  S  1 YYY   0.000000   0.000000   0.000000  -0.007032   0.000000
   32  S  1 ZZZ  -0.001844   0.000005   0.000581   0.000000  -0.002089
   33  S  1 XXY   0.000000   0.000000   0.000000   0.006240   0.000000
   34  S  1 XXZ   0.009114  -0.001447   0.012390   0.000000  -0.034607
   35  S  1 YYX   0.000018  -0.014248   0.001095   0.000000  -0.001030
   36  S  1 YYZ  -0.006640   0.001441  -0.013170   0.000000   0.037410
   37  S  1 ZZX  -0.000094   0.014775  -0.000784   0.000000  -0.000174
   38  S  1 ZZY   0.000000   0.000000   0.000000   0.003195   0.000000
   39  S  1 XYZ   0.000000   0.000000   0.000000   0.000568   0.000000
   40  S  1 XX    0.002012  -0.000594   0.002068   0.000000  -0.010519
   41  S  1 YY   -0.004020   0.001118  -0.005856   0.000000   0.028386
   42  S  1 ZZ    0.002008  -0.000524   0.003788   0.000000  -0.017867
   43  S  1 XY    0.000000   0.000000   0.000000  -0.000191   0.000000
   44  S  1 XZ   -0.000951   0.013160  -0.001086   0.000000   0.002496
   45  S  1 YZ    0.000000   0.000000   0.000000   0.002589   0.000000
   46  H  2  S    0.100158  -0.155044   0.101944   0.000000  -0.210639
   47  H  2  S    0.135992  -0.238912   0.169503   0.000000  -0.418131
   48  H  2  S    0.000014  -0.039169   0.034499   0.000000  -0.049203
   49  H  2  X    0.009956  -0.008474   0.008393   0.000000  -0.018289
   50  H  2  Y    0.000000   0.000000   0.000000   0.006526   0.000000
   51  H  2  Z   -0.008599   0.011937  -0.003127   0.000000   0.016028
   52  H  2  X    0.019483  -0.011315   0.016788   0.000000  -0.063846
   53  H  2  Y    0.000000   0.000000   0.000000   0.024169   0.000000
   54  H  2  Z   -0.015384   0.020727   0.003574   0.000000   0.041592
   55  H  2 XX    0.001845   0.000066   0.002938   0.000000  -0.005873
   56  H  2 YY   -0.002424   0.002504  -0.001796   0.000000   0.005118
   57  H  2 ZZ    0.000579  -0.002570  -0.001142   0.000000   0.000755
   58  H  2 XY    0.000000   0.000000   0.000000   0.002417   0.000000
   59  H  2 XZ   -0.003960   0.003522  -0.001792   0.000000   0.007813
   60  H  2 YZ    0.000000   0.000000   0.000000  -0.002330   0.000000
   61  H  3  S    0.087076   0.143069   0.096280   0.000000  -0.206428
   62  H  3  S    0.137831   0.254214   0.187021   0.000000  -0.479632
   63  H  3  S    0.006183   0.047243   0.042785   0.000000  -0.063841
   64  H  3  X   -0.007793  -0.007386  -0.006310   0.000000   0.016004
   65  H  3  Y    0.000000   0.000000   0.000000   0.004479   0.000000
   66  H  3  Z   -0.006796  -0.009601  -0.002642   0.000000   0.014256
   67  H  3  X   -0.019875  -0.018201  -0.021334   0.000000   0.072777
   68  H  3  Y    0.000000   0.000000   0.000000   0.022141   0.000000
   69  H  3  Z   -0.016231  -0.024338  -0.002739   0.000000   0.050389
   70  H  3 XX    0.001707   0.000376   0.002689   0.000000  -0.007017
   71  H  3 YY   -0.002262  -0.002673  -0.001771   0.000000   0.006771
   72  H  3 ZZ    0.000556   0.002297  -0.000918   0.000000   0.000246
   73  H  3 XY    0.000000   0.000000   0.000000  -0.002126   0.000000
   74  H  3 XZ    0.003697   0.003874   0.001907   0.000000  -0.010526
   75  H  3 YZ    0.000000   0.000000   0.000000  -0.001967   0.000000

                     11         12         13         14         15
                    0.0000    -0.0471     0.0380     0.1280     0.1538
                     A          A          A          A          A   
    1  S  1  S   -0.002937  -0.001681   0.000522   0.002156   0.016582
    2  S  1  S   -0.019400  -0.019072   0.004777   0.018035   0.113498
    3  S  1  S   -0.019413  -0.205176   0.008610   0.094241   0.273924
    4  S  1  S    0.002515  -0.004163   0.006802   0.007568  -0.016309
    5  S  1  S   -0.019202  -1.480096   0.026152   0.177429   0.577432
    6  S  1  X    0.093916   0.017774  -0.098128  -0.002868  -0.000348
    7  S  1  Y    0.000000  -0.000000  -0.000000  -0.000000   0.000000
    8  S  1  Z   -0.010938  -0.042360   0.002305  -0.126798  -0.228407
    9  S  1  X    0.723776   0.061841  -0.400365   0.000385   0.001589
   10  S  1  Y    0.000000  -0.000000  -0.000000  -0.000000   0.000000
   11  S  1  Z   -0.007435  -0.181439   0.005905  -0.396645  -0.788320
   12  S  1  X    0.244269   0.011261  -0.053849   0.004086  -0.001974
   13  S  1  Y    0.000000  -0.000000  -0.000000  -0.000000   0.000000
   14  S  1  Z    0.005112  -0.027551   0.004103  -0.016078  -0.055630
   15  S  1  X    0.165769   0.141942  -0.291042  -0.122945   0.003273
   16  S  1  Y    0.000000  -0.000000  -0.000000  -0.000000   0.000000
   17  S  1  Z   -0.000057  -0.720126  -0.031762   0.614433   1.723792
   18  S  1 XX    0.020470  -0.023660  -0.000292  -0.126995   0.059142
   19  S  1 YY   -0.046294   0.057137   0.007679   0.009980   0.019305
   20  S  1 ZZ    0.025824  -0.033477  -0.007387   0.117015  -0.078447
   21  S  1 XY    0.000000  -0.000000  -0.000000  -0.000000   0.000000
   22  S  1 XZ   -0.176808   0.003352  -0.068784   0.000403  -0.005886
   23  S  1 YZ    0.000000  -0.000000  -0.000000  -0.000000   0.000000
   24  S  1 XX    0.020113  -0.110180  -0.013342  -0.484421   0.217675
   25  S  1 YY   -0.041427   0.284087   0.047346  -0.040184  -0.131512
   26  S  1 ZZ    0.021314  -0.173908  -0.034004   0.524605  -0.086163
   27  S  1 XY    0.000000  -0.000000  -0.000000  -0.000000   0.000000
   28  S  1 XZ   -0.102688   0.023266  -0.181835  -0.030256  -0.018477
   29  S  1 YZ    0.000000  -0.000000  -0.000000  -0.000000   0.000000
   30  S  1 XXX   0.001322  -0.000369   0.002020   0.000240   0.002203
   31  S  1 YYY   0.000000  -0.000000  -0.000000  -0.000000   0.000000
   32  S  1 ZZZ  -0.001226   0.001474   0.000475   0.005244   0.003347
   33  S  1 XXY   0.000000  -0.000000  -0.000000  -0.000000   0.000000
   34  S  1 XXZ   0.005344  -0.025866  -0.003407  -0.004263   0.017841
   35  S  1 YYX   0.019952  -0.001571   0.004780   0.002488  -0.002754
   36  S  1 YYZ  -0.003700   0.023889   0.002769  -0.002772  -0.022331
   37  S  1 ZZX  -0.021725   0.002067  -0.007490  -0.002810  -0.000202
   38  S  1 ZZY   0.000000  -0.000000  -0.000000  -0.000000   0.000000
   39  S  1 XYZ   0.000000  -0.000000  -0.000000  -0.000000   0.000000
   40  S  1 XX    0.001748  -0.006397  -0.000451  -0.042574   0.017656
   41  S  1 YY   -0.004026   0.016948   0.003057   0.000116   0.000858
   42  S  1 ZZ    0.002277  -0.010551  -0.002606   0.042457  -0.018514
   43  S  1 XY    0.000000  -0.000000  -0.000000  -0.000000   0.000000
   44  S  1 XZ   -0.019378  -0.000155  -0.015793  -0.000380  -0.001476
   45  S  1 YZ    0.000000  -0.000000  -0.000000  -0.000000   0.000000
   46  H  2  S    0.221319  -0.014329   0.016224  -0.018396   0.018629
   47  H  2  S    0.419927  -0.069385   0.323953  -0.176348  -0.307377
   48  H  2  S    0.014212   1.642161  -1.579554  -0.194081  -0.405415
   49  H  2  X    0.022101  -0.016972   0.016510  -0.005072   0.010198
   50  H  2  Y    0.000000  -0.000000  -0.000000  -0.000000   0.000000
   51  H  2  Z   -0.012856   0.014051  -0.012345  -0.003565   0.007142
   52  H  2  X    0.075488   0.108996  -0.058789   0.126683  -0.183170
   53  H  2  Y    0.000000  -0.000000  -0.000000  -0.000000   0.000000
   54  H  2  Z   -0.049103  -0.088154   0.043748   0.133873  -0.053277
   55  H  2 XX    0.007774   0.002479  -0.002419  -0.001151  -0.005319
   56  H  2 YY   -0.006958  -0.003647   0.003601  -0.001590   0.003204
   57  H  2 ZZ   -0.000816   0.001168  -0.001183   0.002740   0.002115
   58  H  2 XY    0.000000  -0.000000  -0.000000  -0.000000   0.000000
   59  H  2 XZ   -0.007645  -0.006050   0.004105  -0.000358  -0.003428
   60  H  2 YZ    0.000000  -0.000000  -0.000000  -0.000000   0.000000
   61  H  3  S   -0.205907  -0.014979  -0.014160  -0.019658   0.020566
   62  H  3  S   -0.447162  -0.175405  -0.448085  -0.165256  -0.273497
   63  H  3  S   -0.015974   1.138280   1.715274   0.049358  -0.407507
   64  H  3  X    0.019036   0.013793   0.016558   0.007274  -0.012804
   65  H  3  Y    0.000000  -0.000000  -0.000000  -0.000000   0.000000
   66  H  3  Z    0.013374   0.011264   0.013387  -0.005723   0.004060
   67  H  3  X    0.078016  -0.073208  -0.039143  -0.148504   0.193406
   68  H  3  Y    0.000000  -0.000000  -0.000000  -0.000000   0.000000
   69  H  3  Z    0.057001  -0.054244  -0.045563   0.141331  -0.021095
   70  H  3 XX   -0.007144   0.001987   0.002777  -0.001218  -0.005796
   71  H  3 YY    0.008778  -0.002470  -0.004173  -0.002473   0.001957
   72  H  3 ZZ   -0.001634   0.000483   0.001396   0.003690   0.003839
   73  H  3 XY    0.000000  -0.000000  -0.000000  -0.000000   0.000000
   74  H  3 XZ   -0.011522   0.004927   0.005878   0.002785   0.003071
   75  H  3 YZ    0.000000  -0.000000  -0.000000  -0.000000   0.000000

                     16         17         18         19         20
                    0.1690     0.1767     0.1850     0.2021     0.3493
                     A          A          A          A          A   
    1  S  1  S    0.000000   0.000000   0.000000  -0.011223  -0.092601
    2  S  1  S    0.000000   0.000000   0.000000  -0.075802  -0.649343
    3  S  1  S    0.000000   0.000000   0.000000  -0.125786  -1.293771
    4  S  1  S    0.000000   0.000000   0.000000  -0.006097  -0.312950
    5  S  1  S    0.000000   0.000000   0.000000  -0.161146   4.846479
    6  S  1  X    0.000000   0.000000   0.000000  -0.104535  -0.198636
    7  S  1  Y   -0.320556   0.136597  -0.008168  -0.000000   0.000000
    8  S  1  Z    0.000000   0.000000   0.000000  -0.044152   0.393503
    9  S  1  X    0.000000   0.000000   0.000000  -0.494327  -0.414156
   10  S  1  Y   -1.041880   0.433348  -0.063379  -0.000000   0.000000
   11  S  1  Z    0.000000   0.000000   0.000000  -0.114779   0.703545
   12  S  1  X    0.000000   0.000000   0.000000  -0.094890   0.036913
   13  S  1  Y   -0.049336   0.016890  -0.019409  -0.000000   0.000000
   14  S  1  Z    0.000000   0.000000   0.000000  -0.008920  -0.184359
   15  S  1  X    0.000000   0.000000   0.000000   2.754989  -0.445435
   16  S  1  Y    1.292533  -0.546681  -0.118070  -0.000000   0.000000
   17  S  1  Z    0.000000   0.000000   0.000000  -0.005209   1.427448
   18  S  1 XX    0.000000   0.000000   0.000000  -0.015526  -0.016874
   19  S  1 YY    0.000000   0.000000   0.000000   0.018228   0.035095
   20  S  1 ZZ    0.000000   0.000000   0.000000  -0.002703  -0.018221
   21  S  1 XY    0.059892   0.146764  -0.018475  -0.000000   0.000000
   22  S  1 XZ    0.000000   0.000000   0.000000   0.004867  -0.072353
   23  S  1 YZ   -0.006715   0.018000   0.160202  -0.000000   0.000000
   24  S  1 XX    0.000000   0.000000   0.000000  -0.073740  -0.010041
   25  S  1 YY    0.000000   0.000000   0.000000   0.063053  -0.129669
   26  S  1 ZZ    0.000000   0.000000   0.000000   0.010687   0.139709
   27  S  1 XY    0.264416   0.682737  -0.075632  -0.000000   0.000000
   28  S  1 XZ    0.000000   0.000000   0.000000   0.661971  -0.475096
   29  S  1 YZ    0.072628   0.052693   0.748116  -0.000000   0.000000
   30  S  1 XXX   0.000000   0.000000   0.000000  -0.015848   0.015275
   31  S  1 YYY  -0.001867   0.000461  -0.004169  -0.000000   0.000000
   32  S  1 ZZZ   0.000000   0.000000   0.000000   0.001252  -0.041667
   33  S  1 XXY   0.000029  -0.001124  -0.006723  -0.000000   0.000000
   34  S  1 XXZ   0.000000   0.000000   0.000000  -0.001756   0.172602
   35  S  1 YYX   0.000000   0.000000   0.000000  -0.072130   0.039209
   36  S  1 YYZ   0.000000   0.000000   0.000000   0.000077  -0.116700
   37  S  1 ZZX   0.000000   0.000000   0.000000   0.093392  -0.059703
   38  S  1 ZZY   0.002475   0.000506   0.012316  -0.000000   0.000000
   39  S  1 XYZ   0.001412   0.006604  -0.001021  -0.000000   0.000000
   40  S  1 XX    0.000000   0.000000   0.000000  -0.004256  -0.017420
   41  S  1 YY    0.000000   0.000000   0.000000   0.003284   0.027953
   42  S  1 ZZ    0.000000   0.000000   0.000000   0.000972  -0.010533
   43  S  1 XY    0.021222   0.053091  -0.006460  -0.000000   0.000000
   44  S  1 XZ    0.000000   0.000000   0.000000   0.005878  -0.007514
   45  S  1 YZ    0.002528   0.004733   0.058051  -0.000000   0.000000
   46  H  2  S    0.000000   0.000000   0.000000  -0.030702   0.106634
   47  H  2  S    0.000000   0.000000   0.000000   0.602999  -1.206383
   48  H  2  S    0.000000   0.000000   0.000000   1.875367  -1.986307
   49  H  2  X    0.000000   0.000000   0.000000   0.003443   0.006053
   50  H  2  Y    0.007961   0.002869  -0.007954  -0.000000   0.000000
   51  H  2  Z    0.000000   0.000000   0.000000   0.008892   0.001971
   52  H  2  X    0.000000   0.000000   0.000000   0.204699  -0.746885
   53  H  2  Y   -0.100493  -0.121502   0.173304  -0.000000   0.000000
   54  H  2  Z    0.000000   0.000000   0.000000  -0.271696   0.608303
   55  H  2 XX    0.000000   0.000000   0.000000   0.004411  -0.028766
   56  H  2 YY    0.000000   0.000000   0.000000  -0.005139   0.043189
   57  H  2 ZZ    0.000000   0.000000   0.000000   0.000728  -0.014423
   58  H  2 XY    0.001242   0.004335  -0.001253  -0.000000   0.000000
   59  H  2 XZ    0.000000   0.000000   0.000000  -0.018694   0.059751
   60  H  2 YZ   -0.000394  -0.000174   0.004732  -0.000000   0.000000
   61  H  3  S    0.000000   0.000000   0.000000   0.046675   0.088844
   62  H  3  S    0.000000   0.000000   0.000000  -0.294808  -0.042529
   63  H  3  S    0.000000   0.000000   0.000000  -1.878580  -1.342128
   64  H  3  X    0.000000   0.000000   0.000000  -0.005341  -0.016133
   65  H  3  Y    0.000086  -0.011427  -0.008886  -0.000000   0.000000
   66  H  3  Z    0.000000   0.000000   0.000000  -0.014424  -0.007584
   67  H  3  X    0.000000   0.000000   0.000000   0.208366   0.400955
   68  H  3  Y    0.054519   0.198649   0.154614  -0.000000   0.000000
   69  H  3  Z    0.000000   0.000000   0.000000   0.268069   0.277446
   70  H  3 XX    0.000000   0.000000   0.000000  -0.004628  -0.020432
   71  H  3 YY    0.000000   0.000000   0.000000   0.007616   0.026221
   72  H  3 ZZ    0.000000   0.000000   0.000000  -0.002988  -0.005789
   73  H  3 XY    0.003646   0.003975  -0.000652  -0.000000   0.000000
   74  H  3 XZ    0.000000   0.000000   0.000000  -0.019539  -0.027477
   75  H  3 YZ    0.001411   0.000266   0.005210  -0.000000   0.000000

                     21         22         23         24         25
                    0.4906     0.5517     0.7011     0.7274     0.7883
                     A          A          A          A          A   
    1  S  1  S   -0.079912  -0.000102  -0.000000   0.008554   0.000000
    2  S  1  S   -0.553697  -0.000914  -0.000000   0.058702   0.000000
    3  S  1  S   -0.946016  -0.028150  -0.000000   0.081513   0.000000
    4  S  1  S   -0.272985   0.035314  -0.000000   0.039565   0.000000
    5  S  1  S    3.993840  -0.516269  -0.000000  -0.553154   0.000000
    6  S  1  X   -0.191695   0.200249  -0.000000   0.055646   0.000000
    7  S  1  Y   -0.000000  -0.000000   0.022411   0.000000  -0.099430
    8  S  1  Z    0.344309  -0.111479  -0.000000  -0.048232   0.000000
    9  S  1  X   -0.414350   0.564268  -0.000000   0.263374   0.000000
   10  S  1  Y   -0.000000  -0.000000   0.029747   0.000000  -0.317266
   11  S  1  Z    0.824526  -0.298995  -0.000000  -0.149282   0.000000
   12  S  1  X    0.034424   0.000194  -0.000000   0.064246   0.000000
   13  S  1  Y   -0.000000  -0.000000  -0.014577   0.000000  -0.025805
   14  S  1  Z   -0.069001   0.000972  -0.000000  -0.006106   0.000000
   15  S  1  X   -0.005260   0.291649  -0.000000   0.539148   0.000000
   16  S  1  Y   -0.000000  -0.000000  -0.158480   0.000000  -0.467740
   17  S  1  Z    1.412590  -0.165353  -0.000000  -0.328498   0.000000
   18  S  1 XX    0.086244  -0.028880  -0.000000   0.035054   0.000000
   19  S  1 YY   -0.127190   0.029024  -0.000000   0.027614   0.000000
   20  S  1 ZZ    0.040945  -0.000144  -0.000000  -0.062668   0.000000
   21  S  1 XY   -0.000000  -0.000000  -0.090517   0.000000   0.014710
   22  S  1 XZ    0.018326   0.140930  -0.000000   0.104317   0.000000
   23  S  1 YZ   -0.000000  -0.000000  -0.040996   0.000000  -0.107073
   24  S  1 XX    0.810529  -0.248098  -0.000000   0.066767   0.000000
   25  S  1 YY   -1.114172   0.278641  -0.000000   0.169038   0.000000
   26  S  1 ZZ    0.303643  -0.030543  -0.000000  -0.235806   0.000000
   27  S  1 XY   -0.000000  -0.000000  -0.733768   0.000000   0.315073
   28  S  1 XZ    0.040559   1.272640  -0.000000   0.392743   0.000000
   29  S  1 YZ   -0.000000  -0.000000  -0.167804   0.000000  -0.761523
   30  S  1 XXX  -0.000143  -0.011458  -0.000000  -0.056533   0.000000
   31  S  1 YYY  -0.000000  -0.000000  -0.024753   0.000000  -0.041286
   32  S  1 ZZZ  -0.032753   0.003319  -0.000000   0.016243   0.000000
   33  S  1 XXY  -0.000000  -0.000000   0.020667   0.000000   0.038142
   34  S  1 XXZ   0.121681  -0.019501  -0.000000  -0.021864   0.000000
   35  S  1 YYX   0.030919  -0.028399  -0.000000   0.033429   0.000000
   36  S  1 YYZ  -0.077738   0.015048  -0.000000   0.000072   0.000000
   37  S  1 ZZX  -0.030727   0.043771  -0.000000   0.042418   0.000000
   38  S  1 ZZY  -0.000000  -0.000000   0.012543   0.000000   0.017249
   39  S  1 XYZ  -0.000000  -0.000000   0.025594   0.000000   0.007279
   40  S  1 XX    0.031330  -0.011201  -0.000000   0.009944   0.000000
   41  S  1 YY   -0.041299   0.009956  -0.000000   0.006903   0.000000
   42  S  1 ZZ    0.009968   0.001245  -0.000000  -0.016847   0.000000
   43  S  1 XY   -0.000000  -0.000000  -0.034766   0.000000   0.007905
   44  S  1 XZ    0.020185   0.054013  -0.000000   0.026629   0.000000
   45  S  1 YZ   -0.000000  -0.000000  -0.013281   0.000000  -0.035000
   46  H  2  S    0.001959   0.033419  -0.000000  -0.024190   0.000000
   47  H  2  S   -1.805741   1.917417  -0.000000   1.027425   0.000000
   48  H  2  S   -0.977363  -0.502913  -0.000000  -0.189550   0.000000
   49  H  2  X   -0.016876   0.020489  -0.000000   0.031445   0.000000
   50  H  2  Y   -0.000000  -0.000000   0.040468   0.000000  -0.090429
   51  H  2  Z    0.005461  -0.030117  -0.000000   0.016805   0.000000
   52  H  2  X   -0.288237   0.100089  -0.000000  -0.484722   0.000000
   53  H  2  Y   -0.000000  -0.000000  -0.608505   0.000000   1.298532
   54  H  2  Z    0.500984   0.139170  -0.000000  -0.355141   0.000000
   55  H  2 XX   -0.007533   0.003863  -0.000000   0.011982   0.000000
   56  H  2 YY    0.029493  -0.006077  -0.000000  -0.018140   0.000000
   57  H  2 ZZ   -0.021960   0.002214  -0.000000   0.006158   0.000000
   58  H  2 XY   -0.000000  -0.000000  -0.010399   0.000000   0.014962
   59  H  2 XZ    0.049212  -0.022096  -0.000000   0.006183   0.000000
   60  H  2 YZ   -0.000000  -0.000000   0.008614   0.000000  -0.015636
   61  H  3  S   -0.019273  -0.011660  -0.000000   0.010350   0.000000
   62  H  3  S   -1.625912  -0.910975  -0.000000  -0.321302   0.000000
   63  H  3  S   -0.434437   0.458454  -0.000000   0.305805   0.000000
   64  H  3  X    0.011123  -0.006173  -0.000000   0.053206   0.000000
   65  H  3  Y   -0.000000  -0.000000  -0.080613   0.000000  -0.047935
   66  H  3  Z    0.001508   0.024994  -0.000000  -0.050552   0.000000
   67  H  3  X    0.069443   0.231481  -0.000000  -0.808024   0.000000
   68  H  3  Y   -0.000000  -0.000000   1.101216   0.000000   0.635634
   69  H  3  Z    0.194296  -0.258625  -0.000000   0.646325   0.000000
   70  H  3 XX   -0.008370  -0.007370  -0.000000  -0.005514   0.000000
   71  H  3 YY    0.021893   0.007012  -0.000000   0.006403   0.000000
   72  H  3 ZZ   -0.013522   0.000358  -0.000000  -0.000889   0.000000
   73  H  3 XY   -0.000000  -0.000000  -0.005841   0.000000   0.000575
   74  H  3 XZ   -0.036690  -0.015613  -0.000000   0.008962   0.000000
   75  H  3 YZ   -0.000000  -0.000000  -0.004647   0.000000  -0.001911

                     26         27         28         29         30
                    0.8059     1.0554     1.0896     1.3797     1.3814
                     A          A          A          A          A   
    1  S  1  S   -0.024882  -0.004535  -0.097782  -0.000000   0.002999
    2  S  1  S   -0.172899  -0.031469  -0.674737  -0.000000   0.027966
    3  S  1  S   -0.281674  -0.124925  -1.144179  -0.000000   0.072918
    4  S  1  S   -0.084880   0.166278   0.070886  -0.000000  -0.005671
    5  S  1  S    1.216463  -2.131070  -3.116506  -0.000000   0.747141
    6  S  1  X   -0.070201  -0.926845   0.931960  -0.000000  -0.045713
    7  S  1  Y   -0.000000  -0.000000  -0.000000   0.029113   0.000000
    8  S  1  Z    0.159405  -0.392726  -0.863863  -0.000000   0.119931
    9  S  1  X   -0.129351  -2.165674   2.106602  -0.000000  -0.103811
   10  S  1  Y   -0.000000  -0.000000  -0.000000   0.062004   0.000000
   11  S  1  Z    0.466375  -0.989890  -2.008708  -0.000000   0.359145
   12  S  1  X    0.029183   0.133845  -0.125723  -0.000000   0.000525
   13  S  1  Y   -0.000000  -0.000000  -0.000000  -0.016355   0.000000
   14  S  1  Z    0.019285   0.017408   0.041847  -0.000000   0.068557
   15  S  1  X    0.014813  -1.345189   1.018117  -0.000000  -0.065593
   16  S  1  Y   -0.000000  -0.000000  -0.000000  -0.000086   0.000000
   17  S  1  Z    0.884059  -0.689026  -0.822125  -0.000000   0.315448
   18  S  1 XX   -0.085464   0.101455   0.173292  -0.000000   0.961831
   19  S  1 YY   -0.096857  -0.107852  -0.220161  -0.000000  -0.112385
   20  S  1 ZZ    0.182320   0.006396   0.046868  -0.000000  -0.849447
   21  S  1 XY   -0.000000  -0.000000  -0.000000   1.042944   0.000000
   22  S  1 XZ    0.022628   0.172621  -0.192309  -0.000000   0.043760
   23  S  1 YZ   -0.000000  -0.000000  -0.000000  -0.381320   0.000000
   24  S  1 XX   -0.816532  -0.313342  -0.595576  -0.000000  -0.873544
   25  S  1 YY   -0.282315   0.786200   1.233127  -0.000000  -0.154862
   26  S  1 ZZ    1.098847  -0.472857  -0.637551  -0.000000   1.028406
   27  S  1 XY   -0.000000  -0.000000  -0.000000  -0.894893   0.000000
   28  S  1 XZ   -0.170796  -2.256859   1.938427  -0.000000  -0.133142
   29  S  1 YZ   -0.000000  -0.000000  -0.000000   0.336275   0.000000
   30  S  1 XXX   0.006834   0.072229  -0.057288  -0.000000   0.049896
   31  S  1 YYY  -0.000000  -0.000000  -0.000000   0.030584   0.000000
   32  S  1 ZZZ  -0.025432   0.022790   0.028194  -0.000000  -0.278430
   33  S  1 XXY  -0.000000  -0.000000  -0.000000  -0.028630   0.000000
   34  S  1 XXZ   0.011849  -0.028282  -0.040966  -0.000000   0.161524
   35  S  1 YYX   0.023742   0.050856  -0.026097  -0.000000  -0.022809
   36  S  1 YYZ   0.022272  -0.002294   0.003140  -0.000000   0.212030
   37  S  1 ZZX  -0.032911  -0.147761   0.102958  -0.000000  -0.044134
   38  S  1 ZZY  -0.000000  -0.000000  -0.000000  -0.012403   0.000000
   39  S  1 XYZ  -0.000000  -0.000000  -0.000000   0.146618   0.000000
   40  S  1 XX   -0.033183   0.011232   0.024788  -0.000000   0.114090
   41  S  1 YY   -0.018588  -0.005443  -0.027662  -0.000000  -0.015649
   42  S  1 ZZ    0.051771  -0.005789   0.002874  -0.000000  -0.098441
   43  S  1 XY   -0.000000  -0.000000  -0.000000   0.127550   0.000000
   44  S  1 XZ    0.006248   0.017987  -0.031675  -0.000000   0.006998
   45  S  1 YZ   -0.000000  -0.000000  -0.000000  -0.047417   0.000000
   46  H  2  S    0.016913   0.000547   0.157032  -0.000000   0.010160
   47  H  2  S   -0.846151  -1.154302   3.603725  -0.000000  -0.543138
   48  H  2  S   -0.281048  -0.486324   1.816103  -0.000000  -0.205380
   49  H  2  X    0.066671  -0.034835  -0.047852  -0.000000  -0.016360
   50  H  2  Y   -0.000000  -0.000000  -0.000000  -0.055019   0.000000
   51  H  2  Z    0.071560  -0.012196   0.039635  -0.000000  -0.044287
   52  H  2  X   -1.046674  -0.212585   1.993312  -0.000000  -0.383350
   53  H  2  Y   -0.000000  -0.000000  -0.000000  -0.119289   0.000000
   54  H  2  Z   -0.827025   0.683224  -1.934946  -0.000000   0.057986
   55  H  2 XX   -0.039646  -0.003062   0.035226  -0.000000  -0.089217
   56  H  2 YY    0.019872   0.004860  -0.061045  -0.000000   0.029824
   57  H  2 ZZ    0.019774  -0.001797   0.025819  -0.000000   0.059393
   58  H  2 XY   -0.000000  -0.000000  -0.000000  -0.055369   0.000000
   59  H  2 XZ    0.005871   0.039135  -0.088268  -0.000000  -0.007811
   60  H  2 YZ   -0.000000  -0.000000  -0.000000   0.056934   0.000000
   61  H  3  S    0.022156   0.104442   0.056199  -0.000000  -0.010809
   62  H  3  S   -0.560151   2.582600  -0.265251  -0.000000  -0.199272
   63  H  3  S   -0.012107   1.827005   0.014645  -0.000000  -0.160965
   64  H  3  X   -0.046306   0.066295   0.040957  -0.000000  -0.006659
   65  H  3  Y   -0.000000  -0.000000  -0.000000   0.018727   0.000000
   66  H  3  Z    0.043700   0.062788   0.008863  -0.000000  -0.040373
   67  H  3  X    0.435566  -1.884787  -0.259640  -0.000000   0.334758
   68  H  3  Y   -0.000000  -0.000000  -0.000000   0.044219   0.000000
   69  H  3  Z   -0.614600  -1.867497   0.080108  -0.000000  -0.007265
   70  H  3 XX   -0.030313   0.037525  -0.005372  -0.000000  -0.083334
   71  H  3 YY    0.020315  -0.062553   0.007819  -0.000000   0.017960
   72  H  3 ZZ    0.009998   0.025028  -0.002447  -0.000000   0.065374
   73  H  3 XY   -0.000000  -0.000000  -0.000000  -0.034259   0.000000
   74  H  3 XZ    0.015056   0.093144  -0.026057  -0.000000   0.020316
   75  H  3 YZ   -0.000000  -0.000000  -0.000000  -0.022623   0.000000

                     31         32         33         34         35
                    1.3974     1.4477     1.5473     1.5633     1.6849
                     A          A          A          A          A   
    1  S  1  S    0.000000  -0.020844   0.000000   0.028927  -0.008028
    2  S  1  S    0.000000  -0.181621   0.000000   0.230750  -0.055212
    3  S  1  S    0.000000  -0.436716   0.000000   0.476469  -0.087699
    4  S  1  S    0.000000  -0.141180   0.000000   0.135352   0.013131
    5  S  1  S    0.000000  -0.669224   0.000000   0.776209  -0.562196
    6  S  1  X    0.000000   0.163110   0.000000  -0.133095  -0.035377
    7  S  1  Y   -0.027165  -0.000000   0.000830   0.000000   0.000000
    8  S  1  Z    0.000000  -0.196663   0.000000   0.264340  -0.027987
    9  S  1  X    0.000000   0.301294   0.000000  -0.600766   0.271665
   10  S  1  Y   -0.081002  -0.000000  -0.000456   0.000000   0.000000
   11  S  1  Z    0.000000  -0.580274   0.000000   0.659077  -0.135057
[...]
       23   -0.020949   -0.020949  2-+20+

 State #    3  Energy =    -398.442265270

      Det      Coef        Coefp    Occupancy (Ignoring core)
      ---      ----        ----    --------- --------- -----
       31   -0.968936    0.968936  2+2200
       52    0.087753    0.087753  +2-20+
      202    0.079389   -0.079389  2+0202
       77    0.071874   -0.071874  2+2020
       38   -0.070928    0.070928  20220+
       46   -0.070329   -0.070329  +22200
       33   -0.065713    0.065713  2+-2+0
        6    0.060351   -0.060351  22200+
       19    0.059284    0.059284  2-+2+0
       24   -0.048529    0.048529  -2+20+
      113   -0.043460   -0.043460  20+2-+
       49   -0.042686    0.042686  +-22+0
      108    0.042534   -0.042534  2+0220
       22   -0.042496    0.042496  22020+
      211   -0.039224    0.039224  +2+20-
      199    0.033608   -0.033608  20+2+-
      226   -0.030737   -0.030737  ++220-
       39    0.028279    0.028279  -+220+
      234    0.027088    0.027088  0+2202
       37    0.026941   -0.026941  2+-20+
        2   -0.024400    0.024400  2220+0
       23   -0.022906   -0.022906  2-+20+
       35    0.021651    0.021651  -+22+0
      140    0.021163    0.021163  0+2220
      136    0.021035    0.021035  ++22-0

 ---------------------------------------
      - DIABATIC STATES IN CMO -        
 ---------------------------------------

 State #    1  Energy =    -398.637009630

      Det      Coef        Coefp    Occupancy (Ignoring core)
      ---      ----        ----    --------- --------- -----
        1   -0.982858    0.982858  222+00
      157    0.084215    0.084215  220+02
      173    0.068046    0.068046  202+02
       47    0.062345   -0.062345  +22-+0
      168   -0.041014   -0.041014  2+-++-
        8   -0.038646    0.038646  2-2+0+
       63    0.037861    0.037861  220+20
        5   -0.037209   -0.037209  -22++0
       79    0.036742    0.036742  202+20
      154    0.035848   -0.035848  2-+++-
       68   -0.034942   -0.034942  2-++-+
       82    0.031725   -0.031725  2+-+-+
       36    0.028606    0.028606  2+2-0+
       91   -0.025136   -0.025136  +22+-0
      172   -0.024894   -0.024894  2+-+02
       95    0.024825    0.024825  022+20
      158    0.023941   -0.023941  2-++02
       17   -0.022660    0.022660  22+-+0
       61    0.021700    0.021700  22++-0

 State #    2  Energy =    -398.526050147

      Det      Coef        Coefp    Occupancy (Ignoring core)
      ---      ----        ----    --------- --------- -----
       16    0.971923    0.971923  22+200
       31   -0.134176    0.134176  2+2200
      203   -0.074850    0.074850  20+202
       62   -0.067833   -0.067833  22+020
       53    0.060547   -0.060547  +-220+
        2   -0.049922    0.049922  2220+0
       18    0.044564   -0.044564  2202+0
       48    0.040610    0.040610  +2-2+0
       39   -0.037899   -0.037899  -+220+
       34   -0.036099    0.036099  2022+0
      112   -0.035085   -0.035085  2+02-+
      196   -0.034546   -0.034546  2++20-
      109   -0.033902    0.033902  20+220
      202    0.033087   -0.033087  2+0202
      198    0.031541   -0.031541  2+02+-
      219   -0.026201    0.026201  02+202
       38   -0.025995    0.025995  20220+
       49   -0.023114    0.023114  +-22+0
       20   -0.022773    0.022773  -2+2+0
      125   -0.022696    0.022696  02+220
      226   -0.022647   -0.022647  ++220-
       37    0.021175   -0.021175  2+-20+

 State #    3  Energy =    -398.442265270

      Det      Coef        Coefp    Occupancy (Ignoring core)
      ---      ----        ----    --------- --------- -----
       31   -0.963102    0.963102  2+2200
       16   -0.135427   -0.135427  22+200
       52   -0.083391   -0.083391  +2-20+
      202    0.081932   -0.081932  2+0202
       77    0.068583   -0.068583  2+2020
        6   -0.064478    0.064478  22200+
       38    0.060267   -0.060267  20220+
       22    0.055844   -0.055844  22020+
       33   -0.054379    0.054379  2+-2+0
       19    0.047893    0.047893  2-+2+0
       24    0.045144   -0.045144  -2+20+
       37   -0.044440    0.044440  2+-20+
       49   -0.043611    0.043611  +-22+0
       23    0.041997    0.041997  2-+20+
      108    0.040679   -0.040679  2+0220
      113    0.038637    0.038637  20+2-+
      211    0.038247   -0.038247  +2+20-
      199   -0.029184    0.029184  20+2+-
      234    0.026486    0.026486  0+2202
      140    0.021989    0.021989  0+2220
       35    0.021963    0.021963  -+22+0
      136    0.021648    0.021648  ++22-0
      109    0.020792   -0.020792  20+220

 ---------------------------------------
    -DIABATIC STATES IN PROTOTYPES-     
 ---------------------------------------

     STATE:    1
 Group Ref#    Coefficients
     1    1    0.997833
     2    2    0.000000
     3    3   -0.000000

WEIGHT OF LISTED PROTOTYPES:   99.57%

     STATE:    2
 Group Ref#    Coefficients
     1    1   -0.000000
     2    2    0.997699
     3    3   -0.000428

WEIGHT OF LISTED PROTOTYPES:   99.54%

     STATE:    3
 Group Ref#    Coefficients
     1    1    0.000000
     2    2   -0.000428
     3    3    0.994455

WEIGHT OF LISTED PROTOTYPES:   98.89%

 --------------------------------------------------
 IN DIRECT MAX. DIABATIZATION FOR GMC-QDPT

 DIRECT MAXIMIZATION (DM) WITHOUT TRUNCATING ADIABATS
 EXPANSIONS INTO THE REFERENCE CONFIGURATION SPACE
 --------------------------------------------------

 -------------------------------------------
 - DM DIABT PT HAMILTONIAN MATRIX ELEMENTS -
 -------------------------------------------
                                            
 --- DIABATIC ENERGIES (DIAGONAL ELEMENT) ---       HARTREE            EV
 STATE #  1'S GMC-PT-LEVEL DIABATIC ENERGY=    -398.637009630       0.000000000
 STATE #  2'S GMC-PT-LEVEL DIABATIC ENERGY=    -398.526050137       3.019361589
 STATE #  3'S GMC-PT-LEVEL DIABATIC ENERGY=    -398.442265279       5.299263716

 --- DIABATIC COUPLINGS (OFF DIAGONAL ELEMENTS)---  HATREE            EV
 STATE #  1 &  2'S GMC-PT-LEVEL COUPLING  =       0.000000000       0.000000000
 STATE #  1 &  3'S GMC-PT-LEVEL COUPLING  =       0.000000000       0.000000000
 STATE #  2 &  3'S GMC-PT-LEVEL COUPLING  =       0.006665674       0.181382222

 ---------------------------------------
     - ROTATION TO DIABATIC STATES -    
 ---------------------------------------
 ROWS=ADIABATIC, COLUMNS=DIABATIC STATES

             1           2           3

    1    1.0000000  -0.0000000  -0.0000000
    2    0.0000000  -0.9968894   0.0788138
    3    0.0000000   0.0788138   0.9968894

 ---------------------------------------
          - DIABATIC STATES -           
 ---------------------------------------

 State #    1  Energy =    -398.637009630

      Det      Coef        Coefp    Occupancy (Ignoring core)
      ---      ----        ----    --------- --------- -----
        1   -0.981925    0.981925  222+00
      157    0.078468    0.078468  220+02
      173    0.072667    0.072667  202+02
       47    0.063753   -0.063753  +22-+0
      168    0.047228    0.047228  2+-++-
      154   -0.041981    0.041981  2-+++-
       63    0.041250    0.041250  220+20
       68    0.040685    0.040685  2-++-+
        8    0.039564   -0.039564  2-2+0+
       82   -0.037740    0.037740  2+-+-+
        5   -0.037469   -0.037469  -22++0
       79    0.033641    0.033641  202+20
      181   -0.032174   -0.032174  +22+0-
        9    0.030217    0.030217  -22+0+
       36   -0.028056   -0.028056  2+2-0+
       91   -0.026284   -0.026284  +22+-0
       95    0.024877    0.024877  022+20
       61    0.023543    0.023543  22++-0
       17   -0.021688    0.021688  22+-+0

 State #    2  Energy =    -398.526050137

      Det      Coef        Coefp    Occupancy (Ignoring core)
      ---      ----        ----    --------- --------- -----
       16    0.980235    0.980235  22+200
      203   -0.076363    0.076363  20+202
       62   -0.069950   -0.069950  22+020
       53   -0.065794    0.065794  +-220+
       18    0.050676   -0.050676  2202+0
        2   -0.049842    0.049842  2220+0
       48    0.044733    0.044733  +2-2+0
       34   -0.043951    0.043951  2022+0
       39    0.041619    0.041619  -+220+
      112    0.040522    0.040522  2+02-+
      198   -0.036952    0.036952  2+02+-
      196    0.035268    0.035268  2++20-
      109   -0.033564    0.033564  20+220
       24   -0.029433    0.029433  -2+20+
      211    0.029237   -0.029237  +2+20-
       20   -0.026647    0.026647  -2+2+0
      219   -0.026574    0.026574  02+202
      226    0.024175    0.024175  ++220-
      125   -0.022712    0.022712  02+220
      200    0.021511    0.021511  -++2+-
       23   -0.020949   -0.020949  2-+20+

 State #    3  Energy =    -398.442265279

      Det      Coef        Coefp    Occupancy (Ignoring core)
      ---      ----        ----    --------- --------- -----
       31   -0.968936    0.968936  2+2200
       52    0.087753    0.087753  +2-20+
      202    0.079389   -0.079389  2+0202
       77    0.071874   -0.071874  2+2020
       38   -0.070928    0.070928  20220+
       46   -0.070329   -0.070329  +22200
       33   -0.065713    0.065713  2+-2+0
        6    0.060351   -0.060351  22200+
       19    0.059284    0.059284  2-+2+0
       24   -0.048529    0.048529  -2+20+
      113   -0.043460   -0.043460  20+2-+
       49   -0.042686    0.042686  +-22+0
      108    0.042534   -0.042534  2+0220
       22   -0.042496    0.042496  22020+
      211   -0.039224    0.039224  +2+20-
      199    0.033608   -0.033608  20+2+-
      226   -0.030737   -0.030737  ++220-
       39    0.028279    0.028279  -+220+
      234    0.027088    0.027088  0+2202
       37    0.026941   -0.026941  2+-20+
        2   -0.024400    0.024400  2220+0
       23   -0.022906   -0.022906  2-+20+
       35    0.021651    0.021651  -+22+0
      140    0.021163    0.021163  0+2220
      136    0.021035    0.021035  ++22-0

 ---------------------------------------
      - DIABATIC STATES IN CMO -        
 ---------------------------------------

 State #    1  Energy =    -398.637009630

      Det      Coef        Coefp    Occupancy (Ignoring core)
      ---      ----        ----    --------- --------- -----
        1   -0.982858    0.982858  222+00
      157    0.084215    0.084215  220+02
      173    0.068046    0.068046  202+02
       47    0.062345   -0.062345  +22-+0
      168   -0.041014   -0.041014  2+-++-
        8   -0.038646    0.038646  2-2+0+
       63    0.037861    0.037861  220+20
        5   -0.037209   -0.037209  -22++0
       79    0.036742    0.036742  202+20
      154    0.035848   -0.035848  2-+++-
       68   -0.034942   -0.034942  2-++-+
       82    0.031725   -0.031725  2+-+-+
       36    0.028606    0.028606  2+2-0+
       91   -0.025136   -0.025136  +22+-0
      172   -0.024894   -0.024894  2+-+02
       95    0.024825    0.024825  022+20
      158    0.023941   -0.023941  2-++02
       17   -0.022660    0.022660  22+-+0
       61    0.021700    0.021700  22++-0

 State #    2  Energy =    -398.526050137

      Det      Coef        Coefp    Occupancy (Ignoring core)
      ---      ----        ----    --------- --------- -----
       16    0.971923    0.971923  22+200
       31   -0.134176    0.134176  2+2200
      203   -0.074850    0.074850  20+202
       62   -0.067833   -0.067833  22+020
       53    0.060547   -0.060547  +-220+
        2   -0.049922    0.049922  2220+0
       18    0.044564   -0.044564  2202+0
       48    0.040610    0.040610  +2-2+0
       39   -0.037899   -0.037899  -+220+
       34   -0.036099    0.036099  2022+0
      112   -0.035085   -0.035085  2+02-+
      196   -0.034546   -0.034546  2++20-
      109   -0.033902    0.033902  20+220
      202    0.033087   -0.033087  2+0202
      198    0.031541   -0.031541  2+02+-
      219   -0.026201    0.026201  02+202
       38   -0.025995    0.025995  20220+
       49   -0.023114    0.023114  +-22+0
       20   -0.022773    0.022773  -2+2+0
      125   -0.022696    0.022696  02+220
      226   -0.022647   -0.022647  ++220-
       37    0.021175   -0.021175  2+-20+

 State #    3  Energy =    -398.442265279

      Det      Coef        Coefp    Occupancy (Ignoring core)
      ---      ----        ----    --------- --------- -----
       31   -0.963102    0.963102  2+2200
       16   -0.135428   -0.135428  22+200
       52   -0.083391   -0.083391  +2-20+
      202    0.081932   -0.081932  2+0202
       77    0.068583   -0.068583  2+2020
        6   -0.064478    0.064478  22200+
       38    0.060267   -0.060267  20220+
       22    0.055844   -0.055844  22020+
       33   -0.054379    0.054379  2+-2+0
       19    0.047893    0.047893  2-+2+0
       24    0.045144   -0.045144  -2+20+
       37   -0.044440    0.044440  2+-20+
       49   -0.043611    0.043611  +-22+0
       23    0.041997    0.041997  2-+20+
      108    0.040679   -0.040679  2+0220
      113    0.038637    0.038637  20+2-+
      211    0.038247   -0.038247  +2+20-
      199   -0.029184    0.029184  20+2+-
      234    0.026486    0.026486  0+2202
      140    0.021989    0.021989  0+2220
       35    0.021963    0.021963  -+22+0
      136    0.021648    0.021648  ++22-0
      109    0.020792   -0.020792  20+220

 ---------------------------------------
    -DIABATIC STATES IN PROTOTYPES-     
 ---------------------------------------

     STATE:    1
 Group Ref#    Coefficients
     1    1    0.997833
     2    2    0.000000
     3    3   -0.000000

WEIGHT OF LISTED PROTOTYPES:   99.57%

     STATE:    2
 Group Ref#    Coefficients
     1    1   -0.000000
     2    2    0.997699
     3    3   -0.000427

WEIGHT OF LISTED PROTOTYPES:   99.54%

     STATE:    3
 Group Ref#    Coefficients
     1    1    0.000000
     2    2   -0.000429
     3    3    0.994455

WEIGHT OF LISTED PROTOTYPES:   98.89%

     DIRECT MAX. DIABATIZATION FINISHED    
 CPU     0: STEP CPU TIME=     0.03 TOTAL CPU TIME=         80.7 (      1.3 MIN)
 TOTAL WALL CLOCK TIME=         80.8 SECONDS, CPU UTILIZATION IS    99.98%

DIABATS FOR SPIN-ORBIT CALCULATION ARE READY

TRANSITION DIPOLES BETWEEN ADIABATS (in A.U.):

STATE PAIR      X         Y         Z
    1    1  0.107215 -0.000000  2.013460
    2    1 -0.000000  0.281517  0.000000
    2    2  0.061691  0.000000  2.184129
    3    1 -0.000000 -0.073770  0.000000
    3    2 -0.210542 -0.000000 -0.091461
    3    3  0.048709 -0.000000  1.596130


TRANSITION DIPOLES BETWEEN DIABATS (in A.U.):

STATE PAIR      X         Y         Z
    1    1  0.107215 -0.000000  2.013460
    2    1  0.000000 -0.286456  0.000000
    2    2  0.094694  0.000000  2.194848
    3    1 -0.000000 -0.051354  0.000000
    3    2  0.206906 -0.000000  0.044127
    3    3  0.015706 -0.000000  1.585410

TRANSITION DIPOLES BETWEEN DIRECT MAX. DIABATS (in A.U.):

STATE PAIR      X         Y         Z
    1    1  0.107215 -0.000000  2.013460
    2    1  0.000000 -0.286456  0.000000
    2    2  0.094694  0.000000  2.194849
    3    1 -0.000000 -0.051354  0.000000
    3    2  0.206906 -0.000000  0.044126
    3    3  0.015706 -0.000000  1.585410
 No $TRANST Group Found.
 Quit without doing spin-orbit coupling
 ..... DONE WITH MP2 ENERGY .....
 CPU     0: STEP CPU TIME=     0.00 TOTAL CPU TIME=         80.7 (      1.3 MIN)
 TOTAL WALL CLOCK TIME=         80.8 SECONDS, CPU UTILIZATION IS    99.98%
            100000000  WORDS OF DYNAMIC MEMORY USED
 EXECUTION OF GAMESS TERMINATED NORMALLY Tue Nov  1 12:08:57 2022
 DDI: 5098536 bytes (4.9 MB / 0 MWords) used by master data server.

 ----------------------------------------
 CPU timing information for all processes
 ========================================
 0: 80.316 + 0.427 = 80.744
 ----------------------------------------
Note: The following floating-point exceptions are signalling: IEEE_DENORMAL
 ddikick.x: exited gracefully.
unset echo
----- accounting info -----
Files used on the master node io003 were:
-rwxr-xr-x 1 bjb2chen nooijen   91665 Nov  1 12:07 /scratch/bjb2chen/h2scat_cct_gmcpt_6o7e_3st_diab_as0.1.F05*
-rw-r--r-- 1 bjb2chen nooijen 1817856 Nov  1 12:08 /scratch/bjb2chen/h2scat_cct_gmcpt_6o7e_3st_diab_as0.1.F09
-rw-r--r-- 1 bjb2chen nooijen 2290400 Nov  1 12:08 /scratch/bjb2chen/h2scat_cct_gmcpt_6o7e_3st_diab_as0.1.F10
-rw-r--r-- 1 bjb2chen nooijen  328432 Nov  1 12:08 /scratch/bjb2chen/h2scat_cct_gmcpt_6o7e_3st_diab_as0.1.F13
-rw-r--r-- 1 bjb2chen nooijen  180552 Nov  1 12:08 /scratch/bjb2chen/h2scat_cct_gmcpt_6o7e_3st_diab_as0.1.F15
-rw-r--r-- 1 bjb2chen nooijen       0 Nov  1 12:07 /scratch/bjb2chen/h2scat_cct_gmcpt_6o7e_3st_diab_as0.1.F16
-rw-r--r-- 1 bjb2chen nooijen    2408 Nov  1 12:08 /scratch/bjb2chen/h2scat_cct_gmcpt_6o7e_3st_diab_as0.1.F70
-rw-r--r-- 1 bjb2chen nooijen    2408 Nov  1 12:08 /scratch/bjb2chen/h2scat_cct_gmcpt_6o7e_3st_diab_as0.1.F71
-rw-r--r-- 1 bjb2chen nooijen    4808 Nov  1 12:08 /scratch/bjb2chen/h2scat_cct_gmcpt_6o7e_3st_diab_as0.1.F72
-rw-r--r-- 1 bjb2chen nooijen    4808 Nov  1 12:08 /scratch/bjb2chen/h2scat_cct_gmcpt_6o7e_3st_diab_as0.1.F73
-rw-r--r-- 1 bjb2chen nooijen  369624 Nov  1 12:08 /scratch/bjb2chen/h2scat_cct_gmcpt_6o7e_3st_diab_as0.1.F74
-rw-r--r-- 1 bjb2chen nooijen  720024 Nov  1 12:08 /scratch/bjb2chen/h2scat_cct_gmcpt_6o7e_3st_diab_as0.1.F75
-rw-r--r-- 1 bjb2chen nooijen   14448 Nov  1 12:08 /scratch/bjb2chen/h2scat_cct_gmcpt_6o7e_3st_diab_as0.1.F76
-rw-r--r-- 1 bjb2chen nooijen       0 Nov  1 12:07 /scratch/bjb2chen/h2scat_cct_gmcpt_6o7e_3st_diab_as0.1.F77
-rw-r--r-- 1 bjb2chen nooijen    4232 Nov  1 12:08 /scratch/bjb2chen/h2scat_cct_gmcpt_6o7e_3st_diab_as0.1.F78
-rw-r--r-- 1 bjb2chen nooijen    9608 Nov  1 12:08 /scratch/bjb2chen/h2scat_cct_gmcpt_6o7e_3st_diab_as0.1.F79
-rw-r--r-- 1 bjb2chen nooijen     104 Nov  1 12:08 /scratch/bjb2chen/h2scat_cct_gmcpt_6o7e_3st_diab_as0.1.F80
-rw-r--r-- 1 bjb2chen nooijen   69712 Nov  1 12:08 /scratch/bjb2chen/h2scat_cct_gmcpt_6o7e_3st_diab_as0.1.F81
-rw-r--r-- 1 bjb2chen nooijen     136 Nov  1 12:08 /scratch/bjb2chen/h2scat_cct_gmcpt_6o7e_3st_diab_as0.1.F82
-rw-r--r-- 1 bjb2chen nooijen   10376 Nov  1 12:08 /scratch/bjb2chen/h2scat_cct_gmcpt_6o7e_3st_diab_as0.1.F83
-rw-r--r-- 1 bjb2chen nooijen  105616 Nov  1 12:08 /scratch/bjb2chen/h2scat_cct_gmcpt_6o7e_3st_diab_as0.1.F84
-rw-r--r-- 1 bjb2chen nooijen  646000 Nov  1 12:08 /scratch/bjb2chen/h2scat_cct_gmcpt_6o7e_3st_diab_as0.1.F85
-rw-r--r-- 1 bjb2chen nooijen 5205568 Nov  1 12:08 /scratch/bjb2chen/h2scat_cct_gmcpt_6o7e_3st_diab_as0.1.F86
-rw-r--r-- 1 bjb2chen nooijen     656 Nov  1 12:08 /scratch/bjb2chen/h2scat_cct_gmcpt_6o7e_3st_diab_as0.1.F87
-rw-r--r-- 1 bjb2chen nooijen    9680 Nov  1 12:08 /scratch/bjb2chen/h2scat_cct_gmcpt_6o7e_3st_diab_as0.1.F88
-rw-r--r-- 1 bjb2chen nooijen     536 Nov  1 12:08 /scratch/bjb2chen/h2scat_cct_gmcpt_6o7e_3st_diab_as0.1.F89
-rw-r--r-- 1 bjb2chen nooijen       0 Nov  1 12:07 /scratch/bjb2chen/h2scat_cct_gmcpt_6o7e_3st_diab_as0.1.F90
-rw-r--r-- 1 bjb2chen nooijen    5560 Nov  1 12:08 /scratch/bjb2chen/h2scat_cct_gmcpt_6o7e_3st_diab_as0.1.F91
-rw-r--r-- 1 bjb2chen nooijen    7128 Nov  1 12:08 /scratch/bjb2chen/h2scat_cct_gmcpt_6o7e_3st_diab_as0.1.F92
-rw-r--r-- 1 bjb2chen nooijen    5560 Nov  1 12:08 /scratch/bjb2chen/h2scat_cct_gmcpt_6o7e_3st_diab_as0.1.F93
-rw-r--r-- 1 bjb2chen nooijen    3880 Nov  1 12:08 /scratch/bjb2chen/h2scat_cct_gmcpt_6o7e_3st_diab_as0.1.F94
-rw-r--r-- 1 bjb2chen nooijen    1640 Nov  1 12:08 /scratch/bjb2chen/h2scat_cct_gmcpt_6o7e_3st_diab_as0.1.F95
-rw-r--r-- 1 bjb2chen nooijen    7240 Nov  1 12:08 /scratch/bjb2chen/h2scat_cct_gmcpt_6o7e_3st_diab_as0.1.F96
-rw-r--r-- 1 bjb2chen nooijen     872 Nov  1 12:08 /scratch/bjb2chen/h2scat_cct_gmcpt_6o7e_3st_diab_as0.1.F97
-rw-r--r-- 1 bjb2chen nooijen    2408 Nov  1 12:08 /scratch/bjb2chen/h2scat_cct_gmcpt_6o7e_3st_diab_as0.1.F98
-rw-r--r-- 1 bjb2chen nooijen    6024 Nov  1 12:08 /scratch/bjb2chen/h2scat_cct_gmcpt_6o7e_3st_diab_as0.1.F99
ls: No match.
ls: No match.
ls: No match.
Tue 01 Nov 2022 12:09:00 PM EDT
0.100u 0.026s 1:23.92 0.1%	0+0k 184+360io 0pf+0w
