----- GAMESS execution script 'rungms' -----
This job is running on host io002
under operating system Linux at Wed 16 Nov 2022 07:06:56 PM EST
Available scratch disk space (Kbyte units) at beginning of the job is
Filesystem       1K-blocks       Used   Available Use% Mounted on
/dev/sdc1      15378471580 3278917120 11318349060  23% /scratch
GAMESS temporary binary files will be written to /scratch/bsonghao
GAMESS supplementary output files will be written to /home/bsonghao/.gamess_ascii_files/267638
Copying input file nh3_diabatization_2d_at_mode_7_8_dist-0.2_-0.3.inp to your run's scratch directory...
cp nh3_diabatization_2d_at_mode_7_8_dist-0.2_-0.3.inp /scratch/bsonghao/nh3_diabatization_2d_at_mode_7_8_dist-0.2_-0.3.F05
unset echo
/home/bjb2chen/gamess/ddikick.x /home/bjb2chen/gamess/gamess.00.x nh3_diabatization_2d_at_mode_7_8_dist-0.2_-0.3 -ddi 1 1 io002 -scr /scratch/bsonghao

 Distributed Data Interface kickoff program.
 Initiating 1 compute processes on 1 nodes to run the following command:
 /home/bjb2chen/gamess/gamess.00.x nh3_diabatization_2d_at_mode_7_8_dist-0.2_-0.3 

          ******************************************************
          *         GAMESS VERSION = 02 AUG 2018 (R2)         *
          *             FROM IOWA STATE UNIVERSITY             *
          * M.W.SCHMIDT, K.K.BALDRIDGE, J.A.BOATZ, S.T.ELBERT, *
          *   M.S.GORDON, J.H.JENSEN, S.KOSEKI, N.MATSUNAGA,   *
          *          K.A.NGUYEN, S.J.SU, T.L.WINDUS,           *
          *       TOGETHER WITH M.DUPUIS, J.A.MONTGOMERY       *
          *         J.COMPUT.CHEM.  14, 1347-1363(1993)        *
          **************** 64 BIT LINUX VERSION ****************

  SINCE 1993, STUDENTS AND POSTDOCS WORKING AT IOWA STATE UNIVERSITY
  AND ALSO IN THEIR VARIOUS JOBS AFTER LEAVING ISU HAVE MADE IMPORTANT
  CONTRIBUTIONS TO THE CODE:
     IVANA ADAMOVIC, CHRISTINE AIKENS, YURI ALEXEEV, POOJA ARORA,
     ANDREY ASADCHEV, ROB BELL, PRADIPTA BANDYOPADHYAY, JONATHAN BENTZ,
     BRETT BODE, KURT BRORSEN, CALEB CARLIN, GALINA CHABAN, WEI CHEN,
     CHEOL HO CHOI, PAUL DAY, ALBERT DEFUSCO, NUWAN DESILVA, TIM DUDLEY,
     DMITRI FEDOROV, ALEX FINDLATER, GRAHAM FLETCHER, MARK FREITAG,
     KURT GLAESEMANN, ANASTASIA GUININA,
     DAN KEMP, GRANT MERRILL, NORIYUKI MINEZAWA, JONATHAN MULLIN,
     TAKESHI NAGATA, SEAN NEDD, HEATHER NETZLOFF, BOSILJKA NJEGIC, RYAN OLSON,
     MIKE PAK, BUU PHAM,
     SPENCER PRUITT, LUKE ROSKOP, JIM SHOEMAKER, LYUDMILA SLIPCHENKO,
     TONY SMITH, SAROM SOK LEANG, JIE SONG, TETSUYA TAKETSUGU, SIMON WEBB,
     PENG XU, SOOHAENG YOO, FEDERICO ZAHARIEV

  ADDITIONAL CODE HAS BEEN PROVIDED BY COLLABORATORS IN OTHER GROUPS:
     IOWA STATE UNIVERSITY:
          JOE IVANIC, AARON WEST, LAIMUTIS BYTAUTAS, KLAUS RUEDENBERG
     UNIVERSITY OF TOKYO: KIMIHIKO HIRAO, TAKAHITO NAKAJIMA,
          TAKAO TSUNEDA, MUNEAKI KAMIYA, SUSUMU YANAGISAWA,
          KIYOSHI YAGI, MAHITO CHIBA, SEIKEN TOKURA, NAOAKI KAWAKAMI
     UNIVERSITY OF AARHUS: FRANK JENSEN
     UNIVERSITY OF IOWA: VISVALDAS KAIRYS, HUI LI
     NATIONAL INST. OF STANDARDS AND TECHNOLOGY: WALT STEVENS, DAVID GARMER
     UNIVERSITY OF PISA: BENEDETTA MENNUCCI, JACOPO TOMASI
     UNIVERSITY OF MEMPHIS: HENRY KURTZ, PRAKASHAN KORAMBATH
     UNIVERSITY OF ALBERTA: TOBY ZENG, MARIUSZ KLOBUKOWSKI
     UNIVERSITY OF NEW ENGLAND: MARK SPACKMAN
     MIE UNIVERSITY: HIROAKI UMEDA
     NAT. INST. OF ADVANCED INDUSTRIAL SCIENCE AND TECHNOLOGY: KAZUO KITAURA
     MICHIGAN STATE UNIVERSITY:
          KAROL KOWALSKI, MARTA WLOCH, JEFFREY GOUR, JESSE LUTZ,
          WEI LI, JUN SHEN, J. EMILIANO DEUSTUA, PIOTR PIECUCH
     UNIVERSITY OF MINNESOTA:
          YINAN SHU
     UNIVERSITY OF SILESIA: MONIKA MUSIAL, STANISLAW KUCHARSKI
     FACULTES UNIVERSITAIRES NOTRE-DAME DE LA PAIX:
          OLIVIER QUINET, BENOIT CHAMPAGNE
     UNIVERSITY OF CALIFORNIA - SANTA BARBARA: BERNARD KIRTMAN
     INSTITUTE FOR MOLECULAR SCIENCE:
          KAZUYA ISHIMURA, MICHIO KATOUDA, AND SHIGERU NAGASE
     UNIVERSITY OF NOTRE DAME: ANNA POMOGAEVA, DAN CHIPMAN
     KYUSHU UNIVERSITY:
          HARUYUKI NAKANO,
          FENG LONG GU, JACEK KORCHOWIEC, MARCIN MAKOWSKI, AND YURIKO AOKI,
          HIROTOSHI MORI AND EISAKU MIYOSHI
     PENNSYLVANIA STATE UNIVERSITY:
          TZVETELIN IORDANOV, CHET SWALINA, JONATHAN SKONE,
          SHARON HAMMES-SCHIFFER
     WASEDA UNIVERSITY:
          MASATO KOBAYASHI, TOMOKO AKAMA, TSUGUKI TOUMA,
          TAKESHI YOSHIKAWA, YASUHIRO IKABATA, JUNJI SEINO,
          YUYA NAKAJIMA, HIROMI NAKAI
     NANJING UNIVERSITY: SHUHUA LI
     UNIVERSITY OF NEBRASKA:
          PEIFENG SU, DEJUN SI, NANDUN THELLAMUREGE, YALI WANG, HUI LI
     UNIVERSITY OF ZURICH: ROBERTO PEVERATI, KIM BALDRIDGE
     N. COPERNICUS UNIVERSITY AND JACKSON STATE UNIVERSITY:
          MARIA BARYSZ
     UNIVERSITY OF COPENHAGEN: Jimmy Kromann, CASPER STEINMANN
     TOKYO INSTITUTE OF TECHNOLOGY: HIROYA NAKATA
     NAGOYA UNIVERSITY: YOSHIO NISHIMOTO, STEPHAN IRLE
     MOSCOW STATE UNIVERSITY: VLADIMIR MIRONOV

 EXECUTION OF GAMESS BEGUN Wed Nov 16 19:06:56 2022

            ECHO OF THE FIRST FEW INPUT CARDS -
 INPUT CARD> $system kdiag=3 mwords=100 memddi=1000 parall=.t. $end                         
 INPUT CARD> $contrl runtyp=energy ispher=1 $end                                            
 INPUT CARD> $contrl icut=9 itol=20 inttyp=rysquad qmttol=1.0d-05 nosym=1 $end              
 INPUT CARD> $scf    npunch=2 conv=1.0d-06 dirscf=.t.      $end                             
 INPUT CARD> $contrl scftyp=mcscf  mult=2 maxit=200 icharg=1 mplevl=2 $end                  
 INPUT CARD> $guess  guess=moread norb=29 purify=.t. $end                                   
 INPUT CARD> $basis  gbasis=ccd $end                                                        
 INPUT CARD> $mcscf  cistep=gmcci fullnr=.t. finci=mos                                      
 INPUT CARD>         acurcy=1.d-6 maxit=100 $end                                            
 INPUT CARD> $trans  dirtrf=.t. $end                                                        
 INPUT CARD> $mrmp   mrpt=gmcpt rdvecs=.f. $end                                             
 INPUT CARD> $gmcpt  nmofzc=0 nmodoc=1 nmoact=7 nelact=7 stsym(1)=A                         
 INPUT CARD>         reftyp=ormas nspace=1 mstart(1)=2 mine(1)=7 maxe(1)=7                  
 INPUT CARD>         kstate(1)=1,1,1                                                        
 INPUT CARD>         wstate(1)=1,1,1                                                        
 INPUT CARD>         iwgt=0 thrwgt=-1.0 krot=.f. kszdoe=.f. knospn=.f.                      
 INPUT CARD>         thrde=-1.0 edshft=0.02 $end                                            
 INPUT CARD> $data                                                                          
 INPUT CARD> NH3+ 3 states calculation at NH3 structure.                                    
 INPUT CARD> c1                                                                             
 INPUT CARD>N 7.0 0.018686754000000003 0.012457805999999998 -0.1693805222                   
 INPUT CARD>H 1.0 -0.694491879 0.6777547228 0.25033406310000006                             
 INPUT CARD>H 1.0 -0.541641239 -0.7049086658 0.3417770191                                   
 INPUT CARD>H 1.0 0.976475666 -0.14595149399999996 0.1772671211                             
 INPUT CARD>$end                                                                            
 INPUT CARD>--- OPTIMIZED RHF      MO-S --- GENERATED AT Mon Nov 14 16:47:08 2022           
 INPUT CARD>E=      -56.3825050291, E(NUC)=   11.8429239490                                 
 INPUT CARD> $VEC                                                                           
 INPUT CARD> 1  1-1.00134066E+00-2.25158504E-03 3.44925845E-03 0.00000000E+00 0.00000000E+00
 INPUT CARD> 1  2-2.13170927E-03 0.00000000E+00 0.00000000E+00 6.57129898E-04-6.87950443E-05
 INPUT CARD> 1  3-6.87950443E-05 1.37590089E-04 0.00000000E+00 0.00000000E+00 0.00000000E+00
 INPUT CARD> 1  4 3.25502815E-04-4.84772356E-04 3.62525460E-04-6.27912517E-04-3.45956485E-04
 INPUT CARD> 1  5 3.25502815E-04-4.84772356E-04 3.62525460E-04 6.27912517E-04-3.45956485E-04
 INPUT CARD> 1  6 3.25502815E-04-4.84772356E-04-7.25050921E-04 0.00000000E+00-3.45956485E-04
 INPUT CARD> 2  1 1.31286642E-02-4.05911371E-01-2.82090992E-01 0.00000000E+00 0.00000000E+00
 INPUT CARD> 2  2-7.71489043E-02 0.00000000E+00 0.00000000E+00 9.73717494E-03 6.62450916E-04
 INPUT CARD> 2  3 6.62450916E-04-1.32490183E-03 0.00000000E+00 0.00000000E+00 0.00000000E+00
 INPUT CARD> 2  4-1.96090317E-01-1.96656153E-02-1.74855877E-02 3.02859263E-02 8.68214399E-03
 INPUT CARD> 2  5-1.96090317E-01-1.96656153E-02-1.74855877E-02-3.02859263E-02 8.68214399E-03
 INPUT CARD> 2  6-1.96090317E-01-1.96656153E-02 3.49711754E-02 0.00000000E+00 8.68214399E-03
 INPUT CARD> 3  1 0.00000000E+00 0.00000000E+00 0.00000000E+00 4.48608762E-01 0.00000000E+00
 INPUT CARD> 3  2 0.00000000E+00 2.18692520E-01 0.00000000E+00 0.00000000E+00 1.30198027E-02
 INPUT CARD> 3  3-1.30198027E-02 0.00000000E+00 0.00000000E+00 2.71832968E-02 0.00000000E+00
 INPUT CARD> 3  4-1.85332726E-01-7.03958951E-02 8.47929477E-03 1.95242443E-02 8.32835058E-03
 INPUT CARD> 3  5-1.85332726E-01-7.03958951E-02 8.47929477E-03-1.95242443E-02 8.32835058E-03
 INPUT CARD> 3  6 3.70665453E-01 1.40791790E-01-2.53376884E-02 0.00000000E+00-1.66567012E-02
 INPUT CARD> 4  1 0.00000000E+00 0.00000000E+00 0.00000000E+00 0.00000000E+00 4.48608762E-01
 INPUT CARD> 4  2 0.00000000E+00 0.00000000E+00 2.18692520E-01 0.00000000E+00 0.00000000E+00
 INPUT CARD> 4  3 0.00000000E+00 0.00000000E+00-1.50339731E-02 0.00000000E+00 2.71832968E-02
 INPUT CARD> 4  4 3.21005698E-01 1.21929267E-01 1.95242443E-02-1.40653607E-02-1.44251263E-02
  100000000 WORDS OF MEMORY AVAILABLE

     BASIS OPTIONS
     -------------
     GBASIS=CCD          IGAUSS=       0      POLAR=NONE    
     NDFUNC=       0     NFFUNC=       0     DIFFSP=       F
     NPFUNC=       0      DIFFS=       F     BASNAM=        


     RUN TITLE
     ---------
  NH3+ 3 states calculation at NH3 structure.                                    

 THE POINT GROUP OF THE MOLECULE IS C1      
 THE ORDER OF THE PRINCIPAL AXIS IS     0

 ATOM      ATOMIC                      COORDINATES (BOHR)
           CHARGE         X                   Y                   Z
 N           7.0     0.0353128447        0.0235418397       -0.3200827746
 H           1.0    -1.3123993520        1.2807707130        0.4730627847
 H           1.0    -1.0235535254       -1.3320842247        0.6458649150
 H           1.0     1.8452714424       -0.2758083312        0.3349862855

          INTERNUCLEAR DISTANCES (ANGS.)
          ------------------------------

                1 N          2 H          3 H          4 H     

   1 N       0.0000000    1.0617929 *  1.0439656 *  1.0308335 *
   2 H       1.0617929 *  0.0000000    1.3940887 *  1.8643935 *
   3 H       1.0439656 *  1.3940887 *  0.0000000    1.6260921 *
   4 H       1.0308335 *  1.8643935 *  1.6260921 *  0.0000000  

  * ... LESS THAN  3.000


     ATOMIC BASIS SET
     ----------------
 THE CONTRACTED PRIMITIVE FUNCTIONS HAVE BEEN UNNORMALIZED
 THE CONTRACTED BASIS FUNCTIONS ARE NOW NORMALIZED TO UNITY

  SHELL TYPE  PRIMITIVE        EXPONENT          CONTRACTION COEFFICIENT(S)

 N         

      1   S       1          9046.0000000    0.000699617413
      1   S       2          1357.0000000    0.005386054630
      1   S       3           309.3000000    0.027391021189
      1   S       4            87.7300000    0.103150591982
      1   S       5            28.5600000    0.278570663317
      1   S       6            10.2100000    0.448294849454
      1   S       7             3.8380000    0.278085928395
      1   S       8             0.7466000    0.015431561233

      2   S       9          9046.0000000   -0.000304990096
      2   S      10          1357.0000000   -0.002408026379
      2   S      11           309.3000000   -0.011944448725
      2   S      12            87.7300000   -0.048925992909
      2   S      13            28.5600000   -0.134472724725
      2   S      14            10.2100000   -0.315112577700
      2   S      15             3.8380000   -0.242857832550
      2   S      16             0.7466000    1.094382206854

      3   S      17             0.2248000    1.000000000000

      4   P      18            13.5500000    0.058905676772
      4   P      19             2.9170000    0.320461106714
      4   P      20             0.7973000    0.753042061792

      5   P      21             0.2185000    1.000000000000

      6   D      22             0.8170000    1.000000000000

 H         

      7   S      23            13.0100000    0.033498726390
      7   S      24             1.9620000    0.234800801174
      7   S      25             0.4446000    0.813682957883

      8   S      26             0.1220000    1.000000000000

      9   P      27             0.7270000    1.000000000000

 H         

     10   S      28            13.0100000    0.033498726390
     10   S      29             1.9620000    0.234800801174
     10   S      30             0.4446000    0.813682957883

     11   S      31             0.1220000    1.000000000000

     12   P      32             0.7270000    1.000000000000

 H         

     13   S      33            13.0100000    0.033498726390
     13   S      34             1.9620000    0.234800801174
     13   S      35             0.4446000    0.813682957883

     14   S      36             0.1220000    1.000000000000

     15   P      37             0.7270000    1.000000000000

 TOTAL NUMBER OF BASIS SET SHELLS             =   15
 NUMBER OF CARTESIAN GAUSSIAN BASIS FUNCTIONS =   30
 NOTE: THIS RUN WILL RESTRICT THE MO VARIATION SPACE TO SPHERICAL HARMONICS.
 THE NUMBER OF ORBITALS KEPT IN THE VARIATIONAL SPACE WILL BE PRINTED LATER.
 NUMBER OF ELECTRONS                          =    9
 CHARGE OF MOLECULE                           =    1
 SPIN MULTIPLICITY                            =    2
 NUMBER OF OCCUPIED ORBITALS (ALPHA)          =    5
 NUMBER OF OCCUPIED ORBITALS (BETA )          =    4
 TOTAL NUMBER OF ATOMS                        =    4
 THE NUCLEAR REPULSION ENERGY IS       11.6191975047

     $CONTRL OPTIONS
     ---------------
 SCFTYP=MCSCF        RUNTYP=ENERGY       EXETYP=RUN     
 MPLEVL=       2     CITYP =NONE         CCTYP =NONE         VBTYP =NONE    
 DFTTYP=NONE         TDDFT =NONE    
 MULT  =       2     ICHARG=       1     NZVAR =       0     COORD =UNIQUE  
 PP    =NONE         RELWFN=NONE         LOCAL =NONE         NUMGRD=       F
 ISPHER=       1     NOSYM =       1     MAXIT =     200     UNITS =ANGS    
 PLTORB=       F     MOLPLT=       F     AIMPAC=       F     FRIEND=        
 NPRINT=       7     IREST =       0     GEOM  =INPUT   
 NORMF =       0     NORMP =       0     ITOL  =      20     ICUT  =       9
 INTTYP=RYSQUAD      GRDTYP=BEST         QMTTOL= 1.0E-05

     $SYSTEM OPTIONS
     ---------------
  REPLICATED MEMORY=   100000000 WORDS (ON EVERY NODE).
 DISTRIBUTED MEMDDI=        1000 MILLION WORDS IN AGGREGATE,
 MEMDDI DISTRIBUTED OVER   1 PROCESSORS IS  1000000000 WORDS/PROCESSOR.
 TOTAL MEMORY REQUESTED ON EACH PROCESSOR=  1100000000 WORDS.
 TIMLIM=      525600.00 MINUTES, OR     365.0 DAYS.
 PARALL= T  BALTYP=  DLB     KDIAG=    3  COREFL= F
 MXSEQ2=     300 MXSEQ3=     150  mem10=         0

          ----------------
          PROPERTIES INPUT
          ----------------

     MOMENTS            FIELD           POTENTIAL          DENSITY
 IEMOM =       1   IEFLD =       0   IEPOT =       0   IEDEN =       0
 WHERE =COMASS     WHERE =NUCLEI     WHERE =NUCLEI     WHERE =NUCLEI  
 OUTPUT=BOTH       OUTPUT=BOTH       OUTPUT=BOTH       OUTPUT=BOTH    
 IEMINT=       0   IEFINT=       0                     IEDINT=       0
                                                       MORB  =       0

     -------------------------------
     INTEGRAL TRANSFORMATION OPTIONS
     -------------------------------
     NWORD  =            0
     CUTOFF = 1.0E-09     MPTRAN =       0
     DIRTRF =       T     AOINTS =DUP     

          ----------------------
          MCSCF INPUT PARAMETERS
          ----------------------
 CONVERGER SELECTION: FOCAS = F  SOSCF = F  FULLNR = T  QUD = F  JACOBI = F
 SECULAR EQUATION METHOD CISTEP = GMCCI   
 --- GENERAL INPUT OPTIONS:
 MAXIT =     100  MICIT =       1  ACURCY= 1.000E-06
 DAMP  =   0.000  CANONC=       T  ENGTOL= 1.000E-10
 EKT   =       F  NPUNCH=       2  NWORD =         0
 REGENERATE CI AFTER CONVERGENCE = NONE    
 DIABATIZATION AFTER CONVERGENCE =        F
 --- INPUT FOR FULLNR CONVERGER:
 METHOD=DM2       FORS  =       F  DROPC =       T
 LINSER=       F  FCORE =       F  NORB  =      30

          ----------------------
          INTEGRAL INPUT OPTIONS
          ----------------------
 NOPK  =       1 NORDER=       0 SCHWRZ=       T

 ------------------------------------------
 MULTIREFERENCE PERTURBATION THEORY CONTROL
 ------------------------------------------
 MRPT=GMCPT    READ CONVERGED MCSCF VECTORS= F


     ------------------------------------------
     THE POINT GROUP IS C1 , NAXIS= 1, ORDER= 1
     ------------------------------------------

 -- VARIATIONAL SPACE WILL BE RESTRICTED TO PURE SPHERICAL HARMONICS ONLY --
 AFTER EXCLUDING CONTAMINANT COMBINATIONS FROM THE CARTESIAN GAUSSIAN BASIS
 SET, THE NUMBER OF SPHERICAL HARMONICS KEPT IN THE VARIATION SPACE IS   29

     DIMENSIONS OF THE SYMMETRY SUBSPACES ARE
 A   =   29

 ..... DONE SETTING UP THE RUN .....
 CPU     0: STEP CPU TIME=     0.04 TOTAL CPU TIME=          0.0 (      0.0 MIN)
 TOTAL WALL CLOCK TIME=          0.0 SECONDS, CPU UTILIZATION IS   100.00%

          ********************
          1 ELECTRON INTEGRALS
          ********************
 TIME TO DO   DIPOLE INTEGRALS=      0.00
 ...... END OF ONE-ELECTRON INTEGRALS ......
 CPU     0: STEP CPU TIME=     0.00 TOTAL CPU TIME=          0.0 (      0.0 MIN)
 TOTAL WALL CLOCK TIME=          0.1 SECONDS, CPU UTILIZATION IS    80.00%

          -------------
          GUESS OPTIONS
          -------------
          GUESS =MOREAD            NORB  =      29          NORDER=       0
          MIX   =       F          PRTMO =       F          PUNMO =       F
          TOLZ  = 1.0E-08          TOLE  = 1.0E-05
          SYMDEN=       F          PURIFY=       T

 INITIAL GUESS ORBITALS GENERATED BY MOREAD   ROUTINE.

 STATISTICS FOR GENERATION OF SYMMETRY ORBITAL -Q- MATRIX
 NUMBER OF CARTESIAN ATOMIC ORBITALS=         30
 NUMBER OF SPHERICAL CONTAMINANTS DROPPED=     1
 NUMBER OF LINEARLY DEPENDENT MOS DROPPED=     0
 TOTAL NUMBER OF MOS IN VARIATION SPACE=      29
 ORBITAL PURIFICATION WILL OCCUR

 SYMMETRIES FOR INITIAL GUESS ORBITALS FOLLOW.   BOTH SET(S).
     5 ORBITALS ARE OCCUPIED (    1 CORE ORBITALS).
     1=A        2=A        3=A        4=A        5=A        6=A        7=A   
     8=A        9=A       10=A       11=A       12=A       13=A       14=A   
    15=A       16=A       17=A       18=A       19=A       20=A       21=A   
    22=A       23=A       24=A       25=A       26=A       27=A       28=A   
    29=A   
 ...... END OF INITIAL ORBITAL SELECTION ......
 CPU     0: STEP CPU TIME=     0.00 TOTAL CPU TIME=          0.0 (      0.0 MIN)
 TOTAL WALL CLOCK TIME=          0.1 SECONDS, CPU UTILIZATION IS    80.00%

                    ----------------------
                    AO INTEGRAL TECHNOLOGY
                    ----------------------
     S,P,L SHELL ROTATED AXIS INTEGRALS, REPROGRAMMED BY
        KAZUYA ISHIMURA (IMS) AND JOSE SIERRA (SYNSTAR).
     S,P,D,L SHELL ROTATED AXIS INTEGRALS PROGRAMMED BY
        KAZUYA ISHIMURA (INSTITUTE FOR MOLECULAR SCIENCE).
     S,P,D,F,G SHELL TO TOTAL QUARTET ANGULAR MOMENTUM SUM 5,
        ERIC PROGRAM BY GRAHAM FLETCHER (ELORET AND NASA ADVANCED
        SUPERCOMPUTING DIVISION, AMES RESEARCH CENTER).
     S,P,D,F,G,L SHELL GENERAL RYS QUADRATURE PROGRAMMED BY
        MICHEL DUPUIS (PACIFIC NORTHWEST NATIONAL LABORATORY).

          --------------------
          2 ELECTRON INTEGRALS
          --------------------

 DIRECT SCF METHOD SKIPS INTEGRAL STORAGE ON DISK.
 DIRECT TRANSFORMATION SKIPS AO INTEGRAL STORAGE ON DISK.
  ...... END OF TWO-ELECTRON INTEGRALS .....
 STEP CPU TIME =     0.03 TOTAL CPU TIME =          0.1 (      0.0 MIN)
 TOTAL WALL CLOCK TIME=          0.1 SECONDS, CPU UTILIZATION IS   100.00%
 DDI: Creating Array [0] - 900 x 36 = 32400 words.
 DDI: Creating Array [1] - 21 x 288 = 6048 words.
 DDI: Creating Array [2] - 36 x 36 = 1296 words.
 DDI: Creating Array [3] - 465 x 36 = 16740 words.

          -----------------
          MCSCF CALCULATION
          -----------------

 ----- NUCLEAR ENERGY ----- =        11.6191975047

     -------------------------------------------------
     GMC-PT/GMC-QDPT or general MCSCF input parameters
     -------------------------------------------------
 # of frozen core orbs. =         0 ->         0
 # of doubly occ. orbs. =         1
 # of active      orbs. =         7
 # of virtual     orbs. =        21
 # of active electrons  =         7
 # of states in CI      =         3
 Highest state in CI    =         3
 kstate =  1 1 1
 avecoe =  0.333 0.333 0.333
 State symmetry           = A           
 Assigned symmetry number = 1

 <<<Act. MO sym.: 1111111

 <<<Division of 1-ext.:  0
 <<<Division of 2-ext.:  0

 *** Reference space

 Reference type: ORMAS (= Occupation restricted multiple active space)
 # of orbitals          =  7
 # of minimum electrons =  7
 # of maximum electrons =  7
 State symmetry    =    1 (input)
 2*Sz              =    1 (input)
 Spin multiplicity =    2 (input)
 Dimension of reference space =      1225  (from      3432 walks)

 Dimension of reference space =      1225  (from      1225 walks)

 <<<Ionized spaces for Ref-CI:
      0:         1225 /   -1-0:         1960 /  0-1-0:         2891

 EVALUATING EXCHANGE INTEGRALS FOR DIRECT INTEGRAL TRANSFORMATION
 SCHWARZ INEQUALITY OVERHEAD:       465 INTEGRALS, T=        0.00

     --------------------------------------------
     PARTIAL TWO ELECTRON INTEGRAL TRANSFORMATION
     --------------------------------------------

 NUMBER OF CORE MOLECULAR ORBITALS     =    1
 NUMBER OF OCCUPIED MOLECULAR ORBITALS =    8
 TOTAL NUMBER OF MOLECULAR ORBITALS    =   29
 TOTAL NUMBER OF ATOMIC ORBITALS       =   30
 THRESHOLD FOR KEEPING TRANSFORMED 2E- INTEGRALS = 1.000E-09

 -------------------------------     ------------------------------
 DISTRIBUTED DATA TRANSFORMATION     PROGRAM WRITTEN BY G. FLETCHER
 -------------------------------     ------------------------------

 THE DISTRIBUTED MEMORY REQUIRED FOR THIS STEP IS MEMDDI=         1 MWORDS
 CREATING DISTRIBUTED STORAGE FOR [VIR OCC|VIR OCC] INTEGRALS
 CREATING DISTRIBUTED STORAGE FOR [VIR OCC|OCC OCC] INTEGRALS
 CREATING DISTRIBUTED STORAGE FOR [OCC OCC|OCC OCC] INTEGRALS
 CREATING DISTRIBUTED STORAGE FOR [VIR VIR|OCC OCC] INTEGRALS
 FOR    1 PROCESSORS, THE REPLICATED MEMORY NEEDED IS       73700 WORDS.
 SCHWARZ INEQUALITY OVERHEAD:       465 INTEGRALS, T=        0.00

      DIRECT 4-INDEX TRANSFORMATION 
      SCHWARZ INEQUALITY TEST SKIPPED          0 INTEGRAL BLOCKS
 ----- FROZEN CORE ENERGY =       -47.7693420559
 ... END OF INTEGRAL TRANSFORMATION ...
 CPU     0: STEP CPU TIME=     0.22 TOTAL CPU TIME=          0.3 (      0.0 MIN)
 TOTAL WALL CLOCK TIME=          0.3 SECONDS, CPU UTILIZATION IS    96.67%

     --------------------------------     -----------------------------
     MCHF NEWTON-RAPHSON OPTIMIZATION     CODE WRITTEN BY MICHEL DUPUIS
     --------------------------------     -----------------------------
     PARALLEL VERSION WRITTEN BY G. FLETCHER (ELORET)
     NASA ADVANCED SUPERCOMPUTING DIVISION, AMES RESEARCH CENTER

 NUMBER OF INDEPENDENT ORBITAL ROTATION PARAMETERS =   175
 ..... DONE SOLVING NEWTON-RAPHSON EQUATIONS .....
 CPU     0: STEP CPU TIME=     0.85 TOTAL CPU TIME=          1.1 (      0.0 MIN)
 TOTAL WALL CLOCK TIME=          1.2 SECONDS, CPU UTILIZATION IS    99.13%
 ..... DONE WITH NTN-RPH ORBITAL ROTATIONS ..... 
 CPU     0: STEP CPU TIME=     0.00 TOTAL CPU TIME=          1.1 (      0.0 MIN)
 TOTAL WALL CLOCK TIME=          1.2 SECONDS, CPU UTILIZATION IS    99.13%
 MAXIMUM MEMORY USED BY NTN-RPH CODE WAS     57645 WORDS.

 ITER     TOTAL ENERGY      DEL(E)  LAGRANGIAN ASYMMETRY   SQCDF  MICIT   DAMP
   1      -55.666186408 -0.666186408  0.134631   13    3 1.582E-01  1   0.0000
   2      -55.705271742 -0.039085334  0.023630   12    5 4.511E-01  1   0.0000
   3      -55.737993495 -0.032721753  0.012169   11    6 2.132E-01  1   0.0254
   4      -55.751636261 -0.013642767  0.004159   11    6 3.784E-02  1   0.0044
   5      -55.753289829 -0.001653567  0.000724   12    5 1.060E-03  1   0.0000
   6      -55.753336983 -0.000047154  0.000238   12    5 8.432E-05  1   0.0000
   7      -55.753341545 -0.000004562  0.000107   12    5 1.204E-05  1   0.0000
   8      -55.753342242 -0.000000698  0.000047   12    5 1.971E-06  1   0.0000
   9      -55.753342361 -0.000000119  0.000020   12    5 3.601E-07  1   0.0000
  10      -55.753342384 -0.000000022  0.000008   12    5 7.553E-08  1   0.0000
  11      -55.753342388 -0.000000005  0.000003   22    5 1.845E-08  1   0.0000
  12      -55.753342390 -0.000000001  0.000002   22    5 5.156E-09  1   0.0000
  13      -55.753342390 -0.000000000  0.000001   22    5 1.571E-09  1   0.0000
  14      -55.753342390 -0.000000000  0.000001   12    7 5.064E-10  1   0.0000

          --------------------
          LAGRANGIAN CONVERGED
          --------------------

 FINAL MCSCF ENERGY IS      -55.7533423901 AFTER  14 ITERATIONS

 -MCCI- BASED ON OPTIMIZED ORBITALS
 ----------------------------------

 PLEASE NOTE: IF THE ACTIVE ORBITALS ARE CANONICALIZED BELOW,
 THE FOLLOWING CI EXPANSION COEFFICIENTS AND THE DENSITY DO NOT
 CORRESPOND TO THE PRINTED ORBITALS.  THE PRINTED EXPANSIONS MATCH
 THE ORBITALS USED DURING THE LAST ITERATION.  IF YOU WISH TO SEE
 CI EXPANSIONS BASED ON THE CANONICAL (OR NATURAL) ORBITALS, YOU
 MUST RUN A CI CALCULATION WITH THAT ORBITAL CHOICE READ IN $VEC.

 Averaged energy =     -55.753342390

 State #    1  Energy =     -55.894445967  S =  0.500

      Det      Coef    Occupancy (Ignoring core)
      ---      ----    --------- --------- -----
        1    0.944921  11110001110000
        2    0.053565  11101001110000
        5   -0.062062  01111001110000
        8   -0.133679  10110101110000
       17   -0.122665  11010011110000
       36   -0.099576  11110001101000
       71    0.077240  11110001011000
      386    0.110113  11110001010010
      393    0.050459  10110101010010
      701    0.090196  11110001100001
      717    0.070201  11010011100001

 State #    2  Energy =     -55.734967463  S =  0.500

      Det      Coef    Occupancy (Ignoring core)
      ---      ----    --------- --------- -----
        1    0.109621  11110001110000
       36    0.943888  11110001101000
       40   -0.056484  01111001101000
       43   -0.098895  10110101101000
       52   -0.064737  11010011101000
       71   -0.184551  11110001011000
      281    0.054360  11110000101100
      456    0.099599  11110001001010
      463    0.053803  10110101001010

 State #    3  Energy =     -55.630613740  S =  0.500

      Det      Coef    Occupancy (Ignoring core)
      ---      ----    --------- --------- -----
        1   -0.055052  11110001110000
       36    0.193210  11110001101000
       71    0.948637  11110001011000
       78   -0.067226  10110101011000
       87   -0.075192  11010011011000
      316    0.066610  11110000011100
      806   -0.090787  11110001001001
      822   -0.073513  11010011001001

 DENSITY MATRIX OVER ACTIVE MO-S

             1           2           3           4           5

    1    1.9787121
    2   -0.0066599   1.6360526
    3   -0.0082527   0.0000285   1.6355991
    4    0.0028872  -0.0005613  -0.0013537   1.6553236
    5    0.0968252   0.0077296   0.0120479   0.0389464   0.0252857
    6    0.0049725  -0.1536686   0.0033630  -0.0124556  -0.0007903
    7    0.0007615  -0.0033693   0.1297872   0.0159538   0.0027800

             6           7

    6    0.0337555
    7   -0.0010500   0.0352715

 FORMING THE "STANDARD FOCK OPERATOR" IN DIRECT AO INTEGRAL MODE...
 ONLY THE    1 CORE AND   21 VIRTUAL ORBITALS WILL BE CANONICALIZED

          ----------------------
          MCSCF NATURAL ORBITALS
          ----------------------

                      1          2          3          4          5
                  -15.9864     1.9839     1.6566     1.6505     1.6459
                     A          A          A          A          A   
    1  N  1  S    1.001288   0.008616  -0.010834   0.001357   0.001577
    2  N  1  S   -0.001802   0.438232  -0.176348   0.053211   0.040516
    3  N  1  S   -0.006348   0.292888  -0.278688   0.073396   0.060399
    4  N  1  X    0.000067  -0.019291   0.098752   0.471255   0.087988
    5  N  1  Y   -0.000024  -0.018247   0.031114  -0.083918   0.512482
    6  N  1  Z    0.001156   0.095864   0.588021  -0.077612  -0.021320
    7  N  1  X   -0.000027   0.001466   0.057655   0.170987   0.045569
    8  N  1  Y   -0.000040   0.002946   0.030722  -0.028720   0.252353
    9  N  1  Z   -0.000454   0.007450   0.382209  -0.037644   0.002778
   10  N  1 XX    0.000338   0.000828  -0.011043   0.007865   0.004702
   11  N  1 YY   -0.000144  -0.001817  -0.012946  -0.004176  -0.003578
   12  N  1 ZZ   -0.000193   0.000989   0.023989  -0.003689  -0.001124
   13  N  1 XY   -0.000160  -0.000362  -0.000689  -0.001540  -0.014258
   14  N  1 XZ   -0.000077  -0.001502   0.002663   0.023044   0.004892
   15  N  1 YZ   -0.000081  -0.000439  -0.000620  -0.003070   0.025056
   16  H  2  S   -0.001905   0.184400   0.080356  -0.272763   0.262083
   17  H  2  S    0.000454   0.001059   0.024251  -0.034885   0.054976
   18  H  2  X   -0.000652   0.024291   0.010165  -0.009331   0.026951
   19  H  2  Y    0.000711  -0.024668  -0.009570   0.028803  -0.004949
   20  H  2  Z    0.000440  -0.008231   0.020729   0.009774  -0.012744
   21  H  3  S   -0.001962   0.205748   0.083524  -0.158827  -0.349980
   22  H  3  S    0.000339   0.006752   0.020465  -0.020110  -0.070752
   23  H  3  X   -0.000556   0.021812   0.010759   0.009268  -0.022541
   24  H  3  Y   -0.000746   0.027759   0.013936  -0.022550  -0.016645
   25  H  3  Z    0.000486  -0.013493   0.020178   0.005545   0.018840
   26  H  4  S   -0.002069   0.180831   0.153403   0.353824   0.040213
   27  H  4  S    0.000586   0.000278   0.030775   0.041058   0.010993
   28  H  4  X    0.001070  -0.036317  -0.019379  -0.033207   0.001612
   29  H  4  Y   -0.000121   0.003986   0.003247   0.004102   0.019994
   30  H  4  Z    0.000407  -0.005248   0.017179  -0.018049  -0.002634

                      6          7          8
                    0.0253     0.0193     0.0185
                     A          A          A   
    1  N  1  S    0.075809  -0.197121  -0.142922
    2  N  1  S    0.237836  -0.645836  -0.439586
    3  N  1  S   -0.009326  -0.167965  -0.035663
    4  N  1  X    0.204233   0.508895  -0.765566
    5  N  1  Y    0.792184   0.079619   0.332023
    6  N  1  Z    0.091048  -0.608259  -0.289150
    7  N  1  X    0.000666   0.071431  -0.053670
    8  N  1  Y    0.000254   0.019915   0.031171
    9  N  1  Z   -0.023649   0.078127   0.054670
   10  N  1 XX   -0.018597   0.026626  -0.009072
   11  N  1 YY    0.017305  -0.034614   0.009753
   12  N  1 ZZ    0.001292   0.007988  -0.000682
   13  N  1 XY    0.035189  -0.001446  -0.016876
   14  N  1 XZ   -0.002257  -0.046269   0.033840
   15  N  1 YZ   -0.022124  -0.012589  -0.024476
   16  H  2  S   -0.600892   0.555543  -0.273268
   17  H  2  S   -0.123415   0.074495  -0.077002
   18  H  2  X   -0.051926   0.034306  -0.000579
   19  H  2  Y    0.029488  -0.065999   0.017340
   20  H  2  Z    0.007768   0.019713  -0.000909
   21  H  3  S    0.569227   0.647350   0.141974
   22  H  3  S    0.137964   0.091911   0.015461
   23  H  3  X    0.027043   0.025601   0.040582
   24  H  3  Y    0.023852   0.075288   0.004945
   25  H  3  Z   -0.015971   0.008502  -0.000134
   26  H  4  S   -0.295762   0.089340   0.840875
   27  H  4  S   -0.046954  -0.019101   0.137999
   28  H  4  X    0.026898  -0.028514  -0.089977
   29  H  4  Y   -0.018874   0.001036   0.006178
   30  H  4  Z    0.003407   0.006153   0.013741

          ------------------------
          MCSCF OPTIMIZED ORBITALS
          ------------------------

                      1          2          3          4          5
                  -15.9864     0.0000     0.0000     0.0000     0.0000
                     A          A          A          A          A   
    1  N  1  S    1.001288  -0.003517  -0.005365  -0.001834  -0.017229
    2  N  1  S   -0.001802   0.401939   0.009543   0.009870  -0.197416
    3  N  1  S   -0.006348   0.290663   0.039134   0.038024  -0.287054
    4  N  1  X    0.000067  -0.004558   0.397682   0.022156   0.022952
    5  N  1  Y   -0.000024  -0.005995   0.003336   0.449523   0.013876
    6  N  1  Z    0.001156   0.053091   0.002004  -0.000905   0.579328
    7  N  1  X   -0.000027   0.007114   0.173881   0.022226   0.031961
    8  N  1  Y   -0.000040   0.009858   0.013827   0.252731   0.024702
    9  N  1  Z   -0.000454   0.006901   0.019363   0.016436   0.385630
   10  N  1 XX    0.000338   0.002422   0.005289   0.004910  -0.011585
   11  N  1 YY   -0.000144  -0.003343  -0.004491  -0.004726  -0.012810
   12  N  1 ZZ   -0.000193   0.000920  -0.000798  -0.000184   0.024395
   13  N  1 XY   -0.000160  -0.001523  -0.005679  -0.016173  -0.000714
   14  N  1 XZ   -0.000077  -0.002330   0.028328   0.000899  -0.001007
   15  N  1 YZ   -0.000081  -0.000648  -0.000559   0.027398  -0.001415
   16  H  2  S   -0.001905   0.210351  -0.254179   0.348935   0.123880
   17  H  2  S    0.000454   0.004624  -0.029694   0.071121   0.028679
   18  H  2  X   -0.000652   0.026699  -0.004709   0.031651   0.011970
   19  H  2  Y    0.000711  -0.026989   0.030071  -0.011470  -0.014895
   20  H  2  Z    0.000440  -0.007848   0.009762  -0.013953   0.019739
   21  H  3  S   -0.001962   0.217619  -0.223673  -0.371306   0.125110
   22  H  3  S    0.000339   0.007164  -0.032278  -0.077475   0.025487
   23  H  3  X   -0.000556   0.022870   0.008659  -0.026837   0.011147
   24  H  3  Y   -0.000746   0.029851  -0.026132  -0.015336   0.018878
   25  H  3  Z    0.000486  -0.012594   0.011166   0.019708   0.018612
   26  H  4  S   -0.002069   0.209864   0.440688  -0.009295   0.121802
   27  H  4  S    0.000586   0.003323   0.059103   0.005912   0.026696
   28  H  4  X    0.001070  -0.039904  -0.040979   0.006812  -0.017326
   29  H  4  Y   -0.000121   0.004892   0.008075   0.020401   0.002286
   30  H  4  Z    0.000407  -0.005344  -0.014628  -0.000061   0.019749

                      6          7          8          9         10
                    0.0000     0.0000     0.0000     0.1506     0.1993
                     A          A          A          A          A   
    1  N  1  S    0.251027   0.041757   0.011251  -0.150656  -0.009076
    2  N  1  S    0.824798   0.110628   0.035747  -0.231821  -0.021196
    3  N  1  S    0.168058  -0.053009  -0.033777   1.503853   0.007406
    4  N  1  X   -0.057271   0.981953   0.004799   0.022810   0.109798
    5  N  1  Y   -0.037248  -0.062106   0.898643   0.022501  -0.039766
    6  N  1  Z    0.694167  -0.026130  -0.048139  -0.223075  -0.026035
    7  N  1  X   -0.036204   0.097204  -0.007920  -0.113413  -0.741009
    8  N  1  Y   -0.027955  -0.015689   0.032072  -0.070902   0.095523
    9  N  1  Z   -0.087731  -0.008919   0.006000   0.511549   0.076895
   10  N  1 XX   -0.023390   0.016825  -0.017926   0.067387  -0.059409
   11  N  1 YY    0.029142  -0.021703   0.015994  -0.020960   0.048620
   12  N  1 ZZ   -0.005752   0.004878   0.001932  -0.046427   0.010789
   13  N  1 XY    0.016258   0.021139   0.026900  -0.027470   0.017483
   14  N  1 XZ    0.024858  -0.049088   0.004257  -0.034494  -0.108687
   15  N  1 YZ    0.017033   0.009440  -0.027426  -0.024844   0.007093
   16  H  2  S   -0.481329   0.340919  -0.577980   0.306515   0.210008
   17  H  2  S   -0.056854   0.070658  -0.128568  -0.920894  -0.845807
   18  H  2  X   -0.039291   0.004873  -0.043963  -0.090128  -0.023300
   19  H  2  Y    0.054726  -0.037323   0.026576   0.043854   0.045108
   20  H  2  Z   -0.015031   0.013284   0.007844   0.030198   0.067130
   21  H  3  S   -0.490971   0.305387   0.612402   0.192884   0.269306
   22  H  3  S   -0.056173   0.060516   0.137960  -0.732353  -0.976363
   23  H  3  X   -0.033023  -0.014834   0.038289  -0.085016  -0.007297
   24  H  3  Y   -0.060817   0.035600   0.029671  -0.052604  -0.045231
   25  H  3  Z   -0.010853   0.001802  -0.012773   0.051915   0.050881
   26  H  4  S   -0.499512  -0.694696  -0.016780   0.318123  -0.531216
   27  H  4  S   -0.053603  -0.131263  -0.003463  -0.868279   1.881278
   28  H  4  X    0.068021   0.064587  -0.003943   0.107880  -0.097436
   29  H  4  Y   -0.007314  -0.008315  -0.014328  -0.013307   0.019354
   30  H  4  Z   -0.010547  -0.009099   0.008188  -0.001308  -0.077630

                     11         12         13         14         15
                    0.2095     0.5404     0.5831     0.6336     0.8007
                     A          A          A          A          A   
    1  N  1  S    0.022579  -0.054774  -0.008239  -0.078744  -0.227881
    2  N  1  S    0.043337  -0.049798  -0.101560  -0.280672  -0.520332
    3  N  1  S   -0.157115   0.480380  -0.338173  -0.086310   0.948632
    4  N  1  X    0.038556  -0.295249   0.219382  -0.325439   0.079566
    5  N  1  Y   -0.021854  -0.484307  -0.390812   0.031881  -0.032283
    6  N  1  Z    0.036047  -0.369230   0.357519   0.461695   0.178705
    7  N  1  X   -0.108233   0.861695  -0.850807   1.560288  -0.446094
    8  N  1  Y    0.494407   1.154307   1.269369  -0.083385   0.179747
    9  N  1  Z   -0.101180   0.505998  -0.618137  -0.843941  -0.032058
   10  N  1 XX    0.008162  -0.015537   0.065308   0.025093  -0.096033
   11  N  1 YY   -0.005507  -0.002050  -0.033735   0.018154   0.142674
   12  N  1 ZZ   -0.002655   0.017587  -0.031573  -0.043247  -0.046641
   13  N  1 XY   -0.092132  -0.017937   0.017781  -0.020197  -0.056615
   14  N  1 XZ   -0.005671   0.021161  -0.009111  -0.044172   0.091222
   15  N  1 YZ    0.081016   0.029342   0.001169  -0.007876  -0.049456
   16  H  2  S    0.530019  -0.318764  -0.274032   0.716485  -0.072800
   17  H  2  S   -1.743507  -0.488092  -0.781326   0.220144  -0.335700
   18  H  2  X   -0.048831   0.006499  -0.178208   0.087200   0.084818
   19  H  2  Y    0.047630   0.068279  -0.017804  -0.066600   0.446254
   20  H  2  Z    0.036957   0.077672   0.003896   0.018725  -0.194893
   21  H  3  S   -0.543239   0.189744   0.473468   0.649290   0.019110
   22  H  3  S    1.857061   0.862247   0.440853   0.259808  -0.171423
   23  H  3  X    0.056624   0.112301  -0.056150   0.022850   0.284688
   24  H  3  Y    0.062884   0.047014   0.084969   0.072880  -0.396112
   25  H  3  Z   -0.046696  -0.059525  -0.073505  -0.008042  -0.044797
   26  H  4  S    0.029220  -0.486921   0.653862  -0.224002   0.057769
   27  H  4  S    0.019341  -0.532761   0.329369  -0.754630  -0.050694
   28  H  4  X   -0.025836   0.074315  -0.054703   0.168827  -0.105733
   29  H  4  Y   -0.039431   0.007400   0.116670  -0.057704  -0.145949
   30  H  4  Z   -0.015356   0.068962  -0.041326  -0.091305   0.240702

                     16         17         18         19         20
                    0.9676     1.0110     1.3075     1.4469     1.5079
                     A          A          A          A          A   
    1  N  1  S   -0.519815  -0.162113  -0.026417  -0.433715  -0.390847
    2  N  1  S   -1.102877  -0.342134  -0.054319  -0.903766  -0.797549
    3  N  1  S    2.218250   0.838068   0.093353   1.613285   1.620194
    4  N  1  X    0.055579   0.000927  -0.158722  -0.002991   0.004301
    5  N  1  Y    0.031064   0.065325   0.131547   0.007386  -0.079396
    6  N  1  Z    0.159170   0.055035  -0.009019  -0.031108  -0.004424
    7  N  1  X   -0.236144  -0.028376   0.727687   0.565632  -0.690314
    8  N  1  Y   -0.158498  -0.422312  -0.386715   0.094726  -0.282008
    9  N  1  Z   -0.059129   0.252416   0.007363   0.641328   0.743127
   10  N  1 XX   -0.072876   0.017408   0.058159   0.097911   0.085933
   11  N  1 YY   -0.148605   0.051797  -0.048828   0.130401   0.015190
   12  N  1 ZZ    0.221481  -0.069206  -0.009330  -0.228312  -0.101123
   13  N  1 XY   -0.005684   0.173723   0.038850  -0.007492  -0.007997
   14  N  1 XZ    0.014550   0.045281   0.009841  -0.023666   0.048250
   15  N  1 YZ    0.025409   0.247852  -0.034881  -0.014626   0.093479
   16  H  2  S   -0.354994  -0.019273   0.370777  -0.319493  -0.573479
   17  H  2  S   -0.280403  -0.003422   0.124608  -0.059429  -0.086244
   18  H  2  X   -0.023432   0.171102  -0.601419  -0.258641   0.094279
   19  H  2  Y   -0.114527   0.140577  -0.184095  -0.254116   0.068956
   20  H  2  Z    0.353903   0.251496  -0.345451  -0.375472  -0.332674
   21  H  3  S   -0.424610  -0.243127  -0.020231  -0.304191  -0.635520
   22  H  3  S   -0.312218  -0.221575   0.015432  -0.073363  -0.339132
   23  H  3  X   -0.007024  -0.286358   0.244886  -0.429579   0.168941
   24  H  3  Y    0.155705  -0.214292  -0.053590   0.098722  -0.126644
   25  H  3  Z    0.331924  -0.447778   0.001573  -0.435969   0.355536
   26  H  4  S   -0.245014  -0.145030  -0.383943  -0.664408  -0.202261
   27  H  4  S   -0.298921  -0.128032  -0.182592  -0.280085   0.022708
   28  H  4  X   -0.014801   0.153588  -0.103472  -0.178613   0.202994
   29  H  4  Y    0.006911   0.447245   0.582701  -0.442856   0.296340
   30  H  4  Z    0.288942   0.034648   0.301302  -0.008565  -0.794709

                     21         22         23         24         25
                    1.6131     1.8553     1.8943     2.0144     2.1660
                     A          A          A          A          A   
    1  N  1  S   -0.095370  -0.068572  -0.035708   0.110630   0.096302
    2  N  1  S   -0.195491  -0.133751  -0.051091   0.347335   0.196456
    3  N  1  S    0.333982   0.437067   0.289969   1.539108  -0.298836
    4  N  1  X    0.073034   0.420129  -0.468302  -0.056571  -0.144186
    5  N  1  Y    0.214717   0.189674   0.298727  -0.098193  -0.021883
    6  N  1  Z   -0.023074  -0.035468   0.039276   0.345151   0.020550
    7  N  1  X   -0.522306   0.053673  -0.071102   0.093187  -0.029951
    8  N  1  Y    0.571363  -0.243215  -0.070287   0.176959   0.040839
    9  N  1  Z    0.137115   0.157337   0.139329   0.615967  -0.420565
   10  N  1 XX    0.032555  -0.122176   0.155211  -0.227969  -0.091025
   11  N  1 YY    0.069262   0.237674  -0.213165  -0.009630   0.864782
   12  N  1 ZZ   -0.101817  -0.115498   0.057954   0.237599  -0.773758
   13  N  1 XY    0.045332   0.162857   0.185591   0.065395   0.150424
   14  N  1 XZ    0.020141  -0.120702   0.123360   0.078692   0.352363
   15  N  1 YZ   -0.189534  -0.034190  -0.100396   0.202527   0.230199
   16  H  2  S   -0.290999  -0.046793  -0.038700  -0.397043   0.087228
   17  H  2  S   -0.344100  -0.143344  -0.442569  -0.291305  -0.039263
   18  H  2  X   -0.347417  -0.034016  -0.356606  -0.806489  -0.188146
   19  H  2  Y   -0.235415   0.373012   0.863181   0.202273  -0.193382
   20  H  2  Z    0.591703  -0.263596   0.245235  -0.016790   0.386050
   21  H  3  S   -0.157413  -0.227853  -0.094915  -0.351707   0.116658
   22  H  3  S    0.220536   0.367551   0.103122  -0.191205  -0.057137
   23  H  3  X    0.642587   0.191435  -0.161831  -0.459388  -0.066319
   24  H  3  Y   -0.183249   0.804003   0.331833  -0.507748   0.204198
   25  H  3  Z   -0.430843  -0.139792   0.032051   0.223887   0.626935
   26  H  4  S    0.159447  -0.078008  -0.082810  -0.415433   0.159419
   27  H  4  S    0.043693  -0.384170   0.217689  -0.332068   0.128377
   28  H  4  X    0.122099   0.658614  -0.475726   0.769859  -0.214813
   29  H  4  Y   -0.244727   0.005644  -0.071332  -0.377249  -0.014746
   30  H  4  Z   -0.320685   0.210761  -0.367187  -0.100729   0.104995

                     26         27         28         29
                    2.3345     2.5739     2.7224     2.9766
                     A          A          A          A   
    1  N  1  S    0.051443  -0.045215   0.048915  -0.022372
    2  N  1  S    0.072918   0.057176   0.101036  -0.093478
    3  N  1  S   -0.603050   2.163820   0.074482  -0.559074
    4  N  1  X    0.082090  -0.089734   0.550772  -0.304006
    5  N  1  Y    0.009463  -0.189496  -0.267162  -0.446815
    6  N  1  Z   -0.067461   0.326452   0.023172  -0.054947
    7  N  1  X   -0.027045  -0.491092   1.319345  -0.502439
    8  N  1  Y    0.418430  -0.456114  -0.600922  -0.714965
    9  N  1  Z   -0.284944   0.511477  -0.046840   0.017479
   10  N  1 XX    0.510272   0.824774   0.550344  -0.747738
   11  N  1 YY   -0.428441  -0.122575  -0.463629   0.389923
   12  N  1 ZZ   -0.081831  -0.702199  -0.086715   0.357816
   13  N  1 XY    0.660433   0.040454   0.383939   1.202212
   14  N  1 XZ   -0.166481  -0.645175   1.076468  -0.369013
   15  N  1 YZ    0.712052  -0.504503  -0.518799  -0.656087
   16  H  2  S    0.092635  -0.638384   1.058493   0.835244
   17  H  2  S   -0.001637  -0.101657   0.427456   0.274967
   18  H  2  X    0.084538  -0.021338   0.610512   0.510286
   19  H  2  Y   -0.049195   0.425393  -0.482222  -0.517623
   20  H  2  Z   -0.234553   0.313722  -0.222990  -0.434202
   21  H  3  S    0.312483  -1.172235   0.064977  -1.068291
   22  H  3  S    0.184757  -0.451689  -0.005219  -0.370635
   23  H  3  X    0.590964  -0.360665  -0.131058  -0.523766
   24  H  3  Y   -0.070695  -0.673139   0.054280  -0.635634
   25  H  3  Z    0.151832   0.511425   0.050074   0.455299
   26  H  4  S    0.167165  -0.578519  -1.202053   0.878994
   27  H  4  S    0.027390  -0.114640  -0.473212   0.268827
   28  H  4  X   -0.158467   0.429607   0.880571  -0.676436
   29  H  4  Y   -0.590596   0.056893  -0.199871   0.049262
   30  H  4  Z    0.217328   0.465109   0.200717  -0.370511
 .....DONE WITH MCSCF ITERATIONS.....
 CPU     0: STEP CPU TIME=     8.67 TOTAL CPU TIME=          9.8 (      0.2 MIN)
 TOTAL WALL CLOCK TIME=          9.8 SECONDS, CPU UTILIZATION IS    99.90%

     ----------------------------------------------------------------
     PROPERTY VALUES FOR THE MCSCF SELF-CONSISTENT FIELD WAVEFUNCTION
     ----------------------------------------------------------------

          -----------------
          ENERGY COMPONENTS
          -----------------

         WAVEFUNCTION NORMALIZATION =       1.0000000000

                ONE ELECTRON ENERGY =     -94.6661673181
                TWO ELECTRON ENERGY =      27.2936274234
           NUCLEAR REPULSION ENERGY =      11.6191975047
                                      ------------------
                       TOTAL ENERGY =     -55.7533423901

 ELECTRON-ELECTRON POTENTIAL ENERGY =      27.2936274234
  NUCLEUS-ELECTRON POTENTIAL ENERGY =    -150.5443954618
   NUCLEUS-NUCLEUS POTENTIAL ENERGY =      11.6191975047
                                      ------------------
             TOTAL POTENTIAL ENERGY =    -111.6315705337
               TOTAL KINETIC ENERGY =      55.8782281436
                 VIRIAL RATIO (V/T) =       1.9977650373

          ---------------------------------------
          MULLIKEN AND LOWDIN POPULATION ANALYSES
          ---------------------------------------

     ATOMIC MULLIKEN POPULATION IN EACH MOLECULAR ORBITAL

                      1          2          3          4          5

                  2.000000   1.983883   1.656558   1.650541   1.645888

    1             2.000960   1.310600   1.538031   0.920727   1.065528
    2            -0.000287   0.210940   0.023088   0.239451   0.212722
    3            -0.000329   0.261417   0.028376   0.085447   0.354539
    4            -0.000343   0.200926   0.067063   0.404917   0.013099

                      6          7          8

                  0.025328   0.019308   0.018494

    1             0.012289   0.010441   0.009785
    2             0.006267   0.003848   0.000716
    3             0.005256   0.005000   0.000205
    4             0.001516   0.000019   0.007788
 WARNING! MCSCF POPULATIONS SHOWN ABOVE ARE FOR THE NATURAL ORBITALS.
 IGNORE THE ABOVE DATA FOR MCSCF FUNCTIONS WHICH ARE NOT OF -FORS- TYPE.
 THE FOLLOWING POPULATIONS ARE CORRECT FOR ANY MCSCF WAVEFUNCTION.

               ----- POPULATIONS IN EACH AO -----
                             MULLIKEN      LOWDIN
              1  N  1  S      2.00266     1.89570
              2  N  1  S      0.82589     0.57622
              3  N  1  S      0.63452     0.39315
              4  N  1  X      0.66894     0.58725
              5  N  1  Y      0.71156     0.64642
              6  N  1  Z      0.88429     0.82681
              7  N  1  X      0.25620     0.37745
              8  N  1  Y      0.34701     0.42071
              9  N  1  Z      0.51880     0.55564
             10  N  1 XX      0.00055     0.17937
             11  N  1 YY      0.00155     0.15494
             12  N  1 ZZ      0.00387     0.14207
             13  N  1 XY      0.00663     0.01297
             14  N  1 XZ      0.00590     0.01336
             15  N  1 YZ      0.00000     0.01022
             16  H  2  S      0.60129     0.46535
             17  H  2  S      0.03830     0.14377
             18  H  2  X      0.02162     0.03903
             19  H  2  Y      0.02147     0.03937
             20  H  2  Z      0.01406     0.03558
             21  H  3  S      0.63517     0.49065
             22  H  3  S      0.04520     0.14208
             23  H  3  X      0.01801     0.03182
             24  H  3  Y      0.02409     0.04449
             25  H  3  Z      0.01745     0.04208
             26  H  4  S      0.60771     0.47357
             27  H  4  S      0.02943     0.14249
             28  H  4  X      0.03633     0.06046
             29  H  4  Y      0.00868     0.02170
             30  H  4  Z      0.01283     0.03531

          ----- MULLIKEN ATOMIC OVERLAP POPULATIONS -----
          (OFF-DIAGONAL ELEMENTS NEED TO BE MULTIPLIED BY 2)

             1           2           3           4

    1    5.9456541
    2    0.3009165   0.4091396
    3    0.3044298  -0.0073495   0.4479674
    4    0.3173593  -0.0059615  -0.0051366   0.3887228

          TOTAL MULLIKEN AND LOWDIN ATOMIC POPULATIONS
       ATOM         MULL.POP.    CHARGE          LOW.POP.     CHARGE
    1 N             6.868360    0.131640         6.792254    0.207746
    2 H             0.696745    0.303255         0.723092    0.276908
    3 H             0.739911    0.260089         0.751130    0.248870
    4 H             0.694984    0.305016         0.733525    0.266475

          MULLIKEN SPHERICAL HARMONIC POPULATIONS
       ATOM           S       P       D      F      G      H      I    TOTAL
    1 N             3.46    3.39    0.02   0.00   0.00   0.00   0.00    6.87
    2 H             0.64    0.06    0.00   0.00   0.00   0.00   0.00    0.70
    3 H             0.68    0.06    0.00   0.00   0.00   0.00   0.00    0.74
    4 H             0.64    0.06    0.00   0.00   0.00   0.00   0.00    0.69

          ---------------------
          ELECTROSTATIC MOMENTS
          ---------------------

 POINT   1           X           Y           Z (BOHR)    CHARGE
                -0.000002   -0.000001   -0.177185        1.00 (A.U.)
         DX          DY          DZ         /D/  (DEBYE)
    -0.322184   -0.207941    2.148594    2.182543
 ...... END OF PROPERTY EVALUATION ......
 CPU     0: STEP CPU TIME=     0.01 TOTAL CPU TIME=          9.8 (      0.2 MIN)
 TOTAL WALL CLOCK TIME=          9.8 SECONDS, CPU UTILIZATION IS    99.90%

     -------------------------------------------------
     GMC-PT/GMC-QDPT or general MCSCF input parameters
     -------------------------------------------------
 # of frozen core orbs. =         0 ->         0
 # of doubly occ. orbs. =         1
 # of active      orbs. =         7
 # of virtual     orbs. =        21
 # of active electrons  =         7
 # of states in CI      =         3
 Highest state in CI    =         3
 kstate =  1 1 1
 avecoe =  0.333 0.333 0.333
 State symmetry           = A           
 Assigned symmetry number = 1

 <<<Act. MO sym.: 1111111

 <<<Division of 1-ext.:  0
 <<<Division of 2-ext.:  0

     ------------------------
     Orbital canonicalization
     ------------------------

 MOs are canonicalized for core, virtual, and invariant-active orbital spaces.
 This is a part of the GMC-QDPT calculation.
 SCHWARZ INEQUALITY OVERHEAD:       465 INTEGRALS, T=        0.00
 DIRECT TRANSFORMATION SKIPS AO INTEGRAL STORAGE ON DISK.

 Averaged energy =     -55.753342390

 State #    1  Energy =     -55.894445967  S =  0.500
 State #    2  Energy =     -55.734967463  S =  0.500
 State #    3  Energy =     -55.630613740  S =  0.500

 Orbital energies for filled orbital space
  -15.986428
 Orbital energies for active orbital space
   -1.528598  -0.985578  -0.876244  -0.754198   0.396375
    0.418032   0.273432
 Orbital energies for external orbital space
    0.150612   0.199256   0.209452   0.540380   0.583146
    0.633589   0.800683   0.967567   1.011039   1.307473
    1.446858   1.507891   1.613058   1.855327   1.894281
    2.014382   2.166039   2.334475   2.573878   2.722363
    2.976606

 Zero values mean non-canonical orbitals.
 ... done with orbital canonicalization ...
 CPU     0: STEP CPU TIME=     0.57 TOTAL CPU TIME=         10.4 (      0.2 MIN)
 TOTAL WALL CLOCK TIME=         10.4 SECONDS, CPU UTILIZATION IS    99.81%

     --------------------------------------------
     PARTIAL TWO ELECTRON INTEGRAL TRANSFORMATION
     --------------------------------------------

 NUMBER OF CORE MOLECULAR ORBITALS     =    0
 NUMBER OF OCCUPIED MOLECULAR ORBITALS =    8
 TOTAL NUMBER OF MOLECULAR ORBITALS    =   29
 TOTAL NUMBER OF ATOMIC ORBITALS       =   30
 THRESHOLD FOR KEEPING TRANSFORMED 2E- INTEGRALS = 1.000E-09
 AO INTEGRALS WILL BE CALCULATED IN DIRECT MODE...
 DIRECT TRANSFORMATION SKIPS AO INTEGRAL STORAGE ON DISK.
 SCHWARZ INEQUALITY OVERHEAD:       465 INTEGRALS, T=        0.00

 PLAN A: REQUIREMENTS FOR FULLY IN-MEMORY TRANSFORMATION:
 # OF WORDS AVAILABLE =            100000000
 # OF WORDS NEEDED    =               221798

 PARALLEL ONLY WORKS WITH THE SEGMENTED ALGORITHM.
 ADJUSTING MEMORY TO USE SEGMENTED ALGORITHM.


 PLAN B: REQUIREMENTS FOR THE SEGMENTED TRANSFORMATION:
       MINIMUM=         124148 WORDS FOR 1 MOLECULAR ORBITAL PER PASS
       MAXIMUM=         221798 WORDS FOR ALL MOLECULAR ORBITALS IN 1 PASS
              (          13950 EXTRA WORDS INCLUDES 1 EXTRA ORBITAL/PASS)
 THIS RUN USES=         221798 WORDS,
 DISTRIBUTING   1 PASSES EACH CONTAINING     8 ORBITALS OVER   1 PROCESSORS.

 CHOOSING SEGMENTED PARTIAL TRANSFORMATION...
 DIRECT TRANSFORMATION SKIPS AO INTEGRAL STORAGE ON DISK.
 PASS #   1 TOOK        0.04 SECONDS.
 TOTAL NUMBER OF TRANSFORMED 2E- INTEGRALS KEPT =        29226
 ... END OF INTEGRAL TRANSFORMATION ...
 CPU     0: STEP CPU TIME=     0.04 TOTAL CPU TIME=         10.4 (      0.2 MIN)
 TOTAL WALL CLOCK TIME=         10.5 SECONDS, CPU UTILIZATION IS    99.81%

     --------     ------------------------------------------
     GMC-QDPT     Program written by H.Nakano (Kyushu Univ.)
     --------     ------------------------------------------

 *** Reference space

 Reference type: ORMAS (= Occupation restricted multiple active space)
 # of orbitals          =  7
 # of minimum electrons =  7
 # of maximum electrons =  7
 State symmetry    =    1 (input)
 2*Sz              =    1 (input)
 Spin multiplicity =    2 (input)
 Dimension of reference space =      1225  (from      3432 walks)

 Dimension of reference space =      1225  (from      1225 walks)

 <<<Ionized spaces for Ref-CI:
      0:         1225 /   -1-0:         1960 /  0-1-0:         2891

 ***                    ***
 *** Reference space CI ***
 ***                    ***

 Converged after   30 iterations

 Reference wavefunctions:

 State #    1  Energy =     -55.894445967  S =  0.500

      Det      Coef    Occupancy (Ignoring core)
      ---      ----    --------- --------- -----
        1    0.978725  11110001110000
      393    0.063006  10110101010010
      717    0.072277  11010011100001

 State #    2  Energy =     -55.734967463  S =  0.500

      Det      Coef    Occupancy (Ignoring core)
      ---      ----    --------- --------- -----
       36    0.983509  11110001101000
      463    0.062932  10110101001010

 State #    3  Energy =     -55.630613740  S =  0.500

      Det      Coef    Occupancy (Ignoring core)
      ---      ----    --------- --------- -----
       71    0.981212  11110001011000
      822   -0.072546  11010011001001

 Davidson method: CPU/Wall time =           0.42 /           0.42 sec.

 Oscillator strength (invalid if E(1)/=E(GS)):
 -----------------------------------------
   State                        f
 -----------------------------------------
     2     F(REF-CI)=        0.0006824959
     3     F(REF-CI)=        0.0012430919
 -----------------------------------------

 Dipole moment matrix elements, x, y, z, in A.U.

 Dimension of ionized spaces for PT:
 (N-2) space:         1715 /  (N-1) space:         2842 /  N space:         2891
 (N+1) space:         2842 /  (N+2) space:         1715

 <<<Ionized spaces for internal:
         0:         1225 /      -1-0:         1960 /     0-1-0:         2891
  -1-0-1-0:         2842 / 0-1-0-1-0:         3381

 Diagonal elements of averaged one-particle density matrix:
       2       3       4       5       6       7       8
  0.9941  0.9890  0.9874  0.9930  0.0107  0.0110  0.0149
  0.9897  0.6614  0.6584  0.6634  0.0087  0.0078  0.0105

 Orbital energies:
 -------- Doubly-occupied orbitals (highest several orbs.) -------
             1
 -1.598643D+01
 -------- Active orbitals ----------------------------------------
             2            3            4            5            6
 -1.528598D+00-9.855777D-01-8.762444D-01-7.541984D-01 3.963749D-01
             7            8
  4.180322D-01 2.734324D-01
 -------- External orbitals (lowest several orbs.) ---------------
             9           10           11           12           13
  1.506119D-01 1.992556D-01 2.094516D-01 5.403801D-01 5.831464D-01
            14           15           16           17           18
  6.335892D-01 8.006834D-01 9.675670D-01 1.011039D+00 1.307473D+00

 *** Quasi-degeneracy checking

 === Det (|Ci| > 1.0D-01 and dE < 5.0D-03)

 # of small denominators (single excitations)
 State       dEmin  dE < 5.0D-03  dE < 5.0D-04  dE < 5.0D-05  dE < 5.0D-06
 ----- ----------- ------------- ------------- ------------- -------------
     1    5.00D-03             0             0             0             0
     2    5.00D-03             0             0             0             0
     3    5.00D-03             0             0             0             0

 # of small denominators (double excitations)
 State       dEmin  dE < 5.0D-03  dE < 5.0D-04  dE < 5.0D-05  dE < 5.0D-06
 ----- ----------- ------------- ------------- ------------- -------------
     1    5.00D-03             0             0             0             0
     2    5.00D-03             0             0             0             0
     3    5.00D-03             0             0             0             0

 *** Zeroth-Order Setup (Granovsky's zeroth-order vectors)
 Zeroth-order effective Hamiltonian
  (= Sum_i e(i)*<I|a+(i)a(i)|J> ):
                   1            2            3
     1 -7.433712D+00
     2  6.812724D-03-7.333226D+00
     3 -1.891798D-03-1.537326D-03-7.216805D+00

 Zeroth-order vectors:
 State #    1
       MC st            1           2           3
       Coeff   -9.977D-01   6.720D-02  -8.207D-03
 State #    2
       MC st            2           1           3
       Coeff   -9.976D-01  -6.708D-02  -1.432D-02
 State #    3
       MC st            3           2           1
       Coeff    9.999D-01  -1.373D-02  -9.150D-03

 *** GMC-QDPT computation

 (Integral reading:  CPU/Wall time =           0.00 /           0.00 sec.)

 One-external:
   0 -ionized terms: CPU/Wall time =           0.03 /           0.03 sec.
 (-1)-ionized terms: CPU/Wall time =           0.09 /           0.09 sec.
 (+1)-ionized terms: CPU/Wall time =           0.02 /           0.02 sec.
 (+1)-ionized terms: CPU/Wall time =           0.01 /           0.01 sec.
 (+2)-ionized terms: CPU/Wall time =           0.00 /           0.00 sec.

 Internal:
 # of macro loops for internal contribution =         1 (input)
 Loop:    1
 Dimension of internal CISD space     =         0  (after screening)
 Space construction: CPU/Wall time =           0.02 /           0.02 sec.
 Internal terms:     CPU/Wall time =           0.00 /           0.00 sec.

 Two-external:
   0 -ionized terms: CPU/Wall time =           0.06 /           0.06 sec.
 (-1)-ionized terms: CPU/Wall time =           1.00 /           0.99 sec.
 (-2)-ionized terms: CPU/Wall time =           0.16 /           0.17 sec.

 Total time:         CPU/Wall time =           1.39 /           1.39 sec.

 ***                  ***
 *** GMC-QDPT Results ***
 ***                  ***

 Diagonal elements of effective Hamiltonian:
 Heff(  1) =   -55.99159183
 Heff(  2) =   -55.84440829
 Heff(  3) =   -55.74163400

 Off-diagonal elements of effective Hamiltonian:
                   1            2
     2 -9.486691D-03
     3 -2.001060D-03-1.462294D-03

 ******** GMC-QDPT energies ********
 ----------------------------------------------------------------------------
   State                        1st order                           2nd order
 ----------------------------------------------------------------------------
     1     E(REF-CI)=      -55.8944459670   E(GMC-QDPT2)=      -55.9922182167
     2     E(REF-CI)=      -55.7349674631   E(GMC-QDPT2)=      -55.8438166855
     3     E(REF-CI)=      -55.6306137401   E(GMC-QDPT2)=      -55.7415992180
 ----------------------------------------------------------------------------

 Excitation energies (invalid if E(1)/=E(GS)):
 ----------------------------------------------------------------------------
   State                        1st order                           2nd order
 ----------------------------------------------------------------------------

     TZ Sorted GMC-PT ENERGIES:
         1      -55.9922182167
         2      -55.8438166855
         3      -55.7415992180
     2     E(REF-CI)=        4.3396334 eV   E(GMC-QDPT2)=        4.0382134 eV
     3     E(REF-CI)=        7.1792443 eV   E(GMC-QDPT2)=        6.8196938 eV
 ----------------------------------------------------------------------------

 Main characters of perturbed GMC-QDPT states:

 State #    1  Energy =     -55.992218217  S =  0.500

      Det      Coef    Occupancy (Ignoring core)
      ---      ----    --------- --------- -----
        1    0.978817  11110001110000
      393    0.062998  10110101010010
      717    0.072257  11010011100001

 State #    2  Energy =     -55.843816686  S =  0.500

      Det      Coef    Occupancy (Ignoring core)
      ---      ----    --------- --------- -----
       36    0.983601  11110001101000
      463    0.062933  10110101001010

 State #    3  Energy =     -55.741599218  S =  0.500

      Det      Coef    Occupancy (Ignoring core)
      ---      ----    --------- --------- -----
       71    0.981220  11110001011000
      822   -0.072549  11010011001001

 <<<Max |V/de| = 2.224D-02  Thresh = 1.000D+00

 Oscillator strength (invalid if E(1)/=E(GS)):
 ----------------------------------------------------------------------------
   State                        1st order                           2nd order
 ----------------------------------------------------------------------------
     2     F(REF-CI)=        0.0006824959     F(GMC-PT2)=        0.0006585373
     3     F(REF-CI)=        0.0012430919     F(GMC-PT2)=        0.0012044820
 ----------------------------------------------------------------------------

 Dipole moment matrix elements, x, y, z, in A.U.
States    1    1       -0.1645907700       -0.0998001778        0.7551985854
States    1    2       -0.0151293399       -0.0266040372        0.0756282589
States    1    3       -0.0706634981        0.0229012579       -0.0411247492
States    2    1       -0.0151293399       -0.0266040372        0.0756282589
States    2    2        0.0275880390       -0.0935302424        0.2646493057
States    2    3        0.1336892703       -0.1862230984        0.0014424167
States    3    1       -0.0706634981        0.0229012579       -0.0411247492
States    3    2        0.1336892703       -0.1862230984        0.0014424167
States    3    3       -0.4251381105       -0.1895017155        0.2563790807

 Oscillator strength (valid only when positive): 
 ----------------------------------------------------------------------------
  States                        1st order                           2nd order
 ----------------------------------------------------------------------------
  1  1     F(REF-CI)=        0.0000000000     F(GMC-PT2)=        0.0000000000
  1  2     F(REF-CI)=       -0.0006824959     F(GMC-PT2)=       -0.0006585373
  1  3     F(REF-CI)=       -0.0012430919     F(GMC-PT2)=       -0.0012044820
  2  1     F(REF-CI)=        0.0006824959     F(GMC-PT2)=        0.0006585373
  2  2     F(REF-CI)=        0.0000000000     F(GMC-PT2)=        0.0000000000
  2  3     F(REF-CI)=       -0.0036665026     F(GMC-PT2)=       -0.0035812874
  3  1     F(REF-CI)=        0.0012430919     F(GMC-PT2)=        0.0012044820
  3  2     F(REF-CI)=        0.0036665026     F(GMC-PT2)=        0.0035812874
  3  3     F(REF-CI)=        0.0000000000     F(GMC-PT2)=        0.0000000000
 CPU     0: STEP CPU TIME=     1.88 TOTAL CPU TIME=         12.3 (      0.2 MIN)
 TOTAL WALL CLOCK TIME=         12.3 SECONDS, CPU UTILIZATION IS    99.84%

     !!! DIABATIZATION FOR REF CI STATES !!!

 *******************************************************
          $DMO GROUP FOUND IN THE INPUT.
        DIABATIZATION OF ADIABATIC STATES BEGINS.
     PROGRAMMED BY TAO ZENG (CARLETON UNIVERSITY).
               Email: toby.zeng@carleton.ca
     See T. Zeng, J. Chem. Phys. 2017, 146, 144103
 *******************************************************

 *************************************************************************
     STEP 1: TRANSFORMATION OF ADIABATIC STATES TO THE DMO REPRESENTATION
         See Atchity and Ruedenberg, J. Chem. Phys. 1999, 111, 2910
 *************************************************************************

Read in Diabatic Molecualr Orbitals:

                      1          2          3          4          5

    1  N  1  S    0.008609   0.000000   0.000000  -0.013219   0.279491
    2  N  1  S    0.442914  -0.000000   0.000000  -0.184329   0.867803
    3  N  1  S    0.276913   0.000000  -0.000000  -0.288315   0.144236
    4  N  1  X   -0.000000   0.493155  -0.024636  -0.000000  -0.000000
    5  N  1  Y    0.000000   0.024636   0.493155  -0.000000   0.000000
    6  N  1  Z    0.090197   0.000000   0.000000   0.593421   0.705309
    7  N  1  X   -0.000000   0.210628  -0.010522   0.000000   0.000000
    8  N  1  Y    0.000000   0.010522   0.210628  -0.000000  -0.000000
    9  N  1  Z   -0.004381   0.000000   0.000000   0.381592  -0.106092
   10  N  1 XX   -0.000457   0.010719  -0.000535  -0.012387   0.006153
   11  N  1 YY   -0.000457  -0.010719   0.000535  -0.012387   0.006153
   12  N  1 ZZ    0.000914  -0.000000   0.000000   0.024773  -0.012306
   13  N  1 XY    0.000000  -0.000618  -0.012377  -0.000000   0.000000
   14  N  1 XZ   -0.000000   0.026529  -0.001325  -0.000000   0.000000
   15  N  1 YZ    0.000000   0.001325   0.026529  -0.000000   0.000000
   16  H  2  S    0.194462  -0.176074   0.343485   0.112865  -0.523343
   17  H  2  S    0.003574  -0.023812   0.046452   0.024014  -0.054445
   18  H  2  X    0.018760   0.009101   0.022834   0.009336  -0.039151
   19  H  2  Y   -0.032493   0.022287  -0.020044  -0.016171   0.067811
   20  H  2  Z   -0.009251   0.008464  -0.016511   0.018769  -0.010566
   21  H  3  S    0.194462  -0.209430  -0.324227   0.112865  -0.523343
   22  H  3  S    0.003574  -0.028322  -0.043847   0.024014  -0.054445
   23  H  3  X    0.018760   0.006781  -0.023627   0.009336  -0.039151
   24  H  3  Y    0.032493  -0.024174  -0.017723   0.016171  -0.067811
   25  H  3  Z   -0.009251   0.010067   0.015585   0.018769  -0.010566
   26  H  4  S    0.194462   0.385503  -0.019258   0.112865  -0.523343
   27  H  4  S    0.003574   0.052134  -0.002604   0.024014  -0.054445
   28  H  4  X   -0.037519  -0.032295   0.001613  -0.018672   0.078302
   29  H  4  Y    0.000000   0.001067   0.021353  -0.000000   0.000000
   30  H  4  Z   -0.009251  -0.018530   0.000926   0.018769  -0.010566

                      6          7

    1  N  1  S    0.000000  -0.000000
    2  N  1  S    0.000000  -0.000000
    3  N  1  S   -0.000000   0.000000
    4  N  1  X   -0.930415  -0.002083
    5  N  1  Y   -0.002083   0.930415
    6  N  1  Z   -0.000000   0.000000
    7  N  1  X   -0.046866  -0.000105
    8  N  1  Y   -0.000105   0.046866
    9  N  1  Z   -0.000000   0.000000
   10  N  1 XX    0.001538   0.000003
   11  N  1 YY   -0.001538  -0.000003
   12  N  1 ZZ   -0.000000   0.000000
   13  N  1 XY   -0.000004   0.001776
   14  N  1 XZ    0.039985   0.000090
   15  N  1 YZ    0.000090  -0.039985
   16  H  2  S   -0.362630  -0.631354
   17  H  2  S   -0.065964  -0.114846
   18  H  2  X    0.002763  -0.037520
   19  H  2  Y    0.037435   0.040736
   20  H  2  Z    0.001882   0.003276
   21  H  3  S   -0.365454   0.629724
   22  H  3  S   -0.066477   0.114549
   23  H  3  X    0.002595   0.037532
   24  H  3  Y   -0.037617   0.040567
   25  H  3  Z    0.001896  -0.003268
   26  H  4  S    0.728084   0.001630
   27  H  4  S    0.132441   0.000297
   28  H  4  X   -0.062317  -0.000140
   29  H  4  Y    0.000055  -0.024345
   30  H  4  Z   -0.003778  -0.000008

NUMBER OF SUB ACTIVE SPACES:   1
ROTATE ACTIVE MOS TO DMOS IN EACH SUB-SPACE

SPACE  1:

OVERLAP BETWEEN ORTHONORMAL AND PRE-ORTHONORMAL REF. DMOS

             1           2           3           4           5

    1    0.9934473  -0.0130828  -0.0117131  -0.0022811   0.0004703
    2   -0.0130828   1.0234736  -0.0235784  -0.0200747   0.0405810
    3   -0.0117131  -0.0235784   0.9542765  -0.0136805   0.0212439
    4   -0.0022811  -0.0200747  -0.0136805   0.9983751  -0.0031150
    5    0.0004703   0.0405810   0.0212439  -0.0031150   1.0407586
    6    0.0030223   0.0273694  -0.0190107  -0.0239930   0.0094099
    7   -0.0013075   0.0161333   0.0345108   0.0134280   0.0171919

             6           7

    1    0.0030223  -0.0013075
    2    0.0273694   0.0161333
    3   -0.0190107   0.0345108
    4   -0.0239930   0.0134280
    5    0.0094099   0.0171919
    6    1.0022902  -0.0113501
    7   -0.0113501   1.0299713
REFERENCE DMOS AFTER ORTHONORMALIZATION:

                      1          2          3          4          5

    1  N  1  S    0.008296  -0.010823  -0.006250  -0.012697   0.269144
    2  N  1  S    0.444449  -0.030861  -0.016399  -0.182034   0.834896
    3  N  1  S    0.277894  -0.007463  -0.004225  -0.288167   0.138025
    4  N  1  X    0.009128   0.506923  -0.031234  -0.012658  -0.010329
    5  N  1  Y    0.007139   0.021854   0.486158  -0.004496  -0.025602
    6  N  1  Z    0.091548  -0.014127  -0.004991   0.596801   0.680321
    7  N  1  X    0.002820   0.207491  -0.006573   0.002853  -0.007415
    8  N  1  Y    0.002837   0.014958   0.220002   0.002894  -0.005732
    9  N  1  Z   -0.003269   0.011467   0.008315   0.382521  -0.101437
   10  N  1 XX   -0.000369   0.009975  -0.000596  -0.012175   0.005492
   11  N  1 YY   -0.000632  -0.010942  -0.000078  -0.012651   0.006314
   12  N  1 ZZ    0.001001   0.000967   0.000674   0.024826  -0.011806
   13  N  1 XY   -0.000164  -0.000952  -0.013088  -0.000232   0.000270
   14  N  1 XZ    0.000214   0.024954   0.000058   0.001441  -0.001327
   15  N  1 YZ    0.000330   0.002620   0.029328   0.000995  -0.000041
   16  H  2  S    0.199487  -0.119596   0.387500   0.114780  -0.492405
   17  H  2  S    0.004134  -0.016020   0.052605   0.024274  -0.050237
   18  H  2  X    0.019342   0.011972   0.026855   0.010456  -0.038027
   19  H  2  Y   -0.032891   0.016385  -0.023366  -0.015730   0.063982
   20  H  2  Z   -0.009353   0.008424  -0.016804   0.018685  -0.010154
   21  H  3  S    0.191342  -0.189631  -0.359652   0.086244  -0.495154
   22  H  3  S    0.003068  -0.026436  -0.050513   0.019607  -0.051482
   23  H  3  X    0.018767   0.007303  -0.024685   0.008645  -0.038030
   24  H  3  Y    0.032436  -0.020506  -0.019245   0.013979  -0.064286
   25  H  3  Z   -0.008929   0.010923   0.017203   0.019314  -0.010824
   26  H  4  S    0.199400   0.383627   0.019447   0.137112  -0.524596
   27  H  4  S    0.003983   0.050250   0.002777   0.028091  -0.055463
   28  H  4  X   -0.038142  -0.033884  -0.002828  -0.020752   0.077155
   29  H  4  Y    0.000270   0.001983   0.023330   0.000693  -0.000149
   30  H  4  Z   -0.009476  -0.017403   0.000838   0.018343  -0.009409

                      6          7

    1  N  1  S   -0.002724  -0.003967
    2  N  1  S   -0.013119  -0.010110
    3  N  1  S   -0.008886   0.001966
    4  N  1  X   -0.943172  -0.018961
    5  N  1  Y    0.016706   0.887388
    6  N  1  Z    0.007704  -0.018547
    7  N  1  X   -0.052461  -0.003620
    8  N  1  Y    0.004205   0.038004
    9  N  1  Z    0.009922  -0.003647
   10  N  1 XX    0.000908  -0.000056
   11  N  1 YY   -0.001595   0.000212
   12  N  1 ZZ    0.000687  -0.000156
   13  N  1 XY   -0.000209   0.002174
   14  N  1 XZ    0.039262   0.000130
   15  N  1 YZ    0.000146  -0.039856
   16  H  2  S   -0.351449  -0.620990
   17  H  2  S   -0.064619  -0.113200
   18  H  2  X    0.003070  -0.036958
   19  H  2  Y    0.036028   0.039569
   20  H  2  Z    0.001940   0.003547
   21  H  3  S   -0.352993   0.629914
   22  H  3  S   -0.064336   0.113221
   23  H  3  X    0.002856   0.037730
   24  H  3  Y   -0.036032   0.040888
   25  H  3  Z    0.002466  -0.003975
   26  H  4  S    0.724034   0.010123
   27  H  4  S    0.132016   0.001427
   28  H  4  X   -0.062423  -0.001264
   29  H  4  Y    0.000183  -0.024453
   30  H  4  Z   -0.002721   0.000112

 -------------------------------------------
       MAXIMIZING MORMO OVERLAP TERM        
 -------------------------------------------
   SWEEP    VALUE       PROGRESS
     0     6.23521
     1     6.98111     0.74589723
     2     6.98686     0.00574750
     3     6.98686     0.00000008
     4     6.98686     0.00000000
     5     6.98686     0.00000000
 THE ROTATION IS DONE
ACTIVE ORBITALS AFTER MORMO:

                      1          2          3          4          5

    1  N  1  S    0.007835  -0.014392  -0.009512  -0.012566   0.252006
    2  N  1  S    0.438086  -0.030768  -0.023334  -0.184961   0.812852
    3  N  1  S    0.296306   0.017002   0.023879  -0.283750   0.161091
    4  N  1  X    0.005225   0.505115  -0.035186  -0.017937  -0.002440
    5  N  1  Y    0.000864   0.016005   0.469029  -0.012607  -0.017694
    6  N  1  Z    0.088080  -0.022457  -0.011299   0.596768   0.675401
    7  N  1  X    0.008951   0.186899   0.008026   0.024377  -0.024976
    8  N  1  Y    0.012332   0.031521   0.252985   0.019135  -0.020715
    9  N  1  Z    0.006218   0.033041   0.023738   0.382422  -0.094997
   10  N  1 XX    0.001479   0.008607   0.004039  -0.012480  -0.022310
   11  N  1 YY   -0.002345  -0.009176  -0.004322  -0.011553   0.028461
   12  N  1 ZZ    0.000865   0.000569   0.000283   0.024034  -0.006150
   13  N  1 XY   -0.000865  -0.005780  -0.016272  -0.001198   0.016535
   14  N  1 XZ   -0.001147   0.021430  -0.000106   0.000544   0.024455
   15  N  1 YZ    0.000443   0.002002   0.026008  -0.001150   0.017965
   16  H  2  S    0.191202  -0.154611   0.355491   0.111150  -0.485238
   17  H  2  S    0.002911  -0.010874   0.070020   0.027152  -0.055156
   18  H  2  X    0.025249   0.000860   0.031764   0.011163  -0.040073
   19  H  2  Y   -0.024532   0.021604  -0.013219  -0.013107   0.055970
   20  H  2  Z   -0.008311   0.011316  -0.014053   0.018862  -0.014477
   21  H  3  S    0.192254  -0.199768  -0.338813   0.098633  -0.507148
   22  H  3  S    0.004190  -0.029870  -0.072224   0.020980  -0.057318
   23  H  3  X    0.021218   0.006062  -0.025295   0.010083  -0.034847
   24  H  3  Y    0.027003  -0.020398  -0.012379   0.016111  -0.062486
   25  H  3  Z   -0.012544   0.014048   0.019255   0.018097  -0.009566
   26  H  4  S    0.189128   0.386397  -0.005562   0.122441  -0.515847
   27  H  4  S    0.001086   0.048103   0.007656   0.028408  -0.056115
   28  H  4  X   -0.036965  -0.036407   0.005887  -0.016679   0.070666
   29  H  4  Y    0.004855   0.009169   0.019908   0.002151  -0.006992
   30  H  4  Z   -0.005896  -0.014517   0.002077   0.019896  -0.011627

                      6          7

    1  N  1  S   -0.033850   0.007508
    2  N  1  S   -0.075855   0.020536
    3  N  1  S    0.073093  -0.039915
    4  N  1  X   -0.932506  -0.020527
    5  N  1  Y    0.017663   0.891115
    6  N  1  Z    0.031954  -0.040041
    7  N  1  X   -0.079237  -0.007106
    8  N  1  Y    0.008836   0.028415
    9  N  1  Z   -0.004538   0.015182
   10  N  1 XX   -0.015912  -0.018559
   11  N  1 YY    0.021858   0.016256
   12  N  1 ZZ   -0.005946   0.002302
   13  N  1 XY   -0.021702   0.026205
   14  N  1 XZ    0.052498   0.006360
   15  N  1 YZ   -0.008428  -0.028444
   16  H  2  S   -0.371334  -0.596142
   17  H  2  S   -0.072934  -0.131948
   18  H  2  X   -0.005951  -0.044354
   19  H  2  Y    0.041760   0.028082
   20  H  2  Z   -0.013205   0.008413
   21  H  3  S   -0.361022   0.609369
   22  H  3  S   -0.069582   0.137486
   23  H  3  X    0.013554   0.039907
   24  H  3  Y   -0.041399   0.028905
   25  H  3  Z   -0.001484  -0.012474
   26  H  4  S    0.720314   0.022836
   27  H  4  S    0.134265   0.003226
   28  H  4  X   -0.066107  -0.007971
   29  H  4  Y    0.008951  -0.014174
   30  H  4  Z    0.006101   0.008693

Actually Used Diabatic Molecualr Orbitals:

                      1          2          3          4          5

    1  N  1  S    0.007835  -0.014392  -0.009512  -0.012566   0.252006
    2  N  1  S    0.438086  -0.030768  -0.023334  -0.184961   0.812852
    3  N  1  S    0.296306   0.017002   0.023879  -0.283750   0.161091
    4  N  1  X    0.005225   0.505115  -0.035186  -0.017937  -0.002440
    5  N  1  Y    0.000864   0.016005   0.469029  -0.012607  -0.017694
    6  N  1  Z    0.088080  -0.022457  -0.011299   0.596768   0.675401
    7  N  1  X    0.008951   0.186899   0.008026   0.024377  -0.024976
    8  N  1  Y    0.012332   0.031521   0.252985   0.019135  -0.020715
    9  N  1  Z    0.006218   0.033041   0.023738   0.382422  -0.094997
   10  N  1 XX    0.001479   0.008607   0.004039  -0.012480  -0.022310
   11  N  1 YY   -0.002345  -0.009176  -0.004322  -0.011553   0.028461
   12  N  1 ZZ    0.000865   0.000569   0.000283   0.024034  -0.006150
   13  N  1 XY   -0.000865  -0.005780  -0.016272  -0.001198   0.016535
   14  N  1 XZ   -0.001147   0.021430  -0.000106   0.000544   0.024455
   15  N  1 YZ    0.000443   0.002002   0.026008  -0.001150   0.017965
   16  H  2  S    0.191202  -0.154611   0.355491   0.111150  -0.485238
   17  H  2  S    0.002911  -0.010874   0.070020   0.027152  -0.055156
   18  H  2  X    0.025249   0.000860   0.031764   0.011163  -0.040073
   19  H  2  Y   -0.024532   0.021604  -0.013219  -0.013107   0.055970
   20  H  2  Z   -0.008311   0.011316  -0.014053   0.018862  -0.014477
   21  H  3  S    0.192254  -0.199768  -0.338813   0.098633  -0.507148
[...]
      323   -0.023321    0.023321  +022-+0
       76    0.022887    0.022887  2+2-0+0
      123   -0.022864    0.022864  +-2200+
      421   -0.022625   -0.022625  +22+0-0
      751    0.021750   -0.021750  2+20002
      809    0.021595   -0.021595  20+2+0-
      807   -0.021474    0.021474  2++-+0-
       78   -0.020868    0.020868  20220+0
      180   -0.020505    0.020505  -+2+200
      894    0.020054    0.020054  0+22002

 State #    3  Energy =     -55.840900955

      Det      Coef        Coefp    Occupancy (Ignoring core)
      ---      ----        ----    --------- --------- -----
       36   -0.950379   -0.950379  22+2000
       71    0.210131   -0.210131  2+22000
        1   -0.145137    0.145137  222+000
      463    0.059219   -0.059219  20+2020
      472   -0.032174   -0.032174  2+020-+
      285    0.031502   -0.031502  02+2200
      123    0.030322   -0.030322  +-2200+
      157    0.027976   -0.027976  220+-0+
      142    0.027586    0.027586  22+0200
      262   -0.027371   -0.027371  2+02-0+
      823    0.027288   -0.027288  20+2002
      297    0.026063   -0.026063  +202-0+
      121   -0.026061    0.026061  +22-00+
       16   -0.025424    0.025424  222000+
      288   -0.023293   -0.023293  +-+2-+0
      356    0.022231    0.022231  22+0020
      460   -0.021803   -0.021803  -++2+-0
      145   -0.021451   -0.021451  -2++200
      249    0.021255   -0.021255  20+2200
      122    0.021115    0.021115  +2-200+
      859    0.020987   -0.020987  02+2002
      716    0.020452    0.020452  22+0002
       64    0.020299   -0.020299  2-020++

 ---------------------------------------
    -DIABATIC STATES IN PROTOTYPES-     
 ---------------------------------------

     STATE:    1
 Group Ref#    Coefficients
     1    1    0.987001
     2    2   -0.000240
     3    3   -0.001615

WEIGHT OF LISTED PROTOTYPES:   97.42%

     STATE:    2
 Group Ref#    Coefficients
     1    1   -0.000240
     2    2    0.984898
     3    3    0.001083

WEIGHT OF LISTED PROTOTYPES:   97.00%

     STATE:    3
 Group Ref#    Coefficients
     1    1   -0.001615
     2    2    0.001083
     3    3    0.986949

WEIGHT OF LISTED PROTOTYPES:   97.41%

 --------------------------------------------------
 IN DIRECT MAX. DIABATIZATION FOR GMC-QDPT

 DIRECT MAXIMIZATION (DM) WITHOUT TRUNCATING ADIABATS
 EXPANSIONS INTO THE REFERENCE CONFIGURATION SPACE
 --------------------------------------------------

 -------------------------------------------
 - DM DIABT PT HAMILTONIAN MATRIX ELEMENTS -
 -------------------------------------------
                                            
 --- DIABATIC ENERGIES (DIAGONAL ELEMENT) ---       HARTREE            EV
 STATE #  1'S GMC-PT-LEVEL DIABATIC ENERGY=     -55.987808073       0.000000000
 STATE #  2'S GMC-PT-LEVEL DIABATIC ENERGY=     -55.748925146       6.500335541
 STATE #  3'S GMC-PT-LEVEL DIABATIC ENERGY=     -55.840900902       3.997547737

 --- DIABATIC COUPLINGS (OFF DIAGONAL ELEMENTS)---  HATREE            EV
 STATE #  1 &  2'S GMC-PT-LEVEL COUPLING  =       0.023155313       0.630088170
 STATE #  1 &  3'S GMC-PT-LEVEL COUPLING  =       0.015845794       0.431186022
 STATE #  2 &  3'S GMC-PT-LEVEL COUPLING  =      -0.023984202      -0.652643377

 ---------------------------------------
     - ROTATION TO DIABATIC STATES -    
 ---------------------------------------
 ROWS=ADIABATIC, COLUMNS=DIABATIC STATES

             1           2           3

    1   -0.9871046   0.1057905   0.1201367
    2   -0.1402921  -0.2103096  -0.9675164
    3    0.0770882   0.9718941  -0.2224392

 ---------------------------------------
          - DIABATIC STATES -           
 ---------------------------------------

 State #    1  Energy =     -55.987808073

      Det      Coef        Coefp    Occupancy (Ignoring core)
      ---      ----        ----    --------- --------- -----
        1    0.969442   -0.969442  222+000
       17    0.092075    0.092075  22-+00+
      717   -0.076464   -0.076464  220+002
      393   -0.066274   -0.066274  202+020
      701   -0.061979   -0.061979  22++00-
        4    0.053495   -0.053495  2-2++00
      176   -0.052108    0.052108  2+2+-00
      402    0.039266   -0.039266  2+-+0-+
      708    0.037456   -0.037456  2-++0+-
      215   -0.035065   -0.035065  022+200
      227   -0.033920   -0.033920  +2-+-0+
        3    0.033739    0.033739  22-++00
      705   -0.033567   -0.033567  -2+++0-
        6   -0.033154    0.033154  22200+0
      141   -0.032413   -0.032413  22++-00
      390    0.032337   -0.032337  -+2++-0
      218    0.032333   -0.032333  +-2+-+0
       51   -0.030095    0.030095  22+-00+
      212    0.028411    0.028411  +220200
      122    0.027564    0.027564  +2-200+
        2    0.026642   -0.026642  2220+00
       76    0.025902    0.025902  2+2-0+0
       16    0.025221   -0.025221  222000+
      113   -0.023792    0.023792  +-220+0
      773    0.023756   -0.023756  +2-++0-
      159    0.022938   -0.022938  -2++-0+
      702    0.022916    0.022916  22+0+0-
      179   -0.022643   -0.022643  202+200
      143   -0.021844   -0.021844  220+200
       18    0.021766   -0.021766  2-2+00+
      387   -0.021731    0.021731  2+20+-0
      351    0.021686    0.021686  22++0-0
      424   -0.021546   -0.021546  +-2++-0
        7   -0.021218   -0.021218  22-+0+0
      184   -0.020886   -0.020886  -+2+-+0
      106   -0.020784   -0.020784  +222000
        8   -0.020764    0.020764  2-2+0+0

 State #    2  Energy =     -55.748925146

      Det      Coef        Coefp    Occupancy (Ignoring core)
      ---      ----        ----    --------- --------- -----
       71   -0.972286    0.972286  2+22000
      822    0.078110   -0.078110  2+02002
      806   -0.062629   -0.062629  2++200-
       87    0.050291   -0.050291  2+-200+
       36    0.046773    0.046773  22+2000
      813    0.042936   -0.042936  20+20+-
       78   -0.041543    0.041543  20220+0
      111    0.041264   -0.041264  +22-0+0
      246   -0.039661   -0.039661  2++2-00
       73    0.038750   -0.038750  2+-2+00
      122    0.036427    0.036427  +2-200+
      332   -0.035530    0.035530  ++-2-0+
      320    0.035182    0.035182  0+22200
      810   -0.034992   -0.034992  -++2+0-
      106   -0.032694   -0.032694  +222000
      736   -0.031227    0.031227  2+2+00-
      323   -0.030646    0.030646  +022-+0
       86    0.030312    0.030312  2+2-00+
      317    0.029031   -0.029031  ++2-200
      180   -0.028991    0.028991  -+2+200
      386    0.028198   -0.028198  2+2+0-0
       77   -0.027432    0.027432  2+-20+0
      177    0.027228   -0.027228  2+20200
       74   -0.026783    0.026783  2022+00
        6    0.026634   -0.026634  22200+0
       99   -0.026335    0.026335  20-20++
      807   -0.025717    0.025717  2++-+0-
      192   -0.025521    0.025521  2+-+-0+
       38   -0.025223    0.025223  2202+00
      456    0.024672    0.024672  2++20-0
      248    0.024516   -0.024516  2+02200
      391    0.024103   -0.024103  2+20020
      878    0.023995    0.023995  ++-2+0-
      264    0.023942   -0.023942  -++2-0+
      183   -0.023065    0.023065  202+-+0
       51    0.022052   -0.022052  22+-00+
      421   -0.021932   -0.021932  +22+0-0
      113    0.020648   -0.020648  +-220+0
      841   -0.020520    0.020520  +2+200-

 State #    3  Energy =     -55.840900902

      Det      Coef        Coefp    Occupancy (Ignoring core)
      ---      ----        ----    --------- --------- -----
       36   -0.971807   -0.971807  22+2000
       39   -0.083109   -0.083109  2-+2+00
      463    0.064463   -0.064463  20+2020
       41   -0.060442    0.060442  22+-0+0
      246    0.058418    0.058418  2++2-00
      351    0.051281    0.051281  22++0-0
       71   -0.046781    0.046781  2+22000
      472   -0.041793   -0.041793  2+020-+
      121   -0.034994    0.034994  +22-00+
      285    0.034470   -0.034470  02+2200
      297    0.033835   -0.033835  +202-0+
      460   -0.032647   -0.032647  -++2+-0
      288   -0.032192   -0.032192  +-+2-+0
       52   -0.031894    0.031894  220200+
       38   -0.030975    0.030975  2202+00
      123    0.029961   -0.029961  +-2200+
      106   -0.029227   -0.029227  +222000
      145   -0.029058   -0.029058  -2++200
      701   -0.028782   -0.028782  22++00-
      282    0.028735    0.028735  +2+-200
       51    0.027918   -0.027918  22+-00+
      142    0.027280    0.027280  22+0200
      157    0.027264   -0.027264  220+-0+
       64    0.026030   -0.026030  2-020++
       73    0.024691   -0.024691  2+-2+00
       53   -0.024507   -0.024507  2-+200+
       16   -0.024458    0.024458  222000+
      716    0.024110    0.024110  22+0002
      249    0.023176   -0.023176  20+2200
      457   -0.022588    0.022588  2++-+-0
      148   -0.022408   -0.022408  2-++-+0
       86    0.022263    0.022263  2+2-00+
      494    0.021683   -0.021683  +-+2+-0
       55   -0.020865   -0.020865  220-+0+
      843   -0.020690   -0.020690  +202+0-
      859    0.020453   -0.020453  02+2002

 ---------------------------------------
      - DIABATIC STATES IN CMO -        
 ---------------------------------------

 State #    1  Energy =     -55.987808073

      Det      Coef        Coefp    Occupancy (Ignoring core)
      ---      ----        ----    --------- --------- -----
        1    0.961942   -0.961942  222+000
       36   -0.164144   -0.164144  22+2000
       71   -0.078938    0.078938  2+22000
      717   -0.072321   -0.072321  220+002
      393   -0.063081   -0.063081  202+020
        8   -0.041368    0.041368  2-2+0+0
       17    0.038741    0.038741  22-+00+
      708    0.035286   -0.035286  2-++0+-
      143   -0.032645   -0.032645  220+200
      215   -0.032256   -0.032256  022+200
      402    0.031673   -0.031673  2+-+0-+
      705   -0.029153   -0.029153  -2+++0-
      106   -0.027322   -0.027322  +222000
       51   -0.026507    0.026507  22+-00+
      227   -0.025953   -0.025953  +2-+-0+
      753   -0.025900   -0.025900  202+002
      122    0.025420    0.025420  +2-200+
      390    0.024202   -0.024202  -+2++-0
      218    0.024116   -0.024116  +-2+-+0
       76    0.023976    0.023976  2+2-0+0
        2    0.023885   -0.023885  2220+00
      113   -0.022555    0.022555  +-220+0
      703    0.022517    0.022517  220++0-
      702    0.022065    0.022065  22+0+0-
        3   -0.021256   -0.021256  22-++00
      704    0.020632   -0.020632  2-+++0-
      368   -0.020392   -0.020392  2-++0-+

 State #    2  Energy =     -55.748925146

      Det      Coef        Coefp    Occupancy (Ignoring core)
      ---      ----        ----    --------- --------- -----
       71   -0.955241    0.955241  2+22000
       36   -0.195265   -0.195265  22+2000
        1   -0.111949    0.111949  222+000
      822    0.071086   -0.071086  2+02002
      111    0.039304   -0.039304  +22-0+0
      122    0.033253    0.033253  +2-200+
      248    0.032962   -0.032962  2+02200
      320    0.031669    0.031669  0+22200
      813    0.031546   -0.031546  20+20+-
      810   -0.026960   -0.026960  -++2+0-
       38   -0.026123    0.026123  2202+00
      332   -0.025767    0.025767  ++-2-0+
      391    0.024979   -0.024979  2+20020
      177    0.024659   -0.024659  2+20200
      192   -0.023957    0.023957  2+-+-0+
      323   -0.023321    0.023321  +022-+0
       76    0.022887    0.022887  2+2-0+0
      123   -0.022864    0.022864  +-2200+
      421   -0.022625   -0.022625  +22+0-0
      751    0.021750   -0.021750  2+20002
      809    0.021595   -0.021595  20+2+0-
      807   -0.021474    0.021474  2++-+0-
       78   -0.020868    0.020868  20220+0
      180   -0.020505    0.020505  -+2+200
      894    0.020054    0.020054  0+22002

 State #    3  Energy =     -55.840900902

      Det      Coef        Coefp    Occupancy (Ignoring core)
      ---      ----        ----    --------- --------- -----
       36   -0.950378   -0.950378  22+2000
       71    0.210132   -0.210132  2+22000
        1   -0.145137    0.145137  222+000
      463    0.059219   -0.059219  20+2020
      472   -0.032174   -0.032174  2+020-+
      285    0.031502   -0.031502  02+2200
      123    0.030322   -0.030322  +-2200+
      157    0.027976   -0.027976  220+-0+
      142    0.027586    0.027586  22+0200
      262   -0.027371   -0.027371  2+02-0+
      823    0.027288   -0.027288  20+2002
      297    0.026063   -0.026063  +202-0+
      121   -0.026061    0.026061  +22-00+
       16   -0.025424    0.025424  222000+
      288   -0.023293   -0.023293  +-+2-+0
      356    0.022231    0.022231  22+0020
      460   -0.021803   -0.021803  -++2+-0
      145   -0.021451   -0.021451  -2++200
      249    0.021255   -0.021255  20+2200
      122    0.021115    0.021115  +2-200+
      859    0.020987   -0.020987  02+2002
      716    0.020452    0.020452  22+0002
       64    0.020299   -0.020299  2-020++

 ---------------------------------------
    -DIABATIC STATES IN PROTOTYPES-     
 ---------------------------------------

     STATE:    1
 Group Ref#    Coefficients
     1    1    0.987001
     2    2   -0.000240
     3    3   -0.001615

WEIGHT OF LISTED PROTOTYPES:   97.42%

     STATE:    2
 Group Ref#    Coefficients
     1    1   -0.000240
     2    2    0.984898
     3    3    0.001084

WEIGHT OF LISTED PROTOTYPES:   97.00%

     STATE:    3
 Group Ref#    Coefficients
     1    1   -0.001615
     2    2    0.001082
     3    3    0.986949

WEIGHT OF LISTED PROTOTYPES:   97.41%

     DIRECT MAX. DIABATIZATION FINISHED    
 CPU     0: STEP CPU TIME=     0.25 TOTAL CPU TIME=         12.6 (      0.2 MIN)
 TOTAL WALL CLOCK TIME=         12.6 SECONDS, CPU UTILIZATION IS    99.92%

DIABATS FOR SPIN-ORBIT CALCULATION ARE READY

TRANSITION DIPOLES BETWEEN ADIABATS (in A.U.):

STATE PAIR      X         Y         Z
    1    1 -0.164591 -0.099800  0.755199
    2    1 -0.015129 -0.026604  0.075628
    2    2  0.027588 -0.093530  0.264649
    3    1 -0.070663  0.022901 -0.041125
    3    2  0.133689 -0.186223  0.001442
    3    3 -0.425138 -0.189502  0.256379


TRANSITION DIPOLES BETWEEN DIABATS (in A.U.):

STATE PAIR      X         Y         Z
    1    1 -0.158684 -0.107036  0.769753
    2    1  0.030053 -0.005037  0.001630
    2    2 -0.470707 -0.102233  0.249916
    3    1 -0.005610 -0.009252  0.003449
    3    2 -0.028683  0.192597 -0.006752
    3    3  0.067251 -0.173564  0.256558

TRANSITION DIPOLES BETWEEN DIRECT MAX. DIABATS (in A.U.):

STATE PAIR      X         Y         Z
    1    1 -0.158684 -0.107036  0.769753
    2    1  0.030053 -0.005037  0.001630
    2    2 -0.470707 -0.102232  0.249916
    3    1 -0.005610 -0.009252  0.003449
    3    2 -0.028683  0.192597 -0.006752
    3    3  0.067251 -0.173564  0.256558
 No $TRANST Group Found.
 Quit without doing spin-orbit coupling
 ..... DONE WITH MP2 ENERGY .....
 CPU     0: STEP CPU TIME=     0.00 TOTAL CPU TIME=         12.6 (      0.2 MIN)
 TOTAL WALL CLOCK TIME=         12.6 SECONDS, CPU UTILIZATION IS    99.84%
            100000000  WORDS OF DYNAMIC MEMORY USED
 EXECUTION OF GAMESS TERMINATED NORMALLY Wed Nov 16 19:07:09 2022
 DDI: 715512 bytes (0.7 MB / 0 MWords) used by master data server.

 ----------------------------------------
 CPU timing information for all processes
 ========================================
 0: 12.277 + 0.299 = 12.576
 ----------------------------------------
Note: The following floating-point exceptions are signalling: IEEE_DENORMAL
 ddikick.x: exited gracefully.
unset echo
----- accounting info -----
Files used on the master node io002 were:
-rw-r--r-- 1 bsonghao nooijen   20712 Nov 16 19:06 /scratch/bsonghao/nh3_diabatization_2d_at_mode_7_8_dist-0.2_-0.3.F05
-rw-r--r-- 1 bsonghao nooijen  363520 Nov 16 19:07 /scratch/bsonghao/nh3_diabatization_2d_at_mode_7_8_dist-0.2_-0.3.F09
-rw-r--r-- 1 bsonghao nooijen 1995920 Nov 16 19:07 /scratch/bsonghao/nh3_diabatization_2d_at_mode_7_8_dist-0.2_-0.3.F10
-rw-r--r-- 1 bsonghao nooijen  131264 Nov 16 19:07 /scratch/bsonghao/nh3_diabatization_2d_at_mode_7_8_dist-0.2_-0.3.F13
-rw-r--r-- 1 bsonghao nooijen  180312 Nov 16 19:07 /scratch/bsonghao/nh3_diabatization_2d_at_mode_7_8_dist-0.2_-0.3.F15
-rw-r--r-- 1 bsonghao nooijen       0 Nov 16 19:06 /scratch/bsonghao/nh3_diabatization_2d_at_mode_7_8_dist-0.2_-0.3.F16
-rw-r--r-- 1 bsonghao nooijen    9808 Nov 16 19:07 /scratch/bsonghao/nh3_diabatization_2d_at_mode_7_8_dist-0.2_-0.3.F70
-rw-r--r-- 1 bsonghao nooijen    9808 Nov 16 19:07 /scratch/bsonghao/nh3_diabatization_2d_at_mode_7_8_dist-0.2_-0.3.F71
-rw-r--r-- 1 bsonghao nooijen   19608 Nov 16 19:07 /scratch/bsonghao/nh3_diabatization_2d_at_mode_7_8_dist-0.2_-0.3.F72
-rw-r--r-- 1 bsonghao nooijen   19608 Nov 16 19:07 /scratch/bsonghao/nh3_diabatization_2d_at_mode_7_8_dist-0.2_-0.3.F73
-rw-r--r-- 1 bsonghao nooijen 1920824 Nov 16 19:07 /scratch/bsonghao/nh3_diabatization_2d_at_mode_7_8_dist-0.2_-0.3.F74
-rw-r--r-- 1 bsonghao nooijen       0 Nov 16 19:06 /scratch/bsonghao/nh3_diabatization_2d_at_mode_7_8_dist-0.2_-0.3.F75
-rw-r--r-- 1 bsonghao nooijen   58848 Nov 16 19:07 /scratch/bsonghao/nh3_diabatization_2d_at_mode_7_8_dist-0.2_-0.3.F76
-rw-r--r-- 1 bsonghao nooijen       0 Nov 16 19:06 /scratch/bsonghao/nh3_diabatization_2d_at_mode_7_8_dist-0.2_-0.3.F77
-rw-r--r-- 1 bsonghao nooijen    1864 Nov 16 19:07 /scratch/bsonghao/nh3_diabatization_2d_at_mode_7_8_dist-0.2_-0.3.F78
-rw-r--r-- 1 bsonghao nooijen   39208 Nov 16 19:07 /scratch/bsonghao/nh3_diabatization_2d_at_mode_7_8_dist-0.2_-0.3.F79
-rw-r--r-- 1 bsonghao nooijen     104 Nov 16 19:07 /scratch/bsonghao/nh3_diabatization_2d_at_mode_7_8_dist-0.2_-0.3.F80
-rw-r--r-- 1 bsonghao nooijen   13472 Nov 16 19:07 /scratch/bsonghao/nh3_diabatization_2d_at_mode_7_8_dist-0.2_-0.3.F81
-rw-r--r-- 1 bsonghao nooijen      16 Nov 16 19:07 /scratch/bsonghao/nh3_diabatization_2d_at_mode_7_8_dist-0.2_-0.3.F82
-rw-r--r-- 1 bsonghao nooijen   19216 Nov 16 19:07 /scratch/bsonghao/nh3_diabatization_2d_at_mode_7_8_dist-0.2_-0.3.F83
-rw-r--r-- 1 bsonghao nooijen   29712 Nov 16 19:07 /scratch/bsonghao/nh3_diabatization_2d_at_mode_7_8_dist-0.2_-0.3.F84
-rw-r--r-- 1 bsonghao nooijen  401576 Nov 16 19:07 /scratch/bsonghao/nh3_diabatization_2d_at_mode_7_8_dist-0.2_-0.3.F85
-rw-r--r-- 1 bsonghao nooijen  903672 Nov 16 19:07 /scratch/bsonghao/nh3_diabatization_2d_at_mode_7_8_dist-0.2_-0.3.F86
-rw-r--r-- 1 bsonghao nooijen     656 Nov 16 19:07 /scratch/bsonghao/nh3_diabatization_2d_at_mode_7_8_dist-0.2_-0.3.F87
-rw-r--r-- 1 bsonghao nooijen   30192 Nov 16 19:07 /scratch/bsonghao/nh3_diabatization_2d_at_mode_7_8_dist-0.2_-0.3.F88
-rw-r--r-- 1 bsonghao nooijen     240 Nov 16 19:07 /scratch/bsonghao/nh3_diabatization_2d_at_mode_7_8_dist-0.2_-0.3.F89
-rw-r--r-- 1 bsonghao nooijen       0 Nov 16 19:06 /scratch/bsonghao/nh3_diabatization_2d_at_mode_7_8_dist-0.2_-0.3.F90
-rw-r--r-- 1 bsonghao nooijen   13760 Nov 16 19:07 /scratch/bsonghao/nh3_diabatization_2d_at_mode_7_8_dist-0.2_-0.3.F91
-rw-r--r-- 1 bsonghao nooijen   22776 Nov 16 19:07 /scratch/bsonghao/nh3_diabatization_2d_at_mode_7_8_dist-0.2_-0.3.F92
-rw-r--r-- 1 bsonghao nooijen   23168 Nov 16 19:07 /scratch/bsonghao/nh3_diabatization_2d_at_mode_7_8_dist-0.2_-0.3.F93
-rw-r--r-- 1 bsonghao nooijen   22776 Nov 16 19:07 /scratch/bsonghao/nh3_diabatization_2d_at_mode_7_8_dist-0.2_-0.3.F94
-rw-r--r-- 1 bsonghao nooijen   13760 Nov 16 19:07 /scratch/bsonghao/nh3_diabatization_2d_at_mode_7_8_dist-0.2_-0.3.F95
-rw-r--r-- 1 bsonghao nooijen   29440 Nov 16 19:07 /scratch/bsonghao/nh3_diabatization_2d_at_mode_7_8_dist-0.2_-0.3.F96
-rw-r--r-- 1 bsonghao nooijen    1184 Nov 16 19:07 /scratch/bsonghao/nh3_diabatization_2d_at_mode_7_8_dist-0.2_-0.3.F97
-rw-r--r-- 1 bsonghao nooijen    9808 Nov 16 19:07 /scratch/bsonghao/nh3_diabatization_2d_at_mode_7_8_dist-0.2_-0.3.F98
-rw-r--r-- 1 bsonghao nooijen   30264 Nov 16 19:07 /scratch/bsonghao/nh3_diabatization_2d_at_mode_7_8_dist-0.2_-0.3.F99
ls: No match.
ls: No match.
ls: No match.
Wed 16 Nov 2022 07:07:12 PM EST
0.292u 0.046s 0:15.96 2.0%	0+0k 48+224io 0pf+0w
