----- GAMESS execution script 'rungms' -----
This job is running on host io002
under operating system Linux at Wed 16 Nov 2022 08:03:29 PM EST
Available scratch disk space (Kbyte units) at beginning of the job is
Filesystem       1K-blocks       Used   Available Use% Mounted on
/dev/sdc1      15378471580 3278917120 11318349060  23% /scratch
GAMESS temporary binary files will be written to /scratch/bsonghao
GAMESS supplementary output files will be written to /home/bsonghao/.gamess_ascii_files/267638
Copying input file nh3_diabatization_2d_at_mode_7_8_dist0.5_0.5.inp to your run's scratch directory...
cp nh3_diabatization_2d_at_mode_7_8_dist0.5_0.5.inp /scratch/bsonghao/nh3_diabatization_2d_at_mode_7_8_dist0.5_0.5.F05
unset echo
/home/bjb2chen/gamess/ddikick.x /home/bjb2chen/gamess/gamess.00.x nh3_diabatization_2d_at_mode_7_8_dist0.5_0.5 -ddi 1 1 io002 -scr /scratch/bsonghao

 Distributed Data Interface kickoff program.
 Initiating 1 compute processes on 1 nodes to run the following command:
 /home/bjb2chen/gamess/gamess.00.x nh3_diabatization_2d_at_mode_7_8_dist0.5_0.5 

          ******************************************************
          *         GAMESS VERSION = 02 AUG 2018 (R2)         *
          *             FROM IOWA STATE UNIVERSITY             *
          * M.W.SCHMIDT, K.K.BALDRIDGE, J.A.BOATZ, S.T.ELBERT, *
          *   M.S.GORDON, J.H.JENSEN, S.KOSEKI, N.MATSUNAGA,   *
          *          K.A.NGUYEN, S.J.SU, T.L.WINDUS,           *
          *       TOGETHER WITH M.DUPUIS, J.A.MONTGOMERY       *
          *         J.COMPUT.CHEM.  14, 1347-1363(1993)        *
          **************** 64 BIT LINUX VERSION ****************

  SINCE 1993, STUDENTS AND POSTDOCS WORKING AT IOWA STATE UNIVERSITY
  AND ALSO IN THEIR VARIOUS JOBS AFTER LEAVING ISU HAVE MADE IMPORTANT
  CONTRIBUTIONS TO THE CODE:
     IVANA ADAMOVIC, CHRISTINE AIKENS, YURI ALEXEEV, POOJA ARORA,
     ANDREY ASADCHEV, ROB BELL, PRADIPTA BANDYOPADHYAY, JONATHAN BENTZ,
     BRETT BODE, KURT BRORSEN, CALEB CARLIN, GALINA CHABAN, WEI CHEN,
     CHEOL HO CHOI, PAUL DAY, ALBERT DEFUSCO, NUWAN DESILVA, TIM DUDLEY,
     DMITRI FEDOROV, ALEX FINDLATER, GRAHAM FLETCHER, MARK FREITAG,
     KURT GLAESEMANN, ANASTASIA GUININA,
     DAN KEMP, GRANT MERRILL, NORIYUKI MINEZAWA, JONATHAN MULLIN,
     TAKESHI NAGATA, SEAN NEDD, HEATHER NETZLOFF, BOSILJKA NJEGIC, RYAN OLSON,
     MIKE PAK, BUU PHAM,
     SPENCER PRUITT, LUKE ROSKOP, JIM SHOEMAKER, LYUDMILA SLIPCHENKO,
     TONY SMITH, SAROM SOK LEANG, JIE SONG, TETSUYA TAKETSUGU, SIMON WEBB,
     PENG XU, SOOHAENG YOO, FEDERICO ZAHARIEV

  ADDITIONAL CODE HAS BEEN PROVIDED BY COLLABORATORS IN OTHER GROUPS:
     IOWA STATE UNIVERSITY:
          JOE IVANIC, AARON WEST, LAIMUTIS BYTAUTAS, KLAUS RUEDENBERG
     UNIVERSITY OF TOKYO: KIMIHIKO HIRAO, TAKAHITO NAKAJIMA,
          TAKAO TSUNEDA, MUNEAKI KAMIYA, SUSUMU YANAGISAWA,
          KIYOSHI YAGI, MAHITO CHIBA, SEIKEN TOKURA, NAOAKI KAWAKAMI
     UNIVERSITY OF AARHUS: FRANK JENSEN
     UNIVERSITY OF IOWA: VISVALDAS KAIRYS, HUI LI
     NATIONAL INST. OF STANDARDS AND TECHNOLOGY: WALT STEVENS, DAVID GARMER
     UNIVERSITY OF PISA: BENEDETTA MENNUCCI, JACOPO TOMASI
     UNIVERSITY OF MEMPHIS: HENRY KURTZ, PRAKASHAN KORAMBATH
     UNIVERSITY OF ALBERTA: TOBY ZENG, MARIUSZ KLOBUKOWSKI
     UNIVERSITY OF NEW ENGLAND: MARK SPACKMAN
     MIE UNIVERSITY: HIROAKI UMEDA
     NAT. INST. OF ADVANCED INDUSTRIAL SCIENCE AND TECHNOLOGY: KAZUO KITAURA
     MICHIGAN STATE UNIVERSITY:
          KAROL KOWALSKI, MARTA WLOCH, JEFFREY GOUR, JESSE LUTZ,
          WEI LI, JUN SHEN, J. EMILIANO DEUSTUA, PIOTR PIECUCH
     UNIVERSITY OF MINNESOTA:
          YINAN SHU
     UNIVERSITY OF SILESIA: MONIKA MUSIAL, STANISLAW KUCHARSKI
     FACULTES UNIVERSITAIRES NOTRE-DAME DE LA PAIX:
          OLIVIER QUINET, BENOIT CHAMPAGNE
     UNIVERSITY OF CALIFORNIA - SANTA BARBARA: BERNARD KIRTMAN
     INSTITUTE FOR MOLECULAR SCIENCE:
          KAZUYA ISHIMURA, MICHIO KATOUDA, AND SHIGERU NAGASE
     UNIVERSITY OF NOTRE DAME: ANNA POMOGAEVA, DAN CHIPMAN
     KYUSHU UNIVERSITY:
          HARUYUKI NAKANO,
          FENG LONG GU, JACEK KORCHOWIEC, MARCIN MAKOWSKI, AND YURIKO AOKI,
          HIROTOSHI MORI AND EISAKU MIYOSHI
     PENNSYLVANIA STATE UNIVERSITY:
          TZVETELIN IORDANOV, CHET SWALINA, JONATHAN SKONE,
          SHARON HAMMES-SCHIFFER
     WASEDA UNIVERSITY:
          MASATO KOBAYASHI, TOMOKO AKAMA, TSUGUKI TOUMA,
          TAKESHI YOSHIKAWA, YASUHIRO IKABATA, JUNJI SEINO,
          YUYA NAKAJIMA, HIROMI NAKAI
     NANJING UNIVERSITY: SHUHUA LI
     UNIVERSITY OF NEBRASKA:
          PEIFENG SU, DEJUN SI, NANDUN THELLAMUREGE, YALI WANG, HUI LI
     UNIVERSITY OF ZURICH: ROBERTO PEVERATI, KIM BALDRIDGE
     N. COPERNICUS UNIVERSITY AND JACKSON STATE UNIVERSITY:
          MARIA BARYSZ
     UNIVERSITY OF COPENHAGEN: Jimmy Kromann, CASPER STEINMANN
     TOKYO INSTITUTE OF TECHNOLOGY: HIROYA NAKATA
     NAGOYA UNIVERSITY: YOSHIO NISHIMOTO, STEPHAN IRLE
     MOSCOW STATE UNIVERSITY: VLADIMIR MIRONOV

 EXECUTION OF GAMESS BEGUN Wed Nov 16 20:03:29 2022

            ECHO OF THE FIRST FEW INPUT CARDS -
 INPUT CARD> $system kdiag=3 mwords=100 memddi=1000 parall=.t. $end                         
 INPUT CARD> $contrl runtyp=energy ispher=1 $end                                            
 INPUT CARD> $contrl icut=9 itol=20 inttyp=rysquad qmttol=1.0d-05 nosym=1 $end              
 INPUT CARD> $scf    npunch=2 conv=1.0d-06 dirscf=.t.      $end                             
 INPUT CARD> $contrl scftyp=mcscf  mult=2 maxit=200 icharg=1 mplevl=2 $end                  
 INPUT CARD> $guess  guess=moread norb=29 purify=.t. $end                                   
 INPUT CARD> $basis  gbasis=ccd $end                                                        
 INPUT CARD> $mcscf  cistep=gmcci fullnr=.t. finci=mos                                      
 INPUT CARD>         acurcy=1.d-6 maxit=100 $end                                            
 INPUT CARD> $trans  dirtrf=.t. $end                                                        
 INPUT CARD> $mrmp   mrpt=gmcpt rdvecs=.f. $end                                             
 INPUT CARD> $gmcpt  nmofzc=0 nmodoc=1 nmoact=7 nelact=7 stsym(1)=A                         
 INPUT CARD>         reftyp=ormas nspace=1 mstart(1)=2 mine(1)=7 maxe(1)=7                  
 INPUT CARD>         kstate(1)=1,1,1                                                        
 INPUT CARD>         wstate(1)=1,1,1                                                        
 INPUT CARD>         iwgt=0 thrwgt=-1.0 krot=.f. kszdoe=.f. knospn=.f.                      
 INPUT CARD>         thrde=-1.0 edshft=0.02 $end                                            
 INPUT CARD> $data                                                                          
 INPUT CARD> NH3+ 3 states calculation at NH3 structure.                                    
 INPUT CARD> c1                                                                             
 INPUT CARD>N 7.0 -0.03114459 -0.031144515 -0.1693809542                                    
 INPUT CARD>H 1.0 -0.01969715999999999 1.0309752228 0.30477173310000005                     
 INPUT CARD>H 1.0 -0.401823755 -0.9630903678 0.0761643481                                   
 INPUT CARD>H 1.0 0.85428333 0.36487873 0.3884487381                                        
 INPUT CARD>$end                                                                            
 INPUT CARD>--- OPTIMIZED RHF      MO-S --- GENERATED AT Mon Nov 14 16:47:08 2022           
 INPUT CARD>E=      -56.3825050291, E(NUC)=   11.8429239490                                 
 INPUT CARD> $VEC                                                                           
 INPUT CARD> 1  1-1.00134066E+00-2.25158504E-03 3.44925845E-03 0.00000000E+00 0.00000000E+00
 INPUT CARD> 1  2-2.13170927E-03 0.00000000E+00 0.00000000E+00 6.57129898E-04-6.87950443E-05
 INPUT CARD> 1  3-6.87950443E-05 1.37590089E-04 0.00000000E+00 0.00000000E+00 0.00000000E+00
 INPUT CARD> 1  4 3.25502815E-04-4.84772356E-04 3.62525460E-04-6.27912517E-04-3.45956485E-04
 INPUT CARD> 1  5 3.25502815E-04-4.84772356E-04 3.62525460E-04 6.27912517E-04-3.45956485E-04
 INPUT CARD> 1  6 3.25502815E-04-4.84772356E-04-7.25050921E-04 0.00000000E+00-3.45956485E-04
 INPUT CARD> 2  1 1.31286642E-02-4.05911371E-01-2.82090992E-01 0.00000000E+00 0.00000000E+00
 INPUT CARD> 2  2-7.71489043E-02 0.00000000E+00 0.00000000E+00 9.73717494E-03 6.62450916E-04
 INPUT CARD> 2  3 6.62450916E-04-1.32490183E-03 0.00000000E+00 0.00000000E+00 0.00000000E+00
 INPUT CARD> 2  4-1.96090317E-01-1.96656153E-02-1.74855877E-02 3.02859263E-02 8.68214399E-03
 INPUT CARD> 2  5-1.96090317E-01-1.96656153E-02-1.74855877E-02-3.02859263E-02 8.68214399E-03
 INPUT CARD> 2  6-1.96090317E-01-1.96656153E-02 3.49711754E-02 0.00000000E+00 8.68214399E-03
 INPUT CARD> 3  1 0.00000000E+00 0.00000000E+00 0.00000000E+00 4.48608762E-01 0.00000000E+00
 INPUT CARD> 3  2 0.00000000E+00 2.18692520E-01 0.00000000E+00 0.00000000E+00 1.30198027E-02
 INPUT CARD> 3  3-1.30198027E-02 0.00000000E+00 0.00000000E+00 2.71832968E-02 0.00000000E+00
 INPUT CARD> 3  4-1.85332726E-01-7.03958951E-02 8.47929477E-03 1.95242443E-02 8.32835058E-03
 INPUT CARD> 3  5-1.85332726E-01-7.03958951E-02 8.47929477E-03-1.95242443E-02 8.32835058E-03
 INPUT CARD> 3  6 3.70665453E-01 1.40791790E-01-2.53376884E-02 0.00000000E+00-1.66567012E-02
 INPUT CARD> 4  1 0.00000000E+00 0.00000000E+00 0.00000000E+00 0.00000000E+00 4.48608762E-01
 INPUT CARD> 4  2 0.00000000E+00 0.00000000E+00 2.18692520E-01 0.00000000E+00 0.00000000E+00
 INPUT CARD> 4  3 0.00000000E+00 0.00000000E+00-1.50339731E-02 0.00000000E+00 2.71832968E-02
 INPUT CARD> 4  4 3.21005698E-01 1.21929267E-01 1.95242443E-02-1.40653607E-02-1.44251263E-02
  100000000 WORDS OF MEMORY AVAILABLE

     BASIS OPTIONS
     -------------
     GBASIS=CCD          IGAUSS=       0      POLAR=NONE    
     NDFUNC=       0     NFFUNC=       0     DIFFSP=       F
     NPFUNC=       0      DIFFS=       F     BASNAM=        


     RUN TITLE
     ---------
  NH3+ 3 states calculation at NH3 structure.                                    

 THE POINT GROUP OF THE MOLECULE IS C1      
 THE ORDER OF THE PRINCIPAL AXIS IS     0

 ATOM      ATOMIC                      COORDINATES (BOHR)
           CHARGE         X                   Y                   Z
 N           7.0    -0.0588547411       -0.0588545994       -0.3200835910
 H           1.0    -0.0372222351        1.9482606712        0.5759350644
 H           1.0    -0.7593367923       -1.8199768966        0.1439297479
 H           1.0     1.6143614096        0.6895208184        0.7340616753

          INTERNUCLEAR DISTANCES (ANGS.)
          ------------------------------

                1 N          2 H          3 H          4 H     

   1 N       0.0000000    1.1632068 *  1.0325786 *  1.1189240 *
   2 H       1.1632068 *  0.0000000    2.0431788 *  1.1020564 *
   3 H       1.0325786 *  2.0431788 *  0.0000000    1.8544078 *
   4 H       1.1189240 *  1.1020564 *  1.8544078 *  0.0000000  

  * ... LESS THAN  3.000


     ATOMIC BASIS SET
     ----------------
 THE CONTRACTED PRIMITIVE FUNCTIONS HAVE BEEN UNNORMALIZED
 THE CONTRACTED BASIS FUNCTIONS ARE NOW NORMALIZED TO UNITY

  SHELL TYPE  PRIMITIVE        EXPONENT          CONTRACTION COEFFICIENT(S)

 N         

      1   S       1          9046.0000000    0.000699617413
      1   S       2          1357.0000000    0.005386054630
      1   S       3           309.3000000    0.027391021189
      1   S       4            87.7300000    0.103150591982
      1   S       5            28.5600000    0.278570663317
      1   S       6            10.2100000    0.448294849454
      1   S       7             3.8380000    0.278085928395
      1   S       8             0.7466000    0.015431561233

      2   S       9          9046.0000000   -0.000304990096
      2   S      10          1357.0000000   -0.002408026379
      2   S      11           309.3000000   -0.011944448725
      2   S      12            87.7300000   -0.048925992909
      2   S      13            28.5600000   -0.134472724725
      2   S      14            10.2100000   -0.315112577700
      2   S      15             3.8380000   -0.242857832550
      2   S      16             0.7466000    1.094382206854

      3   S      17             0.2248000    1.000000000000

      4   P      18            13.5500000    0.058905676772
      4   P      19             2.9170000    0.320461106714
      4   P      20             0.7973000    0.753042061792

      5   P      21             0.2185000    1.000000000000

      6   D      22             0.8170000    1.000000000000

 H         

      7   S      23            13.0100000    0.033498726390
      7   S      24             1.9620000    0.234800801174
      7   S      25             0.4446000    0.813682957883

      8   S      26             0.1220000    1.000000000000

      9   P      27             0.7270000    1.000000000000

 H         

     10   S      28            13.0100000    0.033498726390
     10   S      29             1.9620000    0.234800801174
     10   S      30             0.4446000    0.813682957883

     11   S      31             0.1220000    1.000000000000

     12   P      32             0.7270000    1.000000000000

 H         

     13   S      33            13.0100000    0.033498726390
     13   S      34             1.9620000    0.234800801174
     13   S      35             0.4446000    0.813682957883

     14   S      36             0.1220000    1.000000000000

     15   P      37             0.7270000    1.000000000000

 TOTAL NUMBER OF BASIS SET SHELLS             =   15
 NUMBER OF CARTESIAN GAUSSIAN BASIS FUNCTIONS =   30
 NOTE: THIS RUN WILL RESTRICT THE MO VARIATION SPACE TO SPHERICAL HARMONICS.
 THE NUMBER OF ORBITALS KEPT IN THE VARIATIONAL SPACE WILL BE PRINTED LATER.
 NUMBER OF ELECTRONS                          =    9
 CHARGE OF MOLECULE                           =    1
 SPIN MULTIPLICITY                            =    2
 NUMBER OF OCCUPIED ORBITALS (ALPHA)          =    5
 NUMBER OF OCCUPIED ORBITALS (BETA )          =    4
 TOTAL NUMBER OF ATOMS                        =    4
 THE NUCLEAR REPULSION ENERGY IS       11.1069462224

     $CONTRL OPTIONS
     ---------------
 SCFTYP=MCSCF        RUNTYP=ENERGY       EXETYP=RUN     
 MPLEVL=       2     CITYP =NONE         CCTYP =NONE         VBTYP =NONE    
 DFTTYP=NONE         TDDFT =NONE    
 MULT  =       2     ICHARG=       1     NZVAR =       0     COORD =UNIQUE  
 PP    =NONE         RELWFN=NONE         LOCAL =NONE         NUMGRD=       F
 ISPHER=       1     NOSYM =       1     MAXIT =     200     UNITS =ANGS    
 PLTORB=       F     MOLPLT=       F     AIMPAC=       F     FRIEND=        
 NPRINT=       7     IREST =       0     GEOM  =INPUT   
 NORMF =       0     NORMP =       0     ITOL  =      20     ICUT  =       9
 INTTYP=RYSQUAD      GRDTYP=BEST         QMTTOL= 1.0E-05

     $SYSTEM OPTIONS
     ---------------
  REPLICATED MEMORY=   100000000 WORDS (ON EVERY NODE).
 DISTRIBUTED MEMDDI=        1000 MILLION WORDS IN AGGREGATE,
 MEMDDI DISTRIBUTED OVER   1 PROCESSORS IS  1000000000 WORDS/PROCESSOR.
 TOTAL MEMORY REQUESTED ON EACH PROCESSOR=  1100000000 WORDS.
 TIMLIM=      525600.00 MINUTES, OR     365.0 DAYS.
 PARALL= T  BALTYP=  DLB     KDIAG=    3  COREFL= F
 MXSEQ2=     300 MXSEQ3=     150  mem10=         0

          ----------------
          PROPERTIES INPUT
          ----------------

     MOMENTS            FIELD           POTENTIAL          DENSITY
 IEMOM =       1   IEFLD =       0   IEPOT =       0   IEDEN =       0
 WHERE =COMASS     WHERE =NUCLEI     WHERE =NUCLEI     WHERE =NUCLEI  
 OUTPUT=BOTH       OUTPUT=BOTH       OUTPUT=BOTH       OUTPUT=BOTH    
 IEMINT=       0   IEFINT=       0                     IEDINT=       0
                                                       MORB  =       0

     -------------------------------
     INTEGRAL TRANSFORMATION OPTIONS
     -------------------------------
     NWORD  =            0
     CUTOFF = 1.0E-09     MPTRAN =       0
     DIRTRF =       T     AOINTS =DUP     

          ----------------------
          MCSCF INPUT PARAMETERS
          ----------------------
 CONVERGER SELECTION: FOCAS = F  SOSCF = F  FULLNR = T  QUD = F  JACOBI = F
 SECULAR EQUATION METHOD CISTEP = GMCCI   
 --- GENERAL INPUT OPTIONS:
 MAXIT =     100  MICIT =       1  ACURCY= 1.000E-06
 DAMP  =   0.000  CANONC=       T  ENGTOL= 1.000E-10
 EKT   =       F  NPUNCH=       2  NWORD =         0
 REGENERATE CI AFTER CONVERGENCE = NONE    
 DIABATIZATION AFTER CONVERGENCE =        F
 --- INPUT FOR FULLNR CONVERGER:
 METHOD=DM2       FORS  =       F  DROPC =       T
 LINSER=       F  FCORE =       F  NORB  =      30

          ----------------------
          INTEGRAL INPUT OPTIONS
          ----------------------
 NOPK  =       1 NORDER=       0 SCHWRZ=       T

 ------------------------------------------
 MULTIREFERENCE PERTURBATION THEORY CONTROL
 ------------------------------------------
 MRPT=GMCPT    READ CONVERGED MCSCF VECTORS= F


     ------------------------------------------
     THE POINT GROUP IS C1 , NAXIS= 1, ORDER= 1
     ------------------------------------------

 -- VARIATIONAL SPACE WILL BE RESTRICTED TO PURE SPHERICAL HARMONICS ONLY --
 AFTER EXCLUDING CONTAMINANT COMBINATIONS FROM THE CARTESIAN GAUSSIAN BASIS
 SET, THE NUMBER OF SPHERICAL HARMONICS KEPT IN THE VARIATION SPACE IS   29

     DIMENSIONS OF THE SYMMETRY SUBSPACES ARE
 A   =   29

 ..... DONE SETTING UP THE RUN .....
 CPU     0: STEP CPU TIME=     0.03 TOTAL CPU TIME=          0.0 (      0.0 MIN)
 TOTAL WALL CLOCK TIME=          0.1 SECONDS, CPU UTILIZATION IS    60.00%

          ********************
          1 ELECTRON INTEGRALS
          ********************
 TIME TO DO   DIPOLE INTEGRALS=      0.00
 ...... END OF ONE-ELECTRON INTEGRALS ......
 CPU     0: STEP CPU TIME=     0.00 TOTAL CPU TIME=          0.0 (      0.0 MIN)
 TOTAL WALL CLOCK TIME=          0.1 SECONDS, CPU UTILIZATION IS    60.00%

          -------------
          GUESS OPTIONS
          -------------
          GUESS =MOREAD            NORB  =      29          NORDER=       0
          MIX   =       F          PRTMO =       F          PUNMO =       F
          TOLZ  = 1.0E-08          TOLE  = 1.0E-05
          SYMDEN=       F          PURIFY=       T

 INITIAL GUESS ORBITALS GENERATED BY MOREAD   ROUTINE.

 STATISTICS FOR GENERATION OF SYMMETRY ORBITAL -Q- MATRIX
 NUMBER OF CARTESIAN ATOMIC ORBITALS=         30
 NUMBER OF SPHERICAL CONTAMINANTS DROPPED=     1
 NUMBER OF LINEARLY DEPENDENT MOS DROPPED=     0
 TOTAL NUMBER OF MOS IN VARIATION SPACE=      29
 ORBITAL PURIFICATION WILL OCCUR

 SYMMETRIES FOR INITIAL GUESS ORBITALS FOLLOW.   BOTH SET(S).
     5 ORBITALS ARE OCCUPIED (    1 CORE ORBITALS).
     1=A        2=A        3=A        4=A        5=A        6=A        7=A   
     8=A        9=A       10=A       11=A       12=A       13=A       14=A   
    15=A       16=A       17=A       18=A       19=A       20=A       21=A   
    22=A       23=A       24=A       25=A       26=A       27=A       28=A   
    29=A   
 ...... END OF INITIAL ORBITAL SELECTION ......
 CPU     0: STEP CPU TIME=     0.02 TOTAL CPU TIME=          0.0 (      0.0 MIN)
 TOTAL WALL CLOCK TIME=          0.1 SECONDS, CPU UTILIZATION IS   100.00%

                    ----------------------
                    AO INTEGRAL TECHNOLOGY
                    ----------------------
     S,P,L SHELL ROTATED AXIS INTEGRALS, REPROGRAMMED BY
        KAZUYA ISHIMURA (IMS) AND JOSE SIERRA (SYNSTAR).
     S,P,D,L SHELL ROTATED AXIS INTEGRALS PROGRAMMED BY
        KAZUYA ISHIMURA (INSTITUTE FOR MOLECULAR SCIENCE).
     S,P,D,F,G SHELL TO TOTAL QUARTET ANGULAR MOMENTUM SUM 5,
        ERIC PROGRAM BY GRAHAM FLETCHER (ELORET AND NASA ADVANCED
        SUPERCOMPUTING DIVISION, AMES RESEARCH CENTER).
     S,P,D,F,G,L SHELL GENERAL RYS QUADRATURE PROGRAMMED BY
        MICHEL DUPUIS (PACIFIC NORTHWEST NATIONAL LABORATORY).

          --------------------
          2 ELECTRON INTEGRALS
          --------------------

 DIRECT SCF METHOD SKIPS INTEGRAL STORAGE ON DISK.
 DIRECT TRANSFORMATION SKIPS AO INTEGRAL STORAGE ON DISK.
  ...... END OF TWO-ELECTRON INTEGRALS .....
 STEP CPU TIME =     0.02 TOTAL CPU TIME =          0.1 (      0.0 MIN)
 TOTAL WALL CLOCK TIME=          0.1 SECONDS, CPU UTILIZATION IS    87.50%
 DDI: Creating Array [0] - 900 x 36 = 32400 words.
 DDI: Creating Array [1] - 21 x 288 = 6048 words.
 DDI: Creating Array [2] - 36 x 36 = 1296 words.
 DDI: Creating Array [3] - 465 x 36 = 16740 words.

          -----------------
          MCSCF CALCULATION
          -----------------

 ----- NUCLEAR ENERGY ----- =        11.1069462224

     -------------------------------------------------
     GMC-PT/GMC-QDPT or general MCSCF input parameters
     -------------------------------------------------
 # of frozen core orbs. =         0 ->         0
 # of doubly occ. orbs. =         1
 # of active      orbs. =         7
 # of virtual     orbs. =        21
 # of active electrons  =         7
 # of states in CI      =         3
 Highest state in CI    =         3
 kstate =  1 1 1
 avecoe =  0.333 0.333 0.333
 State symmetry           = A           
 Assigned symmetry number = 1

 <<<Act. MO sym.: 1111111

 <<<Division of 1-ext.:  0
 <<<Division of 2-ext.:  0

 *** Reference space

 Reference type: ORMAS (= Occupation restricted multiple active space)
 # of orbitals          =  7
 # of minimum electrons =  7
 # of maximum electrons =  7
 State symmetry    =    1 (input)
 2*Sz              =    1 (input)
 Spin multiplicity =    2 (input)
 Dimension of reference space =      1225  (from      3432 walks)

 Dimension of reference space =      1225  (from      1225 walks)

 <<<Ionized spaces for Ref-CI:
      0:         1225 /   -1-0:         1960 /  0-1-0:         2891

 EVALUATING EXCHANGE INTEGRALS FOR DIRECT INTEGRAL TRANSFORMATION
 SCHWARZ INEQUALITY OVERHEAD:       465 INTEGRALS, T=        0.00

     --------------------------------------------
     PARTIAL TWO ELECTRON INTEGRAL TRANSFORMATION
     --------------------------------------------

 NUMBER OF CORE MOLECULAR ORBITALS     =    1
 NUMBER OF OCCUPIED MOLECULAR ORBITALS =    8
 TOTAL NUMBER OF MOLECULAR ORBITALS    =   29
 TOTAL NUMBER OF ATOMIC ORBITALS       =   30
 THRESHOLD FOR KEEPING TRANSFORMED 2E- INTEGRALS = 1.000E-09

 -------------------------------     ------------------------------
 DISTRIBUTED DATA TRANSFORMATION     PROGRAM WRITTEN BY G. FLETCHER
 -------------------------------     ------------------------------

 THE DISTRIBUTED MEMORY REQUIRED FOR THIS STEP IS MEMDDI=         1 MWORDS
 CREATING DISTRIBUTED STORAGE FOR [VIR OCC|VIR OCC] INTEGRALS
 CREATING DISTRIBUTED STORAGE FOR [VIR OCC|OCC OCC] INTEGRALS
 CREATING DISTRIBUTED STORAGE FOR [OCC OCC|OCC OCC] INTEGRALS
 CREATING DISTRIBUTED STORAGE FOR [VIR VIR|OCC OCC] INTEGRALS
 FOR    1 PROCESSORS, THE REPLICATED MEMORY NEEDED IS       73700 WORDS.
 SCHWARZ INEQUALITY OVERHEAD:       465 INTEGRALS, T=        0.00

      DIRECT 4-INDEX TRANSFORMATION 
      SCHWARZ INEQUALITY TEST SKIPPED          0 INTEGRAL BLOCKS
 ----- FROZEN CORE ENERGY =       -47.6126455700
 ... END OF INTEGRAL TRANSFORMATION ...
 CPU     0: STEP CPU TIME=     0.22 TOTAL CPU TIME=          0.3 (      0.0 MIN)
 TOTAL WALL CLOCK TIME=          0.3 SECONDS, CPU UTILIZATION IS    96.67%

     --------------------------------     -----------------------------
     MCHF NEWTON-RAPHSON OPTIMIZATION     CODE WRITTEN BY MICHEL DUPUIS
     --------------------------------     -----------------------------
     PARALLEL VERSION WRITTEN BY G. FLETCHER (ELORET)
     NASA ADVANCED SUPERCOMPUTING DIVISION, AMES RESEARCH CENTER

 NUMBER OF INDEPENDENT ORBITAL ROTATION PARAMETERS =   175
 ..... DONE SOLVING NEWTON-RAPHSON EQUATIONS .....
 CPU     0: STEP CPU TIME=     0.94 TOTAL CPU TIME=          1.2 (      0.0 MIN)
 TOTAL WALL CLOCK TIME=          1.2 SECONDS, CPU UTILIZATION IS    98.40%
 ..... DONE WITH NTN-RPH ORBITAL ROTATIONS ..... 
 CPU     0: STEP CPU TIME=     0.00 TOTAL CPU TIME=          1.2 (      0.0 MIN)
 TOTAL WALL CLOCK TIME=          1.2 SECONDS, CPU UTILIZATION IS    98.40%
 MAXIMUM MEMORY USED BY NTN-RPH CODE WAS     57645 WORDS.

 ITER     TOTAL ENERGY      DEL(E)  LAGRANGIAN ASYMMETRY   SQCDF  MICIT   DAMP
   1      -55.583774037 -0.583774037  0.110128   12    5 1.033E-01  1   0.0000
   2      -55.641548603 -0.057774566  0.020271   12    5 4.579E-01  1   0.0000
   3      -55.677991719 -0.036443117  0.013946   11    6 2.407E-01  1   0.0191
   4      -55.694784977 -0.016793258  0.004809   11    6 5.310E-02  1   0.0061
   5      -55.697266479 -0.002481502  0.000825   12    5 1.700E-03  1   0.0000
   6      -55.697347604 -0.000081125  0.000340   22    5 1.586E-04  1   0.0000
   7      -55.697356806 -0.000009202  0.000164   22    5 3.078E-05  1   0.0000
   8      -55.697358693 -0.000001887  0.000082   22    5 7.302E-06  1   0.0000
   9      -55.697359152 -0.000000458  0.000042   22    5 2.006E-06  1   0.0000
  10      -55.697359278 -0.000000126  0.000022   22    5 6.209E-07  1   0.0000
  11      -55.697359317 -0.000000039  0.000012   22    5 2.099E-07  1   0.0000
  12      -55.697359330 -0.000000013  0.000006   22    5 7.523E-08  1   0.0000
  13      -55.697359334 -0.000000005  0.000004   23    5 2.798E-08  1   0.0000
  14      -55.697359336 -0.000000002  0.000002   23    5 1.065E-08  1   0.0000
  15      -55.697359336 -0.000000001  0.000001   23    5 4.117E-09  1   0.0000
  16      -55.697359337 -0.000000000  0.000001   23    5 1.597E-09  1   0.0000

          --------------------
          LAGRANGIAN CONVERGED
          --------------------

 FINAL MCSCF ENERGY IS      -55.6973593366 AFTER  16 ITERATIONS

 -MCCI- BASED ON OPTIMIZED ORBITALS
 ----------------------------------

 PLEASE NOTE: IF THE ACTIVE ORBITALS ARE CANONICALIZED BELOW,
 THE FOLLOWING CI EXPANSION COEFFICIENTS AND THE DENSITY DO NOT
 CORRESPOND TO THE PRINTED ORBITALS.  THE PRINTED EXPANSIONS MATCH
 THE ORBITALS USED DURING THE LAST ITERATION.  IF YOU WISH TO SEE
 CI EXPANSIONS BASED ON THE CANONICAL (OR NATURAL) ORBITALS, YOU
 MUST RUN A CI CALCULATION WITH THAT ORBITAL CHOICE READ IN $VEC.

 Averaged energy =     -55.697359337

 State #    1  Energy =     -55.830546527  S =  0.500

      Det      Coef    Occupancy (Ignoring core)
      ---      ----    --------- --------- -----
        1    0.923744  11110001110000
        5   -0.070185  01111001110000
        8   -0.136983  10110101110000
       17    0.130994  11010011110000
       71   -0.205945  11110001011000
      211    0.052674  11110000110100
      386    0.097973  11110001010010
      393    0.067772  10110101010010
      701   -0.107842  11110001100001
      717    0.050885  11010011100001

 State #    2  Energy =     -55.742720607  S =  0.500

      Det      Coef    Occupancy (Ignoring core)
      ---      ----    --------- --------- -----
        1    0.163970  11110001110000
       36    0.513876  11110001101000
       43   -0.060786  10110101101000
       52    0.052600  11010011101000
       71    0.791631  11110001011000
       74   -0.053208  10111001011000
       75   -0.059945  01111001011000
       78   -0.088560  10110101011000
       87    0.090683  11010011011000
      456    0.057761  11110001001010
      806    0.078757  11110001001001

 State #    3  Energy =     -55.518810876  S =  0.500

      Det      Coef    Occupancy (Ignoring core)
      ---      ----    --------- --------- -----
        1    0.119195  11110001110000
       36   -0.811607  11110001101000
       43    0.070071  10110101101000
       52   -0.050605  11010011101000
       71    0.498226  11110001011000
      281   -0.069562  11110000101100
      456   -0.087616  11110001001010
      463   -0.063090  10110101001010

 DENSITY MATRIX OVER ACTIVE MO-S

             1           2           3           4           5

    1    1.9731643
    2    0.0150626   1.6247699
    3    0.0021681   0.0056058   1.6316480
    4    0.0012786   0.0025016  -0.0013336   1.6516429
    5    0.1078454  -0.0517598  -0.0165987  -0.0154803   0.0369248
    6   -0.0002851  -0.1604528  -0.0022884   0.0440795   0.0052142
    7   -0.0120949  -0.0006209  -0.1518887   0.0142886  -0.0028040

             6           7

    6    0.0450196
    7   -0.0045827   0.0368305

 FORMING THE "STANDARD FOCK OPERATOR" IN DIRECT AO INTEGRAL MODE...
 ONLY THE    1 CORE AND   21 VIRTUAL ORBITALS WILL BE CANONICALIZED

          ----------------------
          MCSCF NATURAL ORBITALS
          ----------------------

                      1          2          3          4          5
                  -15.9852     1.9797     1.6550     1.6488     1.6376
                     A          A          A          A          A   
    1  N  1  S    1.001101   0.008532  -0.008471  -0.004870  -0.001545
    2  N  1  S   -0.001874   0.433778  -0.115410  -0.157628  -0.024073
    3  N  1  S   -0.006256   0.332228  -0.204246  -0.216729  -0.037974
    4  N  1  X   -0.000027   0.029923  -0.168961   0.178984   0.480442
    5  N  1  Y   -0.000227   0.012396  -0.263981   0.291414  -0.276349
    6  N  1  Z    0.001179   0.084284   0.493618   0.307694  -0.016589
    7  N  1  X   -0.000050   0.004318  -0.090364   0.051669   0.284377
    8  N  1  Y   -0.000077   0.005469  -0.111036   0.074309  -0.155512
    9  N  1  Z   -0.000591   0.017943   0.338219   0.183986  -0.023321
   10  N  1 XX   -0.000135  -0.002653  -0.012497  -0.002853   0.010894
   11  N  1 YY    0.000360   0.002996  -0.006385  -0.010407  -0.010113
   12  N  1 ZZ   -0.000225  -0.000343   0.018882   0.013260  -0.000782
   13  N  1 XY    0.000356   0.003666   0.001281  -0.000105   0.002771
   14  N  1 XZ    0.000068   0.001981  -0.004301   0.010438   0.021063
   15  N  1 YZ    0.000005   0.002546  -0.009909   0.013740  -0.011958
   16  H  2  S   -0.001395   0.172974  -0.028559   0.251276  -0.272062
   17  H  2  S    0.000296   0.000481   0.013743   0.036712  -0.110196
   18  H  2  X   -0.000046   0.001780  -0.003860   0.014401   0.013921
   19  H  2  Y    0.000726  -0.029965  -0.000158  -0.027378   0.026040
   20  H  2  Z    0.000394  -0.008457   0.023848   0.001746   0.010979
   21  H  3  S   -0.001980   0.169783   0.288120  -0.248324   0.027610
   22  H  3  S    0.000689  -0.001710   0.044595  -0.020024  -0.003258
   23  H  3  X   -0.000406   0.013925   0.009662  -0.007797   0.020335
   24  H  3  Y   -0.000987   0.030197   0.029946  -0.026360  -0.002732
   25  H  3  Z    0.000328  -0.002497   0.010690   0.019932  -0.001343
   26  H  4  S   -0.001573   0.198261  -0.008888   0.279355   0.265030
   27  H  4  S    0.000274   0.006656   0.015712   0.046114   0.109240
   28  H  4  X    0.000749  -0.031178  -0.006497  -0.030161  -0.013192
   29  H  4  Y    0.000276  -0.011477  -0.005979   0.006416  -0.019793
   30  H  4  Z    0.000474  -0.014081   0.023286  -0.002406  -0.017263

                      6          7          8
                    0.0324     0.0281     0.0184
                     A          A          A   
    1  N  1  S   -0.109294  -0.108279  -0.149862
    2  N  1  S   -0.392930  -0.413626  -0.439301
    3  N  1  S   -0.092733  -0.206172   0.035903
    4  N  1  X    0.476117  -0.577109   0.271015
    5  N  1  Y   -0.398846  -0.088102   0.816318
    6  N  1  Z   -0.317036  -0.502889  -0.168108
    7  N  1  X   -0.084085  -0.031836   0.043375
    8  N  1  Y   -0.005745  -0.099144   0.096110
    9  N  1  Z    0.026244   0.005050   0.085679
   10  N  1 XX   -0.053309   0.004858  -0.004223
   11  N  1 YY    0.055588  -0.006372   0.025302
   12  N  1 ZZ   -0.002279   0.001514  -0.021078
   13  N  1 XY    0.015830   0.040513  -0.005444
   14  N  1 XZ    0.002229   0.032450  -0.003676
   15  N  1 YZ    0.023844   0.024126  -0.038934
   16  H  2  S    0.750911   0.082915  -0.252129
   17  H  2  S    0.225823  -0.063787  -0.079928
   18  H  2  X   -0.005226   0.039939  -0.019585
   19  H  2  Y   -0.068098  -0.010043   0.011465
   20  H  2  Z    0.002139   0.028773  -0.006642
   21  H  3  S    0.259435   0.156825   0.842050
   22  H  3  S    0.030063  -0.003894   0.151845
   23  H  3  X    0.002638   0.014572   0.032405
   24  H  3  Y    0.029044   0.023248   0.077852
   25  H  3  Z   -0.001476   0.001475   0.025429
   26  H  4  S   -0.238547   0.786777  -0.064736
   27  H  4  S   -0.155571   0.195893  -0.002725
   28  H  4  X   -0.005717  -0.063144  -0.000983
   29  H  4  Y    0.033875  -0.000712  -0.033653
   30  H  4  Z    0.026648  -0.000249  -0.005646

          ------------------------
          MCSCF OPTIMIZED ORBITALS
          ------------------------

                      1          2          3          4          5
                  -15.9852     0.0000     0.0000     0.0000     0.0000
                     A          A          A          A          A   
    1  N  1  S    1.001101  -0.001424   0.011944   0.011190  -0.010392
    2  N  1  S   -0.001874   0.399479  -0.008106  -0.007223  -0.182553
    3  N  1  S   -0.006256   0.322868  -0.067042  -0.028181  -0.283782
    4  N  1  X   -0.000027   0.008787   0.451196  -0.082370  -0.031611
    5  N  1  Y   -0.000227  -0.001326  -0.006874   0.392769  -0.037862
    6  N  1  Z    0.001179   0.050442   0.007063  -0.002722   0.588479
    7  N  1  X   -0.000050  -0.008598   0.284422  -0.100104  -0.052531
    8  N  1  Y   -0.000077   0.002539  -0.060739   0.185116  -0.043394
    9  N  1  Z   -0.000591   0.021041  -0.036481  -0.024881   0.385298
   10  N  1 XX   -0.000135  -0.004796   0.015770  -0.004674  -0.012778
   11  N  1 YY    0.000360   0.005389  -0.017363   0.002460  -0.009878
   12  N  1 ZZ   -0.000225  -0.000593   0.001592   0.002214   0.022656
   13  N  1 XY    0.000356   0.005807   0.002507  -0.001832  -0.000012
   14  N  1 XZ    0.000068   0.002580   0.024783  -0.003804   0.000870
   15  N  1 YZ    0.000005   0.003847   0.001679   0.024474  -0.001418
   16  H  2  S   -0.001395   0.201187  -0.119233   0.392202   0.120877
   17  H  2  S    0.000296   0.007207  -0.090156   0.100532   0.036090
   18  H  2  X   -0.000046   0.002338   0.022699   0.003705   0.003108
   19  H  2  Y    0.000726  -0.032679   0.010447  -0.037267  -0.015970
   20  H  2  Z    0.000394  -0.007206   0.003278  -0.016116   0.019739
   21  H  3  S   -0.001980   0.202707  -0.246851  -0.370694   0.113857
   22  H  3  S    0.000689   0.001899  -0.037398  -0.042730   0.028956
   23  H  3  X   -0.000406   0.014755   0.008411  -0.024290   0.003454
   24  H  3  Y   -0.000987   0.033998  -0.029325  -0.034709   0.011360
   25  H  3  Z    0.000328  -0.002493   0.004380   0.006840   0.020353
   26  H  4  S   -0.001573   0.208431   0.416239   0.013941   0.119655
   27  H  4  S    0.000274   0.005674   0.126317  -0.051251   0.030219
   28  H  4  X    0.000749  -0.033045  -0.026828  -0.008379  -0.020367
   29  H  4  Y    0.000276  -0.010352  -0.012070   0.022825  -0.001280
   30  H  4  Z    0.000474  -0.012372  -0.024573  -0.000434   0.018526

                      6          7          8          9         10
                    0.0000     0.0000     0.0000     0.1147     0.1962
                     A          A          A          A          A   
    1  N  1  S    0.187568  -0.065249  -0.080510  -0.092610   0.029711
    2  N  1  S    0.691809  -0.174535  -0.208054  -0.130090   0.032540
    3  N  1  S    0.225115   0.092969   0.059291   1.068057  -0.432653
    4  N  1  X    0.068231   0.837769  -0.086847  -0.031240  -0.034597
    5  N  1  Y    0.077902   0.186680   0.931492  -0.024052  -0.141118
    6  N  1  Z    0.613183   0.035600  -0.034820  -0.121436   0.029883
    7  N  1  X    0.053992   0.018460   0.068436   0.151067   0.292022
    8  N  1  Y    0.053192   0.099885   0.092256   0.174040   0.716571
    9  N  1  Z   -0.043849   0.038220   0.054158   0.301803  -0.017261
   10  N  1 XX    0.028526  -0.036117   0.024460  -0.019794   0.026940
   11  N  1 YY   -0.034154   0.048665  -0.007888   0.056918  -0.064724
   12  N  1 ZZ    0.005628  -0.012548  -0.016573  -0.037124   0.037784
   13  N  1 XY   -0.038434  -0.018608  -0.008808   0.064961  -0.043240
   14  N  1 XZ   -0.025611  -0.018788  -0.001250   0.041939   0.037373
   15  N  1 YZ   -0.021953  -0.018523  -0.040735   0.042827   0.083728
   16  H  2  S   -0.430470   0.279730  -0.561716   0.408138   0.174253
   17  H  2  S   -0.061956   0.134047  -0.183676  -0.882588  -0.612962
   18  H  2  X   -0.022572  -0.035821  -0.009409   0.061310   0.010871
   19  H  2  Y    0.043336  -0.028881   0.040770   0.053115   0.022668
   20  H  2  Z   -0.021849  -0.020516  -0.005490   0.040197   0.065798
   21  H  3  S   -0.480800   0.418681   0.562450   0.291073  -0.545524
   22  H  3  S   -0.054819   0.086442   0.108789  -0.505485   1.943321
   23  H  3  X   -0.020713   0.007875   0.025485  -0.036006   0.045485
   24  H  3  Y   -0.053042   0.035506   0.050320  -0.057306   0.124808
   25  H  3  Z   -0.007724   0.009737   0.023016  -0.025766  -0.070000
   26  H  4  S   -0.441514  -0.646523   0.153766   0.371866   0.177045
   27  H  4  S   -0.059197  -0.212034   0.094574  -0.891353  -0.613918
   28  H  4  X    0.050945   0.034625  -0.005276   0.035246   0.009303
   29  H  4  Y   -0.010813   0.004760  -0.044338   0.094129   0.005918
   30  H  4  Z   -0.014162   0.011075  -0.019050   0.047486   0.053268

                     11         12         13         14         15
                    0.2561     0.5263     0.5739     0.6523     0.8647
                     A          A          A          A          A   
    1  N  1  S    0.009637  -0.110508  -0.017630  -0.025115  -0.584205
    2  N  1  S    0.022356  -0.132993   0.025713  -0.011845  -1.307273
    3  N  1  S   -0.061838   0.880782   0.358421   0.153967   2.262282
    4  N  1  X    0.013862   0.346490  -0.580117  -0.036672  -0.055864
    5  N  1  Y   -0.038957   0.049698   0.235996  -0.442127  -0.097891
    6  N  1  Z    0.009547  -0.643968  -0.274843  -0.234963   0.289755
    7  N  1  X   -0.354907  -0.633180   1.339704   0.527004   0.085884
    8  N  1  Y    0.304941  -0.300408  -0.374704   1.805443   0.109928
    9  N  1  Z   -0.050877   0.918091   0.558860   0.574664  -0.121842
   10  N  1 XX   -0.066334  -0.009616  -0.014707   0.032711   0.003447
   11  N  1 YY    0.070528  -0.013726   0.003502  -0.012935   0.002554
   12  N  1 ZZ   -0.004194   0.023342   0.011205  -0.019776  -0.006001
   13  N  1 XY   -0.039183  -0.021341  -0.040335   0.019125  -0.079555
   14  N  1 XZ   -0.052019   0.001019  -0.001736  -0.016329   0.018765
   15  N  1 YZ    0.025162   0.005547   0.004240  -0.066579  -0.028526
   16  H  2  S    0.597601  -0.236847   0.127910  -0.606074  -0.011818
   17  H  2  S   -2.074522  -0.246688   0.667571  -0.496031  -0.376899
   18  H  2  X   -0.069160  -0.086229  -0.089173   0.026185  -0.267038
   19  H  2  Y    0.071528   0.006241  -0.003076   0.240701   0.126168
   20  H  2  Z    0.005776   0.125367  -0.005233  -0.099919   0.057089
   21  H  3  S    0.050873  -0.575602  -0.162440   0.515259  -0.175581
   22  H  3  S   -0.070357  -0.380664   0.154253   0.690510  -0.505253
   23  H  3  X    0.041408  -0.024822   0.090326   0.027149   0.044624
   24  H  3  Y   -0.003142  -0.085264  -0.027454   0.185222  -0.118263
   25  H  3  Z   -0.000314   0.035960   0.030431   0.146203   0.158070
   26  H  4  S   -0.621044  -0.089068  -0.564384  -0.338740  -0.002364
   27  H  4  S    2.141625   0.227478  -0.924328  -0.176939  -0.329320
   28  H  4  X   -0.095693  -0.007167   0.095554   0.205708   0.184326
   29  H  4  Y    0.031086  -0.092813   0.035038   0.035222  -0.205502
   30  H  4  Z   -0.025591   0.083050   0.101949  -0.072470   0.132819

                     16         17         18         19         20
                    1.0501     1.1084     1.2261     1.3143     1.4599
                     A          A          A          A          A   
    1  N  1  S   -0.178868  -0.217875   0.143559  -0.179765  -0.420048
    2  N  1  S   -0.359873  -0.453562   0.298455  -0.383151  -0.896781
    3  N  1  S    0.751244   0.978436  -0.609568   0.676454   1.365069
    4  N  1  X   -0.023026  -0.051840  -0.074177   0.074574  -0.065461
    5  N  1  Y   -0.069323   0.137303  -0.199899  -0.070503  -0.127750
    6  N  1  Z    0.069801   0.013059   0.021746   0.001840  -0.083270
    7  N  1  X    0.283938   0.182324   0.611731  -0.246237   0.441340
    8  N  1  Y    0.487820  -0.677174   1.040487   0.028233   0.344558
    9  N  1  Z   -0.185798   0.184849  -0.095659   0.268103   0.705535
   10  N  1 XX   -0.191349   0.153280   0.023382   0.055770  -0.037139
   11  N  1 YY   -0.080619  -0.129170  -0.070234   0.036678   0.080146
   12  N  1 ZZ    0.271968  -0.024110   0.046852  -0.092448  -0.043008
   13  N  1 XY    0.094193   0.141973   0.040222  -0.061432   0.095293
   14  N  1 XZ   -0.020838  -0.224377  -0.145710  -0.148695  -0.049155
   15  N  1 YZ   -0.038307   0.077741   0.130826   0.110121   0.052502
   16  H  2  S   -0.406834   0.176390  -0.256221  -0.348548  -0.551012
   17  H  2  S   -0.079325   0.066871  -0.062081   0.023878   0.057226
   18  H  2  X    0.292948   0.139800  -0.458773  -0.049142   0.223986
   19  H  2  Y   -0.102109   0.095465  -0.296114  -0.322922  -0.095836
   20  H  2  Z    0.377975   0.177539   0.543001   0.142233  -0.436336
   21  H  3  S    0.128648  -0.416767   0.683732  -0.178304  -0.180974
   22  H  3  S    0.009804  -0.306706   0.371218  -0.105921  -0.058939
   23  H  3  X    0.045779  -0.553617  -0.277573   0.505801  -0.221791
   24  H  3  Y    0.040775   0.203647  -0.038604  -0.209342   0.029879
   25  H  3  Z    0.279985   0.175162  -0.354903  -0.099621  -0.716011
   26  H  4  S   -0.351203  -0.252921  -0.118303  -0.024242  -0.599105
   27  H  4  S   -0.091416  -0.149405  -0.070708  -0.067806  -0.192899
   28  H  4  X   -0.280397   0.106033   0.052694   0.250795  -0.176149
   29  H  4  Y    0.239235   0.176863  -0.142664   0.568994   0.021539
   30  H  4  Z    0.409292  -0.417300   0.091839  -0.399314   0.161987

                     21         22         23         24         25
                    1.6038     1.7710     1.8823     1.9647     2.1255
                     A          A          A          A          A   
    1  N  1  S   -0.110503   0.032208  -0.100888   0.025911   0.034521
    2  N  1  S   -0.221664   0.187468  -0.217906   0.085694   0.072739
    3  N  1  S    0.448723   1.036722  -0.246338   0.378073  -0.001700
    4  N  1  X   -0.211346   0.220503   0.208399  -0.053983   0.088174
    5  N  1  Y   -0.032863   0.239217   0.534668  -0.080703  -0.103125
    6  N  1  Z   -0.021484   0.250436  -0.001187   0.039941   0.029917
    7  N  1  X   -0.139753   0.110763   0.040313  -0.209679  -0.069461
    8  N  1  Y    0.630597   0.295850   0.178699  -0.126435   0.019528
    9  N  1  Z    0.228285   0.391442  -0.020122   0.319973   0.033888
   10  N  1 XX    0.161885   0.118402  -0.239517  -0.565004  -0.371762
   11  N  1 YY   -0.061169  -0.067378   0.101648  -0.243973   0.222843
   12  N  1 ZZ   -0.100716  -0.051024   0.137869   0.808976   0.148918
   13  N  1 XY    0.009277  -0.145265   0.311759   0.394587  -0.201301
   14  N  1 XZ    0.230945  -0.231114   0.055429   0.012661   0.087176
   15  N  1 YZ   -0.133462  -0.055652  -0.194463   0.178317  -0.046342
   16  H  2  S   -0.170144  -0.179336   0.043572  -0.066047   0.373498
   17  H  2  S   -0.457188  -0.358075  -0.120912  -0.133258   0.355862
   18  H  2  X    0.340968   0.264628  -0.154557  -0.155954   0.897052
   19  H  2  Y    0.354855   0.704306   0.155555   0.316314  -0.598345
   20  H  2  Z    0.522494   0.198175   0.313696  -0.261731   0.174697
   21  H  3  S    0.139037  -0.061954   0.056479  -0.174483  -0.044305
   22  H  3  S   -0.011171  -0.031270   0.444701  -0.237862   0.003647
   23  H  3  X    0.272085  -0.092478   0.419058   0.021018  -0.205755
   24  H  3  Y   -0.317062  -0.315075   0.859979  -0.491891  -0.025330
   25  H  3  Z   -0.293034  -0.418791  -0.391157  -0.106652  -0.006017
   26  H  4  S   -0.355223  -0.175399   0.070982   0.046009  -0.358288
   27  H  4  S    0.348560  -0.325811  -0.131907   0.113383  -0.364484
   28  H  4  X   -0.284123   0.483421   0.232092   0.152812   0.907917
   29  H  4  Y   -0.337450   0.365192  -0.036493   0.035375  -0.641113
   30  H  4  Z   -0.454465   0.494959  -0.003317  -0.352512  -0.118026

                     26         27         28         29
                    2.1973     2.6053     2.6811     2.9357
                     A          A          A          A   
    1  N  1  S   -0.066227  -0.122275  -0.090150  -0.032319
    2  N  1  S   -0.097685  -0.224763  -0.046616   0.049668
    3  N  1  S    0.649267   0.168885   1.704838   1.452640
    4  N  1  X    0.017879   0.110981   0.217415  -0.286335
    5  N  1  Y   -0.022621   0.439021  -0.052506  -0.245538
    6  N  1  Z    0.053093  -0.000541   0.244425   0.147061
    7  N  1  X    0.473179   0.387119   0.590621  -0.431223
    8  N  1  Y   -0.222244   1.279211   0.209639  -0.354949
    9  N  1  Z    0.319573   0.162115   0.431529   0.171022
   10  N  1 XX   -0.253933  -0.202393   0.428264  -0.812026
   11  N  1 YY    0.138084   0.136095   0.029244   1.414849
   12  N  1 ZZ    0.115848   0.066298  -0.457508  -0.602823
   13  N  1 XY   -0.355136  -0.503145   0.902360   0.337210
   14  N  1 XZ    0.730962   0.313837   0.729402  -0.313789
   15  N  1 YZ   -0.394004   1.117311   0.370719   0.003131
   16  H  2  S   -0.166628  -0.871149  -0.140855  -0.750891
   17  H  2  S    0.057496  -0.384984   0.047044  -0.216827
   18  H  2  X   -0.357607   0.084871   0.041408  -0.133596
   19  H  2  Y    0.010448   0.753586  -0.060563   0.737685
   20  H  2  Z    0.078192   0.237148   0.086403   0.433254
   21  H  3  S   -0.175691   0.947463  -0.437876  -1.272146
   22  H  3  S   -0.102383   0.409175  -0.094323  -0.370204
   23  H  3  X   -0.624570   0.125680  -0.012413  -0.483962
   24  H  3  Y    0.026102   0.774171  -0.410657  -0.844312
   25  H  3  Z   -0.168285   0.072857   0.303234   0.391078
   26  H  4  S   -0.229109  -0.220158  -1.227158   0.440637
   27  H  4  S   -0.201717  -0.030264  -0.485780   0.136362
   28  H  4  X    0.081972   0.003019   0.932753  -0.400045
   29  H  4  Y    0.714625   0.045650   0.280044  -0.092268
   30  H  4  Z   -0.162639  -0.034375   0.641193  -0.180348
 .....DONE WITH MCSCF ITERATIONS.....
 CPU     0: STEP CPU TIME=    10.43 TOTAL CPU TIME=         11.7 (      0.2 MIN)
 TOTAL WALL CLOCK TIME=         11.7 SECONDS, CPU UTILIZATION IS    99.91%

     ----------------------------------------------------------------
     PROPERTY VALUES FOR THE MCSCF SELF-CONSISTENT FIELD WAVEFUNCTION
     ----------------------------------------------------------------

          -----------------
          ENERGY COMPONENTS
          -----------------

         WAVEFUNCTION NORMALIZATION =       1.0000000000

                ONE ELECTRON ENERGY =     -93.7113203528
                TWO ELECTRON ENERGY =      26.9070147938
           NUCLEAR REPULSION ENERGY =      11.1069462224
                                      ------------------
                       TOTAL ENERGY =     -55.6973593366

 ELECTRON-ELECTRON POTENTIAL ENERGY =      26.9070147938
  NUCLEUS-ELECTRON POTENTIAL ENERGY =    -149.4083244847
   NUCLEUS-NUCLEUS POTENTIAL ENERGY =      11.1069462224
                                      ------------------
             TOTAL POTENTIAL ENERGY =    -111.3943634685
               TOTAL KINETIC ENERGY =      55.6970041319
                 VIRIAL RATIO (V/T) =       2.0000063774

          ---------------------------------------
          MULLIKEN AND LOWDIN POPULATION ANALYSES
          ---------------------------------------

     ATOMIC MULLIKEN POPULATION IN EACH MOLECULAR ORBITAL

                      1          2          3          4          5

                  2.000000   1.979683   1.655048   1.648777   1.637611

    1             2.000656   1.361174   1.388528   0.961529   1.202835
    2            -0.000141   0.192315   0.012244   0.212385   0.227656
    3            -0.000312   0.176786   0.244579   0.225065   0.010751
    4            -0.000204   0.249408   0.009697   0.249798   0.196369

                      6          7          8

                  0.032377   0.028109   0.018396

    1             0.014498   0.014356   0.009717
    2             0.015100   0.000290   0.000673
    3             0.001722   0.000439   0.007925
    4             0.001057   0.013025   0.000080
 WARNING! MCSCF POPULATIONS SHOWN ABOVE ARE FOR THE NATURAL ORBITALS.
 IGNORE THE ABOVE DATA FOR MCSCF FUNCTIONS WHICH ARE NOT OF -FORS- TYPE.
 THE FOLLOWING POPULATIONS ARE CORRECT FOR ANY MCSCF WAVEFUNCTION.

               ----- POPULATIONS IN EACH AO -----
                             MULLIKEN      LOWDIN
              1  N  1  S      2.00229     1.90292
              2  N  1  S      0.81756     0.57909
              3  N  1  S      0.70336     0.41191
              4  N  1  X      0.73975     0.67982
              5  N  1  Y      0.64299     0.56396
              6  N  1  Z      0.84458     0.79566
              7  N  1  X      0.39908     0.46665
              8  N  1  Y      0.26737     0.39349
              9  N  1  Z      0.52120     0.55877
             10  N  1 XX      0.00042     0.15598
             11  N  1 YY      0.00371     0.18791
             12  N  1 ZZ      0.00106     0.14330
             13  N  1 XY      0.00480     0.00518
             14  N  1 XZ      0.00514     0.00830
             15  N  1 YZ      0.00000     0.01035
             16  H  2  S      0.54957     0.41731
             17  H  2  S      0.05805     0.15210
             18  H  2  X      0.01032     0.03758
             19  H  2  Y      0.02974     0.04845
             20  H  2  Z      0.01284     0.02875
             21  H  3  S      0.58494     0.45419
             22  H  3  S      0.02579     0.14601
             23  H  3  X      0.01262     0.02949
             24  H  3  Y      0.03298     0.05999
             25  H  3  Z      0.01062     0.03054
             26  H  4  S      0.60332     0.45747
             27  H  4  S      0.05890     0.15110
             28  H  4  X      0.02804     0.05355
             29  H  4  Y      0.01222     0.03454
             30  H  4  Z      0.01675     0.03563

          ----- MULLIKEN ATOMIC OVERLAP POPULATIONS -----
          (OFF-DIAGONAL ELEMENTS NEED TO BE MULTIPLIED BY 2)

             1           2           3           4

    1    6.1478132
    2    0.2423562   0.4313984
    3    0.3094876  -0.0053821   0.3674538
    4    0.2536360  -0.0078505  -0.0046036   0.4780473

          TOTAL MULLIKEN AND LOWDIN ATOMIC POPULATIONS
       ATOM         MULL.POP.    CHARGE          LOW.POP.     CHARGE
    1 N             6.953293    0.046707         6.863302    0.136698
    2 H             0.660522    0.339478         0.684193    0.315807
    3 H             0.666956    0.333044         0.720214    0.279786
    4 H             0.719229    0.280771         0.732291    0.267709

          MULLIKEN SPHERICAL HARMONIC POPULATIONS
       ATOM           S       P       D      F      G      H      I    TOTAL
    1 N             3.52    3.41    0.02   0.00   0.00   0.00   0.00    6.95
    2 H             0.61    0.05    0.00   0.00   0.00   0.00   0.00    0.66
    3 H             0.61    0.06    0.00   0.00   0.00   0.00   0.00    0.67
    4 H             0.66    0.06    0.00   0.00   0.00   0.00   0.00    0.72

          ---------------------
          ELECTROSTATIC MOMENTS
          ---------------------

 POINT   1           X           Y           Z (BOHR)    CHARGE
                 0.000003    0.000003   -0.177185        1.00 (A.U.)
         DX          DY          DZ         /D/  (DEBYE)
     0.606035    0.605008    2.184110    2.345986
 ...... END OF PROPERTY EVALUATION ......
 CPU     0: STEP CPU TIME=     0.00 TOTAL CPU TIME=         11.7 (      0.2 MIN)
 TOTAL WALL CLOCK TIME=         11.7 SECONDS, CPU UTILIZATION IS    99.91%

     -------------------------------------------------
     GMC-PT/GMC-QDPT or general MCSCF input parameters
     -------------------------------------------------
 # of frozen core orbs. =         0 ->         0
 # of doubly occ. orbs. =         1
 # of active      orbs. =         7
 # of virtual     orbs. =        21
 # of active electrons  =         7
 # of states in CI      =         3
 Highest state in CI    =         3
 kstate =  1 1 1
 avecoe =  0.333 0.333 0.333
 State symmetry           = A           
 Assigned symmetry number = 1

 <<<Act. MO sym.: 1111111

 <<<Division of 1-ext.:  0
 <<<Division of 2-ext.:  0

     ------------------------
     Orbital canonicalization
     ------------------------

 MOs are canonicalized for core, virtual, and invariant-active orbital spaces.
 This is a part of the GMC-QDPT calculation.
 SCHWARZ INEQUALITY OVERHEAD:       465 INTEGRALS, T=        0.00
 DIRECT TRANSFORMATION SKIPS AO INTEGRAL STORAGE ON DISK.

 Averaged energy =     -55.697359337

 State #    1  Energy =     -55.830546527  S =  0.500
 State #    2  Energy =     -55.742720607  S =  0.500
 State #    3  Energy =     -55.518810876  S =  0.500

 Orbital energies for filled orbital space
  -15.985206
 Orbital energies for active orbital space
   -1.497882  -0.784963  -1.015660  -0.733508   0.150516
    0.230787   0.412167
 Orbital energies for external orbital space
    0.114681   0.196192   0.256144   0.526293   0.573884
    0.652321   0.864681   1.050054   1.108364   1.226139
    1.314340   1.459873   1.603836   1.770982   1.882296
    1.964693   2.125487   2.197289   2.605265   2.681078
    2.935719

 Zero values mean non-canonical orbitals.
 ... done with orbital canonicalization ...
 CPU     0: STEP CPU TIME=     0.60 TOTAL CPU TIME=         12.3 (      0.2 MIN)
 TOTAL WALL CLOCK TIME=         12.3 SECONDS, CPU UTILIZATION IS    99.84%

     --------------------------------------------
     PARTIAL TWO ELECTRON INTEGRAL TRANSFORMATION
     --------------------------------------------

 NUMBER OF CORE MOLECULAR ORBITALS     =    0
 NUMBER OF OCCUPIED MOLECULAR ORBITALS =    8
 TOTAL NUMBER OF MOLECULAR ORBITALS    =   29
 TOTAL NUMBER OF ATOMIC ORBITALS       =   30
 THRESHOLD FOR KEEPING TRANSFORMED 2E- INTEGRALS = 1.000E-09
 AO INTEGRALS WILL BE CALCULATED IN DIRECT MODE...
 DIRECT TRANSFORMATION SKIPS AO INTEGRAL STORAGE ON DISK.
 SCHWARZ INEQUALITY OVERHEAD:       465 INTEGRALS, T=        0.00

 PLAN A: REQUIREMENTS FOR FULLY IN-MEMORY TRANSFORMATION:
 # OF WORDS AVAILABLE =            100000000
 # OF WORDS NEEDED    =               221798

 PARALLEL ONLY WORKS WITH THE SEGMENTED ALGORITHM.
 ADJUSTING MEMORY TO USE SEGMENTED ALGORITHM.


 PLAN B: REQUIREMENTS FOR THE SEGMENTED TRANSFORMATION:
       MINIMUM=         124148 WORDS FOR 1 MOLECULAR ORBITAL PER PASS
       MAXIMUM=         221798 WORDS FOR ALL MOLECULAR ORBITALS IN 1 PASS
              (          13950 EXTRA WORDS INCLUDES 1 EXTRA ORBITAL/PASS)
 THIS RUN USES=         221798 WORDS,
 DISTRIBUTING   1 PASSES EACH CONTAINING     8 ORBITALS OVER   1 PROCESSORS.

 CHOOSING SEGMENTED PARTIAL TRANSFORMATION...
 DIRECT TRANSFORMATION SKIPS AO INTEGRAL STORAGE ON DISK.
 PASS #   1 TOOK        0.05 SECONDS.
 TOTAL NUMBER OF TRANSFORMED 2E- INTEGRALS KEPT =        29226
 ... END OF INTEGRAL TRANSFORMATION ...
 CPU     0: STEP CPU TIME=     0.05 TOTAL CPU TIME=         12.3 (      0.2 MIN)
 TOTAL WALL CLOCK TIME=         12.3 SECONDS, CPU UTILIZATION IS    99.92%

     --------     ------------------------------------------
     GMC-QDPT     Program written by H.Nakano (Kyushu Univ.)
     --------     ------------------------------------------

 *** Reference space

 Reference type: ORMAS (= Occupation restricted multiple active space)
 # of orbitals          =  7
 # of minimum electrons =  7
 # of maximum electrons =  7
 State symmetry    =    1 (input)
 2*Sz              =    1 (input)
 Spin multiplicity =    2 (input)
 Dimension of reference space =      1225  (from      3432 walks)

 Dimension of reference space =      1225  (from      1225 walks)

 <<<Ionized spaces for Ref-CI:
      0:         1225 /   -1-0:         1960 /  0-1-0:         2891

 ***                    ***
 *** Reference space CI ***
 ***                    ***

 Converged after   28 iterations

 Reference wavefunctions:

 State #    1  Energy =     -55.830546527  S =  0.500

      Det      Coef    Occupancy (Ignoring core)
      ---      ----    --------- --------- -----
        1    0.969127  11110001110000
       71    0.111438  11110001011000
      393    0.078154  10110101010010
      717    0.055830  11010011100001

 State #    2  Energy =     -55.742720607  S =  0.500

      Det      Coef    Occupancy (Ignoring core)
      ---      ----    --------- --------- -----
        1    0.114746  11110001110000
       71   -0.974805  11110001011000
      822    0.056015  11010011001001

 State #    3  Energy =     -55.518810876  S =  0.500

      Det      Coef    Occupancy (Ignoring core)
      ---      ----    --------- --------- -----
       36   -0.973430  11110001101000
      113   -0.050483  10110100111000
      463   -0.080275  10110101001010

 Davidson method: CPU/Wall time =           0.41 /           0.41 sec.

 Oscillator strength (invalid if E(1)/=E(GS)):
 -----------------------------------------
   State                        f
 -----------------------------------------
     2     F(REF-CI)=        0.0006606172
     3     F(REF-CI)=        0.0053100090
 -----------------------------------------

 Dipole moment matrix elements, x, y, z, in A.U.

 Dimension of ionized spaces for PT:
 (N-2) space:         1715 /  (N-1) space:         2842 /  N space:         2891
 (N+1) space:         2842 /  (N+2) space:         1715

 <<<Ionized spaces for internal:
         0:         1225 /      -1-0:         1960 /     0-1-0:         2891
  -1-0-1-0:         2842 / 0-1-0-1-0:         3381

 Diagonal elements of averaged one-particle density matrix:
       2       3       4       5       6       7       8
  0.9926  0.9836  0.9870  0.9907  0.0184  0.0169  0.0108
  0.9870  0.6553  0.6629  0.6617  0.0133  0.0120  0.0078

 Orbital energies:
 -------- Doubly-occupied orbitals (highest several orbs.) -------
             1
 -1.598521D+01
 -------- Active orbitals ----------------------------------------
             2            3            4            5            6
 -1.497882D+00-7.849628D-01-1.015660D+00-7.335075D-01 1.505159D-01
             7            8
  2.307865D-01 4.121674D-01
 -------- External orbitals (lowest several orbs.) ---------------
             9           10           11           12           13
  1.146814D-01 1.961921D-01 2.561442D-01 5.262925D-01 5.738844D-01
            14           15           16           17           18
  6.523210D-01 8.646810D-01 1.050054D+00 1.108364D+00 1.226139D+00

 *** Quasi-degeneracy checking

 === Det (|Ci| > 1.0D-01 and dE < 5.0D-03)

 # of small denominators (single excitations)
 State       dEmin  dE < 5.0D-03  dE < 5.0D-04  dE < 5.0D-05  dE < 5.0D-06
 ----- ----------- ------------- ------------- ------------- -------------
     1    5.00D-03             0             0             0             0
     2    5.00D-03             0             0             0             0
     3    5.00D-03             0             0             0             0

 # of small denominators (double excitations)
 State       dEmin  dE < 5.0D-03  dE < 5.0D-04  dE < 5.0D-05  dE < 5.0D-06
 ----- ----------- ------------- ------------- ------------- -------------
     1    5.00D-03             0             0             0             0
     2    5.00D-03             0             0             0             0
     3    5.00D-03             0             0             0             0

 *** Zeroth-Order Setup (Granovsky's zeroth-order vectors)
 Zeroth-order effective Hamiltonian
  (= Sum_i e(i)*<I|a+(i)a(i)|J> ):
                   1            2            3
     1 -7.221969D+00
     2 -9.985971D-03-7.193392D+00
     3 -9.948047D-05-3.387370D-03-6.945487D+00

 Zeroth-order vectors:
 State #    1
       MC st            1           2           3
       Coeff    9.537D-01   3.006D-01   3.981D-03
 State #    2
       MC st            2           1           3
       Coeff   -9.536D-01   3.007D-01  -1.307D-02
 State #    3
       MC st            3           2           1
       Coeff    9.999D-01  -1.367D-02   1.338D-04

 *** GMC-QDPT computation

 (Integral reading:  CPU/Wall time =           0.00 /           0.00 sec.)

 One-external:
   0 -ionized terms: CPU/Wall time =           0.03 /           0.03 sec.
 (-1)-ionized terms: CPU/Wall time =           0.08 /           0.09 sec.
 (+1)-ionized terms: CPU/Wall time =           0.03 /           0.02 sec.
 (+1)-ionized terms: CPU/Wall time =           0.00 /           0.01 sec.
 (+2)-ionized terms: CPU/Wall time =           0.00 /           0.00 sec.

 Internal:
 # of macro loops for internal contribution =         1 (input)
 Loop:    1
 Dimension of internal CISD space     =         0  (after screening)
 Space construction: CPU/Wall time =           0.02 /           0.02 sec.
 Internal terms:     CPU/Wall time =           0.00 /           0.00 sec.

 Two-external:
   0 -ionized terms: CPU/Wall time =           0.06 /           0.06 sec.
 (-1)-ionized terms: CPU/Wall time =           1.00 /           1.00 sec.
 (-2)-ionized terms: CPU/Wall time =           0.17 /           0.17 sec.

 Total time:         CPU/Wall time =           1.39 /           1.40 sec.

 ***                  ***
 *** GMC-QDPT Results ***
 ***                  ***

 Diagonal elements of effective Hamiltonian:
 Heff(  1) =   -55.92280260
 Heff(  2) =   -55.85667373
 Heff(  3) =   -55.63042152

 Off-diagonal elements of effective Hamiltonian:
                   1            2
     2 -2.236459D-02
     3  1.385516D-03-2.629335D-03

 ******** GMC-QDPT energies ********
 ----------------------------------------------------------------------------
   State                        1st order                           2nd order
 ----------------------------------------------------------------------------
     1     E(REF-CI)=      -55.8305465266   E(GMC-QDPT2)=      -55.9296570026
     2     E(REF-CI)=      -55.7427206072   E(GMC-QDPT2)=      -55.8498592047
     3     E(REF-CI)=      -55.5188108761   E(GMC-QDPT2)=      -55.6303816403
 ----------------------------------------------------------------------------

 Excitation energies (invalid if E(1)/=E(GS)):
 ----------------------------------------------------------------------------
   State                        1st order                           2nd order
 ----------------------------------------------------------------------------

     TZ Sorted GMC-PT ENERGIES:
         1      -55.9296570026
         2      -55.8498592047
         3      -55.6303816403
     2     E(REF-CI)=        2.3898662 eV   E(GMC-QDPT2)=        2.1714098 eV
     3     E(REF-CI)=        8.4827635 eV   E(GMC-QDPT2)=        8.1437016 eV
 ----------------------------------------------------------------------------

 Main characters of perturbed GMC-QDPT states:

 State #    1  Energy =     -55.929657003  S =  0.500

      Det      Coef    Occupancy (Ignoring core)
      ---      ----    --------- --------- -----
        1    0.970011  11110001110000
       71    0.103532  11110001011000
      393    0.078260  10110101010010
      717    0.055841  11010011100001

 State #    2  Energy =     -55.849859205  S =  0.500

      Det      Coef    Occupancy (Ignoring core)
      ---      ----    --------- --------- -----
        1    0.106875  11110001110000
       71   -0.975680  11110001011000
      822    0.056063  11010011001001

 State #    3  Energy =     -55.630381640  S =  0.500

      Det      Coef    Occupancy (Ignoring core)
      ---      ----    --------- --------- -----
       36   -0.973417  11110001101000
      113   -0.050518  10110100111000
      463   -0.080260  10110101001010

 <<<Max |V/de| = 3.008D-02  Thresh = 1.000D+00

 Oscillator strength (invalid if E(1)/=E(GS)):
 ----------------------------------------------------------------------------
   State                        1st order                           2nd order
 ----------------------------------------------------------------------------
     2     F(REF-CI)=        0.0006606172     F(GMC-PT2)=        0.0006331795
     3     F(REF-CI)=        0.0053100090     F(GMC-PT2)=        0.0051690067
 ----------------------------------------------------------------------------

 Dipole moment matrix elements, x, y, z, in A.U.
States    1    1        0.2300051158        0.2739788718        0.6988031920
States    1    2       -0.0532571735        0.0021937537       -0.0951895948
States    1    3       -0.0540853999       -0.1286961755        0.0801228811
States    2    1       -0.0532571735        0.0021937537       -0.0951895948
States    2    2        0.2340141746        0.0745854099        0.2936153004
States    2    3        0.0829358892       -0.0689443994       -0.0012551523
States    3    1       -0.0540853999       -0.1286961755        0.0801228811
States    3    2        0.0829358892       -0.0689443994       -0.0012551523
States    3    3        0.3912740377        0.5080175544        0.2417639308

 Oscillator strength (valid only when positive): 
 ----------------------------------------------------------------------------
  States                        1st order                           2nd order
 ----------------------------------------------------------------------------
  1  1     F(REF-CI)=        0.0000000000     F(GMC-PT2)=        0.0000000000
  1  2     F(REF-CI)=       -0.0006606172     F(GMC-PT2)=       -0.0006331795
  1  3     F(REF-CI)=       -0.0053100090     F(GMC-PT2)=       -0.0051690067
  2  1     F(REF-CI)=        0.0006606172     F(GMC-PT2)=        0.0006331795
  2  2     F(REF-CI)=        0.0000000000     F(GMC-PT2)=        0.0000000000
  2  3     F(REF-CI)=       -0.0017514384     F(GMC-PT2)=       -0.0017021608
  3  1     F(REF-CI)=        0.0053100090     F(GMC-PT2)=        0.0051690067
  3  2     F(REF-CI)=        0.0017514384     F(GMC-PT2)=        0.0017021608
  3  3     F(REF-CI)=        0.0000000000     F(GMC-PT2)=        0.0000000000
 CPU     0: STEP CPU TIME=     1.87 TOTAL CPU TIME=         14.2 (      0.2 MIN)
 TOTAL WALL CLOCK TIME=         14.2 SECONDS, CPU UTILIZATION IS    99.86%

     !!! DIABATIZATION FOR REF CI STATES !!!

 *******************************************************
          $DMO GROUP FOUND IN THE INPUT.
        DIABATIZATION OF ADIABATIC STATES BEGINS.
     PROGRAMMED BY TAO ZENG (CARLETON UNIVERSITY).
               Email: toby.zeng@carleton.ca
     See T. Zeng, J. Chem. Phys. 2017, 146, 144103
 *******************************************************

 *************************************************************************
     STEP 1: TRANSFORMATION OF ADIABATIC STATES TO THE DMO REPRESENTATION
         See Atchity and Ruedenberg, J. Chem. Phys. 1999, 111, 2910
 *************************************************************************

Read in Diabatic Molecualr Orbitals:

                      1          2          3          4          5

    1  N  1  S    0.008609   0.000000   0.000000  -0.013219   0.279491
    2  N  1  S    0.442914  -0.000000   0.000000  -0.184329   0.867803
    3  N  1  S    0.276913   0.000000  -0.000000  -0.288315   0.144236
    4  N  1  X   -0.000000   0.493155  -0.024636  -0.000000  -0.000000
    5  N  1  Y    0.000000   0.024636   0.493155  -0.000000   0.000000
    6  N  1  Z    0.090197   0.000000   0.000000   0.593421   0.705309
    7  N  1  X   -0.000000   0.210628  -0.010522   0.000000   0.000000
    8  N  1  Y    0.000000   0.010522   0.210628  -0.000000  -0.000000
    9  N  1  Z   -0.004381   0.000000   0.000000   0.381592  -0.106092
   10  N  1 XX   -0.000457   0.010719  -0.000535  -0.012387   0.006153
   11  N  1 YY   -0.000457  -0.010719   0.000535  -0.012387   0.006153
   12  N  1 ZZ    0.000914  -0.000000   0.000000   0.024773  -0.012306
   13  N  1 XY    0.000000  -0.000618  -0.012377  -0.000000   0.000000
   14  N  1 XZ   -0.000000   0.026529  -0.001325  -0.000000   0.000000
   15  N  1 YZ    0.000000   0.001325   0.026529  -0.000000   0.000000
   16  H  2  S    0.194462  -0.176074   0.343485   0.112865  -0.523343
   17  H  2  S    0.003574  -0.023812   0.046452   0.024014  -0.054445
   18  H  2  X    0.018760   0.009101   0.022834   0.009336  -0.039151
   19  H  2  Y   -0.032493   0.022287  -0.020044  -0.016171   0.067811
   20  H  2  Z   -0.009251   0.008464  -0.016511   0.018769  -0.010566
   21  H  3  S    0.194462  -0.209430  -0.324227   0.112865  -0.523343
   22  H  3  S    0.003574  -0.028322  -0.043847   0.024014  -0.054445
   23  H  3  X    0.018760   0.006781  -0.023627   0.009336  -0.039151
   24  H  3  Y    0.032493  -0.024174  -0.017723   0.016171  -0.067811
   25  H  3  Z   -0.009251   0.010067   0.015585   0.018769  -0.010566
   26  H  4  S    0.194462   0.385503  -0.019258   0.112865  -0.523343
   27  H  4  S    0.003574   0.052134  -0.002604   0.024014  -0.054445
   28  H  4  X   -0.037519  -0.032295   0.001613  -0.018672   0.078302
   29  H  4  Y    0.000000   0.001067   0.021353  -0.000000   0.000000
   30  H  4  Z   -0.009251  -0.018530   0.000926   0.018769  -0.010566

                      6          7

    1  N  1  S    0.000000  -0.000000
    2  N  1  S    0.000000  -0.000000
    3  N  1  S   -0.000000   0.000000
    4  N  1  X   -0.930415  -0.002083
    5  N  1  Y   -0.002083   0.930415
    6  N  1  Z   -0.000000   0.000000
    7  N  1  X   -0.046866  -0.000105
    8  N  1  Y   -0.000105   0.046866
    9  N  1  Z   -0.000000   0.000000
   10  N  1 XX    0.001538   0.000003
   11  N  1 YY   -0.001538  -0.000003
   12  N  1 ZZ   -0.000000   0.000000
   13  N  1 XY   -0.000004   0.001776
   14  N  1 XZ    0.039985   0.000090
   15  N  1 YZ    0.000090  -0.039985
   16  H  2  S   -0.362630  -0.631354
   17  H  2  S   -0.065964  -0.114846
   18  H  2  X    0.002763  -0.037520
   19  H  2  Y    0.037435   0.040736
   20  H  2  Z    0.001882   0.003276
   21  H  3  S   -0.365454   0.629724
   22  H  3  S   -0.066477   0.114549
   23  H  3  X    0.002595   0.037532
   24  H  3  Y   -0.037617   0.040567
   25  H  3  Z    0.001896  -0.003268
   26  H  4  S    0.728084   0.001630
   27  H  4  S    0.132441   0.000297
   28  H  4  X   -0.062317  -0.000140
   29  H  4  Y    0.000055  -0.024345
   30  H  4  Z   -0.003778  -0.000008

NUMBER OF SUB ACTIVE SPACES:   1
ROTATE ACTIVE MOS TO DMOS IN EACH SUB-SPACE

SPACE  1:

OVERLAP BETWEEN ORTHONORMAL AND PRE-ORTHONORMAL REF. DMOS

             1           2           3           4           5

    1    0.9786401   0.0212302   0.0079281  -0.0078395  -0.0036786
    2    0.0212302   0.9093141   0.0756497   0.0325146  -0.0567993
    3    0.0079281   0.0756497   1.0067838   0.0245244  -0.0596536
    4   -0.0078395   0.0325146   0.0245244   0.9937781  -0.0093511
    5   -0.0036786  -0.0567993  -0.0596536  -0.0093511   1.1478253
    6   -0.0002241  -0.0641485   0.0748694   0.0379716  -0.0126245
    7    0.0023781  -0.0588336  -0.0275675  -0.0448969   0.0750008

             6           7

    1   -0.0002241   0.0023781
    2   -0.0641485  -0.0588336
    3    0.0748694  -0.0275675
    4    0.0379716  -0.0448969
    5   -0.0126245   0.0750008
    6    1.0545426   0.0024679
    7    0.0024679   1.0333882
REFERENCE DMOS AFTER ORTHONORMALIZATION:

                      1          2          3          4          5

    1  N  1  S    0.009262   0.013626   0.013060  -0.012592   0.245944
    2  N  1  S    0.453023   0.037353   0.040483  -0.180288   0.764141
    3  N  1  S    0.280870   0.010294   0.010082  -0.288728   0.126782
    4  N  1  X   -0.010600   0.483999   0.003821   0.017972   0.013073
    5  N  1  Y   -0.007117   0.038324   0.512556   0.028814  -0.031796
    6  N  1  Z    0.098962   0.011027   0.021212   0.602651   0.622359
    7  N  1  X   -0.004904   0.233345  -0.024857  -0.005367   0.009121
    8  N  1  Y   -0.001764  -0.003355   0.212483  -0.002223   0.007402
    9  N  1  Z   -0.001303  -0.018200  -0.011745   0.385572  -0.092418
   10  N  1 XX   -0.000818   0.012908  -0.001052  -0.012933   0.005887
   11  N  1 YY   -0.000311  -0.011438   0.002071  -0.012095   0.004879
   12  N  1 ZZ    0.001129  -0.001469  -0.001020   0.025029  -0.010766
   13  N  1 XY    0.000087   0.000452  -0.012403   0.000318  -0.000706
   14  N  1 XZ   -0.000667   0.032876  -0.006599  -0.002384   0.001612
   15  N  1 YZ   -0.000055  -0.003005   0.025921  -0.002182   0.003679
   16  H  2  S    0.203452  -0.323021   0.349978   0.101871  -0.418400
   17  H  2  S    0.004516  -0.045611   0.048813   0.021877  -0.040647
   18  H  2  X    0.018955   0.003719   0.019287   0.007127  -0.030631
   19  H  2  Y   -0.033819   0.036384  -0.020571  -0.016594   0.057657
   20  H  2  Z   -0.009424   0.010270  -0.018222   0.018941  -0.009803
   21  H  3  S    0.203916  -0.233068  -0.297755   0.167347  -0.526247
   22  H  3  S    0.004365  -0.030134  -0.037704   0.033171  -0.058754
   23  H  3  X    0.019033   0.009263  -0.026017   0.011157  -0.037375
   24  H  3  Y    0.033809  -0.030735  -0.015882   0.020711  -0.064354
   25  H  3  Z   -0.009643   0.008988   0.013905   0.018035  -0.007856
   26  H  4  S    0.188906   0.455318  -0.134385   0.074445  -0.434964
   27  H  4  S    0.002387   0.065176  -0.020002   0.017491  -0.044134
   28  H  4  X   -0.037541  -0.035770   0.013247  -0.015611   0.066684
   29  H  4  Y   -0.000073  -0.001977   0.021007  -0.001431   0.002492
   30  H  4  Z   -0.008874  -0.022065   0.002017   0.019637  -0.010153

                      6          7

    1  N  1  S    0.003342  -0.017302
    2  N  1  S    0.015277  -0.061165
    3  N  1  S    0.011935  -0.021566
    4  N  1  X   -0.853679   0.027536
    5  N  1  Y   -0.039607   0.919880
    6  N  1  Z   -0.015022  -0.017985
    7  N  1  X   -0.028209   0.011704
    8  N  1  Y   -0.015339   0.050236
    9  N  1  Z   -0.015315   0.022149
   10  N  1 XX    0.002855  -0.000284
   11  N  1 YY   -0.001804  -0.001474
   12  N  1 ZZ   -0.001051   0.001758
   13  N  1 XY    0.000881   0.001476
   14  N  1 XZ    0.040487   0.001467
   15  N  1 YZ   -0.001725  -0.038531
   16  H  2  S   -0.395637  -0.584741
   17  H  2  S   -0.069812  -0.108373
   18  H  2  X    0.000935  -0.033094
   19  H  2  Y    0.040368   0.036018
   20  H  2  Z    0.002890   0.004818
   21  H  3  S   -0.353356   0.634004
   22  H  3  S   -0.064359   0.113976
   23  H  3  X    0.003935   0.039296
   24  H  3  Y   -0.038022   0.042667
   25  H  3  Z    0.000614  -0.000905
   26  H  4  S    0.719684   0.056565
   27  H  4  S    0.129802   0.007112
   28  H  4  X   -0.060841  -0.007104
   29  H  4  Y   -0.001424  -0.023350
   30  H  4  Z   -0.005900   0.000414

 -------------------------------------------
       MAXIMIZING MORMO OVERLAP TERM        
 -------------------------------------------
   SWEEP    VALUE       PROGRESS
     0     5.40050
     1     6.94362     1.54311363
     2     6.95241     0.00879185
     3     6.95241     0.00000036
     4     6.95241     0.00000000
     5     6.95241     0.00000000
 THE ROTATION IS DONE
FLIPPING SIGN FOR ORBITAL   7
ACTIVE ORBITALS AFTER MORMO:

                      1          2          3          4          5

    1  N  1  S    0.007750   0.020327   0.012978  -0.012123   0.194910
    2  N  1  S    0.431071   0.045817   0.021463  -0.188196   0.697231
    3  N  1  S    0.329182  -0.026558   0.015675  -0.275077   0.207961
    4  N  1  X   -0.004078   0.438909   0.022290   0.029354   0.000039
    5  N  1  Y   -0.012196   0.058629   0.494529   0.027389  -0.040915
    6  N  1  Z    0.085921   0.028670   0.029773   0.603209   0.594262
    7  N  1  X   -0.013365   0.297765  -0.076561  -0.038186   0.033540
    8  N  1  Y    0.002322  -0.056013   0.205258  -0.030154   0.031541
    9  N  1  Z    0.024604  -0.049196  -0.032597   0.385292  -0.053657
   10  N  1 XX   -0.003955   0.020952  -0.003300  -0.012324   0.027705
   11  N  1 YY    0.003788  -0.020761   0.004128  -0.008970  -0.034839
   12  N  1 ZZ    0.000167  -0.000191  -0.000828   0.021294   0.007134
   13  N  1 XY    0.004256  -0.000739  -0.007585  -0.002624  -0.036475
   14  N  1 XZ    0.001050   0.022946  -0.007268  -0.000244  -0.025803
   15  N  1 YZ    0.003086  -0.004060   0.016980  -0.004609  -0.018902
   16  H  2  S    0.185297  -0.219069   0.328546   0.098042  -0.420369
   17  H  2  S    0.006733  -0.116801   0.089257   0.031786  -0.053639
   18  H  2  X    0.001161   0.020254  -0.002302   0.000752  -0.021467
   19  H  2  Y   -0.030944   0.019008  -0.032347  -0.014310   0.044389
   20  H  2  Z   -0.007617   0.001166  -0.020971   0.017489  -0.019103
   21  H  3  S    0.183148  -0.225079  -0.320109   0.133212  -0.518645
   22  H  3  S   -0.000581  -0.032703  -0.029896   0.035451  -0.063875
   23  H  3  X    0.013585   0.009969  -0.022340   0.004196  -0.022967
   24  H  3  Y    0.031989  -0.027711  -0.031301   0.012202  -0.056354
   25  H  3  Z   -0.003019   0.004386   0.008593   0.022043  -0.011227
   26  H  4  S    0.183593   0.399507  -0.069282   0.088586  -0.455960
   27  H  4  S    0.001712   0.132592  -0.067583   0.024017  -0.061307
   28  H  4  X   -0.030493  -0.023133  -0.001215  -0.017752   0.053251
   29  H  4  Y   -0.010398  -0.017684   0.017957  -0.003302  -0.007128
   30  H  4  Z   -0.012063  -0.028150  -0.003422   0.017069  -0.010860

                      6          7

    1  N  1  S    0.045351  -0.073915
    2  N  1  S    0.102631  -0.157832
    3  N  1  S   -0.108138   0.113929
    4  N  1  X   -0.855263   0.001815
    5  N  1  Y   -0.008534   0.902055
    6  N  1  Z   -0.034295  -0.010356
    7  N  1  X   -0.027285   0.060478
    8  N  1  Y   -0.068712   0.096255
    9  N  1  Z   -0.010473   0.040458
   10  N  1 XX    0.036702   0.021007
   11  N  1 YY   -0.047648  -0.002034
   12  N  1 ZZ    0.010947  -0.018973
   13  N  1 XY    0.018121  -0.014229
   14  N  1 XZ    0.018440  -0.007757
   15  N  1 YZ    0.015225  -0.046672
   16  H  2  S   -0.296262  -0.581242
   17  H  2  S   -0.143429  -0.170350
   18  H  2  X    0.034721  -0.018479
   19  H  2  Y    0.028280   0.043073
   20  H  2  Z    0.019471  -0.009557
   21  H  3  S   -0.336848   0.623167
   22  H  3  S   -0.068680   0.119840
   23  H  3  X   -0.005607   0.025911
   24  H  3  Y   -0.027896   0.055516
   25  H  3  Z   -0.004169   0.020954
   26  H  4  S    0.673494  -0.018074
   27  H  4  S    0.218712   0.051128
   28  H  4  X   -0.037932   0.007929
   29  H  4  Y   -0.008444  -0.044773
   30  H  4  Z   -0.011848  -0.016944

Actually Used Diabatic Molecualr Orbitals:

                      1          2          3          4          5

    1  N  1  S    0.007750   0.020327   0.012978  -0.012123   0.194910
    2  N  1  S    0.431071   0.045817   0.021463  -0.188196   0.697231
    3  N  1  S    0.329182  -0.026558   0.015675  -0.275077   0.207961
    4  N  1  X   -0.004078   0.438909   0.022290   0.029354   0.000039
    5  N  1  Y   -0.012196   0.058629   0.494529   0.027389  -0.040915
    6  N  1  Z    0.085921   0.028670   0.029773   0.603209   0.594262
    7  N  1  X   -0.013365   0.297765  -0.076561  -0.038186   0.033540
    8  N  1  Y    0.002322  -0.056013   0.205258  -0.030154   0.031541
    9  N  1  Z    0.024604  -0.049196  -0.032597   0.385292  -0.053657
   10  N  1 XX   -0.003955   0.020952  -0.003300  -0.012324   0.027705
   11  N  1 YY    0.003788  -0.020761   0.004128  -0.008970  -0.034839
   12  N  1 ZZ    0.000167  -0.000191  -0.000828   0.021294   0.007134
   13  N  1 XY    0.004256  -0.000739  -0.007585  -0.002624  -0.036475
   14  N  1 XZ    0.001050   0.022946  -0.007268  -0.000244  -0.025803
   15  N  1 YZ    0.003086  -0.004060   0.016980  -0.004609  -0.018902
[...]
 STATE #  1'S GMC-PT-LEVEL DIABATIC ENERGY=     -55.917514866       0.000000000
 STATE #  2'S GMC-PT-LEVEL DIABATIC ENERGY=     -55.812606888       2.854691488
 STATE #  3'S GMC-PT-LEVEL DIABATIC ENERGY=     -55.679776094       6.469201488

 --- DIABATIC COUPLINGS (OFF DIAGONAL ELEMENTS)---  HATREE            EV
 STATE #  1 &  2'S GMC-PT-LEVEL COUPLING  =      -0.036543488      -0.994398956
 STATE #  1 &  3'S GMC-PT-LEVEL COUPLING  =      -0.037994783      -1.033890708
 STATE #  2 &  3'S GMC-PT-LEVEL COUPLING  =       0.083924793       2.283709924

 ---------------------------------------
     - ROTATION TO DIABATIC STATES -    
 ---------------------------------------
 ROWS=ADIABATIC, COLUMNS=DIABATIC STATES

             1           2           3

    1   -0.9642654  -0.2580678  -0.0599436
    2    0.2009723  -0.8599158   0.4692068
    3   -0.1726336   0.4403929   0.8810515

 ---------------------------------------
          - DIABATIC STATES -           
 ---------------------------------------

 State #    1  Energy =     -55.917514866

      Det      Coef        Coefp    Occupancy (Ignoring core)
      ---      ----        ----    --------- --------- -----
        1    0.924080   -0.924080  222+000
        8   -0.145648    0.145648  2-2+0+0
      386    0.115649   -0.115649  2+2+0-0
        7    0.098706    0.098706  22-+0+0
        4   -0.096572    0.096572  2-2++00
      176    0.093012   -0.093012  2+2+-00
      351   -0.092613   -0.092613  22++0-0
        3   -0.079446   -0.079446  22-++00
      141    0.076787    0.076787  22++-00
       18   -0.069775    0.069775  2-2+00+
      393   -0.067952   -0.067952  202+020
      736    0.066180   -0.066180  2+2+00-
      717   -0.065803   -0.065803  220+002
        6    0.061623   -0.061623  22200+0
       16   -0.054631    0.054631  222000+
      708    0.042020   -0.042020  2-++0+-
      215   -0.038915   -0.038915  022+200
      402    0.038843   -0.038843  2+-+0-+
      705   -0.035012   -0.035012  -2+++0-
      227   -0.034903   -0.034903  +2-+-0+
      218    0.034424   -0.034424  +-2+-+0
       13    0.034265    0.034265  2--+++0
      390    0.033848   -0.033848  -+2++-0
      212    0.031018    0.031018  +220200
      561    0.030324    0.030324  2+++--0
       76    0.029999    0.029999  2+2-0+0
     1051   -0.029361   -0.029361  2+++0--
      113   -0.028306    0.028306  +-220+0
      387   -0.028000    0.028000  2+20+-0
      143   -0.027700   -0.027700  220+200
       29   -0.026088   -0.026088  2--+0++
      424   -0.026049   -0.026049  +-2++-0
       51   -0.025232    0.025232  22+-00+
      773    0.024530   -0.024530  +2-++0-
      184   -0.024445   -0.024445  -+2+-+0
      147    0.024111   -0.024111  220+-+0
       11    0.024064   -0.024064  2-20++0
       17    0.023924    0.023924  22-+00+
      702    0.023897    0.023897  22+0+0-
      159    0.023700   -0.023700  -2++-0+
      183   -0.023538    0.023538  202+-+0
      122    0.023246    0.023246  +2-200+
      353   -0.023223   -0.023223  220++-0
      389    0.023001    0.023001  202++-0
      391    0.022708   -0.022708  2+20020
      179   -0.020613   -0.020613  202+200
       27   -0.020383    0.020383  2-200++

 State #    2  Energy =     -55.812606888

      Det      Coef        Coefp    Occupancy (Ignoring core)
      ---      ----        ----    --------- --------- -----
       71   -0.925403    0.925403  2+22000
       74    0.129470   -0.129470  2022+00
       77    0.107471   -0.107471  2+-20+0
       78    0.102924   -0.102924  20220+0
      456   -0.095255   -0.095255  2++20-0
      246    0.094449    0.094449  2++2-00
       76    0.094442    0.094442  2+2-0+0
      386   -0.079511    0.079511  2+2+0-0
       73   -0.076130    0.076130  2+-2+00
       88    0.070022   -0.070022  202200+
      736    0.067967   -0.067967  2+2+00-
       86   -0.064703   -0.064703  2+2-00+
      822    0.064507   -0.064507  2+02002
      106    0.051225    0.051225  +222000
      813    0.047056   -0.047056  20+20+-
       36    0.043890    0.043890  22+2000
      320    0.038765    0.038765  0+22200
       99   -0.038433    0.038433  20-20++
      323   -0.038389    0.038389  +022-+0
       81    0.038283    0.038283  202-++0
       72   -0.038169   -0.038169  2+2-+00
      113    0.037646   -0.037646  +-220+0
       83    0.036491   -0.036491  20-2++0
      183   -0.035672    0.035672  202+-+0
      810   -0.035652   -0.035652  -++2+0-
      180   -0.034071    0.034071  -+2+200
      317    0.033461   -0.033461  ++2-200
      177    0.033234   -0.033234  2+20200
      332   -0.032966    0.032966  ++-2-0+
       38   -0.029306    0.029306  2202+00
      111    0.028748   -0.028748  +22-0+0
      252   -0.028162   -0.028162  2+02-+0
      176    0.027540   -0.027540  2+2+-00
      248    0.027313   -0.027313  2+02200
      393   -0.026341   -0.026341  202+020
      529    0.025115    0.025115  +022+-0
      807   -0.025073    0.025073  2++-+0-
      192   -0.024682    0.024682  2+-+-0+
      878    0.023575    0.023575  ++-2+0-
      526   -0.023298   -0.023298  ++220-0
      264    0.022858   -0.022858  -++2-0+
       97   -0.022098   -0.022098  202-0++
       89   -0.021757   -0.021757  -+2200+
      253   -0.021662   -0.021662  20+2-+0
      742    0.020931    0.020931  2+-+0+-
      534    0.020882    0.020882  0+22020
      458    0.020462   -0.020462  2+02+-0
      806    0.020051    0.020051  2++200-

 State #    3  Energy =     -55.679776094

      Det      Coef        Coefp    Occupancy (Ignoring core)
      ---      ----        ----    --------- --------- -----
       36   -0.928466   -0.928466  22+2000
      456   -0.119382   -0.119382  2++20-0
       43    0.102865    0.102865  2-+20+0
      246   -0.101951   -0.101951  2++2-00
       42   -0.091934    0.091934  22020+0
       38    0.080815   -0.080815  2202+00
       53    0.074847    0.074847  2-+200+
      463    0.073481   -0.073481  20+2020
       51   -0.072588    0.072588  22+-00+
      806   -0.072427   -0.072427  2++200-
       39    0.069759    0.069759  2-+2+00
      351   -0.064479   -0.064479  22++0-0
      701    0.064470    0.064470  22++00-
       41    0.049900   -0.049900  22+-0+0
      472   -0.047925   -0.047925  2+020-+
       37   -0.046769    0.046769  22+-+00
       71   -0.044799    0.044799  2+22000
      121   -0.041558    0.041558  +22-00+
      285    0.040216   -0.040216  02+2200
      112   -0.039716   -0.039716  +2-20+0
       64    0.038503   -0.038503  2-020++
      460   -0.037175   -0.037175  -++2+-0
      457   -0.035435    0.035435  2++-+-0
       52    0.035398   -0.035398  220200+
      282    0.034955    0.034955  +2+-200
      297    0.034821   -0.034821  +202-0+
      288   -0.034368   -0.034368  +-+2-+0
      145   -0.033539   -0.033539  -2++200
      142    0.033352    0.033352  22+0200
      148   -0.032972   -0.032972  2-++-+0
       73    0.032192   -0.032192  2+-2+00
      106    0.031985    0.031985  +222000
       46    0.029808   -0.029808  2-+-++0
      561    0.027754    0.027754  2+++--0
      254    0.027235   -0.027235  -++2-+0
       48   -0.026562    0.026562  2-02++0
      358   -0.026473    0.026473  2-++020
      461    0.026111   -0.026111  2++-020
       16   -0.025885    0.025885  222000+
        3    0.025549    0.025549  22-++00
      494    0.025238   -0.025238  +-+2+-0
      249    0.025077   -0.025077  20+2200
      157    0.024994   -0.024994  220+-0+
      281    0.024903   -0.024903  +2+2-00
      108   -0.022687   -0.022687  +2-2+00
      253    0.021919    0.021919  20+2-+0
      771    0.021455    0.021455  +22+00-
      843   -0.021312   -0.021312  +202+0-
      141    0.021220    0.021220  22++-00
      716    0.020544    0.020544  22+0002
       19    0.020102    0.020102  -22+00+
       44    0.020081   -0.020081  -2+20+0

 ---------------------------------------
      - DIABATIC STATES IN CMO -        
 ---------------------------------------

 State #    1  Energy =     -55.917514866

      Det      Coef        Coefp    Occupancy (Ignoring core)
      ---      ----        ----    --------- --------- -----
        1    0.915508   -0.915508  222+000
       71    0.294664   -0.294664  2+22000
       36    0.160777    0.160777  22+2000
      393   -0.073131   -0.073131  202+020
      717   -0.055890   -0.055890  220+002
      179   -0.040965   -0.040965  202+200
      106   -0.037395   -0.037395  +222000
       17   -0.035035   -0.035035  22-+00+
        8   -0.035028    0.035028  2-2+0+0
        2    0.033394   -0.033394  2220+00
      177   -0.032613    0.032613  2+20200
      215   -0.032139   -0.032139  022+200
      143   -0.031490   -0.031490  220+200
       76    0.029340    0.029340  2+2-0+0
      180    0.028537   -0.028537  -+2+200
      358   -0.027532    0.027532  2-++020
      212    0.027501    0.027501  +220200
      183    0.027255   -0.027255  202+-+0
      392    0.027233    0.027233  2+-+020
      113   -0.026988    0.026988  +-220+0
      402   -0.025126    0.025126  2+-+0-+
       74   -0.023715    0.023715  2022+00
      394   -0.023536    0.023536  -+2+020
      705    0.023099    0.023099  -2+++0-
      178   -0.023013   -0.023013  2+-+200
      387   -0.023003    0.023003  2+20+-0
      708   -0.022979    0.022979  2-++0+-
      357   -0.022667   -0.022667  220+020
      428    0.021905    0.021905  +-2+020
      227    0.021811    0.021811  +2-+-0+
      787   -0.021388    0.021388  +2-+002
      390    0.021156   -0.021156  -+2++-0
      388   -0.021015   -0.021015  2+-++-0
      218    0.020932   -0.020932  +-2+-+0
      429   -0.020830   -0.020830  022+020
      719    0.020609    0.020609  -2++002
      389   -0.020595   -0.020595  202++-0
       13    0.020514    0.020514  2--+++0
       51    0.020423   -0.020423  22+-00+
      716   -0.020081   -0.020081  22+0002

 State #    2  Energy =     -55.812606888

      Det      Coef        Coefp    Occupancy (Ignoring core)
      ---      ----        ----    --------- --------- -----
       71   -0.809086    0.809086  2+22000
       36   -0.437286   -0.437286  22+2000
        1    0.338052   -0.338052  222+000
      822    0.051737   -0.051737  2+02002
      248    0.042169   -0.042169  2+02200
      249    0.032612   -0.032612  20+2200
      393   -0.030681   -0.030681  202+020
      253   -0.030342   -0.030342  20+2-+0
      112    0.029450    0.029450  +2-20+0
       74    0.029318   -0.029318  2022+00
      113    0.029043   -0.029043  +-220+0
      177    0.028221   -0.028221  2+20200
      109    0.028003   -0.028003  +-22+00
      813   -0.027512    0.027512  20+20+-
      320    0.026670    0.026670  0+22200
        6    0.026514   -0.026514  22200+0
      247   -0.025117    0.025117  2++-200
      111    0.024876   -0.024876  +22-0+0
       83    0.024474   -0.024474  20-2++0
      317    0.023834   -0.023834  ++2-200
      142    0.023117    0.023117  22+0200
      534    0.022064    0.022064  0+22020
      807    0.021675   -0.021675  2++-+0-
       81    0.021408    0.021408  202-++0
      143   -0.021061   -0.021061  220+200
      250   -0.020916   -0.020916  -++2200
      810    0.020720    0.020720  -++2+0-
      751    0.020602   -0.020602  2+20002
       87   -0.020136    0.020136  2+-200+

 State #    3  Energy =     -55.679776094

      Det      Coef        Coefp    Occupancy (Ignoring core)
      ---      ----        ----    --------- --------- -----
       36   -0.854756   -0.854756  22+2000
       71    0.470400   -0.470400  2+22000
      463    0.085197   -0.085197  20+2020
      108   -0.039627   -0.039627  +2-2+00
      462   -0.039217    0.039217  2+02020
      142    0.037809    0.037809  22+0200
      121    0.037614   -0.037614  +22-00+
      113    0.037533   -0.037533  +-220+0
        3    0.031981    0.031981  22-++00
      285    0.031726   -0.031726  02+2200
      107   -0.030988    0.030988  +22-+00
       72    0.030260    0.030260  2+2-+00
        4   -0.029397    0.029397  2-2++00
      472    0.027882    0.027882  2+020-+
      145   -0.026118   -0.026118  -2++200
      464    0.025809    0.025809  -++2020
      457   -0.025650    0.025650  2++-+-0
      249    0.025231   -0.025231  20+2200
       78   -0.024993    0.024993  20220+0
      282    0.024626    0.024626  +2+-200
       52   -0.024243    0.024243  220200+
      460   -0.024201   -0.024201  -++2+-0
      716    0.024086    0.024086  22+0002
      177   -0.023995    0.023995  2+20200
      771   -0.022514   -0.022514  +22+00-
       51   -0.021502    0.021502  22+-00+
      459    0.021295   -0.021295  20+2+-0
      148   -0.021223   -0.021223  2-++-+0
       40    0.021121   -0.021121  -2+2+00
      561    0.020965    0.020965  2+++--0
       37   -0.020878    0.020878  22+-+00
      498   -0.020634    0.020634  +-+2020
      499    0.020517   -0.020517  02+2020
      458    0.020250   -0.020250  2+02+-0
       79   -0.020125   -0.020125  -+220+0

 ---------------------------------------
    -DIABATIC STATES IN PROTOTYPES-     
 ---------------------------------------

     STATE:    1
 Group Ref#    Coefficients
     1    1    0.944119
     2    2    0.001541
     3    3   -0.005028

WEIGHT OF LISTED PROTOTYPES:   89.14%

     STATE:    2
 Group Ref#    Coefficients
     1    1    0.001541
     2    2    0.944211
     3    3   -0.001149

WEIGHT OF LISTED PROTOTYPES:   89.15%

     STATE:    3
 Group Ref#    Coefficients
     1    1   -0.005043
     2    2   -0.001153
     3    3    0.941142

WEIGHT OF LISTED PROTOTYPES:   88.58%

     DIRECT MAX. DIABATIZATION FINISHED    
 CPU     0: STEP CPU TIME=     0.25 TOTAL CPU TIME=         14.4 (      0.2 MIN)
 TOTAL WALL CLOCK TIME=         14.4 SECONDS, CPU UTILIZATION IS    99.93%

DIABATS FOR SPIN-ORBIT CALCULATION ARE READY

TRANSITION DIPOLES BETWEEN ADIABATS (in A.U.):

STATE PAIR      X         Y         Z
    1    1  0.230005  0.273979  0.698803
    2    1 -0.053257  0.002194 -0.095190
    2    2  0.234014  0.074585  0.293615
    3    1 -0.054085 -0.128696  0.080123
    3    2  0.082936 -0.068944 -0.001255
    3    3  0.391274  0.508018  0.241764


TRANSITION DIPOLES BETWEEN DIABATS (in A.U.):

STATE PAIR      X         Y         Z
    1    1  0.231852  0.233987  0.732473
    2    1 -0.014142  0.050950  0.000026
    2    2  0.190088  0.254371  0.251034
    3    1  0.053942  0.045962  0.008164
    3    2  0.032687  0.241755 -0.026872
    3    3  0.433353  0.368224  0.250675

TRANSITION DIPOLES BETWEEN DIRECT MAX. DIABATS (in A.U.):

STATE PAIR      X         Y         Z
    1    1  0.231853  0.233987  0.732473
    2    1 -0.014141  0.050952  0.000026
    2    2  0.190088  0.254372  0.251034
    3    1  0.053943  0.045963  0.008160
    3    2  0.032688  0.241755 -0.026872
    3    3  0.433352  0.368222  0.250675
 No $TRANST Group Found.
 Quit without doing spin-orbit coupling
 ..... DONE WITH MP2 ENERGY .....
 CPU     0: STEP CPU TIME=     0.00 TOTAL CPU TIME=         14.4 (      0.2 MIN)
 TOTAL WALL CLOCK TIME=         14.4 SECONDS, CPU UTILIZATION IS    99.86%
            100000000  WORDS OF DYNAMIC MEMORY USED
 EXECUTION OF GAMESS TERMINATED NORMALLY Wed Nov 16 20:03:43 2022
 DDI: 715512 bytes (0.7 MB / 0 MWords) used by master data server.

 ----------------------------------------
 CPU timing information for all processes
 ========================================
 0: 14.116 + 0.328 = 14.444
 ----------------------------------------
Note: The following floating-point exceptions are signalling: IEEE_DENORMAL
 ddikick.x: exited gracefully.
unset echo
----- accounting info -----
Files used on the master node io002 were:
-rw-r--r-- 1 bsonghao nooijen   20692 Nov 16 20:03 /scratch/bsonghao/nh3_diabatization_2d_at_mode_7_8_dist0.5_0.5.F05
-rw-r--r-- 1 bsonghao nooijen  363520 Nov 16 20:03 /scratch/bsonghao/nh3_diabatization_2d_at_mode_7_8_dist0.5_0.5.F09
-rw-r--r-- 1 bsonghao nooijen 1995920 Nov 16 20:03 /scratch/bsonghao/nh3_diabatization_2d_at_mode_7_8_dist0.5_0.5.F10
-rw-r--r-- 1 bsonghao nooijen  131264 Nov 16 20:03 /scratch/bsonghao/nh3_diabatization_2d_at_mode_7_8_dist0.5_0.5.F13
-rw-r--r-- 1 bsonghao nooijen  180312 Nov 16 20:03 /scratch/bsonghao/nh3_diabatization_2d_at_mode_7_8_dist0.5_0.5.F15
-rw-r--r-- 1 bsonghao nooijen       0 Nov 16 20:03 /scratch/bsonghao/nh3_diabatization_2d_at_mode_7_8_dist0.5_0.5.F16
-rw-r--r-- 1 bsonghao nooijen    9808 Nov 16 20:03 /scratch/bsonghao/nh3_diabatization_2d_at_mode_7_8_dist0.5_0.5.F70
-rw-r--r-- 1 bsonghao nooijen    9808 Nov 16 20:03 /scratch/bsonghao/nh3_diabatization_2d_at_mode_7_8_dist0.5_0.5.F71
-rw-r--r-- 1 bsonghao nooijen   19608 Nov 16 20:03 /scratch/bsonghao/nh3_diabatization_2d_at_mode_7_8_dist0.5_0.5.F72
-rw-r--r-- 1 bsonghao nooijen   19608 Nov 16 20:03 /scratch/bsonghao/nh3_diabatization_2d_at_mode_7_8_dist0.5_0.5.F73
-rw-r--r-- 1 bsonghao nooijen 1920824 Nov 16 20:03 /scratch/bsonghao/nh3_diabatization_2d_at_mode_7_8_dist0.5_0.5.F74
-rw-r--r-- 1 bsonghao nooijen       0 Nov 16 20:03 /scratch/bsonghao/nh3_diabatization_2d_at_mode_7_8_dist0.5_0.5.F75
-rw-r--r-- 1 bsonghao nooijen   58848 Nov 16 20:03 /scratch/bsonghao/nh3_diabatization_2d_at_mode_7_8_dist0.5_0.5.F76
-rw-r--r-- 1 bsonghao nooijen       0 Nov 16 20:03 /scratch/bsonghao/nh3_diabatization_2d_at_mode_7_8_dist0.5_0.5.F77
-rw-r--r-- 1 bsonghao nooijen    1864 Nov 16 20:03 /scratch/bsonghao/nh3_diabatization_2d_at_mode_7_8_dist0.5_0.5.F78
-rw-r--r-- 1 bsonghao nooijen   39208 Nov 16 20:03 /scratch/bsonghao/nh3_diabatization_2d_at_mode_7_8_dist0.5_0.5.F79
-rw-r--r-- 1 bsonghao nooijen     104 Nov 16 20:03 /scratch/bsonghao/nh3_diabatization_2d_at_mode_7_8_dist0.5_0.5.F80
-rw-r--r-- 1 bsonghao nooijen   13472 Nov 16 20:03 /scratch/bsonghao/nh3_diabatization_2d_at_mode_7_8_dist0.5_0.5.F81
-rw-r--r-- 1 bsonghao nooijen      16 Nov 16 20:03 /scratch/bsonghao/nh3_diabatization_2d_at_mode_7_8_dist0.5_0.5.F82
-rw-r--r-- 1 bsonghao nooijen   19216 Nov 16 20:03 /scratch/bsonghao/nh3_diabatization_2d_at_mode_7_8_dist0.5_0.5.F83
-rw-r--r-- 1 bsonghao nooijen   29712 Nov 16 20:03 /scratch/bsonghao/nh3_diabatization_2d_at_mode_7_8_dist0.5_0.5.F84
-rw-r--r-- 1 bsonghao nooijen  401576 Nov 16 20:03 /scratch/bsonghao/nh3_diabatization_2d_at_mode_7_8_dist0.5_0.5.F85
-rw-r--r-- 1 bsonghao nooijen  903672 Nov 16 20:03 /scratch/bsonghao/nh3_diabatization_2d_at_mode_7_8_dist0.5_0.5.F86
-rw-r--r-- 1 bsonghao nooijen     656 Nov 16 20:03 /scratch/bsonghao/nh3_diabatization_2d_at_mode_7_8_dist0.5_0.5.F87
-rw-r--r-- 1 bsonghao nooijen   38320 Nov 16 20:03 /scratch/bsonghao/nh3_diabatization_2d_at_mode_7_8_dist0.5_0.5.F88
-rw-r--r-- 1 bsonghao nooijen     240 Nov 16 20:03 /scratch/bsonghao/nh3_diabatization_2d_at_mode_7_8_dist0.5_0.5.F89
-rw-r--r-- 1 bsonghao nooijen       0 Nov 16 20:03 /scratch/bsonghao/nh3_diabatization_2d_at_mode_7_8_dist0.5_0.5.F90
-rw-r--r-- 1 bsonghao nooijen   13760 Nov 16 20:03 /scratch/bsonghao/nh3_diabatization_2d_at_mode_7_8_dist0.5_0.5.F91
-rw-r--r-- 1 bsonghao nooijen   22776 Nov 16 20:03 /scratch/bsonghao/nh3_diabatization_2d_at_mode_7_8_dist0.5_0.5.F92
-rw-r--r-- 1 bsonghao nooijen   23168 Nov 16 20:03 /scratch/bsonghao/nh3_diabatization_2d_at_mode_7_8_dist0.5_0.5.F93
-rw-r--r-- 1 bsonghao nooijen   22776 Nov 16 20:03 /scratch/bsonghao/nh3_diabatization_2d_at_mode_7_8_dist0.5_0.5.F94
-rw-r--r-- 1 bsonghao nooijen   13760 Nov 16 20:03 /scratch/bsonghao/nh3_diabatization_2d_at_mode_7_8_dist0.5_0.5.F95
-rw-r--r-- 1 bsonghao nooijen   29440 Nov 16 20:03 /scratch/bsonghao/nh3_diabatization_2d_at_mode_7_8_dist0.5_0.5.F96
-rw-r--r-- 1 bsonghao nooijen    1184 Nov 16 20:03 /scratch/bsonghao/nh3_diabatization_2d_at_mode_7_8_dist0.5_0.5.F97
-rw-r--r-- 1 bsonghao nooijen    9808 Nov 16 20:03 /scratch/bsonghao/nh3_diabatization_2d_at_mode_7_8_dist0.5_0.5.F98
-rw-r--r-- 1 bsonghao nooijen   30264 Nov 16 20:03 /scratch/bsonghao/nh3_diabatization_2d_at_mode_7_8_dist0.5_0.5.F99
ls: No match.
ls: No match.
ls: No match.
Wed 16 Nov 2022 08:03:46 PM EST
0.289u 0.048s 0:17.81 1.7%	0+0k 48+224io 0pf+0w
