----- GAMESS execution script 'rungms' -----
This job is running on host io002
under operating system Linux at Wed 16 Nov 2022 08:25:53 PM EST
Available scratch disk space (Kbyte units) at beginning of the job is
Filesystem       1K-blocks       Used   Available Use% Mounted on
/dev/sdc1      15378471580 3278917120 11318349060  23% /scratch
GAMESS temporary binary files will be written to /scratch/bsonghao
GAMESS supplementary output files will be written to /home/bsonghao/.gamess_ascii_files/267638
Copying input file nh3_diabatization_2d_at_mode_7_8_dist0.8_0.1.inp to your run's scratch directory...
cp nh3_diabatization_2d_at_mode_7_8_dist0.8_0.1.inp /scratch/bsonghao/nh3_diabatization_2d_at_mode_7_8_dist0.8_0.1.F05
unset echo
/home/bjb2chen/gamess/ddikick.x /home/bjb2chen/gamess/gamess.00.x nh3_diabatization_2d_at_mode_7_8_dist0.8_0.1 -ddi 1 1 io002 -scr /scratch/bsonghao

 Distributed Data Interface kickoff program.
 Initiating 1 compute processes on 1 nodes to run the following command:
 /home/bjb2chen/gamess/gamess.00.x nh3_diabatization_2d_at_mode_7_8_dist0.8_0.1 

          ******************************************************
          *         GAMESS VERSION = 02 AUG 2018 (R2)         *
          *             FROM IOWA STATE UNIVERSITY             *
          * M.W.SCHMIDT, K.K.BALDRIDGE, J.A.BOATZ, S.T.ELBERT, *
          *   M.S.GORDON, J.H.JENSEN, S.KOSEKI, N.MATSUNAGA,   *
          *          K.A.NGUYEN, S.J.SU, T.L.WINDUS,           *
          *       TOGETHER WITH M.DUPUIS, J.A.MONTGOMERY       *
          *         J.COMPUT.CHEM.  14, 1347-1363(1993)        *
          **************** 64 BIT LINUX VERSION ****************

  SINCE 1993, STUDENTS AND POSTDOCS WORKING AT IOWA STATE UNIVERSITY
  AND ALSO IN THEIR VARIOUS JOBS AFTER LEAVING ISU HAVE MADE IMPORTANT
  CONTRIBUTIONS TO THE CODE:
     IVANA ADAMOVIC, CHRISTINE AIKENS, YURI ALEXEEV, POOJA ARORA,
     ANDREY ASADCHEV, ROB BELL, PRADIPTA BANDYOPADHYAY, JONATHAN BENTZ,
     BRETT BODE, KURT BRORSEN, CALEB CARLIN, GALINA CHABAN, WEI CHEN,
     CHEOL HO CHOI, PAUL DAY, ALBERT DEFUSCO, NUWAN DESILVA, TIM DUDLEY,
     DMITRI FEDOROV, ALEX FINDLATER, GRAHAM FLETCHER, MARK FREITAG,
     KURT GLAESEMANN, ANASTASIA GUININA,
     DAN KEMP, GRANT MERRILL, NORIYUKI MINEZAWA, JONATHAN MULLIN,
     TAKESHI NAGATA, SEAN NEDD, HEATHER NETZLOFF, BOSILJKA NJEGIC, RYAN OLSON,
     MIKE PAK, BUU PHAM,
     SPENCER PRUITT, LUKE ROSKOP, JIM SHOEMAKER, LYUDMILA SLIPCHENKO,
     TONY SMITH, SAROM SOK LEANG, JIE SONG, TETSUYA TAKETSUGU, SIMON WEBB,
     PENG XU, SOOHAENG YOO, FEDERICO ZAHARIEV

  ADDITIONAL CODE HAS BEEN PROVIDED BY COLLABORATORS IN OTHER GROUPS:
     IOWA STATE UNIVERSITY:
          JOE IVANIC, AARON WEST, LAIMUTIS BYTAUTAS, KLAUS RUEDENBERG
     UNIVERSITY OF TOKYO: KIMIHIKO HIRAO, TAKAHITO NAKAJIMA,
          TAKAO TSUNEDA, MUNEAKI KAMIYA, SUSUMU YANAGISAWA,
          KIYOSHI YAGI, MAHITO CHIBA, SEIKEN TOKURA, NAOAKI KAWAKAMI
     UNIVERSITY OF AARHUS: FRANK JENSEN
     UNIVERSITY OF IOWA: VISVALDAS KAIRYS, HUI LI
     NATIONAL INST. OF STANDARDS AND TECHNOLOGY: WALT STEVENS, DAVID GARMER
     UNIVERSITY OF PISA: BENEDETTA MENNUCCI, JACOPO TOMASI
     UNIVERSITY OF MEMPHIS: HENRY KURTZ, PRAKASHAN KORAMBATH
     UNIVERSITY OF ALBERTA: TOBY ZENG, MARIUSZ KLOBUKOWSKI
     UNIVERSITY OF NEW ENGLAND: MARK SPACKMAN
     MIE UNIVERSITY: HIROAKI UMEDA
     NAT. INST. OF ADVANCED INDUSTRIAL SCIENCE AND TECHNOLOGY: KAZUO KITAURA
     MICHIGAN STATE UNIVERSITY:
          KAROL KOWALSKI, MARTA WLOCH, JEFFREY GOUR, JESSE LUTZ,
          WEI LI, JUN SHEN, J. EMILIANO DEUSTUA, PIOTR PIECUCH
     UNIVERSITY OF MINNESOTA:
          YINAN SHU
     UNIVERSITY OF SILESIA: MONIKA MUSIAL, STANISLAW KUCHARSKI
     FACULTES UNIVERSITAIRES NOTRE-DAME DE LA PAIX:
          OLIVIER QUINET, BENOIT CHAMPAGNE
     UNIVERSITY OF CALIFORNIA - SANTA BARBARA: BERNARD KIRTMAN
     INSTITUTE FOR MOLECULAR SCIENCE:
          KAZUYA ISHIMURA, MICHIO KATOUDA, AND SHIGERU NAGASE
     UNIVERSITY OF NOTRE DAME: ANNA POMOGAEVA, DAN CHIPMAN
     KYUSHU UNIVERSITY:
          HARUYUKI NAKANO,
          FENG LONG GU, JACEK KORCHOWIEC, MARCIN MAKOWSKI, AND YURIKO AOKI,
          HIROTOSHI MORI AND EISAKU MIYOSHI
     PENNSYLVANIA STATE UNIVERSITY:
          TZVETELIN IORDANOV, CHET SWALINA, JONATHAN SKONE,
          SHARON HAMMES-SCHIFFER
     WASEDA UNIVERSITY:
          MASATO KOBAYASHI, TOMOKO AKAMA, TSUGUKI TOUMA,
          TAKESHI YOSHIKAWA, YASUHIRO IKABATA, JUNJI SEINO,
          YUYA NAKAJIMA, HIROMI NAKAI
     NANJING UNIVERSITY: SHUHUA LI
     UNIVERSITY OF NEBRASKA:
          PEIFENG SU, DEJUN SI, NANDUN THELLAMUREGE, YALI WANG, HUI LI
     UNIVERSITY OF ZURICH: ROBERTO PEVERATI, KIM BALDRIDGE
     N. COPERNICUS UNIVERSITY AND JACKSON STATE UNIVERSITY:
          MARIA BARYSZ
     UNIVERSITY OF COPENHAGEN: Jimmy Kromann, CASPER STEINMANN
     TOKYO INSTITUTE OF TECHNOLOGY: HIROYA NAKATA
     NAGOYA UNIVERSITY: YOSHIO NISHIMOTO, STEPHAN IRLE
     MOSCOW STATE UNIVERSITY: VLADIMIR MIRONOV

 EXECUTION OF GAMESS BEGUN Wed Nov 16 20:25:54 2022

            ECHO OF THE FIRST FEW INPUT CARDS -
 INPUT CARD> $system kdiag=3 mwords=100 memddi=1000 parall=.t. $end                         
 INPUT CARD> $contrl runtyp=energy ispher=1 $end                                            
 INPUT CARD> $contrl icut=9 itol=20 inttyp=rysquad qmttol=1.0d-05 nosym=1 $end              
 INPUT CARD> $scf    npunch=2 conv=1.0d-06 dirscf=.t.      $end                             
 INPUT CARD> $contrl scftyp=mcscf  mult=2 maxit=200 icharg=1 mplevl=2 $end                  
 INPUT CARD> $guess  guess=moread norb=29 purify=.t. $end                                   
 INPUT CARD> $basis  gbasis=ccd $end                                                        
 INPUT CARD> $mcscf  cistep=gmcci fullnr=.t. finci=mos                                      
 INPUT CARD>         acurcy=1.d-6 maxit=100 $end                                            
 INPUT CARD> $trans  dirtrf=.t. $end                                                        
 INPUT CARD> $mrmp   mrpt=gmcpt rdvecs=.f. $end                                             
 INPUT CARD> $gmcpt  nmofzc=0 nmodoc=1 nmoact=7 nelact=7 stsym(1)=A                         
 INPUT CARD>         reftyp=ormas nspace=1 mstart(1)=2 mine(1)=7 maxe(1)=7                  
 INPUT CARD>         kstate(1)=1,1,1                                                        
 INPUT CARD>         wstate(1)=1,1,1                                                        
 INPUT CARD>         iwgt=0 thrwgt=-1.0 krot=.f. kszdoe=.f. knospn=.f.                      
 INPUT CARD>         thrde=-1.0 edshft=0.02 $end                                            
 INPUT CARD> $data                                                                          
 INPUT CARD> NH3+ 3 states calculation at NH3 structure.                                    
 INPUT CARD> c1                                                                             
 INPUT CARD>N 7.0 -0.006228917999999998 -0.04983122400000001 -0.1693807382                  
 INPUT CARD>H 1.0 -0.10871224899999998 0.8984901188000001 0.42614769510000006               
 INPUT CARD>H 1.0 -0.720114787 -0.7898743578 0.060375893099999994                           
 INPUT CARD>H 1.0 0.915379498 0.583805954 0.2828579231                                      
 INPUT CARD>$end                                                                            
 INPUT CARD>--- OPTIMIZED RHF      MO-S --- GENERATED AT Mon Nov 14 16:47:08 2022           
 INPUT CARD>E=      -56.3825050291, E(NUC)=   11.8429239490                                 
 INPUT CARD> $VEC                                                                           
 INPUT CARD> 1  1-1.00134066E+00-2.25158504E-03 3.44925845E-03 0.00000000E+00 0.00000000E+00
 INPUT CARD> 1  2-2.13170927E-03 0.00000000E+00 0.00000000E+00 6.57129898E-04-6.87950443E-05
 INPUT CARD> 1  3-6.87950443E-05 1.37590089E-04 0.00000000E+00 0.00000000E+00 0.00000000E+00
 INPUT CARD> 1  4 3.25502815E-04-4.84772356E-04 3.62525460E-04-6.27912517E-04-3.45956485E-04
 INPUT CARD> 1  5 3.25502815E-04-4.84772356E-04 3.62525460E-04 6.27912517E-04-3.45956485E-04
 INPUT CARD> 1  6 3.25502815E-04-4.84772356E-04-7.25050921E-04 0.00000000E+00-3.45956485E-04
 INPUT CARD> 2  1 1.31286642E-02-4.05911371E-01-2.82090992E-01 0.00000000E+00 0.00000000E+00
 INPUT CARD> 2  2-7.71489043E-02 0.00000000E+00 0.00000000E+00 9.73717494E-03 6.62450916E-04
 INPUT CARD> 2  3 6.62450916E-04-1.32490183E-03 0.00000000E+00 0.00000000E+00 0.00000000E+00
 INPUT CARD> 2  4-1.96090317E-01-1.96656153E-02-1.74855877E-02 3.02859263E-02 8.68214399E-03
 INPUT CARD> 2  5-1.96090317E-01-1.96656153E-02-1.74855877E-02-3.02859263E-02 8.68214399E-03
 INPUT CARD> 2  6-1.96090317E-01-1.96656153E-02 3.49711754E-02 0.00000000E+00 8.68214399E-03
 INPUT CARD> 3  1 0.00000000E+00 0.00000000E+00 0.00000000E+00 4.48608762E-01 0.00000000E+00
 INPUT CARD> 3  2 0.00000000E+00 2.18692520E-01 0.00000000E+00 0.00000000E+00 1.30198027E-02
 INPUT CARD> 3  3-1.30198027E-02 0.00000000E+00 0.00000000E+00 2.71832968E-02 0.00000000E+00
 INPUT CARD> 3  4-1.85332726E-01-7.03958951E-02 8.47929477E-03 1.95242443E-02 8.32835058E-03
 INPUT CARD> 3  5-1.85332726E-01-7.03958951E-02 8.47929477E-03-1.95242443E-02 8.32835058E-03
 INPUT CARD> 3  6 3.70665453E-01 1.40791790E-01-2.53376884E-02 0.00000000E+00-1.66567012E-02
 INPUT CARD> 4  1 0.00000000E+00 0.00000000E+00 0.00000000E+00 0.00000000E+00 4.48608762E-01
 INPUT CARD> 4  2 0.00000000E+00 0.00000000E+00 2.18692520E-01 0.00000000E+00 0.00000000E+00
 INPUT CARD> 4  3 0.00000000E+00 0.00000000E+00-1.50339731E-02 0.00000000E+00 2.71832968E-02
 INPUT CARD> 4  4 3.21005698E-01 1.21929267E-01 1.95242443E-02-1.40653607E-02-1.44251263E-02
  100000000 WORDS OF MEMORY AVAILABLE

     BASIS OPTIONS
     -------------
     GBASIS=CCD          IGAUSS=       0      POLAR=NONE    
     NDFUNC=       0     NFFUNC=       0     DIFFSP=       F
     NPFUNC=       0      DIFFS=       F     BASNAM=        


     RUN TITLE
     ---------
  NH3+ 3 states calculation at NH3 structure.                                    

 THE POINT GROUP OF THE MOLECULE IS C1      
 THE ORDER OF THE PRINCIPAL AXIS IS     0

 ATOM      ATOMIC                      COORDINATES (BOHR)
           CHARGE         X                   Y                   Z
 N           7.0    -0.0117709482       -0.0941673590       -0.3200831828
 H           1.0    -0.2054363621        1.6979001272        0.8053023740
 H           1.0    -1.3608196271       -1.4926461010        0.1140938942
 H           1.0     1.7298164260        1.1032332831        0.5345239681

          INTERNUCLEAR DISTANCES (ANGS.)
          ------------------------------

                1 N          2 H          3 H          4 H     

   1 N       0.0000000    1.1244867 *  1.0536057 *  1.2063905 *
   2 H       1.1244867 *  0.0000000    1.8325329 *  1.0808894 *
   3 H       1.0536057 *  1.8325329 *  0.0000000    2.1474025 *
   4 H       1.2063905 *  1.0808894 *  2.1474025 *  0.0000000  

  * ... LESS THAN  3.000


     ATOMIC BASIS SET
     ----------------
 THE CONTRACTED PRIMITIVE FUNCTIONS HAVE BEEN UNNORMALIZED
 THE CONTRACTED BASIS FUNCTIONS ARE NOW NORMALIZED TO UNITY

  SHELL TYPE  PRIMITIVE        EXPONENT          CONTRACTION COEFFICIENT(S)

 N         

      1   S       1          9046.0000000    0.000699617413
      1   S       2          1357.0000000    0.005386054630
      1   S       3           309.3000000    0.027391021189
      1   S       4            87.7300000    0.103150591982
      1   S       5            28.5600000    0.278570663317
      1   S       6            10.2100000    0.448294849454
      1   S       7             3.8380000    0.278085928395
      1   S       8             0.7466000    0.015431561233

      2   S       9          9046.0000000   -0.000304990096
      2   S      10          1357.0000000   -0.002408026379
      2   S      11           309.3000000   -0.011944448725
      2   S      12            87.7300000   -0.048925992909
      2   S      13            28.5600000   -0.134472724725
      2   S      14            10.2100000   -0.315112577700
      2   S      15             3.8380000   -0.242857832550
      2   S      16             0.7466000    1.094382206854

      3   S      17             0.2248000    1.000000000000

      4   P      18            13.5500000    0.058905676772
      4   P      19             2.9170000    0.320461106714
      4   P      20             0.7973000    0.753042061792

      5   P      21             0.2185000    1.000000000000

      6   D      22             0.8170000    1.000000000000

 H         

      7   S      23            13.0100000    0.033498726390
      7   S      24             1.9620000    0.234800801174
      7   S      25             0.4446000    0.813682957883

      8   S      26             0.1220000    1.000000000000

      9   P      27             0.7270000    1.000000000000

 H         

     10   S      28            13.0100000    0.033498726390
     10   S      29             1.9620000    0.234800801174
     10   S      30             0.4446000    0.813682957883

     11   S      31             0.1220000    1.000000000000

     12   P      32             0.7270000    1.000000000000

 H         

     13   S      33            13.0100000    0.033498726390
     13   S      34             1.9620000    0.234800801174
     13   S      35             0.4446000    0.813682957883

     14   S      36             0.1220000    1.000000000000

     15   P      37             0.7270000    1.000000000000

 TOTAL NUMBER OF BASIS SET SHELLS             =   15
 NUMBER OF CARTESIAN GAUSSIAN BASIS FUNCTIONS =   30
 NOTE: THIS RUN WILL RESTRICT THE MO VARIATION SPACE TO SPHERICAL HARMONICS.
 THE NUMBER OF ORBITALS KEPT IN THE VARIATIONAL SPACE WILL BE PRINTED LATER.
 NUMBER OF ELECTRONS                          =    9
 CHARGE OF MOLECULE                           =    1
 SPIN MULTIPLICITY                            =    2
 NUMBER OF OCCUPIED ORBITALS (ALPHA)          =    5
 NUMBER OF OCCUPIED ORBITALS (BETA )          =    4
 TOTAL NUMBER OF ATOMS                        =    4
 THE NUCLEAR REPULSION ENERGY IS       10.9052228556

     $CONTRL OPTIONS
     ---------------
 SCFTYP=MCSCF        RUNTYP=ENERGY       EXETYP=RUN     
 MPLEVL=       2     CITYP =NONE         CCTYP =NONE         VBTYP =NONE    
 DFTTYP=NONE         TDDFT =NONE    
 MULT  =       2     ICHARG=       1     NZVAR =       0     COORD =UNIQUE  
 PP    =NONE         RELWFN=NONE         LOCAL =NONE         NUMGRD=       F
 ISPHER=       1     NOSYM =       1     MAXIT =     200     UNITS =ANGS    
 PLTORB=       F     MOLPLT=       F     AIMPAC=       F     FRIEND=        
 NPRINT=       7     IREST =       0     GEOM  =INPUT   
 NORMF =       0     NORMP =       0     ITOL  =      20     ICUT  =       9
 INTTYP=RYSQUAD      GRDTYP=BEST         QMTTOL= 1.0E-05

     $SYSTEM OPTIONS
     ---------------
  REPLICATED MEMORY=   100000000 WORDS (ON EVERY NODE).
 DISTRIBUTED MEMDDI=        1000 MILLION WORDS IN AGGREGATE,
 MEMDDI DISTRIBUTED OVER   1 PROCESSORS IS  1000000000 WORDS/PROCESSOR.
 TOTAL MEMORY REQUESTED ON EACH PROCESSOR=  1100000000 WORDS.
 TIMLIM=      525600.00 MINUTES, OR     365.0 DAYS.
 PARALL= T  BALTYP=  DLB     KDIAG=    3  COREFL= F
 MXSEQ2=     300 MXSEQ3=     150  mem10=         0

          ----------------
          PROPERTIES INPUT
          ----------------

     MOMENTS            FIELD           POTENTIAL          DENSITY
 IEMOM =       1   IEFLD =       0   IEPOT =       0   IEDEN =       0
 WHERE =COMASS     WHERE =NUCLEI     WHERE =NUCLEI     WHERE =NUCLEI  
 OUTPUT=BOTH       OUTPUT=BOTH       OUTPUT=BOTH       OUTPUT=BOTH    
 IEMINT=       0   IEFINT=       0                     IEDINT=       0
                                                       MORB  =       0

     -------------------------------
     INTEGRAL TRANSFORMATION OPTIONS
     -------------------------------
     NWORD  =            0
     CUTOFF = 1.0E-09     MPTRAN =       0
     DIRTRF =       T     AOINTS =DUP     

          ----------------------
          MCSCF INPUT PARAMETERS
          ----------------------
 CONVERGER SELECTION: FOCAS = F  SOSCF = F  FULLNR = T  QUD = F  JACOBI = F
 SECULAR EQUATION METHOD CISTEP = GMCCI   
 --- GENERAL INPUT OPTIONS:
 MAXIT =     100  MICIT =       1  ACURCY= 1.000E-06
 DAMP  =   0.000  CANONC=       T  ENGTOL= 1.000E-10
 EKT   =       F  NPUNCH=       2  NWORD =         0
 REGENERATE CI AFTER CONVERGENCE = NONE    
 DIABATIZATION AFTER CONVERGENCE =        F
 --- INPUT FOR FULLNR CONVERGER:
 METHOD=DM2       FORS  =       F  DROPC =       T
 LINSER=       F  FCORE =       F  NORB  =      30

          ----------------------
          INTEGRAL INPUT OPTIONS
          ----------------------
 NOPK  =       1 NORDER=       0 SCHWRZ=       T

 ------------------------------------------
 MULTIREFERENCE PERTURBATION THEORY CONTROL
 ------------------------------------------
 MRPT=GMCPT    READ CONVERGED MCSCF VECTORS= F


     ------------------------------------------
     THE POINT GROUP IS C1 , NAXIS= 1, ORDER= 1
     ------------------------------------------

 -- VARIATIONAL SPACE WILL BE RESTRICTED TO PURE SPHERICAL HARMONICS ONLY --
 AFTER EXCLUDING CONTAMINANT COMBINATIONS FROM THE CARTESIAN GAUSSIAN BASIS
 SET, THE NUMBER OF SPHERICAL HARMONICS KEPT IN THE VARIATION SPACE IS   29

     DIMENSIONS OF THE SYMMETRY SUBSPACES ARE
 A   =   29

 ..... DONE SETTING UP THE RUN .....
 CPU     0: STEP CPU TIME=     0.03 TOTAL CPU TIME=          0.0 (      0.0 MIN)
 TOTAL WALL CLOCK TIME=          0.0 SECONDS, CPU UTILIZATION IS    75.00%

          ********************
          1 ELECTRON INTEGRALS
          ********************
 TIME TO DO   DIPOLE INTEGRALS=      0.00
 ...... END OF ONE-ELECTRON INTEGRALS ......
 CPU     0: STEP CPU TIME=     0.00 TOTAL CPU TIME=          0.0 (      0.0 MIN)
 TOTAL WALL CLOCK TIME=          0.0 SECONDS, CPU UTILIZATION IS    60.00%

          -------------
          GUESS OPTIONS
          -------------
          GUESS =MOREAD            NORB  =      29          NORDER=       0
          MIX   =       F          PRTMO =       F          PUNMO =       F
          TOLZ  = 1.0E-08          TOLE  = 1.0E-05
          SYMDEN=       F          PURIFY=       T

 INITIAL GUESS ORBITALS GENERATED BY MOREAD   ROUTINE.

 STATISTICS FOR GENERATION OF SYMMETRY ORBITAL -Q- MATRIX
 NUMBER OF CARTESIAN ATOMIC ORBITALS=         30
 NUMBER OF SPHERICAL CONTAMINANTS DROPPED=     1
 NUMBER OF LINEARLY DEPENDENT MOS DROPPED=     0
 TOTAL NUMBER OF MOS IN VARIATION SPACE=      29
 ORBITAL PURIFICATION WILL OCCUR

 SYMMETRIES FOR INITIAL GUESS ORBITALS FOLLOW.   BOTH SET(S).
     5 ORBITALS ARE OCCUPIED (    1 CORE ORBITALS).
     1=A        2=A        3=A        4=A        5=A        6=A        7=A   
     8=A        9=A       10=A       11=A       12=A       13=A       14=A   
    15=A       16=A       17=A       18=A       19=A       20=A       21=A   
    22=A       23=A       24=A       25=A       26=A       27=A       28=A   
    29=A   
 ...... END OF INITIAL ORBITAL SELECTION ......
 CPU     0: STEP CPU TIME=     0.01 TOTAL CPU TIME=          0.0 (      0.0 MIN)
 TOTAL WALL CLOCK TIME=          0.0 SECONDS, CPU UTILIZATION IS    80.00%

                    ----------------------
                    AO INTEGRAL TECHNOLOGY
                    ----------------------
     S,P,L SHELL ROTATED AXIS INTEGRALS, REPROGRAMMED BY
        KAZUYA ISHIMURA (IMS) AND JOSE SIERRA (SYNSTAR).
     S,P,D,L SHELL ROTATED AXIS INTEGRALS PROGRAMMED BY
        KAZUYA ISHIMURA (INSTITUTE FOR MOLECULAR SCIENCE).
     S,P,D,F,G SHELL TO TOTAL QUARTET ANGULAR MOMENTUM SUM 5,
        ERIC PROGRAM BY GRAHAM FLETCHER (ELORET AND NASA ADVANCED
        SUPERCOMPUTING DIVISION, AMES RESEARCH CENTER).
     S,P,D,F,G,L SHELL GENERAL RYS QUADRATURE PROGRAMMED BY
        MICHEL DUPUIS (PACIFIC NORTHWEST NATIONAL LABORATORY).

          --------------------
          2 ELECTRON INTEGRALS
          --------------------

 DIRECT SCF METHOD SKIPS INTEGRAL STORAGE ON DISK.
 DIRECT TRANSFORMATION SKIPS AO INTEGRAL STORAGE ON DISK.
  ...... END OF TWO-ELECTRON INTEGRALS .....
 STEP CPU TIME =     0.02 TOTAL CPU TIME =          0.1 (      0.0 MIN)
 TOTAL WALL CLOCK TIME=          0.1 SECONDS, CPU UTILIZATION IS    85.71%
 DDI: Creating Array [0] - 900 x 36 = 32400 words.
 DDI: Creating Array [1] - 21 x 288 = 6048 words.
 DDI: Creating Array [2] - 36 x 36 = 1296 words.
 DDI: Creating Array [3] - 465 x 36 = 16740 words.

          -----------------
          MCSCF CALCULATION
          -----------------

 ----- NUCLEAR ENERGY ----- =        10.9052228556

     -------------------------------------------------
     GMC-PT/GMC-QDPT or general MCSCF input parameters
     -------------------------------------------------
 # of frozen core orbs. =         0 ->         0
 # of doubly occ. orbs. =         1
 # of active      orbs. =         7
 # of virtual     orbs. =        21
 # of active electrons  =         7
 # of states in CI      =         3
 Highest state in CI    =         3
 kstate =  1 1 1
 avecoe =  0.333 0.333 0.333
 State symmetry           = A           
 Assigned symmetry number = 1

 <<<Act. MO sym.: 1111111

 <<<Division of 1-ext.:  0
 <<<Division of 2-ext.:  0

 *** Reference space

 Reference type: ORMAS (= Occupation restricted multiple active space)
 # of orbitals          =  7
 # of minimum electrons =  7
 # of maximum electrons =  7
 State symmetry    =    1 (input)
 2*Sz              =    1 (input)
 Spin multiplicity =    2 (input)
 Dimension of reference space =      1225  (from      3432 walks)

 Dimension of reference space =      1225  (from      1225 walks)

 <<<Ionized spaces for Ref-CI:
      0:         1225 /   -1-0:         1960 /  0-1-0:         2891

 EVALUATING EXCHANGE INTEGRALS FOR DIRECT INTEGRAL TRANSFORMATION
 SCHWARZ INEQUALITY OVERHEAD:       465 INTEGRALS, T=        0.01

     --------------------------------------------
     PARTIAL TWO ELECTRON INTEGRAL TRANSFORMATION
     --------------------------------------------

 NUMBER OF CORE MOLECULAR ORBITALS     =    1
 NUMBER OF OCCUPIED MOLECULAR ORBITALS =    8
 TOTAL NUMBER OF MOLECULAR ORBITALS    =   29
 TOTAL NUMBER OF ATOMIC ORBITALS       =   30
 THRESHOLD FOR KEEPING TRANSFORMED 2E- INTEGRALS = 1.000E-09

 -------------------------------     ------------------------------
 DISTRIBUTED DATA TRANSFORMATION     PROGRAM WRITTEN BY G. FLETCHER
 -------------------------------     ------------------------------

 THE DISTRIBUTED MEMORY REQUIRED FOR THIS STEP IS MEMDDI=         1 MWORDS
 CREATING DISTRIBUTED STORAGE FOR [VIR OCC|VIR OCC] INTEGRALS
 CREATING DISTRIBUTED STORAGE FOR [VIR OCC|OCC OCC] INTEGRALS
 CREATING DISTRIBUTED STORAGE FOR [OCC OCC|OCC OCC] INTEGRALS
 CREATING DISTRIBUTED STORAGE FOR [VIR VIR|OCC OCC] INTEGRALS
 FOR    1 PROCESSORS, THE REPLICATED MEMORY NEEDED IS       73700 WORDS.
 SCHWARZ INEQUALITY OVERHEAD:       465 INTEGRALS, T=        0.00

      DIRECT 4-INDEX TRANSFORMATION 
      SCHWARZ INEQUALITY TEST SKIPPED          0 INTEGRAL BLOCKS
 ----- FROZEN CORE ENERGY =       -47.5548969906
 ... END OF INTEGRAL TRANSFORMATION ...
 CPU     0: STEP CPU TIME=     0.22 TOTAL CPU TIME=          0.3 (      0.0 MIN)
 TOTAL WALL CLOCK TIME=          0.3 SECONDS, CPU UTILIZATION IS    96.55%

     --------------------------------     -----------------------------
     MCHF NEWTON-RAPHSON OPTIMIZATION     CODE WRITTEN BY MICHEL DUPUIS
     --------------------------------     -----------------------------
     PARALLEL VERSION WRITTEN BY G. FLETCHER (ELORET)
     NASA ADVANCED SUPERCOMPUTING DIVISION, AMES RESEARCH CENTER

 NUMBER OF INDEPENDENT ORBITAL ROTATION PARAMETERS =   175
 ..... DONE SOLVING NEWTON-RAPHSON EQUATIONS .....
 CPU     0: STEP CPU TIME=     0.73 TOTAL CPU TIME=          1.0 (      0.0 MIN)
 TOTAL WALL CLOCK TIME=          1.0 SECONDS, CPU UTILIZATION IS    99.02%
 ..... DONE WITH NTN-RPH ORBITAL ROTATIONS ..... 
 CPU     0: STEP CPU TIME=     0.00 TOTAL CPU TIME=          1.0 (      0.0 MIN)
 TOTAL WALL CLOCK TIME=          1.0 SECONDS, CPU UTILIZATION IS    99.02%
 MAXIMUM MEMORY USED BY NTN-RPH CODE WAS     57645 WORDS.

 ITER     TOTAL ENERGY      DEL(E)  LAGRANGIAN ASYMMETRY   SQCDF  MICIT   DAMP
   1      -55.557104292 -0.557104292  0.110214    9    3 9.151E-02  1   0.0000
   2      -55.624980815 -0.067876523  0.020307   12    5 4.570E-01  1   0.0000
   3      -55.662450800 -0.037469985  0.014644   11    6 2.409E-01  1   0.0165
   4      -55.680198920 -0.017748121  0.005172   11    6 5.505E-02  1   0.0067
   5      -55.682970403 -0.002771483  0.001097   23    5 1.881E-03  1   0.0000
   6      -55.683075351 -0.000104948  0.000526   23    5 1.811E-04  1   0.0000
   7      -55.683088008 -0.000012657  0.000256   23    5 3.879E-05  1   0.0000
   8      -55.683090798 -0.000002790  0.000130   23    5 1.011E-05  1   0.0000
   9      -55.683091519 -0.000000721  0.000068   23    5 2.940E-06  1   0.0000
  10      -55.683091724 -0.000000205  0.000036   23    5 9.232E-07  1   0.0000
  11      -55.683091786 -0.000000062  0.000019   23    5 3.067E-07  1   0.0000
  12      -55.683091806 -0.000000020  0.000011   23    5 1.063E-07  1   0.0000
  13      -55.683091813 -0.000000007  0.000006   23    5 3.813E-08  1   0.0000
  14      -55.683091815 -0.000000002  0.000003   23    5 1.399E-08  1   0.0000
  15      -55.683091816 -0.000000001  0.000002   23    5 5.226E-09  1   0.0000
  16      -55.683091816 -0.000000000  0.000001   23    5 1.990E-09  1   0.0000
  17      -55.683091816 -0.000000000  0.000001   23    5 7.547E-10  1   0.0000

          --------------------
          LAGRANGIAN CONVERGED
          --------------------

 FINAL MCSCF ENERGY IS      -55.6830918163 AFTER  17 ITERATIONS

 -MCCI- BASED ON OPTIMIZED ORBITALS
 ----------------------------------

 PLEASE NOTE: IF THE ACTIVE ORBITALS ARE CANONICALIZED BELOW,
 THE FOLLOWING CI EXPANSION COEFFICIENTS AND THE DENSITY DO NOT
 CORRESPOND TO THE PRINTED ORBITALS.  THE PRINTED EXPANSIONS MATCH
 THE ORBITALS USED DURING THE LAST ITERATION.  IF YOU WISH TO SEE
 CI EXPANSIONS BASED ON THE CANONICAL (OR NATURAL) ORBITALS, YOU
 MUST RUN A CI CALCULATION WITH THAT ORBITAL CHOICE READ IN $VEC.

 Averaged energy =     -55.683091816

 State #    1  Energy =     -55.816854725  S =  0.500

      Det      Coef    Occupancy (Ignoring core)
      ---      ----    --------- --------- -----
        1   -0.887229  11110001110000
        5    0.072502  01111001110000
        8    0.131838  10110101110000
       17   -0.139900  11010011110000
       36   -0.282035  11110001101000
       71   -0.136702  11110001011000
      211   -0.053262  11110000110100
      386   -0.105539  11110001010010
      393   -0.053137  10110101010010
      701    0.097342  11110001100001
      717   -0.059712  11010011100001

 State #    2  Energy =     -55.729917850  S =  0.500

      Det      Coef    Occupancy (Ignoring core)
      ---      ----    --------- --------- -----
        1   -0.279418  11110001110000
       36    0.567439  11110001101000
       38    0.059614  11011001101000
       43   -0.072946  10110101101000
       52    0.070823  11010011101000
       71    0.706662  11110001011000
       73    0.056162  11011001011000
       75   -0.057116  01111001011000
       78   -0.085601  10110101011000
       87    0.090950  11010011011000
      456    0.056929  11110001001010
      701    0.068844  11110001100001
      806    0.070477  11110001001001

 State #    3  Energy =     -55.502502874  S =  0.500

      Det      Coef    Occupancy (Ignoring core)
      ---      ----    --------- --------- -----
        1    0.129373  11110001110000
       36   -0.705103  11110001101000
       43    0.065768  10110101101000
       52   -0.058887  11010011101000
       71    0.625627  11110001011000
       87    0.057502  11010011011000
      281   -0.060583  11110000101100
      316    0.058524  11110000011100
      456   -0.071357  11110001001010
      806    0.091193  11110001001001

 DENSITY MATRIX OVER ACTIVE MO-S

             1           2           3           4           5

    1    1.9709350
    2   -0.0086398   1.6225791
    3    0.0227674   0.0120302   1.6226039
    4   -0.0005986  -0.0048078   0.0044844   1.6480518
    5    0.1120586   0.0175348  -0.0867007  -0.0226800   0.0444157
    6   -0.0157605  -0.1585313   0.0004005  -0.0077264  -0.0078918
    7    0.0032838   0.0367447  -0.1739647   0.0710980   0.0099092

             6           7

    6    0.0414367
    7   -0.0103548   0.0499777

 FORMING THE "STANDARD FOCK OPERATOR" IN DIRECT AO INTEGRAL MODE...
 ONLY THE    1 CORE AND   21 VIRTUAL ORBITALS WILL BE CANONICALIZED

          ----------------------
          MCSCF NATURAL ORBITALS
          ----------------------

                      1          2          3          4          5
                  -15.9822     1.9786     1.6540     1.6478     1.6347
                     A          A          A          A          A   
    1  N  1  S    1.001040   0.008978  -0.007303  -0.005675   0.002213
    2  N  1  S   -0.001952   0.432706  -0.095850  -0.173778   0.034445
    3  N  1  S   -0.006331   0.340932  -0.178201  -0.243581   0.055650
    4  N  1  X   -0.000230  -0.015167  -0.152717   0.122997   0.486433
    5  N  1  Y   -0.000079   0.041555  -0.308764   0.281292  -0.273127
    6  N  1  Z    0.001152   0.080265   0.464831   0.341258   0.043454
    7  N  1  X   -0.000026   0.001512  -0.048192   0.021845   0.284957
    8  N  1  Y   -0.000119   0.010462  -0.155303   0.079342  -0.175516
    9  N  1  Z   -0.000619   0.018444   0.323922   0.206437   0.048497
   10  N  1 XX   -0.000011  -0.000478  -0.006643  -0.010778   0.005087
   11  N  1 YY    0.000197   0.001239  -0.010728  -0.003523  -0.007096
   12  N  1 ZZ   -0.000186  -0.000761   0.017371   0.014301   0.002009
   13  N  1 XY    0.000353   0.005108   0.004396  -0.004376   0.011119
   14  N  1 XZ   -0.000059   0.000966  -0.007540   0.003889   0.020435
   15  N  1 YZ    0.000060   0.003467  -0.008717   0.015792  -0.011346
   16  H  2  S   -0.001556   0.205767  -0.022012   0.302415  -0.237241
   17  H  2  S    0.000283   0.008948   0.014670   0.059839  -0.115109
   18  H  2  X   -0.000147   0.006749  -0.002738   0.021213   0.012787
   19  H  2  Y    0.000771  -0.032476  -0.008849  -0.023571   0.016857
   20  H  2  Z    0.000490  -0.016322   0.023009  -0.003256   0.018650
   21  H  3  S   -0.001806   0.165070   0.301702  -0.215570  -0.054860
   22  H  3  S    0.000675  -0.001107   0.049111  -0.017537   0.004538
   23  H  3  X   -0.000677   0.020252   0.025776  -0.020532   0.008173
   24  H  3  Y   -0.000714   0.024815   0.021266  -0.015069  -0.020543
   25  H  3  Z    0.000279  -0.002055   0.010322   0.019183   0.002914
   26  H  4  S   -0.001218   0.162678  -0.055519   0.232146   0.268382
   27  H  4  S    0.000273  -0.000592   0.009398   0.031803   0.120802
   28  H  4  X    0.000537  -0.024116   0.007683  -0.029687  -0.014354
   29  H  4  Y    0.000318  -0.013684  -0.001049  -0.003820  -0.027571
   30  H  4  Z    0.000328  -0.006713   0.023175   0.005585  -0.007626

                      6          7          8
                    0.0367     0.0291     0.0192
                     A          A          A   
    1  N  1  S   -0.127538  -0.064150  -0.139491
    2  N  1  S   -0.470199  -0.274161  -0.415376
    3  N  1  S   -0.111862  -0.213386   0.020415
    4  N  1  X   -0.478232   0.271676   0.639944
    5  N  1  Y    0.130214  -0.604650   0.566850
    6  N  1  Z   -0.380859  -0.445960  -0.177878
    7  N  1  X    0.047537  -0.088107   0.060207
    8  N  1  Y   -0.098044  -0.072879   0.076579
    9  N  1  Z    0.031868  -0.018404   0.094911
   10  N  1 XX    0.014241  -0.033884   0.033348
   11  N  1 YY   -0.009684   0.031676  -0.009393
   12  N  1 ZZ   -0.004557   0.002208  -0.023955
   13  N  1 XY    0.073028  -0.007934   0.013595
   14  N  1 XZ    0.014296  -0.000366  -0.037917
   15  N  1 YZ    0.021743   0.037111  -0.013129
   16  H  2  S   -0.105196   0.810110  -0.004599
   17  H  2  S   -0.134655   0.238732   0.025572
   18  H  2  X    0.039148   0.027001  -0.030323
   19  H  2  Y    0.002943  -0.042540  -0.023567
   20  H  2  Z    0.026623  -0.008384  -0.005055
   21  H  3  S    0.326850   0.056137   0.803068
   22  H  3  S    0.045139  -0.020132   0.155561
   23  H  3  X    0.030375   0.006527   0.053221
   24  H  3  Y    0.017361   0.016772   0.059190
   25  H  3  Z   -0.001494   0.002133   0.029654
   26  H  4  S    0.712511  -0.033939  -0.285865
   27  H  4  S    0.225193  -0.109336  -0.101540
   28  H  4  X   -0.051151  -0.020269   0.024266
   29  H  4  Y   -0.040402   0.038099  -0.002581
   30  H  4  Z    0.011792   0.029151  -0.007550

          ------------------------
          MCSCF OPTIMIZED ORBITALS
          ------------------------

                      1          2          3          4          5
                  -15.9822     0.0000     0.0000     0.0000     0.0000
                     A          A          A          A          A   
    1  N  1  S    1.001040  -0.000740   0.003997   0.017433  -0.010124
    2  N  1  S   -0.001952   0.398609  -0.006442  -0.009074  -0.182657
    3  N  1  S   -0.006331   0.331868   0.014977  -0.092778  -0.279640
    4  N  1  X   -0.000230  -0.010692   0.428476  -0.093995  -0.014463
    5  N  1  Y   -0.000079   0.011004  -0.005184   0.407861  -0.049661
    6  N  1  Z    0.001152   0.049777  -0.008336   0.012519   0.588696
    7  N  1  X   -0.000026   0.011249   0.268935  -0.123407   0.000533
    8  N  1  Y   -0.000119  -0.008003  -0.067297   0.222017  -0.080885
    9  N  1  Z   -0.000619   0.024755  -0.005535  -0.052701   0.386782
   10  N  1 XX   -0.000011  -0.000169   0.003161  -0.012056  -0.009362
   11  N  1 YY    0.000197   0.001205  -0.004754   0.009569  -0.012637
   12  N  1 ZZ   -0.000186  -0.001037   0.001593   0.002487   0.021999
   13  N  1 XY    0.000353   0.009211   0.010739  -0.018205   0.002731
   14  N  1 XZ   -0.000059   0.001780   0.024724  -0.002636  -0.002617
   15  N  1 YZ    0.000060   0.004525   0.000502   0.022038   0.000584
   16  H  2  S   -0.001556   0.208226  -0.120546   0.397791   0.117602
   17  H  2  S    0.000283   0.004434  -0.100738   0.114514   0.029750
   18  H  2  X   -0.000147   0.009100   0.023195   0.009732   0.010524
   19  H  2  Y    0.000771  -0.032796   0.012444  -0.022631  -0.018785
   20  H  2  Z    0.000490  -0.013959   0.008598  -0.026324   0.017841
   21  H  3  S   -0.001806   0.200688  -0.270414  -0.344002   0.112888
   22  H  3  S    0.000675   0.003853  -0.026396  -0.055021   0.031884
   23  H  3  X   -0.000677   0.023835  -0.012215  -0.036221   0.008862
   24  H  3  Y   -0.000714   0.026780  -0.034321  -0.013890   0.006283
   25  H  3  Z    0.000279  -0.001840   0.003940   0.004382   0.020563
   26  H  4  S   -0.001218   0.196790   0.401369   0.014248   0.120810
   27  H  4  S    0.000273   0.010151   0.136766  -0.062191   0.040183
   28  H  4  X    0.000537  -0.026611  -0.030093  -0.016248  -0.012421
   29  H  4  Y    0.000318  -0.015480  -0.028321   0.016936  -0.007019
   30  H  4  Z    0.000328  -0.005197  -0.012803  -0.002980   0.019838

                      6          7          8          9         10
                    0.0000     0.0000     0.0000     0.1157     0.1991
                     A          A          A          A          A   
    1  N  1  S    0.171455  -0.057878  -0.082706  -0.087276   0.035682
    2  N  1  S    0.657784  -0.148496  -0.222461  -0.122807   0.039508
    3  N  1  S    0.237677   0.011043   0.122895   1.010952  -0.485958
    4  N  1  X    0.025642   0.890486  -0.031082   0.000509  -0.128656
    5  N  1  Y    0.099978   0.167039   0.864754  -0.044635  -0.094309
    6  N  1  Z    0.600270  -0.069807   0.044345  -0.114665   0.047248
    7  N  1  X    0.013209   0.018500   0.097217   0.056789   0.536663
    8  N  1  Y    0.084638   0.082042   0.088298   0.235780   0.567731
    9  N  1  Z   -0.039171   0.051459   0.058252   0.288945  -0.043853
   10  N  1 XX    0.002024   0.007104   0.048496  -0.009932  -0.025804
   11  N  1 YY   -0.010070   0.007906  -0.030424   0.044084  -0.014260
   12  N  1 ZZ    0.008046  -0.015009  -0.018072  -0.034152   0.040064
   13  N  1 XY   -0.051565  -0.031297   0.039894   0.067745  -0.068783
   14  N  1 XZ    0.000436  -0.034864  -0.016994   0.010249   0.054500
   15  N  1 YZ   -0.036428  -0.009996  -0.023555   0.062788   0.062536
   16  H  2  S   -0.431696   0.309090  -0.588279   0.385345   0.160611
   17  H  2  S   -0.061197   0.162240  -0.196651  -0.919390  -0.528097
   18  H  2  X   -0.037428  -0.033845  -0.021796   0.065155   0.002677
   19  H  2  Y    0.030109  -0.032845   0.016298   0.080262   0.005934
   20  H  2  Z   -0.012804  -0.020504   0.009719   0.048992   0.041258
   21  H  3  S   -0.469660   0.434098   0.518797   0.277692  -0.553111
   22  H  3  S   -0.060883   0.086324   0.116057  -0.446934   1.940036
   23  H  3  X   -0.037932   0.025554   0.034072  -0.026868   0.097792
   24  H  3  Y   -0.037455   0.038489   0.028133  -0.055509   0.092452
   25  H  3  Z   -0.008823   0.024913   0.014626  -0.026606  -0.064261
   26  H  4  S   -0.418528  -0.583962   0.123330   0.439545   0.181695
   27  H  4  S   -0.067839  -0.224774   0.096197  -0.869181  -0.607258
   28  H  4  X    0.043149   0.037168   0.008292   0.002384   0.014424
   29  H  4  Y    0.005269   0.029790  -0.041960   0.069509   0.027396
   30  H  4  Z   -0.025238  -0.004045  -0.021696   0.038645   0.060605

                     11         12         13         14         15
                    0.2673     0.5267     0.5800     0.6798     0.8707
                     A          A          A          A          A   
    1  N  1  S    0.011794   0.105213  -0.028955  -0.041024  -0.577483
    2  N  1  S    0.029374   0.145060   0.032176  -0.070795  -1.295943
    3  N  1  S   -0.077420  -0.705566   0.512758   0.110008   2.165359
    4  N  1  X   -0.057644   0.253368   0.357665  -0.436519  -0.057662
    5  N  1  Y   -0.008753  -0.416351  -0.362121  -0.203044  -0.109507
    6  N  1  Z    0.007414   0.587721  -0.432467  -0.162040   0.279963
    7  N  1  X    0.467428  -0.235296  -0.686792   1.420519   0.047746
    8  N  1  Y   -0.131054   0.796539   1.026407   1.144056   0.167070
    9  N  1  Z   -0.076442  -0.754981   0.849386   0.421028  -0.157063
   10  N  1 XX    0.061524   0.000227   0.029762  -0.032121   0.076739
   11  N  1 YY   -0.053257   0.023846  -0.046127   0.062019  -0.091115
   12  N  1 ZZ   -0.008267  -0.024073   0.016365  -0.029897   0.014376
   13  N  1 XY    0.051116   0.010532  -0.022534  -0.013126  -0.037314
   14  N  1 XZ    0.042789  -0.004070   0.005819  -0.075353  -0.041247
   15  N  1 YZ   -0.037229  -0.008182  -0.000634  -0.052443   0.020033
   16  H  2  S   -0.635681  -0.029664  -0.622181  -0.175835   0.008234
   17  H  2  S    2.216747  -0.323681  -0.881996  -0.088081  -0.309206
   18  H  2  X    0.083617   0.053485  -0.040544  -0.091748  -0.244232
   19  H  2  Y   -0.064055   0.069979   0.103141   0.194584   0.010348
   20  H  2  Z   -0.032609  -0.066888   0.121158  -0.085177   0.192510
   21  H  3  S    0.093862   0.479731  -0.226307   0.563881  -0.141662
   22  H  3  S   -0.166907   0.336291   0.245023   0.595411  -0.483432
   23  H  3  X   -0.011898   0.052687  -0.058431   0.173179  -0.169395
   24  H  3  Y    0.036084   0.046794   0.079039   0.083177   0.038715
   25  H  3  Z    0.002538  -0.023253   0.048505   0.156824   0.128459
   26  H  4  S    0.593655   0.233536  -0.007187  -0.591396  -0.011984
   27  H  4  S   -2.092811   0.309097   0.484884  -0.515911  -0.362078
   28  H  4  X    0.100740  -0.037608   0.096717   0.161552   0.230932
   29  H  4  Y   -0.025537   0.060211  -0.054246   0.182209  -0.166200
   30  H  4  Z   -0.005495  -0.125344   0.027158  -0.145219   0.069729

                     16         17         18         19         20
                    1.0637     1.0861     1.2215     1.2974     1.4263
                     A          A          A          A          A   
    1  N  1  S    0.073216  -0.337149  -0.009652  -0.231084  -0.343835
    2  N  1  S    0.166542  -0.695299  -0.024824  -0.494133  -0.745136
    3  N  1  S   -0.349653   1.468180   0.013602   0.862936   1.077844
    4  N  1  X   -0.161170   0.122949  -0.122735  -0.084142  -0.039555
    5  N  1  Y   -0.092806   0.029022  -0.157207   0.013494  -0.082237
    6  N  1  Z    0.049324   0.047473   0.022311  -0.001225  -0.094637
    7  N  1  X    0.748904  -0.552176   0.405207   0.118378  -0.124087
    8  N  1  Y    0.690134  -0.037235   0.924465  -0.188982   0.396005
    9  N  1  Z   -0.301621   0.083537   0.100139   0.358362   0.581276
   10  N  1 XX   -0.067436  -0.231017  -0.085934   0.117993  -0.062957
   11  N  1 YY   -0.173131   0.099941   0.088708   0.002804   0.032059
   12  N  1 ZZ    0.240567   0.131075  -0.002774  -0.120797   0.030898
   13  N  1 XY    0.104631   0.019839  -0.038548  -0.060144   0.154299
   14  N  1 XZ   -0.060890   0.064150   0.264622   0.154585   0.077809
   15  N  1 YZ    0.036374  -0.149601  -0.105370  -0.050961  -0.025934
   16  H  2  S   -0.119399  -0.399150  -0.212393  -0.145267  -0.449557
   17  H  2  S    0.038446  -0.199694  -0.122607  -0.088691  -0.217136
   18  H  2  X    0.268104   0.281758  -0.040853   0.342674   0.096411
   19  H  2  Y   -0.211513   0.084848   0.129425   0.464616  -0.156686
   20  H  2  Z    0.536594  -0.081668  -0.079995  -0.363792   0.292963
   21  H  3  S    0.513173  -0.411477   0.453202  -0.208146  -0.233183
   22  H  3  S    0.319727  -0.348198   0.213858  -0.125528  -0.065830
   23  H  3  X   -0.134393   0.276580   0.205755  -0.432872   0.195740
   24  H  3  Y    0.225787  -0.264223  -0.377351   0.385968  -0.180486
   25  H  3  Z    0.082502   0.392753  -0.344993  -0.161154  -0.587482
   26  H  4  S   -0.489737  -0.025133  -0.336558  -0.372290  -0.404674
   27  H  4  S   -0.080243   0.025030  -0.049702   0.039921   0.161272
   28  H  4  X   -0.209070  -0.104875   0.004269  -0.279497  -0.210024
   29  H  4  Y   -0.013805   0.353060  -0.485220  -0.021346   0.126175
   30  H  4  Z    0.314393   0.233315   0.506650   0.052441  -0.587300

                     21         22         23         24         25
                    1.5950     1.7034     1.8618     1.9608     2.1383
                     A          A          A          A          A   
    1  N  1  S   -0.127148   0.077822  -0.120447  -0.007050  -0.026510
    2  N  1  S   -0.231576   0.276606  -0.266381   0.002081  -0.064994
    3  N  1  S    0.697376   0.723320  -0.179700   0.126692  -0.134579
    4  N  1  X    0.004476   0.042756   0.371284   0.073166   0.127569
    5  N  1  Y   -0.173301   0.353149   0.392017   0.039322  -0.003511
    6  N  1  Z   -0.005317   0.234276   0.008056   0.004940  -0.044239
    7  N  1  X    0.699813   0.058110   0.236013   0.100089   0.038022
    8  N  1  Y    0.422286   0.121499   0.296215  -0.178016  -0.010095
    9  N  1  Z    0.355005   0.257290  -0.020621   0.228078  -0.121902
   10  N  1 XX   -0.024735   0.047814   0.008503  -0.640420  -0.298585
   11  N  1 YY    0.112218  -0.082024   0.115555  -0.158186   0.549169
   12  N  1 ZZ   -0.087482   0.034210  -0.124058   0.798606  -0.250583
   13  N  1 XY   -0.134363  -0.094126   0.151864   0.448118  -0.176380
   14  N  1 XZ   -0.156629   0.150540  -0.273130   0.050041   0.190982
   15  N  1 YZ    0.067381  -0.247171  -0.063006   0.075628  -0.146701
   16  H  2  S   -0.451008   0.010189  -0.030294   0.126206   0.425666
   17  H  2  S    0.270488  -0.358348  -0.198340   0.122703   0.368052
   18  H  2  X   -0.133287   0.064273  -0.120630  -0.037444   0.879611
   19  H  2  Y   -0.380834   0.644070   0.142179   0.169593  -0.454301
   20  H  2  Z   -0.221666   0.578432   0.072414  -0.409319   0.136190
   21  H  3  S    0.229755  -0.055008   0.111783  -0.054585   0.096667
   22  H  3  S   -0.036367  -0.029490   0.506860  -0.053127   0.011467
   23  H  3  X   -0.405043  -0.162433   0.684064  -0.248042  -0.110238
   24  H  3  Y   -0.096793  -0.212987   0.726356   0.149852   0.338397
   25  H  3  Z   -0.473901  -0.279120  -0.409144  -0.202204   0.049244
   26  H  4  S   -0.236761  -0.039277  -0.019536  -0.068071  -0.352649
   27  H  4  S   -0.524105  -0.253543  -0.103166  -0.185699  -0.328530
   28  H  4  X    0.198677   0.422089   0.104022   0.405500   0.899190
   29  H  4  Y    0.648097   0.445089   0.056488  -0.049313  -0.359528
   30  H  4  Z    0.420807   0.017603   0.441670  -0.085984  -0.211761

                     26         27         28         29
                    2.2291     2.5043     2.6584     2.9991
                     A          A          A          A   
    1  N  1  S   -0.109506  -0.070768  -0.145891  -0.078608
    2  N  1  S   -0.180565  -0.172738  -0.156484  -0.041081
    3  N  1  S    0.764232  -0.450111   1.702558   1.447495
    4  N  1  X    0.008519   0.302667  -0.054366  -0.125318
    5  N  1  Y   -0.000994   0.183891   0.253792  -0.345818
    6  N  1  Z    0.033363  -0.090400   0.236157   0.100722
    7  N  1  X   -0.390136   0.897801   0.149923  -0.200514
    8  N  1  Y    0.309270   0.631257   0.898929  -0.496065
    9  N  1  Z    0.380018  -0.050471   0.507090   0.149118
   10  N  1 XX    0.310559   0.454310  -0.376819   0.671416
   11  N  1 YY   -0.410738  -0.624398   0.732858  -0.045085
   12  N  1 ZZ    0.100179   0.170087  -0.356039  -0.626331
   13  N  1 XY   -0.120442  -0.160534   0.244387   1.286670
   14  N  1 XZ   -0.605267   0.826754   0.152896   0.100998
   15  N  1 YZ    0.420846   0.465774   1.057911  -0.248119
   16  H  2  S   -0.142231   0.209551  -1.239115   0.463961
   17  H  2  S   -0.086460   0.174238  -0.505787   0.098564
   18  H  2  X    0.854133   0.090295  -0.220823   0.179892
   19  H  2  Y    0.329249  -0.299139   0.905772  -0.373320
   20  H  2  Z   -0.150029  -0.225849   0.629063  -0.227226
   21  H  3  S   -0.186329   0.917997  -0.124163  -1.271074
   22  H  3  S   -0.114629   0.405432   0.035012  -0.367667
   23  H  3  X    0.253011   0.707383  -0.131295  -0.616825
   24  H  3  Y   -0.485837   0.458034  -0.063180  -0.774799
   25  H  3  Z   -0.203504   0.075000   0.252473   0.368913
   26  H  4  S   -0.355510  -0.646555  -0.375189  -0.699616
   27  H  4  S   -0.067809  -0.386424  -0.060034  -0.179865
   28  H  4  X    0.481632   0.538742   0.092867   0.699019
   29  H  4  Y   -0.280067   0.467559   0.197897   0.308911
   30  H  4  Z   -0.044250   0.107343   0.172704   0.373627
 .....DONE WITH MCSCF ITERATIONS.....
 CPU     0: STEP CPU TIME=    11.82 TOTAL CPU TIME=         12.8 (      0.2 MIN)
 TOTAL WALL CLOCK TIME=         12.8 SECONDS, CPU UTILIZATION IS    99.84%

     ----------------------------------------------------------------
     PROPERTY VALUES FOR THE MCSCF SELF-CONSISTENT FIELD WAVEFUNCTION
     ----------------------------------------------------------------

          -----------------
          ENERGY COMPONENTS
          -----------------

         WAVEFUNCTION NORMALIZATION =       1.0000000000

                ONE ELECTRON ENERGY =     -93.3650850007
                TWO ELECTRON ENERGY =      26.7767703288
           NUCLEAR REPULSION ENERGY =      10.9052228556
                                      ------------------
                       TOTAL ENERGY =     -55.6830918163

 ELECTRON-ELECTRON POTENTIAL ENERGY =      26.7767703288
  NUCLEUS-ELECTRON POTENTIAL ENERGY =    -148.9994536549
   NUCLEUS-NUCLEUS POTENTIAL ENERGY =      10.9052228556
                                      ------------------
             TOTAL POTENTIAL ENERGY =    -111.3174604704
               TOTAL KINETIC ENERGY =      55.6343686541
                 VIRIAL RATIO (V/T) =       2.0008757745

          ---------------------------------------
          MULLIKEN AND LOWDIN POPULATION ANALYSES
          ---------------------------------------

     ATOMIC MULLIKEN POPULATION IN EACH MOLECULAR ORBITAL

                      1          2          3          4          5

                  2.000000   1.978577   1.654029   1.647761   1.634727

    1             2.000543   1.372136   1.345028   0.997284   1.229261
    2            -0.000196   0.266849   0.011537   0.287150   0.153583
    3            -0.000253   0.168256   0.276338   0.177748   0.017909
    4            -0.000094   0.171337   0.021127   0.185579   0.233973

                      6          7          8

                  0.036662   0.029081   0.019164

    1             0.015985   0.014659   0.010236
    2             0.000096   0.014343   0.000065
    3             0.003342  -0.000015   0.007910
    4             0.017239   0.000093   0.000953
 WARNING! MCSCF POPULATIONS SHOWN ABOVE ARE FOR THE NATURAL ORBITALS.
 IGNORE THE ABOVE DATA FOR MCSCF FUNCTIONS WHICH ARE NOT OF -FORS- TYPE.
 THE FOLLOWING POPULATIONS ARE CORRECT FOR ANY MCSCF WAVEFUNCTION.

               ----- POPULATIONS IN EACH AO -----
                             MULLIKEN      LOWDIN
              1  N  1  S      2.00217     1.90514
              2  N  1  S      0.81718     0.58151
              3  N  1  S      0.72293     0.42076
              4  N  1  X      0.70977     0.64463
              5  N  1  Y      0.67076     0.60137
              6  N  1  Z      0.83274     0.78622
              7  N  1  X      0.38577     0.46454
              8  N  1  Y      0.30777     0.41781
              9  N  1  Z      0.52115     0.56039
             10  N  1 XX      0.00045     0.16951
             11  N  1 YY      0.00150     0.17198
             12  N  1 ZZ      0.00365     0.14486
             13  N  1 XY      0.00366     0.00956
             14  N  1 XZ      0.00562     0.00520
             15  N  1 YZ      0.00000     0.01233
             16  H  2  S      0.61233     0.46383
             17  H  2  S      0.06321     0.15448
             18  H  2  X      0.01380     0.04595
             19  H  2  Y      0.02621     0.04217
             20  H  2  Z      0.01787     0.03652
             21  H  3  S      0.56692     0.44121
             22  H  3  S      0.02894     0.14882
             23  H  3  X      0.02175     0.04309
             24  H  3  Y      0.02368     0.04440
             25  H  3  Z      0.00994     0.02800
             26  H  4  S      0.51674     0.39183
             27  H  4  S      0.06313     0.15490
             28  H  4  X      0.02477     0.05222
             29  H  4  Y      0.01435     0.03156
             30  H  4  Z      0.01121     0.02521

          ----- MULLIKEN ATOMIC OVERLAP POPULATIONS -----
          (OFF-DIAGONAL ELEMENTS NEED TO BE MULTIPLIED BY 2)

             1           2           3           4

    1    6.2170978
    2    0.2426696   0.4987271
    3    0.3009195  -0.0037346   0.3591820
    4    0.2244440  -0.0042349  -0.0051325   0.4151308

          TOTAL MULLIKEN AND LOWDIN ATOMIC POPULATIONS
       ATOM         MULL.POP.    CHARGE          LOW.POP.     CHARGE
    1 N             6.985131    0.014869         6.895815    0.104185
    2 H             0.733427    0.266573         0.742952    0.257048
    3 H             0.651235    0.348765         0.705518    0.294482
    4 H             0.630207    0.369793         0.655715    0.344285

          MULLIKEN SPHERICAL HARMONIC POPULATIONS
       ATOM           S       P       D      F      G      H      I    TOTAL
    1 N             3.54    3.43    0.01   0.00   0.00   0.00   0.00    6.99
    2 H             0.68    0.06    0.00   0.00   0.00   0.00   0.00    0.73
    3 H             0.60    0.06    0.00   0.00   0.00   0.00   0.00    0.65
    4 H             0.58    0.05    0.00   0.00   0.00   0.00   0.00    0.63

          ---------------------
          ELECTROSTATIC MOMENTS
          ---------------------

 POINT   1           X           Y           Z (BOHR)    CHARGE
                 0.000001    0.000006   -0.177185        1.00 (A.U.)
         DX          DY          DZ         /D/  (DEBYE)
     0.120855    1.007762    2.169333    2.395035
 ...... END OF PROPERTY EVALUATION ......
 CPU     0: STEP CPU TIME=     0.00 TOTAL CPU TIME=         12.8 (      0.2 MIN)
 TOTAL WALL CLOCK TIME=         12.8 SECONDS, CPU UTILIZATION IS    99.84%

     -------------------------------------------------
     GMC-PT/GMC-QDPT or general MCSCF input parameters
     -------------------------------------------------
 # of frozen core orbs. =         0 ->         0
 # of doubly occ. orbs. =         1
 # of active      orbs. =         7
 # of virtual     orbs. =        21
 # of active electrons  =         7
 # of states in CI      =         3
 Highest state in CI    =         3
 kstate =  1 1 1
 avecoe =  0.333 0.333 0.333
 State symmetry           = A           
 Assigned symmetry number = 1

 <<<Act. MO sym.: 1111111

 <<<Division of 1-ext.:  0
 <<<Division of 2-ext.:  0

     ------------------------
     Orbital canonicalization
     ------------------------

 MOs are canonicalized for core, virtual, and invariant-active orbital spaces.
 This is a part of the GMC-QDPT calculation.
 SCHWARZ INEQUALITY OVERHEAD:       465 INTEGRALS, T=        0.00
 DIRECT TRANSFORMATION SKIPS AO INTEGRAL STORAGE ON DISK.

 Averaged energy =     -55.683091816

 State #    1  Energy =     -55.816854725  S =  0.500
 State #    2  Energy =     -55.729917850  S =  0.500
 State #    3  Energy =     -55.502502874  S =  0.500

 Orbital energies for filled orbital space
  -15.982223
 Orbital energies for active orbital space
   -1.484813  -0.776021  -1.004147  -0.719004   0.092443
    0.394944   0.222423
 Orbital energies for external orbital space
    0.115745   0.199063   0.267297   0.526706   0.580018
    0.679781   0.870688   1.063705   1.086053   1.221541
    1.297435   1.426344   1.594975   1.703376   1.861754
    1.960794   2.138271   2.229149   2.504326   2.658378
    2.999076

 Zero values mean non-canonical orbitals.
 ... done with orbital canonicalization ...
 CPU     0: STEP CPU TIME=     0.64 TOTAL CPU TIME=         13.5 (      0.2 MIN)
 TOTAL WALL CLOCK TIME=         13.5 SECONDS, CPU UTILIZATION IS    99.85%

     --------------------------------------------
     PARTIAL TWO ELECTRON INTEGRAL TRANSFORMATION
     --------------------------------------------

 NUMBER OF CORE MOLECULAR ORBITALS     =    0
 NUMBER OF OCCUPIED MOLECULAR ORBITALS =    8
 TOTAL NUMBER OF MOLECULAR ORBITALS    =   29
 TOTAL NUMBER OF ATOMIC ORBITALS       =   30
 THRESHOLD FOR KEEPING TRANSFORMED 2E- INTEGRALS = 1.000E-09
 AO INTEGRALS WILL BE CALCULATED IN DIRECT MODE...
 DIRECT TRANSFORMATION SKIPS AO INTEGRAL STORAGE ON DISK.
 SCHWARZ INEQUALITY OVERHEAD:       465 INTEGRALS, T=        0.00

 PLAN A: REQUIREMENTS FOR FULLY IN-MEMORY TRANSFORMATION:
 # OF WORDS AVAILABLE =            100000000
 # OF WORDS NEEDED    =               221798

 PARALLEL ONLY WORKS WITH THE SEGMENTED ALGORITHM.
 ADJUSTING MEMORY TO USE SEGMENTED ALGORITHM.


 PLAN B: REQUIREMENTS FOR THE SEGMENTED TRANSFORMATION:
       MINIMUM=         124148 WORDS FOR 1 MOLECULAR ORBITAL PER PASS
       MAXIMUM=         221798 WORDS FOR ALL MOLECULAR ORBITALS IN 1 PASS
              (          13950 EXTRA WORDS INCLUDES 1 EXTRA ORBITAL/PASS)
 THIS RUN USES=         221798 WORDS,
 DISTRIBUTING   1 PASSES EACH CONTAINING     8 ORBITALS OVER   1 PROCESSORS.

 CHOOSING SEGMENTED PARTIAL TRANSFORMATION...
 DIRECT TRANSFORMATION SKIPS AO INTEGRAL STORAGE ON DISK.
 PASS #   1 TOOK        0.05 SECONDS.
 TOTAL NUMBER OF TRANSFORMED 2E- INTEGRALS KEPT =        29226
 ... END OF INTEGRAL TRANSFORMATION ...
 CPU     0: STEP CPU TIME=     0.05 TOTAL CPU TIME=         13.5 (      0.2 MIN)
 TOTAL WALL CLOCK TIME=         13.5 SECONDS, CPU UTILIZATION IS    99.93%

     --------     ------------------------------------------
     GMC-QDPT     Program written by H.Nakano (Kyushu Univ.)
     --------     ------------------------------------------

 *** Reference space

 Reference type: ORMAS (= Occupation restricted multiple active space)
 # of orbitals          =  7
 # of minimum electrons =  7
 # of maximum electrons =  7
 State symmetry    =    1 (input)
 2*Sz              =    1 (input)
 Spin multiplicity =    2 (input)
 Dimension of reference space =      1225  (from      3432 walks)

 Dimension of reference space =      1225  (from      1225 walks)

 <<<Ionized spaces for Ref-CI:
      0:         1225 /   -1-0:         1960 /  0-1-0:         2891

 ***                    ***
 *** Reference space CI ***
 ***                    ***

 Converged after   32 iterations

 Reference wavefunctions:

 State #    1  Energy =     -55.816854725  S =  0.500

      Det      Coef    Occupancy (Ignoring core)
      ---      ----    --------- --------- -----
        1    0.962210  11110001110000
       71   -0.154879  11110001011000
      357    0.052448  11010101100010
      753    0.077437  10110011010001

 State #    2  Energy =     -55.729917850  S =  0.500

      Det      Coef    Occupancy (Ignoring core)
      ---      ----    --------- --------- -----
        1   -0.159705  11110001110000
       71   -0.966336  11110001011000
      177    0.051237  11101001010100
      462    0.053294  11010101001010

 State #    3  Energy =     -55.502502874  S =  0.500

      Det      Coef    Occupancy (Ignoring core)
      ---      ----    --------- --------- -----
       36   -0.970343  11110001101000
      123    0.053684  10110010111000
      142    0.053133  11101001100100
      823   -0.079084  10110011001001

 Davidson method: CPU/Wall time =           0.45 /           0.44 sec.

 Oscillator strength (invalid if E(1)/=E(GS)):
 -----------------------------------------
   State                        f
 -----------------------------------------
     2     F(REF-CI)=        0.0012991131
     3     F(REF-CI)=        0.0064325404
 -----------------------------------------

 Dipole moment matrix elements, x, y, z, in A.U.

 Dimension of ionized spaces for PT:
 (N-2) space:         1715 /  (N-1) space:         2842 /  N space:         2891
 (N+1) space:         2842 /  (N+2) space:         1715

 <<<Ionized spaces for internal:
         0:         1225 /      -1-0:         1960 /     0-1-0:         2891
  -1-0-1-0:         2842 / 0-1-0-1-0:         3381

 Diagonal elements of averaged one-particle density matrix:
       2       3       4       5       6       7       8
  0.9922  0.9833  0.9858  0.9887  0.0215  0.0113  0.0173
  0.9862  0.6556  0.6632  0.6597  0.0149  0.0081  0.0123

 Orbital energies:
 -------- Doubly-occupied orbitals (highest several orbs.) -------
             1
 -1.598222D+01
 -------- Active orbitals ----------------------------------------
             2            3            4            5            6
 -1.484813D+00-7.760211D-01-1.004147D+00-7.190043D-01 9.244263D-02
             7            8
  3.949437D-01 2.224228D-01
 -------- External orbitals (lowest several orbs.) ---------------
             9           10           11           12           13
  1.157448D-01 1.990626D-01 2.672972D-01 5.267059D-01 5.800180D-01
            14           15           16           17           18
  6.797806D-01 8.706882D-01 1.063705D+00 1.086053D+00 1.221541D+00

 *** Quasi-degeneracy checking

 === Det (|Ci| > 1.0D-01 and dE < 5.0D-03)

 # of small denominators (single excitations)
 State       dEmin  dE < 5.0D-03  dE < 5.0D-04  dE < 5.0D-05  dE < 5.0D-06
 ----- ----------- ------------- ------------- ------------- -------------
     1    5.00D-03             0             0             0             0
     2    5.00D-03             0             0             0             0
     3    5.00D-03             0             0             0             0

 # of small denominators (double excitations)
 State       dEmin  dE < 5.0D-03  dE < 5.0D-04  dE < 5.0D-05  dE < 5.0D-06
 ----- ----------- ------------- ------------- ------------- -------------
     1    5.00D-03             0             0             0             0
     2    5.00D-03             0             0             0             0
     3    5.00D-03             0             0             0             0

 *** Zeroth-Order Setup (Granovsky's zeroth-order vectors)
 Zeroth-order effective Hamiltonian
  (= Sum_i e(i)*<I|a+(i)a(i)|J> ):
                   1            2            3
     1 -7.138803D+00
     2  1.532361D-02-7.102673D+00
     3 -1.429352D-03 6.223191D-03-6.857142D+00

 Zeroth-order vectors:
 State #    1
       MC st            1           2           3
       Coeff    9.382D-01  -3.458D-01   1.216D-02
 State #    2
       MC st            2           1           3
       Coeff   -9.380D-01  -3.460D-01   2.226D-02
 State #    3
       MC st            3           2           1
       Coeff    9.997D-01   2.509D-02  -3.706D-03

 *** GMC-QDPT computation

 (Integral reading:  CPU/Wall time =           0.00 /           0.00 sec.)

 One-external:
   0 -ionized terms: CPU/Wall time =           0.03 /           0.03 sec.
 (-1)-ionized terms: CPU/Wall time =           0.09 /           0.09 sec.
 (+1)-ionized terms: CPU/Wall time =           0.02 /           0.02 sec.
 (+1)-ionized terms: CPU/Wall time =           0.01 /           0.01 sec.
 (+2)-ionized terms: CPU/Wall time =           0.00 /           0.00 sec.

 Internal:
 # of macro loops for internal contribution =         1 (input)
 Loop:    1
 Dimension of internal CISD space     =         0  (after screening)
 Space construction: CPU/Wall time =           0.02 /           0.02 sec.
 Internal terms:     CPU/Wall time =           0.00 /           0.00 sec.

 Two-external:
   0 -ionized terms: CPU/Wall time =           0.06 /           0.06 sec.
 (-1)-ionized terms: CPU/Wall time =           1.00 /           1.00 sec.
 (-2)-ionized terms: CPU/Wall time =           0.17 /           0.16 sec.

 Total time:         CPU/Wall time =           1.40 /           1.39 sec.

 ***                  ***
 *** GMC-QDPT Results ***
 ***                  ***

 Diagonal elements of effective Hamiltonian:
 Heff(  1) =   -55.90742263
 Heff(  2) =   -55.84558471
 Heff(  3) =   -55.61416055

 Off-diagonal elements of effective Hamiltonian:
                   1            2
     2  2.511765D-02
     3  3.655834D-03 4.480544D-03

 ******** GMC-QDPT energies ********
 ----------------------------------------------------------------------------
   State                        1st order                           2nd order
 ----------------------------------------------------------------------------
     1     E(REF-CI)=      -55.8168547254   E(GMC-QDPT2)=      -55.9163518646
     2     E(REF-CI)=      -55.7299178496   E(GMC-QDPT2)=      -55.8368011920
     3     E(REF-CI)=      -55.5025028739   E(GMC-QDPT2)=      -55.6140148441
 ----------------------------------------------------------------------------

 Excitation energies (invalid if E(1)/=E(GS)):
 ----------------------------------------------------------------------------
   State                        1st order                           2nd order
 ----------------------------------------------------------------------------

     TZ Sorted GMC-PT ENERGIES:
         1      -55.9163518646
         2      -55.8368011920
         3      -55.6140148441
     2     E(REF-CI)=        2.3656741 eV   E(GMC-QDPT2)=        2.1646852 eV
     3     E(REF-CI)=        8.5539540 eV   E(GMC-QDPT2)=        8.2270136 eV
 ----------------------------------------------------------------------------

 Main characters of perturbed GMC-QDPT states:

 State #    1  Energy =     -55.916351865  S =  0.500

      Det      Coef    Occupancy (Ignoring core)
      ---      ----    --------- --------- -----
        1    0.964123  11110001110000
       71   -0.142650  11110001011000
      357    0.052507  11010101100010
      753    0.077541  10110011010001

 State #    2  Energy =     -55.836801192  S =  0.500

      Det      Coef    Occupancy (Ignoring core)
      ---      ----    --------- --------- -----
        1   -0.147504  11110001110000
       71   -0.968230  11110001011000
      177    0.051610  11101001010100
      462    0.053387  11010101001010

 State #    3  Energy =     -55.614014844  S =  0.500

      Det      Coef    Occupancy (Ignoring core)
      ---      ----    --------- --------- -----
       36   -0.970324  11110001101000
      123    0.053723  10110010111000
      142    0.053090  11101001100100
      823   -0.079055  10110011001001

 <<<Max |V/de| = 2.944D-02  Thresh = 1.000D+00

 Oscillator strength (invalid if E(1)/=E(GS)):
 ----------------------------------------------------------------------------
   State                        1st order                           2nd order
 ----------------------------------------------------------------------------
     2     F(REF-CI)=        0.0012991131     F(GMC-PT2)=        0.0012543353
     3     F(REF-CI)=        0.0064325404     F(GMC-PT2)=        0.0062828649
 ----------------------------------------------------------------------------

 Dipole moment matrix elements, x, y, z, in A.U.
States    1    1        0.0881980183        0.3709228949        0.6554061840
States    1    2        0.0043872179        0.0379060267        0.1489815862
States    1    3       -0.0970764645       -0.1215741309        0.0834708758
States    2    1        0.0043872179        0.0379060267        0.1489815862
States    2    2       -0.1227834865        0.3317584097        0.3405449435
States    2    3        0.0816497441       -0.0310180778        0.0028940011
States    3    1       -0.0970764645       -0.1215741309        0.0834708758
States    3    2        0.0816497441       -0.0310180778        0.0028940011
States    3    3        0.2061509144        0.6208097922        0.2556569791

 Oscillator strength (valid only when positive): 
 ----------------------------------------------------------------------------
  States                        1st order                           2nd order
 ----------------------------------------------------------------------------
  1  1     F(REF-CI)=        0.0000000000     F(GMC-PT2)=        0.0000000000
  1  2     F(REF-CI)=       -0.0012991131     F(GMC-PT2)=       -0.0012543353
  1  3     F(REF-CI)=       -0.0064325404     F(GMC-PT2)=       -0.0062828649
  2  1     F(REF-CI)=        0.0012991131     F(GMC-PT2)=        0.0012543353
  2  2     F(REF-CI)=        0.0000000000     F(GMC-PT2)=        0.0000000000
  2  3     F(REF-CI)=       -0.0011772013     F(GMC-PT2)=       -0.0011343059
  3  1     F(REF-CI)=        0.0064325404     F(GMC-PT2)=        0.0062828649
  3  2     F(REF-CI)=        0.0011772013     F(GMC-PT2)=        0.0011343059
  3  3     F(REF-CI)=        0.0000000000     F(GMC-PT2)=        0.0000000000
 CPU     0: STEP CPU TIME=     1.91 TOTAL CPU TIME=         15.4 (      0.3 MIN)
 TOTAL WALL CLOCK TIME=         15.4 SECONDS, CPU UTILIZATION IS    99.94%

     !!! DIABATIZATION FOR REF CI STATES !!!

 *******************************************************
          $DMO GROUP FOUND IN THE INPUT.
        DIABATIZATION OF ADIABATIC STATES BEGINS.
     PROGRAMMED BY TAO ZENG (CARLETON UNIVERSITY).
               Email: toby.zeng@carleton.ca
     See T. Zeng, J. Chem. Phys. 2017, 146, 144103
 *******************************************************

 *************************************************************************
     STEP 1: TRANSFORMATION OF ADIABATIC STATES TO THE DMO REPRESENTATION
         See Atchity and Ruedenberg, J. Chem. Phys. 1999, 111, 2910
 *************************************************************************

Read in Diabatic Molecualr Orbitals:

                      1          2          3          4          5

    1  N  1  S    0.008609   0.000000   0.000000  -0.013219   0.279491
    2  N  1  S    0.442914  -0.000000   0.000000  -0.184329   0.867803
    3  N  1  S    0.276913   0.000000  -0.000000  -0.288315   0.144236
    4  N  1  X   -0.000000   0.493155  -0.024636  -0.000000  -0.000000
    5  N  1  Y    0.000000   0.024636   0.493155  -0.000000   0.000000
    6  N  1  Z    0.090197   0.000000   0.000000   0.593421   0.705309
    7  N  1  X   -0.000000   0.210628  -0.010522   0.000000   0.000000
    8  N  1  Y    0.000000   0.010522   0.210628  -0.000000  -0.000000
    9  N  1  Z   -0.004381   0.000000   0.000000   0.381592  -0.106092
   10  N  1 XX   -0.000457   0.010719  -0.000535  -0.012387   0.006153
   11  N  1 YY   -0.000457  -0.010719   0.000535  -0.012387   0.006153
   12  N  1 ZZ    0.000914  -0.000000   0.000000   0.024773  -0.012306
   13  N  1 XY    0.000000  -0.000618  -0.012377  -0.000000   0.000000
   14  N  1 XZ   -0.000000   0.026529  -0.001325  -0.000000   0.000000
   15  N  1 YZ    0.000000   0.001325   0.026529  -0.000000   0.000000
   16  H  2  S    0.194462  -0.176074   0.343485   0.112865  -0.523343
   17  H  2  S    0.003574  -0.023812   0.046452   0.024014  -0.054445
   18  H  2  X    0.018760   0.009101   0.022834   0.009336  -0.039151
   19  H  2  Y   -0.032493   0.022287  -0.020044  -0.016171   0.067811
   20  H  2  Z   -0.009251   0.008464  -0.016511   0.018769  -0.010566
   21  H  3  S    0.194462  -0.209430  -0.324227   0.112865  -0.523343
   22  H  3  S    0.003574  -0.028322  -0.043847   0.024014  -0.054445
   23  H  3  X    0.018760   0.006781  -0.023627   0.009336  -0.039151
   24  H  3  Y    0.032493  -0.024174  -0.017723   0.016171  -0.067811
   25  H  3  Z   -0.009251   0.010067   0.015585   0.018769  -0.010566
   26  H  4  S    0.194462   0.385503  -0.019258   0.112865  -0.523343
   27  H  4  S    0.003574   0.052134  -0.002604   0.024014  -0.054445
   28  H  4  X   -0.037519  -0.032295   0.001613  -0.018672   0.078302
   29  H  4  Y    0.000000   0.001067   0.021353  -0.000000   0.000000
   30  H  4  Z   -0.009251  -0.018530   0.000926   0.018769  -0.010566

                      6          7

    1  N  1  S    0.000000  -0.000000
    2  N  1  S    0.000000  -0.000000
    3  N  1  S   -0.000000   0.000000
    4  N  1  X   -0.930415  -0.002083
    5  N  1  Y   -0.002083   0.930415
    6  N  1  Z   -0.000000   0.000000
    7  N  1  X   -0.046866  -0.000105
    8  N  1  Y   -0.000105   0.046866
    9  N  1  Z   -0.000000   0.000000
   10  N  1 XX    0.001538   0.000003
   11  N  1 YY   -0.001538  -0.000003
   12  N  1 ZZ   -0.000000   0.000000
   13  N  1 XY   -0.000004   0.001776
   14  N  1 XZ    0.039985   0.000090
   15  N  1 YZ    0.000090  -0.039985
   16  H  2  S   -0.362630  -0.631354
   17  H  2  S   -0.065964  -0.114846
   18  H  2  X    0.002763  -0.037520
   19  H  2  Y    0.037435   0.040736
   20  H  2  Z    0.001882   0.003276
   21  H  3  S   -0.365454   0.629724
   22  H  3  S   -0.066477   0.114549
   23  H  3  X    0.002595   0.037532
   24  H  3  Y   -0.037617   0.040567
   25  H  3  Z    0.001896  -0.003268
   26  H  4  S    0.728084   0.001630
   27  H  4  S    0.132441   0.000297
   28  H  4  X   -0.062317  -0.000140
   29  H  4  Y    0.000055  -0.024345
   30  H  4  Z   -0.003778  -0.000008

NUMBER OF SUB ACTIVE SPACES:   1
ROTATE ACTIVE MOS TO DMOS IN EACH SUB-SPACE

SPACE  1:

OVERLAP BETWEEN ORTHONORMAL AND PRE-ORTHONORMAL REF. DMOS

             1           2           3           4           5

    1    0.9716884  -0.0087765   0.0290968  -0.0101267  -0.0014692
    2   -0.0087765   0.9293829   0.0938272   0.0022802  -0.0247806
    3    0.0290968   0.0938272   0.9679107   0.0468157  -0.0821630
    4   -0.0101267   0.0022802   0.0468157   0.9925365  -0.0122950
    5   -0.0014692  -0.0247806  -0.0821630  -0.0122950   1.1764965
    6   -0.0025479  -0.0452310   0.0706862   0.0158823  -0.0753674
    7   -0.0008562  -0.0943293  -0.0012921  -0.0614877   0.0399109

             6           7

    1   -0.0025479  -0.0008562
    2   -0.0452310  -0.0943293
    3    0.0706862  -0.0012921
    4    0.0158823  -0.0614877
    5   -0.0753674   0.0399109
    6    1.0500200   0.0076579
    7    0.0076579   1.0677761
REFERENCE DMOS AFTER ORTHONORMALIZATION:

                      1          2          3          4          5

    1  N  1  S    0.008602   0.004439   0.019074  -0.012007   0.240243
    2  N  1  S    0.453804   0.018271   0.052373  -0.177501   0.745117
    3  N  1  S    0.281777   0.003709   0.014528  -0.288277   0.122576
    4  N  1  X    0.002766   0.493728  -0.014780   0.016020  -0.047774
    5  N  1  Y   -0.013612   0.062566   0.506837   0.030986   0.004627
    6  N  1  Z    0.099863   0.017205   0.015232   0.605976   0.609129
    7  N  1  X    0.002969   0.230275  -0.030999   0.002764  -0.000083
    8  N  1  Y   -0.006742  -0.007074   0.221069  -0.007441   0.012820
    9  N  1  Z    0.000156   0.001348  -0.025601   0.386326  -0.089455
   10  N  1 XX   -0.000452   0.011927  -0.000821  -0.012440   0.005457
   11  N  1 YY   -0.000794  -0.011945   0.002886  -0.012630   0.005010
   12  N  1 ZZ    0.001247   0.000018  -0.002065   0.025070  -0.010467
   13  N  1 XY    0.000408   0.000852  -0.013050   0.000704  -0.000893
   14  N  1 XZ    0.000608   0.031544  -0.007136  -0.000186   0.002650
   15  N  1 YZ   -0.000971  -0.005315   0.028446  -0.003644   0.003034
   16  H  2  S    0.184599  -0.317168   0.369652   0.063206  -0.430915
   17  H  2  S    0.001485  -0.046649   0.052995   0.015681  -0.044260
   18  H  2  X    0.018736   0.003741   0.019758   0.006226  -0.030637
   19  H  2  Y   -0.032434   0.033222  -0.020422  -0.013355   0.058171
   20  H  2  Z   -0.008618   0.011406  -0.019892   0.019914  -0.009958
   21  H  3  S    0.209708  -0.158829  -0.349651   0.169942  -0.515167
   22  H  3  S    0.005037  -0.019561  -0.045053   0.033587  -0.057474
   23  H  3  X    0.020450   0.013534  -0.030126   0.012904  -0.036106
   24  H  3  Y    0.033881  -0.023305  -0.020394   0.019980  -0.063245
   25  H  3  Z   -0.009681   0.009008   0.013975   0.017973  -0.007581
   26  H  4  S    0.211530   0.461770  -0.161083   0.109960  -0.402496
   27  H  4  S    0.005465   0.064350  -0.022755   0.023147  -0.038372
   28  H  4  X   -0.039726  -0.038574   0.017052  -0.018639   0.063236
   29  H  4  Y   -0.000761  -0.003522   0.022793  -0.002471   0.002200
   30  H  4  Z   -0.009602  -0.020837   0.001967   0.018717  -0.009446

                      6          7

    1  N  1  S    0.016422  -0.009367
    2  N  1  S    0.054795  -0.036424
    3  N  1  S    0.013175  -0.020705
    4  N  1  X   -0.867863   0.050582
    5  N  1  Y   -0.039992   0.879386
    6  N  1  Z    0.034415   0.013499
    7  N  1  X   -0.032818   0.020607
    8  N  1  Y   -0.014582   0.042725
    9  N  1  Z   -0.010670   0.025755
   10  N  1 XX    0.002612   0.000116
   11  N  1 YY   -0.001610  -0.001959
   12  N  1 ZZ   -0.001001   0.001842
   13  N  1 XY    0.000825   0.001791
   14  N  1 XZ    0.040096   0.002465
   15  N  1 YZ   -0.001510  -0.038196
   16  H  2  S   -0.410993  -0.596010
   17  H  2  S   -0.071017  -0.108545
   18  H  2  X   -0.000542  -0.033261
   19  H  2  Y    0.042480   0.037786
   20  H  2  Z    0.002545   0.005546
   21  H  3  S   -0.374816   0.607197
   22  H  3  S   -0.066544   0.110059
   23  H  3  X    0.002065   0.038403
   24  H  3  Y   -0.040505   0.039741
   25  H  3  Z    0.000421  -0.000940
   26  H  4  S    0.693667   0.058697
   27  H  4  S    0.127288   0.007794
   28  H  4  X   -0.057385  -0.006575
   29  H  4  Y   -0.001271  -0.023299
   30  H  4  Z   -0.005610  -0.000383

 -------------------------------------------
       MAXIMIZING MORMO OVERLAP TERM        
 -------------------------------------------
   SWEEP    VALUE       PROGRESS
     0     4.59917
     1     6.90074     2.30157070
     2     6.93757     0.03682923
     3     6.93757     0.00000426
     4     6.93757     0.00000000
     5     6.93757     0.00000000
 THE ROTATION IS DONE
FLIPPING SIGN FOR ORBITAL   7
ACTIVE ORBITALS AFTER MORMO:

                      1          2          3          4          5

    1  N  1  S    0.006745  -0.002798   0.027538  -0.012168   0.178205
    2  N  1  S    0.425409  -0.015617   0.061470  -0.190035   0.663751
    3  N  1  S    0.338609   0.044481  -0.030732  -0.270768   0.223821
    4  N  1  X   -0.010308   0.446094   0.019624   0.002857  -0.047161
    5  N  1  Y   -0.007138   0.083763   0.474851   0.045593  -0.016585
    6  N  1  Z    0.083850   0.012051   0.042466   0.604926   0.581660
    7  N  1  X    0.016131   0.287265  -0.098385   0.002251   0.007972
    8  N  1  Y   -0.014533  -0.065074   0.241207  -0.057674   0.052433
    9  N  1  Z    0.030231   0.002552  -0.070309   0.386627  -0.049426
   10  N  1 XX   -0.000287   0.010333  -0.007818  -0.005859  -0.000759
   11  N  1 YY    0.000452  -0.009295   0.008042  -0.014575  -0.009043
   12  N  1 ZZ   -0.000165  -0.001037  -0.000225   0.020434   0.009802
   13  N  1 XY    0.007609   0.014317  -0.024119   0.002400  -0.050245
   14  N  1 XZ    0.002329   0.021761  -0.005249  -0.005079   0.003891
   15  N  1 YZ    0.002573  -0.005482   0.015543  -0.001608  -0.035920
   16  H  2  S    0.181422  -0.230924   0.336155   0.083144  -0.456407
   17  H  2  S   -0.001216  -0.131026   0.104749   0.022563  -0.068377
   18  H  2  X    0.007908   0.017371   0.001870   0.007019  -0.034986
   19  H  2  Y   -0.030933   0.016592  -0.020441  -0.018053   0.034874
   20  H  2  Z   -0.013237   0.010603  -0.029831   0.016473  -0.009023
   21  H  3  S    0.185253  -0.188223  -0.338786   0.131489  -0.503806
   22  H  3  S    0.001940  -0.008293  -0.049977   0.038648  -0.069740
   23  H  3  X    0.023018  -0.006359  -0.036226   0.008946  -0.039168
   24  H  3  Y    0.025076  -0.030183  -0.014199   0.007378  -0.040930
   25  H  3  Z   -0.002276   0.005551   0.005448   0.022251  -0.012593
   26  H  4  S    0.185366   0.382231  -0.063685   0.098356  -0.400315
   27  H  4  S    0.011306   0.144073  -0.080619   0.035871  -0.055100
   28  H  4  X   -0.024918  -0.025048  -0.008750  -0.009742   0.043021
   29  H  4  Y   -0.015877  -0.033462   0.016503  -0.008175   0.005831
   30  H  4  Z   -0.005672  -0.016252  -0.009250   0.017137  -0.022464

                      6          7

    1  N  1  S    0.037824  -0.076566
    2  N  1  S    0.074916  -0.171197
    3  N  1  S   -0.022388   0.165502
    4  N  1  X   -0.886100   0.021055
    5  N  1  Y   -0.021382   0.848116
    6  N  1  Z    0.047650   0.030270
    7  N  1  X   -0.015056   0.069954
    8  N  1  Y   -0.054928   0.101974
    9  N  1  Z   -0.040780   0.033864
   10  N  1 XX   -0.002231   0.049412
   11  N  1 YY   -0.010348  -0.028500
   12  N  1 ZZ    0.012579  -0.020913
   13  N  1 XY    0.037392   0.031558
   14  N  1 XZ    0.032203  -0.023415
   15  N  1 YZ    0.011225  -0.028132
   16  H  2  S   -0.314157  -0.587173
   17  H  2  S   -0.170831  -0.174343
   18  H  2  X    0.034244  -0.032155
   19  H  2  Y    0.030299   0.015375
   20  H  2  Z    0.019982   0.005410
   21  H  3  S   -0.369442   0.574919
   22  H  3  S   -0.071955   0.123605
   23  H  3  X   -0.022169   0.037047
   24  H  3  Y   -0.033841   0.034451
   25  H  3  Z   -0.021378   0.014037
   26  H  4  S    0.624679  -0.036624
   27  H  4  S    0.234045   0.046751
   28  H  4  X   -0.040338   0.021125
   29  H  4  Y   -0.033816  -0.034135
   30  H  4  Z    0.002552  -0.023037

Actually Used Diabatic Molecualr Orbitals:

                      1          2          3          4          5

    1  N  1  S    0.006745  -0.002798   0.027538  -0.012168   0.178205
    2  N  1  S    0.425409  -0.015617   0.061470  -0.190035   0.663751
    3  N  1  S    0.338609   0.044481  -0.030732  -0.270768   0.223821
    4  N  1  X   -0.010308   0.446094   0.019624   0.002857  -0.047161
    5  N  1  Y   -0.007138   0.083763   0.474851   0.045593  -0.016585
    6  N  1  Z    0.083850   0.012051   0.042466   0.604926   0.581660
    7  N  1  X    0.016131   0.287265  -0.098385   0.002251   0.007972
    8  N  1  Y   -0.014533  -0.065074   0.241207  -0.057674   0.052433
    9  N  1  Z    0.030231   0.002552  -0.070309   0.386627  -0.049426
[...]

 --- DIABATIC COUPLINGS (OFF DIAGONAL ELEMENTS)---  HATREE            EV
 STATE #  1 &  2'S GMC-PT-LEVEL COUPLING  =      -0.010531324      -0.286571928
 STATE #  1 &  3'S GMC-PT-LEVEL COUPLING  =      -0.058431744      -1.590008747
 STATE #  2 &  3'S GMC-PT-LEVEL COUPLING  =       0.106727481       2.904202676

 ---------------------------------------
     - ROTATION TO DIABATIC STATES -    
 ---------------------------------------
 ROWS=ADIABATIC, COLUMNS=DIABATIC STATES

             1           2           3

    1   -0.9213140   0.1805445  -0.3443607
    2   -0.3411666  -0.8002065   0.4932291
    3   -0.1865098   0.5719032   0.7988371

 ---------------------------------------
          - DIABATIC STATES -           
 ---------------------------------------

 State #    1  Energy =     -55.896575521

      Det      Coef        Coefp    Occupancy (Ignoring core)
      ---      ----        ----    --------- --------- -----
        1    0.904840   -0.904840  222+000
        3   -0.144077   -0.144077  22-++00
      141    0.138520    0.138520  22++-00
       18   -0.127472    0.127472  2-2+00+
      736    0.123992   -0.123992  2+2+00-
        8   -0.121574    0.121574  2-2+0+0
        7    0.099361    0.099361  22-+0+0
       16   -0.097669    0.097669  222000+
      351   -0.093197   -0.093197  22++0-0
      386    0.091419   -0.091419  2+2+0-0
      717   -0.070070   -0.070070  220+002
      393   -0.067964   -0.067964  202+020
       17    0.067834    0.067834  22-+00+
      701   -0.043324   -0.043324  22++00-
      215   -0.039484   -0.039484  022+200
      708    0.036491   -0.036491  2-++0+-
      402    0.035495   -0.035495  2+-+0-+
      218    0.035348   -0.035348  +-2+-+0
      390    0.034795   -0.034795  -+2++-0
      179   -0.034690   -0.034690  202+200
      705   -0.033639   -0.033639  -2+++0-
      227   -0.033170   -0.033170  +2-+-0+
      738   -0.033040   -0.033040  2+-++0-
     1051   -0.032230   -0.032230  2+++0--
      212    0.031875    0.031875  +220200
      158   -0.031736   -0.031736  2-++-0+
       13    0.031436    0.031436  2--+++0
       76    0.030155    0.030155  2+2-0+0
       23    0.029345    0.029345  2--++0+
       29   -0.028609   -0.028609  2--+0++
      387   -0.028372    0.028372  2+20+-0
      911    0.027354    0.027354  2+++-0-
        5    0.027062    0.027062  -22++00
       20   -0.026655   -0.026655  22-0+0+
      702    0.026225    0.026225  22+0+0-
      561    0.026124    0.026124  2+++--0
      773    0.026027   -0.026027  +2-++0-
      113   -0.025853    0.025853  +-220+0
       27   -0.025531    0.025531  2-200++
      122    0.025332    0.025332  +2-200+
      424   -0.024936   -0.024936  +-2++-0
      184   -0.024782   -0.024782  -+2+-+0
       51   -0.024510    0.024510  22+-00+
      148   -0.023675   -0.023675  2-++-+0
      751   -0.023414    0.023414  2+20002
      159    0.023082   -0.023082  -2++-0+
      147    0.021614   -0.021614  220+-+0
      353   -0.021490   -0.021490  220++-0
      388   -0.020900   -0.020900  2+-++-0
      389    0.020625    0.020625  202++-0
      183   -0.020307    0.020307  202+-+0

 State #    2  Energy =     -55.766526781

      Det      Coef        Coefp    Occupancy (Ignoring core)
      ---      ----        ----    --------- --------- -----
       71   -0.908059    0.908059  2+22000
      246    0.159182    0.159182  2++2-00
       73   -0.143973    0.143973  2+-2+00
       88    0.124117   -0.124117  202200+
      736    0.115565   -0.115565  2+2+00-
       86   -0.111055   -0.111055  2+2-00+
       77    0.110216   -0.110216  2+-20+0
      456   -0.098224   -0.098224  2++20-0
      822    0.072334   -0.072334  2+02002
       78    0.070153   -0.070153  20220+0
       72   -0.054447   -0.054447  2+2-+00
      813    0.043836   -0.043836  20+20+-
       99   -0.042445    0.042445  20-20++
       36    0.042377    0.042377  22+2000
       74    0.040891   -0.040891  2022+00
      320    0.040699    0.040699  0+22200
      810   -0.035511   -0.035511  -++2+0-
      177    0.035509   -0.035509  2+20200
      317    0.035135   -0.035135  ++2-200
      111    0.034933   -0.034933  +22-0+0
      180   -0.034836    0.034836  -+2+200
      323   -0.034655    0.034655  +022-+0
      263   -0.034590   -0.034590  20+2-0+
      183   -0.034559    0.034559  202+-+0
       76    0.033701    0.033701  2+2-0+0
       90    0.033253    0.033253  2+--+0+
      332   -0.032535    0.032535  ++-2-0+
      176    0.032524   -0.032524  2+2+-00
       87    0.030531   -0.030531  2+-200+
      911    0.030405    0.030405  2+++-0-
       93    0.030193   -0.030193  20-2+0+
      807   -0.029910    0.029910  2++-+0-
      192   -0.029295    0.029295  2+-+-0+
       83    0.028979   -0.028979  20-2++0
       38   -0.027895    0.027895  2202+00
      526   -0.027802   -0.027802  ++220-0
      108   -0.027266   -0.027266  +2-2+00
      806   -0.027086   -0.027086  2++200-
       97   -0.027030   -0.027030  202-0++
      252   -0.026589   -0.026589  2+02-+0
      753    0.026367    0.026367  202+002
       81    0.026292    0.026292  202-++0
      878    0.026250    0.026250  ++-2+0-
      742    0.024994    0.024994  2+-+0+-
      264    0.024494   -0.024494  -++2-0+
      391    0.024358   -0.024358  2+20020
      316    0.023507    0.023507  ++22-00
      743    0.022560    0.022560  202+0+-
        6    0.021966   -0.021966  22200+0
      253   -0.021948   -0.021948  20+2-+0
        4    0.021923   -0.021923  2-2++00
      113    0.021635   -0.021635  +-220+0
      529    0.021394    0.021394  +022+-0

 State #    3  Energy =     -55.704065599

      Det      Coef        Coefp    Occupancy (Ignoring core)
      ---      ----        ----    --------- --------- -----
       36   -0.902698   -0.902698  22+2000
       38    0.154572   -0.154572  2202+00
       53    0.147921    0.147921  2-+200+
      806   -0.138866   -0.138866  2++200-
       51   -0.122519    0.122519  22+-00+
      701    0.113177    0.113177  22++00-
       42   -0.089962    0.089962  22020+0
       43    0.089287    0.089287  2-+20+0
      456   -0.086847   -0.086847  2++20-0
      106    0.073364    0.073364  +222000
      463    0.072076   -0.072076  20+2020
       71   -0.044768    0.044768  2+22000
      472   -0.043739   -0.043739  2+020-+
       64    0.041729   -0.041729  2-020++
       37   -0.039860    0.039860  22+-+00
      285    0.039773   -0.039773  02+2200
      249    0.039475   -0.039475  20+2200
      123    0.038663   -0.038663  +-2200+
      288   -0.038177   -0.038177  +-+2-+0
      460   -0.037726   -0.037726  -++2+-0
      282    0.037007    0.037007  +2+-200
      145   -0.036400   -0.036400  -2++200
       73    0.036003   -0.036003  2+-2+00
      297    0.035325   -0.035325  +202-0+
      142    0.035255    0.035255  22+0200
      457   -0.035220    0.035220  2++-+-0
       55   -0.034917   -0.034917  220-+0+
      808    0.033592   -0.033592  2+02+0-
      148   -0.033169   -0.033169  2-++-+0
      112   -0.032158   -0.032158  +2-20+0
      109   -0.031416    0.031416  +-22+00
       58   -0.031114    0.031114  2-02+0+
      121   -0.030111    0.030111  +22-00+
      718    0.029572   -0.029572  2-++002
      157    0.029495   -0.029495  220+-0+
      821   -0.028505    0.028505  2++-002
       44    0.028124   -0.028124  -2+20+0
      494    0.026913   -0.026913  +-+2+-0
      141    0.026664    0.026664  22++-00
      254    0.026058   -0.026058  -++2-+0
      876   -0.025868   -0.025868  ++2200-
      113    0.025649   -0.025649  +-220+0
       39   -0.024937   -0.024937  2-+2+00
      253    0.023576    0.023576  20+2-+0
       16   -0.022692    0.022692  222000+
       62   -0.022626    0.022626  2-+-0++
       48   -0.022209    0.022209  2-02++0
      843   -0.021530   -0.021530  +202+0-
       46    0.021470   -0.021470  2-+-++0
     1051   -0.021358   -0.021358  2+++0--
       52   -0.020440    0.020440  220200+
      859    0.020396   -0.020396  02+2002

 ---------------------------------------
      - DIABATIC STATES IN CMO -        
 ---------------------------------------

 State #    1  Energy =     -55.896575521

      Det      Coef        Coefp    Occupancy (Ignoring core)
      ---      ----        ----    --------- --------- -----
        1    0.840696   -0.840696  222+000
       71   -0.459347    0.459347  2+22000
       36    0.173858    0.173858  22+2000
      753   -0.068979   -0.068979  202+002
      357   -0.048682   -0.048682  220+020
      177    0.043552   -0.043552  2+20200
      106   -0.040286   -0.040286  +222000
      179   -0.036696   -0.036696  202+200
      143   -0.032481   -0.032481  220+200
        7   -0.031024   -0.031024  22-+0+0
      752   -0.030564   -0.030564  2+-+002
      718    0.030443   -0.030443  2-++002
      215   -0.030366   -0.030366  022+200
        2    0.030241   -0.030241  2220+00
      212    0.029719    0.029719  +220200
      180   -0.029547    0.029547  -+2+200
       18    0.029535   -0.029535  2-2+00+
      462    0.028722   -0.028722  2+02020
      193    0.027471   -0.027471  202+-0+
      123    0.027426   -0.027426  +-2200+
       86   -0.024992   -0.024992  2+2-00+
      178    0.024561    0.024561  2+-+200
      737    0.024333   -0.024333  2+20+0-
      717   -0.024224   -0.024224  220+002
      248    0.022939   -0.022939  2+02200
       74   -0.022407    0.022407  2022+00
      742   -0.022406   -0.022406  2+-+0+-
      355    0.022108    0.022108  -2+++-0
      217    0.021263    0.021263  +2-+-+0
      754    0.020869   -0.020869  -+2+002
      352   -0.020821   -0.020821  22+0+-0
      911   -0.020758   -0.020758  2+++-0-
      740   -0.020153    0.020153  -+2++0-
      182    0.020010   -0.020010  2+-+-+0

 State #    2  Energy =     -55.766526781

      Det      Coef        Coefp    Occupancy (Ignoring core)
      ---      ----        ----    --------- --------- -----
       71   -0.756409    0.756409  2+22000
       36   -0.542372   -0.542372  22+2000
        1   -0.300561    0.300561  222+000
      823    0.071270   -0.071270  20+2002
      822    0.041607   -0.041607  2+02002
      177    0.038193   -0.038193  2+20200
      108   -0.037525   -0.037525  +2-2+00
        3    0.031626    0.031626  22-++00
      462    0.031185   -0.031185  2+02020
      111    0.030041   -0.030041  +22-0+0
      248    0.027197   -0.027197  2+02200
       37   -0.026985    0.026985  22+-+00
      317    0.026905   -0.026905  ++2-200
      320    0.026408    0.026408  0+22200
      142    0.025099    0.025099  22+0200
      807    0.024229   -0.024229  2++-+0-
      357    0.023588    0.023588  220+020
      812    0.023210   -0.023210  2+020+-
       78    0.023203   -0.023203  20220+0
       93   -0.022576    0.022576  20-2+0+
       91   -0.021509   -0.021509  202-+0+
      285    0.021443   -0.021443  02+2200
       72   -0.021340   -0.021340  2+2-+00
      180   -0.021287    0.021287  -+2+200
      753    0.021230    0.021230  202+002
       40    0.020547   -0.020547  -2+2+00
        4    0.020537   -0.020537  2-2++00

 State #    3  Energy =     -55.704065599

      Det      Coef        Coefp    Occupancy (Ignoring core)
      ---      ----        ----    --------- --------- -----
       36   -0.785784   -0.785784  22+2000
       71    0.418128   -0.418128  2+22000
        1    0.392942   -0.392942  222+000
      123   -0.049938    0.049938  +-2200+
      142    0.049921    0.049921  22+0200
      823    0.048034   -0.048034  20+2002
       72   -0.037910   -0.037910  2+2-+00
      462   -0.037780    0.037780  2+02020
        4    0.036647   -0.036647  2-2++00
      107   -0.035716    0.035716  +22-+00
        2    0.035251   -0.035251  2220+00
      145   -0.034481   -0.034481  -2++200
      248   -0.033850    0.033850  2+02200
      249    0.033776   -0.033776  20+2200
      143   -0.033740   -0.033740  220+200
      158    0.031347    0.031347  2-++-0+
      753   -0.029495   -0.029495  202+002
      285    0.028717   -0.028717  02+2200
       74    0.028088   -0.028088  2022+00
      282    0.028072    0.028072  +2+-200
       89    0.027392    0.027392  -+2200+
       16    0.026118   -0.026118  222000+
      247    0.025954   -0.025954  2++-200
        3    0.025510    0.025510  22-++00
       43   -0.025484   -0.025484  2-+20+0
      109   -0.025141    0.025141  +-22+00
      263   -0.024841   -0.024841  20+2-0+
      108   -0.023982   -0.023982  +2-2+00
      144   -0.023488    0.023488  2-++200
      463    0.022797   -0.022797  20+2020
      876    0.022546    0.022546  ++2200-
      911   -0.021945   -0.021945  2+++-0-
       77    0.021861   -0.021861  2+-20+0
        5    0.021738    0.021738  -22++00
       38   -0.021418    0.021418  2202+00
      473    0.020993    0.020993  20+20-+
      122    0.020927    0.020927  +2-200+
      859    0.020849   -0.020849  02+2002
      807    0.020067   -0.020067  2++-+0-

 ---------------------------------------
    -DIABATIC STATES IN PROTOTYPES-     
 ---------------------------------------

     STATE:    1
 Group Ref#    Coefficients
     1    1    0.925618
     2    2   -0.009021
     3    3   -0.000537

WEIGHT OF LISTED PROTOTYPES:   85.69%

     STATE:    2
 Group Ref#    Coefficients
     1    1   -0.009037
     2    2    0.923975
     3    3   -0.003294

WEIGHT OF LISTED PROTOTYPES:   85.38%

     STATE:    3
 Group Ref#    Coefficients
     1    1   -0.000541
     2    2   -0.003310
     3    3    0.919559

WEIGHT OF LISTED PROTOTYPES:   84.56%

     DIRECT MAX. DIABATIZATION FINISHED    
 CPU     0: STEP CPU TIME=     0.25 TOTAL CPU TIME=         15.7 (      0.3 MIN)
 TOTAL WALL CLOCK TIME=         15.7 SECONDS, CPU UTILIZATION IS    99.94%

DIABATS FOR SPIN-ORBIT CALCULATION ARE READY

TRANSITION DIPOLES BETWEEN ADIABATS (in A.U.):

STATE PAIR      X         Y         Z
    1    1  0.088198  0.370923  0.655406
    2    1  0.004387  0.037906  0.148982
    2    2 -0.122783  0.331758  0.340545
    3    1 -0.097076 -0.121574  0.083471
    3    2  0.081650 -0.031018  0.002894
    3    3  0.206151  0.620810  0.255657


TRANSITION DIPOLES BETWEEN DIABATS (in A.U.):

STATE PAIR      X         Y         Z
    1    1  0.047531  0.353156  0.727563
    2    1 -0.016542  0.057838  0.010419
    2    2 -0.104370  0.419906  0.294585
    3    1  0.051897  0.049561  0.005219
    3    2  0.114712  0.160928 -0.009470
    3    3  0.228405  0.550429  0.229460

TRANSITION DIPOLES BETWEEN DIRECT MAX. DIABATS (in A.U.):

STATE PAIR      X         Y         Z
    1    1  0.047531  0.353158  0.727563
    2    1 -0.016542  0.057839  0.010415
    2    2 -0.104368  0.419907  0.294585
    3    1  0.051898  0.049562  0.005218
    3    2  0.114714  0.160928 -0.009471
    3    3  0.228402  0.550426  0.229460
 No $TRANST Group Found.
 Quit without doing spin-orbit coupling
 ..... DONE WITH MP2 ENERGY .....
 CPU     0: STEP CPU TIME=     0.00 TOTAL CPU TIME=         15.7 (      0.3 MIN)
 TOTAL WALL CLOCK TIME=         15.7 SECONDS, CPU UTILIZATION IS    99.94%
            100000000  WORDS OF DYNAMIC MEMORY USED
 EXECUTION OF GAMESS TERMINATED NORMALLY Wed Nov 16 20:26:09 2022
 DDI: 715512 bytes (0.7 MB / 0 MWords) used by master data server.

 ----------------------------------------
 CPU timing information for all processes
 ========================================
 0: 15.304 + 0.388 = 15.692
 ----------------------------------------
Note: The following floating-point exceptions are signalling: IEEE_DENORMAL
 ddikick.x: exited gracefully.
unset echo
----- accounting info -----
Files used on the master node io002 were:
-rw-r--r-- 1 bsonghao nooijen   20726 Nov 16 20:25 /scratch/bsonghao/nh3_diabatization_2d_at_mode_7_8_dist0.8_0.1.F05
-rw-r--r-- 1 bsonghao nooijen  363520 Nov 16 20:26 /scratch/bsonghao/nh3_diabatization_2d_at_mode_7_8_dist0.8_0.1.F09
-rw-r--r-- 1 bsonghao nooijen 1995920 Nov 16 20:26 /scratch/bsonghao/nh3_diabatization_2d_at_mode_7_8_dist0.8_0.1.F10
-rw-r--r-- 1 bsonghao nooijen  131264 Nov 16 20:26 /scratch/bsonghao/nh3_diabatization_2d_at_mode_7_8_dist0.8_0.1.F13
-rw-r--r-- 1 bsonghao nooijen  180312 Nov 16 20:26 /scratch/bsonghao/nh3_diabatization_2d_at_mode_7_8_dist0.8_0.1.F15
-rw-r--r-- 1 bsonghao nooijen       0 Nov 16 20:25 /scratch/bsonghao/nh3_diabatization_2d_at_mode_7_8_dist0.8_0.1.F16
-rw-r--r-- 1 bsonghao nooijen    9808 Nov 16 20:26 /scratch/bsonghao/nh3_diabatization_2d_at_mode_7_8_dist0.8_0.1.F70
-rw-r--r-- 1 bsonghao nooijen    9808 Nov 16 20:26 /scratch/bsonghao/nh3_diabatization_2d_at_mode_7_8_dist0.8_0.1.F71
-rw-r--r-- 1 bsonghao nooijen   19608 Nov 16 20:26 /scratch/bsonghao/nh3_diabatization_2d_at_mode_7_8_dist0.8_0.1.F72
-rw-r--r-- 1 bsonghao nooijen   19608 Nov 16 20:26 /scratch/bsonghao/nh3_diabatization_2d_at_mode_7_8_dist0.8_0.1.F73
-rw-r--r-- 1 bsonghao nooijen 1920824 Nov 16 20:26 /scratch/bsonghao/nh3_diabatization_2d_at_mode_7_8_dist0.8_0.1.F74
-rw-r--r-- 1 bsonghao nooijen       0 Nov 16 20:25 /scratch/bsonghao/nh3_diabatization_2d_at_mode_7_8_dist0.8_0.1.F75
-rw-r--r-- 1 bsonghao nooijen   58848 Nov 16 20:26 /scratch/bsonghao/nh3_diabatization_2d_at_mode_7_8_dist0.8_0.1.F76
-rw-r--r-- 1 bsonghao nooijen       0 Nov 16 20:25 /scratch/bsonghao/nh3_diabatization_2d_at_mode_7_8_dist0.8_0.1.F77
-rw-r--r-- 1 bsonghao nooijen    1864 Nov 16 20:26 /scratch/bsonghao/nh3_diabatization_2d_at_mode_7_8_dist0.8_0.1.F78
-rw-r--r-- 1 bsonghao nooijen   39208 Nov 16 20:26 /scratch/bsonghao/nh3_diabatization_2d_at_mode_7_8_dist0.8_0.1.F79
-rw-r--r-- 1 bsonghao nooijen     104 Nov 16 20:26 /scratch/bsonghao/nh3_diabatization_2d_at_mode_7_8_dist0.8_0.1.F80
-rw-r--r-- 1 bsonghao nooijen   13472 Nov 16 20:26 /scratch/bsonghao/nh3_diabatization_2d_at_mode_7_8_dist0.8_0.1.F81
-rw-r--r-- 1 bsonghao nooijen      16 Nov 16 20:26 /scratch/bsonghao/nh3_diabatization_2d_at_mode_7_8_dist0.8_0.1.F82
-rw-r--r-- 1 bsonghao nooijen   19216 Nov 16 20:26 /scratch/bsonghao/nh3_diabatization_2d_at_mode_7_8_dist0.8_0.1.F83
-rw-r--r-- 1 bsonghao nooijen   29712 Nov 16 20:26 /scratch/bsonghao/nh3_diabatization_2d_at_mode_7_8_dist0.8_0.1.F84
-rw-r--r-- 1 bsonghao nooijen  401576 Nov 16 20:26 /scratch/bsonghao/nh3_diabatization_2d_at_mode_7_8_dist0.8_0.1.F85
-rw-r--r-- 1 bsonghao nooijen  903672 Nov 16 20:26 /scratch/bsonghao/nh3_diabatization_2d_at_mode_7_8_dist0.8_0.1.F86
-rw-r--r-- 1 bsonghao nooijen     656 Nov 16 20:26 /scratch/bsonghao/nh3_diabatization_2d_at_mode_7_8_dist0.8_0.1.F87
-rw-r--r-- 1 bsonghao nooijen   41936 Nov 16 20:26 /scratch/bsonghao/nh3_diabatization_2d_at_mode_7_8_dist0.8_0.1.F88
-rw-r--r-- 1 bsonghao nooijen     240 Nov 16 20:26 /scratch/bsonghao/nh3_diabatization_2d_at_mode_7_8_dist0.8_0.1.F89
-rw-r--r-- 1 bsonghao nooijen       0 Nov 16 20:25 /scratch/bsonghao/nh3_diabatization_2d_at_mode_7_8_dist0.8_0.1.F90
-rw-r--r-- 1 bsonghao nooijen   13760 Nov 16 20:26 /scratch/bsonghao/nh3_diabatization_2d_at_mode_7_8_dist0.8_0.1.F91
-rw-r--r-- 1 bsonghao nooijen   22776 Nov 16 20:26 /scratch/bsonghao/nh3_diabatization_2d_at_mode_7_8_dist0.8_0.1.F92
-rw-r--r-- 1 bsonghao nooijen   23168 Nov 16 20:26 /scratch/bsonghao/nh3_diabatization_2d_at_mode_7_8_dist0.8_0.1.F93
-rw-r--r-- 1 bsonghao nooijen   22776 Nov 16 20:26 /scratch/bsonghao/nh3_diabatization_2d_at_mode_7_8_dist0.8_0.1.F94
-rw-r--r-- 1 bsonghao nooijen   13760 Nov 16 20:26 /scratch/bsonghao/nh3_diabatization_2d_at_mode_7_8_dist0.8_0.1.F95
-rw-r--r-- 1 bsonghao nooijen   29440 Nov 16 20:26 /scratch/bsonghao/nh3_diabatization_2d_at_mode_7_8_dist0.8_0.1.F96
-rw-r--r-- 1 bsonghao nooijen    1184 Nov 16 20:26 /scratch/bsonghao/nh3_diabatization_2d_at_mode_7_8_dist0.8_0.1.F97
-rw-r--r-- 1 bsonghao nooijen    9808 Nov 16 20:26 /scratch/bsonghao/nh3_diabatization_2d_at_mode_7_8_dist0.8_0.1.F98
-rw-r--r-- 1 bsonghao nooijen   30264 Nov 16 20:26 /scratch/bsonghao/nh3_diabatization_2d_at_mode_7_8_dist0.8_0.1.F99
ls: No match.
ls: No match.
ls: No match.
Wed 16 Nov 2022 08:26:13 PM EST
0.274u 0.055s 0:19.07 1.6%	0+0k 48+224io 0pf+0w
