----- GAMESS execution script 'rungms' -----
This job is running on host io002
under operating system Linux at Wed 16 Nov 2022 07:23:59 PM EST
Available scratch disk space (Kbyte units) at beginning of the job is
Filesystem       1K-blocks       Used   Available Use% Mounted on
/dev/sdc1      15378471580 3278917120 11318349060  23% /scratch
GAMESS temporary binary files will be written to /scratch/bsonghao
GAMESS supplementary output files will be written to /home/bsonghao/.gamess_ascii_files/267638
Copying input file nh3_diabatization_2d_at_mode_7_8_dist0.0_0.2.inp to your run's scratch directory...
cp nh3_diabatization_2d_at_mode_7_8_dist0.0_0.2.inp /scratch/bsonghao/nh3_diabatization_2d_at_mode_7_8_dist0.0_0.2.F05
unset echo
/home/bjb2chen/gamess/ddikick.x /home/bjb2chen/gamess/gamess.00.x nh3_diabatization_2d_at_mode_7_8_dist0.0_0.2 -ddi 1 1 io002 -scr /scratch/bsonghao

 Distributed Data Interface kickoff program.
 Initiating 1 compute processes on 1 nodes to run the following command:
 /home/bjb2chen/gamess/gamess.00.x nh3_diabatization_2d_at_mode_7_8_dist0.0_0.2 

          ******************************************************
          *         GAMESS VERSION = 02 AUG 2018 (R2)         *
          *             FROM IOWA STATE UNIVERSITY             *
          * M.W.SCHMIDT, K.K.BALDRIDGE, J.A.BOATZ, S.T.ELBERT, *
          *   M.S.GORDON, J.H.JENSEN, S.KOSEKI, N.MATSUNAGA,   *
          *          K.A.NGUYEN, S.J.SU, T.L.WINDUS,           *
          *       TOGETHER WITH M.DUPUIS, J.A.MONTGOMERY       *
          *         J.COMPUT.CHEM.  14, 1347-1363(1993)        *
          **************** 64 BIT LINUX VERSION ****************

  SINCE 1993, STUDENTS AND POSTDOCS WORKING AT IOWA STATE UNIVERSITY
  AND ALSO IN THEIR VARIOUS JOBS AFTER LEAVING ISU HAVE MADE IMPORTANT
  CONTRIBUTIONS TO THE CODE:
     IVANA ADAMOVIC, CHRISTINE AIKENS, YURI ALEXEEV, POOJA ARORA,
     ANDREY ASADCHEV, ROB BELL, PRADIPTA BANDYOPADHYAY, JONATHAN BENTZ,
     BRETT BODE, KURT BRORSEN, CALEB CARLIN, GALINA CHABAN, WEI CHEN,
     CHEOL HO CHOI, PAUL DAY, ALBERT DEFUSCO, NUWAN DESILVA, TIM DUDLEY,
     DMITRI FEDOROV, ALEX FINDLATER, GRAHAM FLETCHER, MARK FREITAG,
     KURT GLAESEMANN, ANASTASIA GUININA,
     DAN KEMP, GRANT MERRILL, NORIYUKI MINEZAWA, JONATHAN MULLIN,
     TAKESHI NAGATA, SEAN NEDD, HEATHER NETZLOFF, BOSILJKA NJEGIC, RYAN OLSON,
     MIKE PAK, BUU PHAM,
     SPENCER PRUITT, LUKE ROSKOP, JIM SHOEMAKER, LYUDMILA SLIPCHENKO,
     TONY SMITH, SAROM SOK LEANG, JIE SONG, TETSUYA TAKETSUGU, SIMON WEBB,
     PENG XU, SOOHAENG YOO, FEDERICO ZAHARIEV

  ADDITIONAL CODE HAS BEEN PROVIDED BY COLLABORATORS IN OTHER GROUPS:
     IOWA STATE UNIVERSITY:
          JOE IVANIC, AARON WEST, LAIMUTIS BYTAUTAS, KLAUS RUEDENBERG
     UNIVERSITY OF TOKYO: KIMIHIKO HIRAO, TAKAHITO NAKAJIMA,
          TAKAO TSUNEDA, MUNEAKI KAMIYA, SUSUMU YANAGISAWA,
          KIYOSHI YAGI, MAHITO CHIBA, SEIKEN TOKURA, NAOAKI KAWAKAMI
     UNIVERSITY OF AARHUS: FRANK JENSEN
     UNIVERSITY OF IOWA: VISVALDAS KAIRYS, HUI LI
     NATIONAL INST. OF STANDARDS AND TECHNOLOGY: WALT STEVENS, DAVID GARMER
     UNIVERSITY OF PISA: BENEDETTA MENNUCCI, JACOPO TOMASI
     UNIVERSITY OF MEMPHIS: HENRY KURTZ, PRAKASHAN KORAMBATH
     UNIVERSITY OF ALBERTA: TOBY ZENG, MARIUSZ KLOBUKOWSKI
     UNIVERSITY OF NEW ENGLAND: MARK SPACKMAN
     MIE UNIVERSITY: HIROAKI UMEDA
     NAT. INST. OF ADVANCED INDUSTRIAL SCIENCE AND TECHNOLOGY: KAZUO KITAURA
     MICHIGAN STATE UNIVERSITY:
          KAROL KOWALSKI, MARTA WLOCH, JEFFREY GOUR, JESSE LUTZ,
          WEI LI, JUN SHEN, J. EMILIANO DEUSTUA, PIOTR PIECUCH
     UNIVERSITY OF MINNESOTA:
          YINAN SHU
     UNIVERSITY OF SILESIA: MONIKA MUSIAL, STANISLAW KUCHARSKI
     FACULTES UNIVERSITAIRES NOTRE-DAME DE LA PAIX:
          OLIVIER QUINET, BENOIT CHAMPAGNE
     UNIVERSITY OF CALIFORNIA - SANTA BARBARA: BERNARD KIRTMAN
     INSTITUTE FOR MOLECULAR SCIENCE:
          KAZUYA ISHIMURA, MICHIO KATOUDA, AND SHIGERU NAGASE
     UNIVERSITY OF NOTRE DAME: ANNA POMOGAEVA, DAN CHIPMAN
     KYUSHU UNIVERSITY:
          HARUYUKI NAKANO,
          FENG LONG GU, JACEK KORCHOWIEC, MARCIN MAKOWSKI, AND YURIKO AOKI,
          HIROTOSHI MORI AND EISAKU MIYOSHI
     PENNSYLVANIA STATE UNIVERSITY:
          TZVETELIN IORDANOV, CHET SWALINA, JONATHAN SKONE,
          SHARON HAMMES-SCHIFFER
     WASEDA UNIVERSITY:
          MASATO KOBAYASHI, TOMOKO AKAMA, TSUGUKI TOUMA,
          TAKESHI YOSHIKAWA, YASUHIRO IKABATA, JUNJI SEINO,
          YUYA NAKAJIMA, HIROMI NAKAI
     NANJING UNIVERSITY: SHUHUA LI
     UNIVERSITY OF NEBRASKA:
          PEIFENG SU, DEJUN SI, NANDUN THELLAMUREGE, YALI WANG, HUI LI
     UNIVERSITY OF ZURICH: ROBERTO PEVERATI, KIM BALDRIDGE
     N. COPERNICUS UNIVERSITY AND JACKSON STATE UNIVERSITY:
          MARIA BARYSZ
     UNIVERSITY OF COPENHAGEN: Jimmy Kromann, CASPER STEINMANN
     TOKYO INSTITUTE OF TECHNOLOGY: HIROYA NAKATA
     NAGOYA UNIVERSITY: YOSHIO NISHIMOTO, STEPHAN IRLE
     MOSCOW STATE UNIVERSITY: VLADIMIR MIRONOV

 EXECUTION OF GAMESS BEGUN Wed Nov 16 19:24:00 2022

            ECHO OF THE FIRST FEW INPUT CARDS -
 INPUT CARD> $system kdiag=3 mwords=100 memddi=1000 parall=.t. $end                         
 INPUT CARD> $contrl runtyp=energy ispher=1 $end                                            
 INPUT CARD> $contrl icut=9 itol=20 inttyp=rysquad qmttol=1.0d-05 nosym=1 $end              
 INPUT CARD> $scf    npunch=2 conv=1.0d-06 dirscf=.t.      $end                             
 INPUT CARD> $contrl scftyp=mcscf  mult=2 maxit=200 icharg=1 mplevl=2 $end                  
 INPUT CARD> $guess  guess=moread norb=29 purify=.t. $end                                   
 INPUT CARD> $basis  gbasis=ccd $end                                                        
 INPUT CARD> $mcscf  cistep=gmcci fullnr=.t. finci=mos                                      
 INPUT CARD>         acurcy=1.d-6 maxit=100 $end                                            
 INPUT CARD> $trans  dirtrf=.t. $end                                                        
 INPUT CARD> $mrmp   mrpt=gmcpt rdvecs=.f. $end                                             
 INPUT CARD> $gmcpt  nmofzc=0 nmodoc=1 nmoact=7 nelact=7 stsym(1)=A                         
 INPUT CARD>         reftyp=ormas nspace=1 mstart(1)=2 mine(1)=7 maxe(1)=7                  
 INPUT CARD>         kstate(1)=1,1,1                                                        
 INPUT CARD>         wstate(1)=1,1,1                                                        
 INPUT CARD>         iwgt=0 thrwgt=-1.0 krot=.f. kszdoe=.f. knospn=.f.                      
 INPUT CARD>         thrde=-1.0 edshft=0.02 $end                                            
 INPUT CARD> $data                                                                          
 INPUT CARD> NH3+ 3 states calculation at NH3 structure.                                    
 INPUT CARD> c1                                                                             
 INPUT CARD>N 7.0 -0.012457835999999996 -0.0 -0.1693807922                                  
 INPUT CARD>H 1.0 -0.36350024000000003 0.8823948858 0.23006335410000003                     
 INPUT CARD>H 1.0 -0.36350024400000003 -0.8823948838 0.23006335010000004                    
 INPUT CARD>H 1.0 0.900105456 3.9999999999999994e-09 0.3092556341                           
 INPUT CARD>$end                                                                            
 INPUT CARD>--- OPTIMIZED RHF      MO-S --- GENERATED AT Mon Nov 14 16:47:08 2022           
 INPUT CARD>E=      -56.3825050291, E(NUC)=   11.8429239490                                 
 INPUT CARD> $VEC                                                                           
 INPUT CARD> 1  1-1.00134066E+00-2.25158504E-03 3.44925845E-03 0.00000000E+00 0.00000000E+00
 INPUT CARD> 1  2-2.13170927E-03 0.00000000E+00 0.00000000E+00 6.57129898E-04-6.87950443E-05
 INPUT CARD> 1  3-6.87950443E-05 1.37590089E-04 0.00000000E+00 0.00000000E+00 0.00000000E+00
 INPUT CARD> 1  4 3.25502815E-04-4.84772356E-04 3.62525460E-04-6.27912517E-04-3.45956485E-04
 INPUT CARD> 1  5 3.25502815E-04-4.84772356E-04 3.62525460E-04 6.27912517E-04-3.45956485E-04
 INPUT CARD> 1  6 3.25502815E-04-4.84772356E-04-7.25050921E-04 0.00000000E+00-3.45956485E-04
 INPUT CARD> 2  1 1.31286642E-02-4.05911371E-01-2.82090992E-01 0.00000000E+00 0.00000000E+00
 INPUT CARD> 2  2-7.71489043E-02 0.00000000E+00 0.00000000E+00 9.73717494E-03 6.62450916E-04
 INPUT CARD> 2  3 6.62450916E-04-1.32490183E-03 0.00000000E+00 0.00000000E+00 0.00000000E+00
 INPUT CARD> 2  4-1.96090317E-01-1.96656153E-02-1.74855877E-02 3.02859263E-02 8.68214399E-03
 INPUT CARD> 2  5-1.96090317E-01-1.96656153E-02-1.74855877E-02-3.02859263E-02 8.68214399E-03
 INPUT CARD> 2  6-1.96090317E-01-1.96656153E-02 3.49711754E-02 0.00000000E+00 8.68214399E-03
 INPUT CARD> 3  1 0.00000000E+00 0.00000000E+00 0.00000000E+00 4.48608762E-01 0.00000000E+00
 INPUT CARD> 3  2 0.00000000E+00 2.18692520E-01 0.00000000E+00 0.00000000E+00 1.30198027E-02
 INPUT CARD> 3  3-1.30198027E-02 0.00000000E+00 0.00000000E+00 2.71832968E-02 0.00000000E+00
 INPUT CARD> 3  4-1.85332726E-01-7.03958951E-02 8.47929477E-03 1.95242443E-02 8.32835058E-03
 INPUT CARD> 3  5-1.85332726E-01-7.03958951E-02 8.47929477E-03-1.95242443E-02 8.32835058E-03
 INPUT CARD> 3  6 3.70665453E-01 1.40791790E-01-2.53376884E-02 0.00000000E+00-1.66567012E-02
 INPUT CARD> 4  1 0.00000000E+00 0.00000000E+00 0.00000000E+00 0.00000000E+00 4.48608762E-01
 INPUT CARD> 4  2 0.00000000E+00 0.00000000E+00 2.18692520E-01 0.00000000E+00 0.00000000E+00
 INPUT CARD> 4  3 0.00000000E+00 0.00000000E+00-1.50339731E-02 0.00000000E+00 2.71832968E-02
 INPUT CARD> 4  4 3.21005698E-01 1.21929267E-01 1.95242443E-02-1.40653607E-02-1.44251263E-02
  100000000 WORDS OF MEMORY AVAILABLE

     BASIS OPTIONS
     -------------
     GBASIS=CCD          IGAUSS=       0      POLAR=NONE    
     NDFUNC=       0     NFFUNC=       0     DIFFSP=       F
     NPFUNC=       0      DIFFS=       F     BASNAM=        


     RUN TITLE
     ---------
  NH3+ 3 states calculation at NH3 structure.                                    

 THE POINT GROUP OF THE MOLECULE IS C1      
 THE ORDER OF THE PRINCIPAL AXIS IS     0

 ATOM      ATOMIC                      COORDINATES (BOHR)
           CHARGE         X                   Y                   Z
 N           7.0    -0.0235418964       -0.0000000000       -0.3200832848
 H           1.0    -0.6869158501        1.6674845471        0.4347566991
 H           1.0    -0.6869158576       -1.6674845433        0.4347566915
 H           1.0     1.7009526719        0.0000000076        0.5844084086

          INTERNUCLEAR DISTANCES (ANGS.)
          ------------------------------

                1 N          2 H          3 H          4 H     

   1 N       0.0000000    1.0302462 *  1.0302461 *  1.0304681 *
   2 H       1.0302462 *  0.0000000    1.7647898 *  1.5432406 *
   3 H       1.0302461 *  1.7647898 *  0.0000000    1.5432406 *
   4 H       1.0304681 *  1.5432406 *  1.5432406 *  0.0000000  

  * ... LESS THAN  3.000


     ATOMIC BASIS SET
     ----------------
 THE CONTRACTED PRIMITIVE FUNCTIONS HAVE BEEN UNNORMALIZED
 THE CONTRACTED BASIS FUNCTIONS ARE NOW NORMALIZED TO UNITY

  SHELL TYPE  PRIMITIVE        EXPONENT          CONTRACTION COEFFICIENT(S)

 N         

      1   S       1          9046.0000000    0.000699617413
      1   S       2          1357.0000000    0.005386054630
      1   S       3           309.3000000    0.027391021189
      1   S       4            87.7300000    0.103150591982
      1   S       5            28.5600000    0.278570663317
      1   S       6            10.2100000    0.448294849454
      1   S       7             3.8380000    0.278085928395
      1   S       8             0.7466000    0.015431561233

      2   S       9          9046.0000000   -0.000304990096
      2   S      10          1357.0000000   -0.002408026379
      2   S      11           309.3000000   -0.011944448725
      2   S      12            87.7300000   -0.048925992909
      2   S      13            28.5600000   -0.134472724725
      2   S      14            10.2100000   -0.315112577700
      2   S      15             3.8380000   -0.242857832550
      2   S      16             0.7466000    1.094382206854

      3   S      17             0.2248000    1.000000000000

      4   P      18            13.5500000    0.058905676772
      4   P      19             2.9170000    0.320461106714
      4   P      20             0.7973000    0.753042061792

      5   P      21             0.2185000    1.000000000000

      6   D      22             0.8170000    1.000000000000

 H         

      7   S      23            13.0100000    0.033498726390
      7   S      24             1.9620000    0.234800801174
      7   S      25             0.4446000    0.813682957883

      8   S      26             0.1220000    1.000000000000

      9   P      27             0.7270000    1.000000000000

 H         

     10   S      28            13.0100000    0.033498726390
     10   S      29             1.9620000    0.234800801174
     10   S      30             0.4446000    0.813682957883

     11   S      31             0.1220000    1.000000000000

     12   P      32             0.7270000    1.000000000000

 H         

     13   S      33            13.0100000    0.033498726390
     13   S      34             1.9620000    0.234800801174
     13   S      35             0.4446000    0.813682957883

     14   S      36             0.1220000    1.000000000000

     15   P      37             0.7270000    1.000000000000

 TOTAL NUMBER OF BASIS SET SHELLS             =   15
 NUMBER OF CARTESIAN GAUSSIAN BASIS FUNCTIONS =   30
 NOTE: THIS RUN WILL RESTRICT THE MO VARIATION SPACE TO SPHERICAL HARMONICS.
 THE NUMBER OF ORBITALS KEPT IN THE VARIATIONAL SPACE WILL BE PRINTED LATER.
 NUMBER OF ELECTRONS                          =    9
 CHARGE OF MOLECULE                           =    1
 SPIN MULTIPLICITY                            =    2
 NUMBER OF OCCUPIED ORBITALS (ALPHA)          =    5
 NUMBER OF OCCUPIED ORBITALS (BETA )          =    4
 TOTAL NUMBER OF ATOMS                        =    4
 THE NUCLEAR REPULSION ENERGY IS       11.7713513134

     $CONTRL OPTIONS
     ---------------
 SCFTYP=MCSCF        RUNTYP=ENERGY       EXETYP=RUN     
 MPLEVL=       2     CITYP =NONE         CCTYP =NONE         VBTYP =NONE    
 DFTTYP=NONE         TDDFT =NONE    
 MULT  =       2     ICHARG=       1     NZVAR =       0     COORD =UNIQUE  
 PP    =NONE         RELWFN=NONE         LOCAL =NONE         NUMGRD=       F
 ISPHER=       1     NOSYM =       1     MAXIT =     200     UNITS =ANGS    
 PLTORB=       F     MOLPLT=       F     AIMPAC=       F     FRIEND=        
 NPRINT=       7     IREST =       0     GEOM  =INPUT   
 NORMF =       0     NORMP =       0     ITOL  =      20     ICUT  =       9
 INTTYP=RYSQUAD      GRDTYP=BEST         QMTTOL= 1.0E-05

     $SYSTEM OPTIONS
     ---------------
  REPLICATED MEMORY=   100000000 WORDS (ON EVERY NODE).
 DISTRIBUTED MEMDDI=        1000 MILLION WORDS IN AGGREGATE,
 MEMDDI DISTRIBUTED OVER   1 PROCESSORS IS  1000000000 WORDS/PROCESSOR.
 TOTAL MEMORY REQUESTED ON EACH PROCESSOR=  1100000000 WORDS.
 TIMLIM=      525600.00 MINUTES, OR     365.0 DAYS.
 PARALL= T  BALTYP=  DLB     KDIAG=    3  COREFL= F
 MXSEQ2=     300 MXSEQ3=     150  mem10=         0

          ----------------
          PROPERTIES INPUT
          ----------------

     MOMENTS            FIELD           POTENTIAL          DENSITY
 IEMOM =       1   IEFLD =       0   IEPOT =       0   IEDEN =       0
 WHERE =COMASS     WHERE =NUCLEI     WHERE =NUCLEI     WHERE =NUCLEI  
 OUTPUT=BOTH       OUTPUT=BOTH       OUTPUT=BOTH       OUTPUT=BOTH    
 IEMINT=       0   IEFINT=       0                     IEDINT=       0
                                                       MORB  =       0

     -------------------------------
     INTEGRAL TRANSFORMATION OPTIONS
     -------------------------------
     NWORD  =            0
     CUTOFF = 1.0E-09     MPTRAN =       0
     DIRTRF =       T     AOINTS =DUP     

          ----------------------
          MCSCF INPUT PARAMETERS
          ----------------------
 CONVERGER SELECTION: FOCAS = F  SOSCF = F  FULLNR = T  QUD = F  JACOBI = F
 SECULAR EQUATION METHOD CISTEP = GMCCI   
 --- GENERAL INPUT OPTIONS:
 MAXIT =     100  MICIT =       1  ACURCY= 1.000E-06
 DAMP  =   0.000  CANONC=       T  ENGTOL= 1.000E-10
 EKT   =       F  NPUNCH=       2  NWORD =         0
 REGENERATE CI AFTER CONVERGENCE = NONE    
 DIABATIZATION AFTER CONVERGENCE =        F
 --- INPUT FOR FULLNR CONVERGER:
 METHOD=DM2       FORS  =       F  DROPC =       T
 LINSER=       F  FCORE =       F  NORB  =      30

          ----------------------
          INTEGRAL INPUT OPTIONS
          ----------------------
 NOPK  =       1 NORDER=       0 SCHWRZ=       T

 ------------------------------------------
 MULTIREFERENCE PERTURBATION THEORY CONTROL
 ------------------------------------------
 MRPT=GMCPT    READ CONVERGED MCSCF VECTORS= F


     ------------------------------------------
     THE POINT GROUP IS C1 , NAXIS= 1, ORDER= 1
     ------------------------------------------

 -- VARIATIONAL SPACE WILL BE RESTRICTED TO PURE SPHERICAL HARMONICS ONLY --
 AFTER EXCLUDING CONTAMINANT COMBINATIONS FROM THE CARTESIAN GAUSSIAN BASIS
 SET, THE NUMBER OF SPHERICAL HARMONICS KEPT IN THE VARIATION SPACE IS   29

     DIMENSIONS OF THE SYMMETRY SUBSPACES ARE
 A   =   29

 ..... DONE SETTING UP THE RUN .....
 CPU     0: STEP CPU TIME=     0.03 TOTAL CPU TIME=          0.0 (      0.0 MIN)
 TOTAL WALL CLOCK TIME=          0.0 SECONDS, CPU UTILIZATION IS    75.00%

          ********************
          1 ELECTRON INTEGRALS
          ********************
 TIME TO DO   DIPOLE INTEGRALS=      0.00
 ...... END OF ONE-ELECTRON INTEGRALS ......
 CPU     0: STEP CPU TIME=     0.00 TOTAL CPU TIME=          0.0 (      0.0 MIN)
 TOTAL WALL CLOCK TIME=          0.0 SECONDS, CPU UTILIZATION IS    75.00%

          -------------
          GUESS OPTIONS
          -------------
          GUESS =MOREAD            NORB  =      29          NORDER=       0
          MIX   =       F          PRTMO =       F          PUNMO =       F
          TOLZ  = 1.0E-08          TOLE  = 1.0E-05
          SYMDEN=       F          PURIFY=       T

 INITIAL GUESS ORBITALS GENERATED BY MOREAD   ROUTINE.

 STATISTICS FOR GENERATION OF SYMMETRY ORBITAL -Q- MATRIX
 NUMBER OF CARTESIAN ATOMIC ORBITALS=         30
 NUMBER OF SPHERICAL CONTAMINANTS DROPPED=     1
 NUMBER OF LINEARLY DEPENDENT MOS DROPPED=     0
 TOTAL NUMBER OF MOS IN VARIATION SPACE=      29
 ORBITAL PURIFICATION WILL OCCUR

 SYMMETRIES FOR INITIAL GUESS ORBITALS FOLLOW.   BOTH SET(S).
     5 ORBITALS ARE OCCUPIED (    1 CORE ORBITALS).
     1=A        2=A        3=A        4=A        5=A        6=A        7=A   
     8=A        9=A       10=A       11=A       12=A       13=A       14=A   
    15=A       16=A       17=A       18=A       19=A       20=A       21=A   
    22=A       23=A       24=A       25=A       26=A       27=A       28=A   
    29=A   
 ...... END OF INITIAL ORBITAL SELECTION ......
 CPU     0: STEP CPU TIME=     0.01 TOTAL CPU TIME=          0.0 (      0.0 MIN)
 TOTAL WALL CLOCK TIME=          0.1 SECONDS, CPU UTILIZATION IS    80.00%

                    ----------------------
                    AO INTEGRAL TECHNOLOGY
                    ----------------------
     S,P,L SHELL ROTATED AXIS INTEGRALS, REPROGRAMMED BY
        KAZUYA ISHIMURA (IMS) AND JOSE SIERRA (SYNSTAR).
     S,P,D,L SHELL ROTATED AXIS INTEGRALS PROGRAMMED BY
        KAZUYA ISHIMURA (INSTITUTE FOR MOLECULAR SCIENCE).
     S,P,D,F,G SHELL TO TOTAL QUARTET ANGULAR MOMENTUM SUM 5,
        ERIC PROGRAM BY GRAHAM FLETCHER (ELORET AND NASA ADVANCED
        SUPERCOMPUTING DIVISION, AMES RESEARCH CENTER).
     S,P,D,F,G,L SHELL GENERAL RYS QUADRATURE PROGRAMMED BY
        MICHEL DUPUIS (PACIFIC NORTHWEST NATIONAL LABORATORY).

          --------------------
          2 ELECTRON INTEGRALS
          --------------------

 DIRECT SCF METHOD SKIPS INTEGRAL STORAGE ON DISK.
 DIRECT TRANSFORMATION SKIPS AO INTEGRAL STORAGE ON DISK.
  ...... END OF TWO-ELECTRON INTEGRALS .....
 STEP CPU TIME =     0.02 TOTAL CPU TIME =          0.1 (      0.0 MIN)
 TOTAL WALL CLOCK TIME=          0.1 SECONDS, CPU UTILIZATION IS    85.71%
 DDI: Creating Array [0] - 900 x 36 = 32400 words.
 DDI: Creating Array [1] - 21 x 288 = 6048 words.
 DDI: Creating Array [2] - 36 x 36 = 1296 words.
 DDI: Creating Array [3] - 465 x 36 = 16740 words.

          -----------------
          MCSCF CALCULATION
          -----------------

 ----- NUCLEAR ENERGY ----- =        11.7713513134

     -------------------------------------------------
     GMC-PT/GMC-QDPT or general MCSCF input parameters
     -------------------------------------------------
 # of frozen core orbs. =         0 ->         0
 # of doubly occ. orbs. =         1
 # of active      orbs. =         7
 # of virtual     orbs. =        21
 # of active electrons  =         7
 # of states in CI      =         3
 Highest state in CI    =         3
 kstate =  1 1 1
 avecoe =  0.333 0.333 0.333
 State symmetry           = A           
 Assigned symmetry number = 1

 <<<Act. MO sym.: 1111111

 <<<Division of 1-ext.:  0
 <<<Division of 2-ext.:  0

 *** Reference space

 Reference type: ORMAS (= Occupation restricted multiple active space)
 # of orbitals          =  7
 # of minimum electrons =  7
 # of maximum electrons =  7
 State symmetry    =    1 (input)
 2*Sz              =    1 (input)
 Spin multiplicity =    2 (input)
 Dimension of reference space =      1225  (from      3432 walks)

 Dimension of reference space =      1225  (from      1225 walks)

 <<<Ionized spaces for Ref-CI:
      0:         1225 /   -1-0:         1960 /  0-1-0:         2891

 EVALUATING EXCHANGE INTEGRALS FOR DIRECT INTEGRAL TRANSFORMATION
 SCHWARZ INEQUALITY OVERHEAD:       465 INTEGRALS, T=        0.00

     --------------------------------------------
     PARTIAL TWO ELECTRON INTEGRAL TRANSFORMATION
     --------------------------------------------

 NUMBER OF CORE MOLECULAR ORBITALS     =    1
 NUMBER OF OCCUPIED MOLECULAR ORBITALS =    8
 TOTAL NUMBER OF MOLECULAR ORBITALS    =   29
 TOTAL NUMBER OF ATOMIC ORBITALS       =   30
 THRESHOLD FOR KEEPING TRANSFORMED 2E- INTEGRALS = 1.000E-09

 -------------------------------     ------------------------------
 DISTRIBUTED DATA TRANSFORMATION     PROGRAM WRITTEN BY G. FLETCHER
 -------------------------------     ------------------------------

 THE DISTRIBUTED MEMORY REQUIRED FOR THIS STEP IS MEMDDI=         1 MWORDS
 CREATING DISTRIBUTED STORAGE FOR [VIR OCC|VIR OCC] INTEGRALS
 CREATING DISTRIBUTED STORAGE FOR [VIR OCC|OCC OCC] INTEGRALS
 CREATING DISTRIBUTED STORAGE FOR [OCC OCC|OCC OCC] INTEGRALS
 CREATING DISTRIBUTED STORAGE FOR [VIR VIR|OCC OCC] INTEGRALS
 FOR    1 PROCESSORS, THE REPLICATED MEMORY NEEDED IS       73700 WORDS.
 SCHWARZ INEQUALITY OVERHEAD:       465 INTEGRALS, T=        0.00

      DIRECT 4-INDEX TRANSFORMATION 
      SCHWARZ INEQUALITY TEST SKIPPED          0 INTEGRAL BLOCKS
 ----- FROZEN CORE ENERGY =       -47.8137683643
 ... END OF INTEGRAL TRANSFORMATION ...
 CPU     0: STEP CPU TIME=     0.22 TOTAL CPU TIME=          0.3 (      0.0 MIN)
 TOTAL WALL CLOCK TIME=          0.3 SECONDS, CPU UTILIZATION IS    96.55%

     --------------------------------     -----------------------------
     MCHF NEWTON-RAPHSON OPTIMIZATION     CODE WRITTEN BY MICHEL DUPUIS
     --------------------------------     -----------------------------
     PARALLEL VERSION WRITTEN BY G. FLETCHER (ELORET)
     NASA ADVANCED SUPERCOMPUTING DIVISION, AMES RESEARCH CENTER

 NUMBER OF INDEPENDENT ORBITAL ROTATION PARAMETERS =    99
 ..... DONE SOLVING NEWTON-RAPHSON EQUATIONS .....
 CPU     0: STEP CPU TIME=     0.68 TOTAL CPU TIME=          1.0 (      0.0 MIN)
 TOTAL WALL CLOCK TIME=          1.0 SECONDS, CPU UTILIZATION IS    98.97%
 ..... DONE WITH NTN-RPH ORBITAL ROTATIONS ..... 
 CPU     0: STEP CPU TIME=     0.00 TOTAL CPU TIME=          1.0 (      0.0 MIN)
 TOTAL WALL CLOCK TIME=          1.0 SECONDS, CPU UTILIZATION IS    98.97%
 MAXIMUM MEMORY USED BY NTN-RPH CODE WAS     57645 WORDS.

 ITER     TOTAL ENERGY      DEL(E)  LAGRANGIAN ASYMMETRY   SQCDF  MICIT   DAMP
   1      -55.681798066 -0.681798066  0.137212   14    4 1.707E-01  1   0.0000
   2      -55.717844952 -0.036046886  0.025019   12    5 4.519E-01  1   0.0000
   3      -55.749582367 -0.031737414  0.012327   12    5 2.107E-01  1   0.0264
   4      -55.762721602 -0.013139235  0.004071   11    6 3.703E-02  1   0.0045
   5      -55.764304126 -0.001582525  0.000744   12    5 1.105E-03  1   0.0000
   6      -55.764352035 -0.000047909  0.000246   12    5 8.856E-05  1   0.0000
   7      -55.764356699 -0.000004664  0.000109   12    5 1.179E-05  1   0.0000
   8      -55.764357365 -0.000000666  0.000048   12    5 1.734E-06  1   0.0000
   9      -55.764357467 -0.000000101  0.000020   12    5 2.704E-07  1   0.0000
  10      -55.764357483 -0.000000016  0.000008   12    5 4.566E-08  1   0.0000
  11      -55.764357486 -0.000000003  0.000003   12    5 8.701E-09  1   0.0000
  12      -55.764357486 -0.000000001  0.000001   12    7 1.922E-09  1   0.0000
  13      -55.764357486 -0.000000000  0.000001   12    7 4.854E-10  1   0.0000

          --------------------
          LAGRANGIAN CONVERGED
          --------------------

 FINAL MCSCF ENERGY IS      -55.7643574864 AFTER  13 ITERATIONS

 -MCCI- BASED ON OPTIMIZED ORBITALS
 ----------------------------------

 PLEASE NOTE: IF THE ACTIVE ORBITALS ARE CANONICALIZED BELOW,
 THE FOLLOWING CI EXPANSION COEFFICIENTS AND THE DENSITY DO NOT
 CORRESPOND TO THE PRINTED ORBITALS.  THE PRINTED EXPANSIONS MATCH
 THE ORBITALS USED DURING THE LAST ITERATION.  IF YOU WISH TO SEE
 CI EXPANSIONS BASED ON THE CANONICAL (OR NATURAL) ORBITALS, YOU
 MUST RUN A CI CALCULATION WITH THAT ORBITAL CHOICE READ IN $VEC.

 Averaged energy =     -55.764357486

 State #    1  Energy =     -55.907443277  S =  0.500

      Det      Coef    Occupancy (Ignoring core)
      ---      ----    --------- --------- -----
        1    0.952193  11110001110000
        2    0.056635  11101001110000
        5   -0.059272  01111001110000
        8   -0.122597  10110101110000
       17    0.131157  11010011110000
       71   -0.072216  11110001011000
      386    0.092602  11110001010010
      393    0.065967  10110101010010
      701   -0.107302  11110001100001
      717    0.052695  11010011100001

 State #    2  Energy =     -55.720971024  S =  0.500

      Det      Coef    Occupancy (Ignoring core)
      ---      ----    --------- --------- -----
        1    0.070230  11110001110000
       71    0.967709  11110001011000
       75   -0.053040  01111001011000
       78   -0.061616  10110101011000
       87    0.095495  11010011011000
      316    0.056401  11110000011100
      806    0.099758  11110001001001
      822   -0.056606  11010011001001

 State #    3  Energy =     -55.664658158  S =  0.500

      Det      Coef    Occupancy (Ignoring core)
      ---      ----    --------- --------- -----
       36   -0.971451  11110001101000
       43    0.079115  10110101101000
       52   -0.066994  11010011101000
      281   -0.063112  11110000101100
      456   -0.093746  11110001001010
      463   -0.069290  10110101001010

 DENSITY MATRIX OVER ACTIVE MO-S

             1           2           3           4           5

    1    1.9801071
    2    0.0062023   1.6379512
    3   -0.0000000   0.0000000   1.6371255
    4    0.0038188   0.0005775   0.0000000   1.6557817
    5    0.0930635  -0.0052784  -0.0000000   0.0451271   0.0234676
    6   -0.0021278  -0.1304160   0.0000000   0.0095841   0.0012816
    7   -0.0000000   0.0000000  -0.1478915   0.0000000  -0.0000000

             6           7

    6    0.0330723
    7   -0.0000000   0.0324947

 FORMING THE "STANDARD FOCK OPERATOR" IN DIRECT AO INTEGRAL MODE...
 ONLY THE    1 CORE AND   21 VIRTUAL ORBITALS WILL BE CANONICALIZED

          ----------------------
          MCSCF NATURAL ORBITALS
          ----------------------

                      1          2          3          4          5
                  -15.9874     1.9847     1.6570     1.6506     1.6484
                     A          A          A          A          A   
    1  N  1  S    1.001357   0.008467  -0.011474   0.000000  -0.001101
    2  N  1  S   -0.001758   0.439341  -0.183704  -0.000000  -0.034854
    3  N  1  S   -0.006408   0.279120  -0.288274  -0.000000  -0.051204
    4  N  1  X   -0.000015   0.016062  -0.047247   0.000000   0.511334
    5  N  1  Y    0.000000  -0.000000  -0.000000   0.495530  -0.000000
    6  N  1  Z    0.001165   0.098126   0.594500   0.000000   0.029087
    7  N  1  X    0.000044  -0.003402  -0.035042   0.000000   0.233431
    8  N  1  Y    0.000000  -0.000000  -0.000000   0.191823  -0.000000
    9  N  1  Z   -0.000426   0.003462   0.382031   0.000000   0.005895
   10  N  1 XX   -0.000084  -0.000995  -0.012767   0.000000   0.012048
   11  N  1 YY    0.000260  -0.000243  -0.011759  -0.000000  -0.013516
   12  N  1 ZZ   -0.000176   0.001238   0.024526   0.000000   0.001468
   13  N  1 XY    0.000000  -0.000000   0.000000  -0.008903   0.000000
   14  N  1 XZ    0.000076   0.000575  -0.000573   0.000000   0.026245
   15  N  1 YZ    0.000000  -0.000000  -0.000000   0.024713  -0.000000
   16  H  2  S   -0.002075   0.189567   0.113988   0.332636  -0.169625
   17  H  2  S    0.000514   0.002139   0.025687   0.041327  -0.027738
   18  H  2  X   -0.000437   0.014865   0.006775   0.019823   0.011897
   19  H  2  Y    0.000952  -0.034104  -0.016014  -0.024168   0.019770
   20  H  2  Z    0.000433  -0.007568   0.018742  -0.015592   0.009013
   21  H  3  S   -0.002075   0.189567   0.113988  -0.332636  -0.169625
   22  H  3  S    0.000514   0.002139   0.025687  -0.041327  -0.027738
   23  H  3  X   -0.000437   0.014865   0.006775  -0.019823   0.011897
   24  H  3  Y   -0.000952   0.034104   0.016014  -0.024168  -0.019770
   25  H  3  Z    0.000433  -0.007568   0.018742   0.015592   0.009013
   26  H  4  S   -0.002049   0.203969   0.092588   0.000000   0.382694
   27  H  4  S    0.000391   0.006188   0.021200   0.000000   0.061598
   28  H  4  X    0.000980  -0.036598  -0.017717  -0.000000  -0.030367
   29  H  4  Y    0.000000   0.000000  -0.000000   0.022099  -0.000000
   30  H  4  Z    0.000464  -0.011880   0.019609  -0.000000  -0.019116

                      6          7          8
                    0.0226     0.0190     0.0177
                     A          A          A   
    1  N  1  S   -0.057142   0.000000   0.264887
    2  N  1  S   -0.173022   0.000000   0.833112
    3  N  1  S    0.013735   0.000000   0.153733
    4  N  1  X    0.872145   0.000000   0.165958
    5  N  1  Y   -0.000000   0.946576  -0.000000
    6  N  1  Z   -0.056617   0.000000   0.693383
    7  N  1  X    0.022315   0.000000   0.032564
    8  N  1  Y   -0.000000   0.064073  -0.000000
    9  N  1  Z    0.014450  -0.000000  -0.104815
   10  N  1 XX   -0.021131  -0.000000   0.019717
   11  N  1 YY    0.021989   0.000000  -0.008894
   12  N  1 ZZ   -0.000858   0.000000  -0.010823
   13  N  1 XY    0.000000  -0.018696   0.000000
   14  N  1 XZ   -0.029639  -0.000000  -0.023107
   15  N  1 YZ    0.000000  -0.048896   0.000000
   16  H  2  S    0.433588  -0.631868  -0.461841
   17  H  2  S    0.075872  -0.116976  -0.044688
   18  H  2  X   -0.000185  -0.033416  -0.034292
   19  H  2  Y   -0.044947   0.047462   0.061885
   20  H  2  Z   -0.005157  -0.003738  -0.012387
   21  H  3  S    0.433588   0.631868  -0.461841
   22  H  3  S    0.075872   0.116976  -0.044688
   23  H  3  X   -0.000185   0.033416  -0.034292
   24  H  3  Y    0.044947   0.047462  -0.061885
   25  H  3  Z   -0.005157   0.003738  -0.012387
   26  H  4  S   -0.644772  -0.000000  -0.611208
   27  H  4  S   -0.132352  -0.000000  -0.075112
   28  H  4  X    0.046273   0.000000   0.083573
   29  H  4  Y    0.000000  -0.032491   0.000000
   30  H  4  Z    0.010800  -0.000000  -0.009288

          ------------------------
          MCSCF OPTIMIZED ORBITALS
          ------------------------

                      1          2          3          4          5
                  -15.9874     0.0000     0.0000     0.0000     0.0000
                     A          A          A          A          A   
    1  N  1  S    1.001357  -0.004082   0.002212   0.000000  -0.018879
    2  N  1  S   -0.001758   0.402614  -0.009593   0.000000  -0.200837
    3  N  1  S   -0.006408   0.277840  -0.032973  -0.000000  -0.289292
    4  N  1  X   -0.000015   0.004412   0.440462  -0.000000  -0.015603
    5  N  1  Y    0.000000   0.000000  -0.000000   0.407319  -0.000000
    6  N  1  Z    0.001165   0.053597  -0.001517  -0.000000   0.577852
    7  N  1  X    0.000044  -0.008570   0.232060  -0.000000  -0.023239
    8  N  1  Y    0.000000  -0.000000  -0.000000   0.185195  -0.000000
    9  N  1  Z   -0.000426   0.001321  -0.014632   0.000000   0.384550
   10  N  1 XX   -0.000084  -0.002033   0.014190   0.000000  -0.012840
   11  N  1 YY    0.000260   0.000773  -0.014528   0.000000  -0.012015
   12  N  1 ZZ   -0.000176   0.001260   0.000338  -0.000000   0.024855
   13  N  1 XY    0.000000  -0.000000  -0.000000  -0.007165  -0.000000
   14  N  1 XZ    0.000076   0.001005   0.028713  -0.000000   0.001160
   15  N  1 YZ    0.000000  -0.000000  -0.000000   0.029060  -0.000000
   16  H  2  S   -0.002075   0.214567  -0.202647   0.388766   0.124482
   17  H  2  S    0.000514   0.004720  -0.034665   0.051802   0.026103
   18  H  2  X   -0.000437   0.016103   0.012026   0.022782   0.008566
   19  H  2  Y    0.000952  -0.037296   0.023037  -0.028387  -0.017608
   20  H  2  Z    0.000433  -0.007520   0.008351  -0.015187   0.019324
   21  H  3  S   -0.002075   0.214567  -0.202647  -0.388766   0.124482
   22  H  3  S    0.000514   0.004720  -0.034665  -0.051802   0.026103
   23  H  3  X   -0.000437   0.016103   0.012026  -0.022782   0.008566
   24  H  3  Y   -0.000952   0.037296  -0.023037  -0.028387   0.017608
   25  H  3  Z    0.000433  -0.007520   0.008351   0.015187   0.019324
   26  H  4  S   -0.002049   0.219759   0.436006  -0.000000   0.126387
   27  H  4  S    0.000391   0.007397   0.071479   0.000000   0.025258
   28  H  4  X    0.000980  -0.039306  -0.034293   0.000000  -0.021718
   29  H  4  Y    0.000000  -0.000000  -0.000000   0.024964  -0.000000
   30  H  4  Z    0.000464  -0.011364  -0.021069   0.000000   0.018684

                      6          7          8          9         10
                    0.0000     0.0000     0.0000     0.1562     0.1986
                     A          A          A          A          A   
    1  N  1  S    0.269930  -0.019877  -0.000000  -0.164514  -0.000000
    2  N  1  S    0.863904  -0.056019  -0.000000  -0.256699  -0.000000
    3  N  1  S    0.155927   0.034178  -0.000000   1.617509   0.000001
    4  N  1  X    0.042159   0.925248   0.000000  -0.020061  -0.000000
    5  N  1  Y    0.000000   0.000000   0.987748   0.000000   0.095885
    6  N  1  Z    0.714003   0.036100   0.000000  -0.244022  -0.000000
    7  N  1  X    0.027360   0.045541  -0.000000   0.072458   0.000004
    8  N  1  Y    0.000000   0.000000   0.081266  -0.000000  -0.702144
    9  N  1  Z   -0.095298  -0.003584  -0.000000   0.571151   0.000001
   10  N  1 XX    0.021983  -0.017052  -0.000000  -0.009423   0.000001
   11  N  1 YY   -0.012108   0.019520   0.000000   0.055658  -0.000001
   12  N  1 ZZ   -0.009875  -0.002468   0.000000  -0.046236   0.000000
   13  N  1 XY    0.000000   0.000000  -0.019429   0.000000   0.073361
   14  N  1 XZ   -0.018839  -0.030335   0.000000   0.024552   0.000001
   15  N  1 YZ    0.000000   0.000000  -0.046444  -0.000000  -0.106360
   16  H  2  S   -0.503816   0.350095  -0.598970   0.280526  -0.460364
   17  H  2  S   -0.053765   0.066268  -0.112729  -0.919644   1.641616
   18  H  2  X   -0.033032  -0.003990  -0.031473  -0.034375   0.053965
   19  H  2  Y    0.065274  -0.034176   0.045065   0.109186  -0.069832
   20  H  2  Z   -0.011428  -0.006283  -0.005142   0.017216  -0.072409
   21  H  3  S   -0.503816   0.350095   0.598970   0.280526   0.460358
   22  H  3  S   -0.053765   0.066268   0.112729  -0.919644  -1.641600
   23  H  3  X   -0.033032  -0.003990   0.031473  -0.034375  -0.053965
   24  H  3  Y   -0.065274   0.034176   0.045065  -0.109186  -0.069831
   25  H  3  Z   -0.011428  -0.006283   0.005142   0.017216   0.072409
   26  H  4  S   -0.504658  -0.690571   0.000000   0.166163   0.000005
   27  H  4  S   -0.055392  -0.136274   0.000000  -0.723753  -0.000018
   28  H  4  X    0.074153   0.054862  -0.000000   0.103489   0.000001
   29  H  4  Y    0.000000   0.000000  -0.030345   0.000000   0.040824
   30  H  4  Z   -0.010660   0.007627  -0.000000   0.041094   0.000001

                     11         12         13         14         15
                    0.1993     0.5440     0.5751     0.6212     0.8373
                     A          A          A          A          A   
    1  N  1  S    0.023244   0.032092   0.000000   0.098375  -0.000000
    2  N  1  S    0.042850   0.024872  -0.000000   0.366844  -0.000000
    3  N  1  S   -0.162614  -0.298884  -0.000000   0.165848   0.000000
    4  N  1  X    0.021303  -0.577500  -0.000000  -0.139412  -0.000000
    5  N  1  Y    0.000001   0.000000  -0.501607  -0.000000  -0.091903
    6  N  1  Z    0.041978   0.231381   0.000000  -0.653496   0.000000
    7  N  1  X   -0.502290   1.691116   0.000000   0.630973   0.000000
    8  N  1  Y   -0.000006  -0.000001   1.933450   0.000000   0.607695
    9  N  1  Z   -0.112266  -0.312676  -0.000000   1.070477   0.000000
   10  N  1 XX   -0.081583   0.013025   0.000000  -0.024749   0.000000
   11  N  1 YY    0.084831  -0.000590   0.000000  -0.049617  -0.000000
   12  N  1 ZZ   -0.003249  -0.012434  -0.000000   0.074365  -0.000000
   13  N  1 XY    0.000001  -0.000000   0.044174   0.000000  -0.171607
   14  N  1 XZ   -0.087762   0.040985   0.000000  -0.022691  -0.000000
   15  N  1 YZ   -0.000001  -0.000000   0.015686  -0.000000  -0.157209
   16  H  2  S    0.305067   0.384510  -0.627819  -0.396608  -0.135268
   17  H  2  S   -0.952058   0.545553  -0.796977   0.279479  -0.191677
   18  H  2  X    0.020157   0.062164   0.038025   0.023780  -0.338368
   19  H  2  Y    0.045300  -0.042790   0.165547  -0.058971   0.086086
   20  H  2  Z    0.019240  -0.067391   0.035946   0.050104  -0.288113
   21  H  3  S    0.305074   0.384510   0.627820  -0.396607   0.135268
   22  H  3  S   -0.952086   0.545553   0.796977   0.279479   0.191677
   23  H  3  X    0.020156   0.062164  -0.038025   0.023780   0.338368
   24  H  3  Y   -0.045301   0.042790   0.165547   0.058971   0.086086
   25  H  3  Z    0.019242  -0.067391  -0.035946   0.050104   0.288113
   26  H  4  S   -0.590121  -0.373539   0.000000  -0.747511  -0.000000
   27  H  4  S    2.052821  -0.995971  -0.000000  -0.223312  -0.000000
   28  H  4  X   -0.099088   0.127794   0.000000   0.009061   0.000000
   29  H  4  Y    0.000000  -0.000000   0.090937   0.000000  -0.497672
   30  H  4  Z   -0.068579   0.082781   0.000000   0.051720  -0.000000

                     16         17         18         19         20
                    0.9569     0.9644     1.3524     1.5017     1.5639
                     A          A          A          A          A   
    1  N  1  S   -0.558591   0.031907   0.000000  -0.625862  -0.116192
    2  N  1  S   -1.187631   0.068997   0.000000  -1.284131  -0.228216
    3  N  1  S    2.428655  -0.270963  -0.000000   2.487410   0.608938
    4  N  1  X   -0.049818   0.056519  -0.000000  -0.001474   0.136700
    5  N  1  Y   -0.000000  -0.000000  -0.143890  -0.000000  -0.000000
    6  N  1  Z    0.183454  -0.025583  -0.000000  -0.024046   0.018938
    7  N  1  X    0.244798  -0.404137  -0.000000  -0.081549   0.798696
    8  N  1  Y    0.000000   0.000000   0.582649  -0.000000  -0.000001
    9  N  1  Z   -0.028057  -0.203829  -0.000000   1.023068   0.290628
   10  N  1 XX   -0.088553  -0.193082  -0.000000   0.142076  -0.012300
   11  N  1 YY   -0.113135   0.101863   0.000000   0.156207  -0.000554
   12  N  1 ZZ    0.201688   0.091219   0.000000  -0.298283   0.012854
   13  N  1 XY    0.000000  -0.000000  -0.053384  -0.000000   0.000000
   14  N  1 XZ   -0.059663   0.221795  -0.000000   0.006142  -0.172157
   15  N  1 YZ   -0.000000  -0.000000  -0.003778  -0.000000   0.000000
   16  H  2  S   -0.321742  -0.014020  -0.255495  -0.706109  -0.071881
   17  H  2  S   -0.319332  -0.024332  -0.106229  -0.215114   0.078787
   18  H  2  X   -0.023869   0.358023  -0.510957   0.205987  -0.512503
   19  H  2  Y   -0.063118   0.138323  -0.423038   0.103723  -0.116684
   20  H  2  Z    0.343132  -0.103416   0.238991  -0.390978  -0.442226
   21  H  3  S   -0.321742  -0.014020   0.255495  -0.706109  -0.071881
   22  H  3  S   -0.319332  -0.024332   0.106229  -0.215114   0.078786
   23  H  3  X   -0.023869   0.358023   0.510957   0.205987  -0.512503
   24  H  3  Y    0.063118  -0.138323  -0.423038  -0.103723   0.116684
   25  H  3  Z    0.343132  -0.103416  -0.238991  -0.390978  -0.442226
   26  H  4  S   -0.431194   0.150658   0.000000  -0.664077  -0.398135
   27  H  4  S   -0.370387   0.178709  -0.000000  -0.209751  -0.325853
   28  H  4  X   -0.034518  -0.355826  -0.000000   0.122935  -0.040927
   29  H  4  Y    0.000000  -0.000000   0.340457   0.000000   0.000000
   30  H  4  Z    0.236859   0.491141  -0.000000  -0.337206   0.655339

                     21         22         23         24         25
                    1.5675     1.8237     1.8681     2.0835     2.2645
                     A          A          A          A          A   
    1  N  1  S   -0.000000   0.074891  -0.000000   0.049420   0.120396
    2  N  1  S   -0.000000   0.148958  -0.000000   0.228754   0.270536
    3  N  1  S    0.000000  -0.359372  -0.000000   2.036715   0.082215
    4  N  1  X    0.000000   0.476876   0.000000   0.044235   0.066639
    5  N  1  Y    0.003250  -0.000000   0.614256   0.000000   0.000000
    6  N  1  Z    0.000000   0.028428  -0.000000   0.384976   0.088237
    7  N  1  X    0.000000  -0.183982   0.000000  -0.139076  -0.244123
    8  N  1  Y    1.005213   0.000000   0.040254  -0.000000  -0.000000
    9  N  1  Z    0.000000  -0.133695  -0.000000   0.890786  -0.286406
   10  N  1 XX   -0.000000  -0.263194  -0.000000  -0.131812   0.841421
   11  N  1 YY   -0.000000   0.166051   0.000000  -0.256294  -0.142556
   12  N  1 ZZ    0.000000   0.097143   0.000000   0.388106  -0.698865
   13  N  1 XY   -0.013351  -0.000000   0.286095   0.000000  -0.000000
   14  N  1 XZ   -0.000000  -0.149106  -0.000000  -0.090638  -0.586893
   15  N  1 YZ   -0.109345  -0.000000  -0.189516  -0.000000  -0.000000
   16  H  2  S   -0.345561   0.018166   0.055144  -0.601434  -0.037541
   17  H  2  S   -0.212541   0.259869  -0.360997  -0.347705  -0.053362
   18  H  2  X    0.109959   0.292460  -0.412871  -0.104616   0.326864
   19  H  2  Y   -0.147835  -0.380111   0.581530   0.876365   0.227033
   20  H  2  Z    0.569119  -0.045567   0.366836  -0.110458   0.233549
   21  H  3  S    0.345561   0.018166  -0.055144  -0.601434  -0.037541
   22  H  3  S    0.212541   0.259869   0.360997  -0.347705  -0.053362
   23  H  3  X   -0.109960   0.292460   0.412871  -0.104616   0.326864
   24  H  3  Y   -0.147835   0.380111   0.581530  -0.876365  -0.227033
   25  H  3  Z   -0.569120  -0.045567  -0.366836  -0.110458   0.233549
   26  H  4  S   -0.000000   0.265259   0.000000  -0.565072   0.047246
   27  H  4  S   -0.000000  -0.406469  -0.000000  -0.210596  -0.012031
   28  H  4  X   -0.000000   0.861965   0.000000   0.739633  -0.024874
   29  H  4  Y   -0.826169  -0.000000   0.103784   0.000000   0.000000
   30  H  4  Z    0.000000   0.241475   0.000000   0.035088   0.680177

                     26         27         28         29
                    2.3764     2.5060     2.7833     2.9388
                     A          A          A          A   
    1  N  1  S    0.000000   0.008334  -0.000000   0.033224
    2  N  1  S   -0.000000   0.151041   0.000000   0.091373
    3  N  1  S   -0.000000   2.006657   0.000000   0.266998
    4  N  1  X   -0.000000   0.142611  -0.000000  -0.637559
    5  N  1  Y   -0.102136  -0.000000   0.673335  -0.000000
    6  N  1  Z   -0.000000   0.322752   0.000000   0.032131
    7  N  1  X   -0.000000   0.567039  -0.000000  -1.084488
    8  N  1  Y    0.305140  -0.000000   1.450566  -0.000000
    9  N  1  Z   -0.000000   0.412146   0.000000  -0.046304
   10  N  1 XX    0.000000   0.037265  -0.000000  -0.991938
   11  N  1 YY   -0.000000   0.736773   0.000000   1.213827
   12  N  1 ZZ    0.000000  -0.774038  -0.000000  -0.221890
   13  N  1 XY    0.998546   0.000000  -0.814718   0.000000
   14  N  1 XZ   -0.000000   0.714109  -0.000000  -0.911973
   15  N  1 YZ    0.655988  -0.000000   1.188342  -0.000000
   16  H  2  S   -0.037577  -0.594219  -1.206556  -0.794461
   17  H  2  S   -0.003332  -0.124135  -0.466062  -0.273175
   18  H  2  X   -0.309586  -0.445238  -0.312051  -0.232277
   19  H  2  Y   -0.174050   0.224479   0.811988   0.589628
   20  H  2  Z   -0.299368   0.479176   0.293786   0.355475
   21  H  3  S    0.037577  -0.594219   1.206556  -0.794462
   22  H  3  S    0.003332  -0.124135   0.466062  -0.273175
   23  H  3  X    0.309586  -0.445238   0.312051  -0.232277
   24  H  3  Y   -0.174050  -0.224479   0.811988  -0.589628
   25  H  3  Z    0.299368   0.479176  -0.293785   0.355475
   26  H  4  S    0.000000  -0.995103   0.000000   1.271943
   27  H  4  S    0.000000  -0.410761   0.000000   0.455712
   28  H  4  X   -0.000000   0.672649  -0.000000  -0.934766
   29  H  4  Y   -0.617112  -0.000000  -0.146737   0.000000
   30  H  4  Z   -0.000000   0.412081  -0.000000  -0.488902
 .....DONE WITH MCSCF ITERATIONS.....
 CPU     0: STEP CPU TIME=     6.84 TOTAL CPU TIME=          7.8 (      0.1 MIN)
 TOTAL WALL CLOCK TIME=          7.8 SECONDS, CPU UTILIZATION IS    99.87%

     ----------------------------------------------------------------
     PROPERTY VALUES FOR THE MCSCF SELF-CONSISTENT FIELD WAVEFUNCTION
     ----------------------------------------------------------------

          -----------------
          ENERGY COMPONENTS
          -----------------

         WAVEFUNCTION NORMALIZATION =       1.0000000000

                ONE ELECTRON ENERGY =     -94.9325197280
                TWO ELECTRON ENERGY =      27.3968109282
           NUCLEAR REPULSION ENERGY =      11.7713513134
                                      ------------------
                       TOTAL ENERGY =     -55.7643574864

 ELECTRON-ELECTRON POTENTIAL ENERGY =      27.3968109282
  NUCLEUS-ELECTRON POTENTIAL ENERGY =    -150.8707907084
   NUCLEUS-NUCLEUS POTENTIAL ENERGY =      11.7713513134
                                      ------------------
             TOTAL POTENTIAL ENERGY =    -111.7026284668
               TOTAL KINETIC ENERGY =      55.9382709805
                 VIRIAL RATIO (V/T) =       1.9968909748

          ---------------------------------------
          MULLIKEN AND LOWDIN POPULATION ANALYSES
          ---------------------------------------

     ATOMIC MULLIKEN POPULATION IN EACH MOLECULAR ORBITAL

                      1          2          3          4          5

                  2.000000   1.984743   1.656986   1.650642   1.648365

    1             2.001056   1.289552   1.545874   0.945011   1.025004
    2            -0.000350   0.220147   0.039742   0.348077   0.094898
    3            -0.000350   0.220147   0.039742   0.348077   0.094898
    4            -0.000355   0.254897   0.031628   0.009476   0.433564

                      6          7          8

                  0.022578   0.018978   0.017708

    1             0.011404   0.010104   0.009523
    2             0.002685   0.004443   0.002183
    3             0.002685   0.004443   0.002183
    4             0.005804  -0.000011   0.003820
 WARNING! MCSCF POPULATIONS SHOWN ABOVE ARE FOR THE NATURAL ORBITALS.
 IGNORE THE ABOVE DATA FOR MCSCF FUNCTIONS WHICH ARE NOT OF -FORS- TYPE.
 THE FOLLOWING POPULATIONS ARE CORRECT FOR ANY MCSCF WAVEFUNCTION.

               ----- POPULATIONS IN EACH AO -----
                             MULLIKEN      LOWDIN
              1  N  1  S      2.00280     1.89264
              2  N  1  S      0.82853     0.57616
              3  N  1  S      0.60903     0.38713
              4  N  1  X      0.70360     0.63428
              5  N  1  Y      0.67944     0.59987
              6  N  1  Z      0.89102     0.83157
              7  N  1  X      0.32109     0.40189
              8  N  1  Y      0.26739     0.37877
              9  N  1  Z      0.51508     0.55218
             10  N  1 XX      0.00057     0.16073
             11  N  1 YY      0.00403     0.17822
             12  N  1 ZZ      0.00157     0.14186
             13  N  1 XY      0.00667     0.00647
             14  N  1 XZ      0.00672     0.01196
             15  N  1 YZ      0.00000     0.01284
             16  H  2  S      0.62048     0.48220
             17  H  2  S      0.03267     0.14103
             18  H  2  X      0.01262     0.02494
             19  H  2  Y      0.03191     0.05369
             20  H  2  Z      0.01414     0.03787
             21  H  3  S      0.62048     0.48220
             22  H  3  S      0.03267     0.14103
             23  H  3  X      0.01262     0.02494
             24  H  3  Y      0.03191     0.05369
             25  H  3  Z      0.01414     0.03787
             26  H  4  S      0.63848     0.49559
             27  H  4  S      0.04045     0.14041
             28  H  4  X      0.03385     0.05647
             29  H  4  Y      0.00947     0.01925
             30  H  4  Z      0.01658     0.04225

          ----- MULLIKEN ATOMIC OVERLAP POPULATIONS -----
          (OFF-DIAGONAL ELEMENTS NEED TO BE MULTIPLIED BY 2)

             1           2           3           4

    1    5.8862045
    2    0.3181605   0.4042031
    3    0.3181605  -0.0055237   0.4042031
    4    0.3150020  -0.0050152  -0.0050152   0.4338514

          TOTAL MULLIKEN AND LOWDIN ATOMIC POPULATIONS
       ATOM         MULL.POP.    CHARGE          LOW.POP.     CHARGE
    1 N             6.837528    0.162472         6.766573    0.233427
    2 H             0.711825    0.288175         0.739729    0.260271
    3 H             0.711825    0.288175         0.739729    0.260271
    4 H             0.738823    0.261177         0.753968    0.246032

          MULLIKEN SPHERICAL HARMONIC POPULATIONS
       ATOM           S       P       D      F      G      H      I    TOTAL
    1 N             3.44    3.38    0.02   0.00   0.00   0.00   0.00    6.84
    2 H             0.65    0.06    0.00   0.00   0.00   0.00   0.00    0.71
    3 H             0.65    0.06    0.00   0.00   0.00   0.00   0.00    0.71
    4 H             0.68    0.06    0.00   0.00   0.00   0.00   0.00    0.74

          ---------------------
          ELECTROSTATIC MOMENTS
          ---------------------

 POINT   1           X           Y           Z (BOHR)    CHARGE
                 0.000001    0.000000   -0.177185        1.00 (A.U.)
         DX          DY          DZ         /D/  (DEBYE)
     0.200796    0.000000    2.144436    2.153816
 ...... END OF PROPERTY EVALUATION ......
 CPU     0: STEP CPU TIME=     0.01 TOTAL CPU TIME=          7.8 (      0.1 MIN)
 TOTAL WALL CLOCK TIME=          7.8 SECONDS, CPU UTILIZATION IS   100.00%

     -------------------------------------------------
     GMC-PT/GMC-QDPT or general MCSCF input parameters
     -------------------------------------------------
 # of frozen core orbs. =         0 ->         0
 # of doubly occ. orbs. =         1
 # of active      orbs. =         7
 # of virtual     orbs. =        21
 # of active electrons  =         7
 # of states in CI      =         3
 Highest state in CI    =         3
 kstate =  1 1 1
 avecoe =  0.333 0.333 0.333
 State symmetry           = A           
 Assigned symmetry number = 1

 <<<Act. MO sym.: 1111111

 <<<Division of 1-ext.:  0
 <<<Division of 2-ext.:  0

     ------------------------
     Orbital canonicalization
     ------------------------

 MOs are canonicalized for core, virtual, and invariant-active orbital spaces.
 This is a part of the GMC-QDPT calculation.
 SCHWARZ INEQUALITY OVERHEAD:       465 INTEGRALS, T=        0.00
 DIRECT TRANSFORMATION SKIPS AO INTEGRAL STORAGE ON DISK.

 Averaged energy =     -55.764357486

 State #    1  Energy =     -55.907443277  S =  0.500
 State #    2  Energy =     -55.720971024  S =  0.500
 State #    3  Energy =     -55.664658158  S =  0.500

 Orbital energies for filled orbital space
  -15.987359
 Orbital energies for active orbital space
   -1.537334  -0.911664  -0.970578  -0.761194   0.436648
    0.324790   0.410206
 Orbital energies for external orbital space
    0.156215   0.198568   0.199255   0.544046   0.575116
    0.621226   0.837313   0.956946   0.964439   1.352364
    1.501655   1.563932   1.567457   1.823699   1.868100
    2.083515   2.264489   2.376408   2.505972   2.783258
    2.938769

 Zero values mean non-canonical orbitals.
 ... done with orbital canonicalization ...
 CPU     0: STEP CPU TIME=     0.50 TOTAL CPU TIME=          8.3 (      0.1 MIN)
 TOTAL WALL CLOCK TIME=          8.3 SECONDS, CPU UTILIZATION IS   100.00%

     --------------------------------------------
     PARTIAL TWO ELECTRON INTEGRAL TRANSFORMATION
     --------------------------------------------

 NUMBER OF CORE MOLECULAR ORBITALS     =    0
 NUMBER OF OCCUPIED MOLECULAR ORBITALS =    8
 TOTAL NUMBER OF MOLECULAR ORBITALS    =   29
 TOTAL NUMBER OF ATOMIC ORBITALS       =   30
 THRESHOLD FOR KEEPING TRANSFORMED 2E- INTEGRALS = 1.000E-09
 AO INTEGRALS WILL BE CALCULATED IN DIRECT MODE...
 DIRECT TRANSFORMATION SKIPS AO INTEGRAL STORAGE ON DISK.
 SCHWARZ INEQUALITY OVERHEAD:       465 INTEGRALS, T=        0.00

 PLAN A: REQUIREMENTS FOR FULLY IN-MEMORY TRANSFORMATION:
 # OF WORDS AVAILABLE =            100000000
 # OF WORDS NEEDED    =               221798

 PARALLEL ONLY WORKS WITH THE SEGMENTED ALGORITHM.
 ADJUSTING MEMORY TO USE SEGMENTED ALGORITHM.


 PLAN B: REQUIREMENTS FOR THE SEGMENTED TRANSFORMATION:
       MINIMUM=         124148 WORDS FOR 1 MOLECULAR ORBITAL PER PASS
       MAXIMUM=         221798 WORDS FOR ALL MOLECULAR ORBITALS IN 1 PASS
              (          13950 EXTRA WORDS INCLUDES 1 EXTRA ORBITAL/PASS)
 THIS RUN USES=         221798 WORDS,
 DISTRIBUTING   1 PASSES EACH CONTAINING     8 ORBITALS OVER   1 PROCESSORS.

 CHOOSING SEGMENTED PARTIAL TRANSFORMATION...
 DIRECT TRANSFORMATION SKIPS AO INTEGRAL STORAGE ON DISK.
 PASS #   1 TOOK        0.04 SECONDS.
 TOTAL NUMBER OF TRANSFORMED 2E- INTEGRALS KEPT =        22601
 ... END OF INTEGRAL TRANSFORMATION ...
 CPU     0: STEP CPU TIME=     0.04 TOTAL CPU TIME=          8.4 (      0.1 MIN)
 TOTAL WALL CLOCK TIME=          8.4 SECONDS, CPU UTILIZATION IS    99.88%

     --------     ------------------------------------------
     GMC-QDPT     Program written by H.Nakano (Kyushu Univ.)
     --------     ------------------------------------------

 *** Reference space

 Reference type: ORMAS (= Occupation restricted multiple active space)
 # of orbitals          =  7
 # of minimum electrons =  7
 # of maximum electrons =  7
 State symmetry    =    1 (input)
 2*Sz              =    1 (input)
 Spin multiplicity =    2 (input)
 Dimension of reference space =      1225  (from      3432 walks)

 Dimension of reference space =      1225  (from      1225 walks)

 <<<Ionized spaces for Ref-CI:
      0:         1225 /   -1-0:         1960 /  0-1-0:         2891

 ***                    ***
 *** Reference space CI ***
 ***                    ***

 Converged after   26 iterations

 Reference wavefunctions:

 State #    1  Energy =     -55.907443277  S =  0.500

      Det      Coef    Occupancy (Ignoring core)
      ---      ----    --------- --------- -----
        1   -0.980099  11110001110000
      393   -0.070481  10110101010010
      717   -0.066474  11010011100001

 State #    2  Energy =     -55.720971024  S =  0.500

      Det      Coef    Occupancy (Ignoring core)
      ---      ----    --------- --------- -----
       71   -0.984346  11110001011000
      822    0.066093  11010011001001

 State #    3  Energy =     -55.664658158  S =  0.500

      Det      Coef    Occupancy (Ignoring core)
      ---      ----    --------- --------- -----
       36    0.983066  11110001101000
      463    0.070210  10110101001010

 Davidson method: CPU/Wall time =           0.43 /           0.43 sec.

 Oscillator strength (invalid if E(1)/=E(GS)):
 -----------------------------------------
   State                        f
 -----------------------------------------
     2     F(REF-CI)=        0.0003477340
     3     F(REF-CI)=        0.0003005963
 -----------------------------------------

 Dipole moment matrix elements, x, y, z, in A.U.

 Dimension of ionized spaces for PT:
 (N-2) space:         1715 /  (N-1) space:         2842 /  N space:         2891
 (N+1) space:         2842 /  (N+2) space:         1715

 <<<Ionized spaces for internal:
         0:         1225 /      -1-0:         1960 /     0-1-0:         2891
  -1-0-1-0:         2842 / 0-1-0-1-0:         3381

 Diagonal elements of averaged one-particle density matrix:
       2       3       4       5       6       7       8
  0.9944  0.9886  0.9894  0.9933  0.0097  0.0134  0.0113
  0.9903  0.6596  0.6610  0.6637  0.0081  0.0094  0.0079

 Orbital energies:
 -------- Doubly-occupied orbitals (highest several orbs.) -------
             1
 -1.598736D+01
 -------- Active orbitals ----------------------------------------
             2            3            4            5            6
 -1.537334D+00-9.116643D-01-9.705779D-01-7.611942D-01 4.366476D-01
             7            8
  3.247896D-01 4.102058D-01
 -------- External orbitals (lowest several orbs.) ---------------
             9           10           11           12           13
  1.562153D-01 1.985683D-01 1.992553D-01 5.440455D-01 5.751161D-01
            14           15           16           17           18
  6.212258D-01 8.373133D-01 9.569462D-01 9.644395D-01 1.352364D+00

 *** Quasi-degeneracy checking

 === Det (|Ci| > 1.0D-01 and dE < 5.0D-03)

 # of small denominators (single excitations)
 State       dEmin  dE < 5.0D-03  dE < 5.0D-04  dE < 5.0D-05  dE < 5.0D-06
 ----- ----------- ------------- ------------- ------------- -------------
     1    5.00D-03             0             0             0             0
     2    5.00D-03             0             0             0             0
     3    5.00D-03             0             0             0             0

 # of small denominators (double excitations)
 State       dEmin  dE < 5.0D-03  dE < 5.0D-04  dE < 5.0D-05  dE < 5.0D-06
 ----- ----------- ------------- ------------- ------------- -------------
     1    5.00D-03             0             0             0             0
     2    5.00D-03             0             0             0             0
     3    5.00D-03             0             0             0             0

 *** Zeroth-Order Setup (Granovsky's zeroth-order vectors)
 Zeroth-order effective Hamiltonian
  (= Sum_i e(i)*<I|a+(i)a(i)|J> ):
                   1            2            3
     1 -7.501438D+00
     2  4.137623D-03-7.371249D+00
     3 -2.615823D-10 9.807438D-10-7.308679D+00

 Zeroth-order vectors:
 State #    1
       MC st            1           2           3
       Coeff    9.995D-01  -3.173D-02   1.517D-09
 State #    2
       MC st            2           1           3
       Coeff   -9.995D-01  -3.173D-02   1.557D-08
 State #    3
       MC st            3           2           1
       Coeff    1.000D+00   1.561D-08  -1.022D-09

 *** GMC-QDPT computation

 (Integral reading:  CPU/Wall time =           0.00 /           0.00 sec.)

 One-external:
   0 -ionized terms: CPU/Wall time =           0.03 /           0.03 sec.
 (-1)-ionized terms: CPU/Wall time =           0.10 /           0.10 sec.
 (+1)-ionized terms: CPU/Wall time =           0.02 /           0.03 sec.
 (+1)-ionized terms: CPU/Wall time =           0.01 /           0.01 sec.
 (+2)-ionized terms: CPU/Wall time =           0.00 /           0.00 sec.

 Internal:
 # of macro loops for internal contribution =         1 (input)
 Loop:    1
 Dimension of internal CISD space     =         0  (after screening)
 Space construction: CPU/Wall time =           0.02 /           0.01 sec.
 Internal terms:     CPU/Wall time =           0.00 /           0.00 sec.

 Two-external:
   0 -ionized terms: CPU/Wall time =           0.03 /           0.03 sec.
 (-1)-ionized terms: CPU/Wall time =           0.33 /           0.33 sec.
 (-2)-ionized terms: CPU/Wall time =           0.18 /           0.19 sec.

 Total time:         CPU/Wall time =           0.72 /           0.73 sec.

 ***                  ***
 *** GMC-QDPT Results ***
 ***                  ***

 Diagonal elements of effective Hamiltonian:
 Heff(  1) =   -56.00474561
 Heff(  2) =   -55.83055365
 Heff(  3) =   -55.77528754

 Off-diagonal elements of effective Hamiltonian:
                   1            2
     2  5.274541D-03
     3  3.783313D-10 8.030597D-10

 ******** GMC-QDPT energies ********
 ----------------------------------------------------------------------------
   State                        1st order                           2nd order
 ----------------------------------------------------------------------------
     1     E(REF-CI)=      -55.9074432770   E(GMC-QDPT2)=      -56.0049051723
     2     E(REF-CI)=      -55.7209710244   E(GMC-QDPT2)=      -55.8303940819
     3     E(REF-CI)=      -55.6646581577   E(GMC-QDPT2)=      -55.7752875381
 ----------------------------------------------------------------------------

 Excitation energies (invalid if E(1)/=E(GS)):
 ----------------------------------------------------------------------------
   State                        1st order                           2nd order
 ----------------------------------------------------------------------------

     TZ Sorted GMC-PT ENERGIES:
         1      -56.0049051723
         2      -55.8303940819
         3      -55.7752875381
     2     E(REF-CI)=        5.0741711 eV   E(GMC-QDPT2)=        4.7486911 eV
     3     E(REF-CI)=        6.6065230 eV   E(GMC-QDPT2)=        6.2482173 eV
 ----------------------------------------------------------------------------

 Main characters of perturbed GMC-QDPT states:

 State #    1  Energy =     -56.004905172  S =  0.500

      Det      Coef    Occupancy (Ignoring core)
      ---      ----    --------- --------- -----
        1   -0.980121  11110001110000
      393   -0.070483  10110101010010
      717   -0.066473  11010011100001

 State #    2  Energy =     -55.830394082  S =  0.500

      Det      Coef    Occupancy (Ignoring core)
      ---      ----    --------- --------- -----
       71   -0.984366  11110001011000
      822    0.066095  11010011001001

 State #    3  Energy =     -55.775287538  S =  0.500

      Det      Coef    Occupancy (Ignoring core)
      ---      ----    --------- --------- -----
       36    0.983066  11110001101000
      463    0.070210  10110101001010

 <<<Max |V/de| = 3.130D-02  Thresh = 1.000D+00

 Oscillator strength (invalid if E(1)/=E(GS)):
 ----------------------------------------------------------------------------
   State                        1st order                           2nd order
 ----------------------------------------------------------------------------
     2     F(REF-CI)=        0.0003477340     F(GMC-PT2)=        0.0003356184
     3     F(REF-CI)=        0.0003005963     F(GMC-PT2)=        0.0002896258
 ----------------------------------------------------------------------------

 Dipole moment matrix elements, x, y, z, in A.U.
States    1    1        0.1091633482        0.0000000014        0.7731812218
States    1    2        0.0173440129        0.0000000006        0.0508328055
States    1    3       -0.0000000006       -0.0434972367        0.0000000060
States    2    1        0.0173440129        0.0000000006        0.0508328055
States    2    2       -0.0711760577       -0.0000000162        0.2545189410
States    2    3       -0.0000000132        0.2689001236        0.0000000014
States    3    1       -0.0000000006       -0.0434972367        0.0000000060
States    3    2       -0.0000000132        0.2689001236        0.0000000014
States    3    3        0.3532921484        0.0000000217        0.2534763452

 Oscillator strength (valid only when positive): 
 ----------------------------------------------------------------------------
  States                        1st order                           2nd order
 ----------------------------------------------------------------------------
  1  1     F(REF-CI)=        0.0000000000     F(GMC-PT2)=        0.0000000000
  1  2     F(REF-CI)=       -0.0003477340     F(GMC-PT2)=       -0.0003356184
  1  3     F(REF-CI)=       -0.0003005963     F(GMC-PT2)=       -0.0002896258
  2  1     F(REF-CI)=        0.0003477340     F(GMC-PT2)=        0.0003356184
  2  2     F(REF-CI)=        0.0000000000     F(GMC-PT2)=        0.0000000000
  2  3     F(REF-CI)=       -0.0027158611     F(GMC-PT2)=       -0.0026564027
  3  1     F(REF-CI)=        0.0003005963     F(GMC-PT2)=        0.0002896258
  3  2     F(REF-CI)=        0.0027158611     F(GMC-PT2)=        0.0026564027
  3  3     F(REF-CI)=        0.0000000000     F(GMC-PT2)=        0.0000000000
 CPU     0: STEP CPU TIME=     1.22 TOTAL CPU TIME=          9.6 (      0.2 MIN)
 TOTAL WALL CLOCK TIME=          9.6 SECONDS, CPU UTILIZATION IS   100.00%

     !!! DIABATIZATION FOR REF CI STATES !!!

 *******************************************************
          $DMO GROUP FOUND IN THE INPUT.
        DIABATIZATION OF ADIABATIC STATES BEGINS.
     PROGRAMMED BY TAO ZENG (CARLETON UNIVERSITY).
               Email: toby.zeng@carleton.ca
     See T. Zeng, J. Chem. Phys. 2017, 146, 144103
 *******************************************************

 *************************************************************************
     STEP 1: TRANSFORMATION OF ADIABATIC STATES TO THE DMO REPRESENTATION
         See Atchity and Ruedenberg, J. Chem. Phys. 1999, 111, 2910
 *************************************************************************

Read in Diabatic Molecualr Orbitals:

                      1          2          3          4          5

    1  N  1  S    0.008609   0.000000   0.000000  -0.013219   0.279491
    2  N  1  S    0.442914  -0.000000   0.000000  -0.184329   0.867803
    3  N  1  S    0.276913   0.000000  -0.000000  -0.288315   0.144236
    4  N  1  X   -0.000000   0.493155  -0.024636  -0.000000  -0.000000
    5  N  1  Y    0.000000   0.024636   0.493155  -0.000000   0.000000
    6  N  1  Z    0.090197   0.000000   0.000000   0.593421   0.705309
    7  N  1  X   -0.000000   0.210628  -0.010522   0.000000   0.000000
    8  N  1  Y    0.000000   0.010522   0.210628  -0.000000  -0.000000
    9  N  1  Z   -0.004381   0.000000   0.000000   0.381592  -0.106092
   10  N  1 XX   -0.000457   0.010719  -0.000535  -0.012387   0.006153
   11  N  1 YY   -0.000457  -0.010719   0.000535  -0.012387   0.006153
   12  N  1 ZZ    0.000914  -0.000000   0.000000   0.024773  -0.012306
   13  N  1 XY    0.000000  -0.000618  -0.012377  -0.000000   0.000000
   14  N  1 XZ   -0.000000   0.026529  -0.001325  -0.000000   0.000000
   15  N  1 YZ    0.000000   0.001325   0.026529  -0.000000   0.000000
   16  H  2  S    0.194462  -0.176074   0.343485   0.112865  -0.523343
   17  H  2  S    0.003574  -0.023812   0.046452   0.024014  -0.054445
   18  H  2  X    0.018760   0.009101   0.022834   0.009336  -0.039151
   19  H  2  Y   -0.032493   0.022287  -0.020044  -0.016171   0.067811
   20  H  2  Z   -0.009251   0.008464  -0.016511   0.018769  -0.010566
   21  H  3  S    0.194462  -0.209430  -0.324227   0.112865  -0.523343
   22  H  3  S    0.003574  -0.028322  -0.043847   0.024014  -0.054445
   23  H  3  X    0.018760   0.006781  -0.023627   0.009336  -0.039151
   24  H  3  Y    0.032493  -0.024174  -0.017723   0.016171  -0.067811
   25  H  3  Z   -0.009251   0.010067   0.015585   0.018769  -0.010566
   26  H  4  S    0.194462   0.385503  -0.019258   0.112865  -0.523343
   27  H  4  S    0.003574   0.052134  -0.002604   0.024014  -0.054445
   28  H  4  X   -0.037519  -0.032295   0.001613  -0.018672   0.078302
   29  H  4  Y    0.000000   0.001067   0.021353  -0.000000   0.000000
   30  H  4  Z   -0.009251  -0.018530   0.000926   0.018769  -0.010566

                      6          7

    1  N  1  S    0.000000  -0.000000
    2  N  1  S    0.000000  -0.000000
    3  N  1  S   -0.000000   0.000000
    4  N  1  X   -0.930415  -0.002083
    5  N  1  Y   -0.002083   0.930415
    6  N  1  Z   -0.000000   0.000000
    7  N  1  X   -0.046866  -0.000105
    8  N  1  Y   -0.000105   0.046866
    9  N  1  Z   -0.000000   0.000000
   10  N  1 XX    0.001538   0.000003
   11  N  1 YY   -0.001538  -0.000003
   12  N  1 ZZ   -0.000000   0.000000
   13  N  1 XY   -0.000004   0.001776
   14  N  1 XZ    0.039985   0.000090
   15  N  1 YZ    0.000090  -0.039985
   16  H  2  S   -0.362630  -0.631354
   17  H  2  S   -0.065964  -0.114846
   18  H  2  X    0.002763  -0.037520
   19  H  2  Y    0.037435   0.040736
   20  H  2  Z    0.001882   0.003276
   21  H  3  S   -0.365454   0.629724
   22  H  3  S   -0.066477   0.114549
   23  H  3  X    0.002595   0.037532
   24  H  3  Y   -0.037617   0.040567
   25  H  3  Z    0.001896  -0.003268
   26  H  4  S    0.728084   0.001630
   27  H  4  S    0.132441   0.000297
   28  H  4  X   -0.062317  -0.000140
   29  H  4  Y    0.000055  -0.024345
   30  H  4  Z   -0.003778  -0.000008

NUMBER OF SUB ACTIVE SPACES:   1
ROTATE ACTIVE MOS TO DMOS IN EACH SUB-SPACE

SPACE  1:

OVERLAP BETWEEN ORTHONORMAL AND PRE-ORTHONORMAL REF. DMOS

             1           2           3           4           5

    1    0.9979038   0.0104770  -0.0005234  -0.0007229   0.0002759
    2    0.0104770   0.9739068   0.0022674   0.0140068  -0.0260796
    3   -0.0005234   0.0022674   1.0191821  -0.0006997   0.0013028
    4   -0.0007229   0.0140068  -0.0006997   0.9994980  -0.0010180
    5    0.0002759  -0.0260796   0.0013028  -0.0010180   1.0127310
    6   -0.0021772  -0.0198551   0.0010321   0.0148522   0.0062442
    7   -0.0000049  -0.0009403  -0.0179299   0.0000333   0.0000140

             6           7

    1   -0.0021772  -0.0000049
    2   -0.0198551  -0.0009403
    3    0.0010321  -0.0179299
    4    0.0148522   0.0000333
    5    0.0062442   0.0000140
    6    1.0172323   0.0000532
    7    0.0000532   0.9934696
REFERENCE DMOS AFTER ORTHONORMALIZATION:

                      1          2          3          4          5

    1  N  1  S    0.008460   0.007465  -0.000373  -0.013023   0.276164
    2  N  1  S    0.443253   0.020801  -0.001039  -0.183502   0.857134
    3  N  1  S    0.277202   0.005053  -0.000252  -0.288246   0.142163
    4  N  1  X   -0.007116   0.488435  -0.024400   0.006604   0.018200
    5  N  1  Y   -0.000000   0.025000   0.500455   0.000000  -0.000000
    6  N  1  Z    0.090504   0.008893  -0.000444   0.594557   0.697322
    7  N  1  X   -0.002365   0.215658  -0.010773  -0.002404   0.005824
    8  N  1  Y   -0.000000   0.010368   0.207536  -0.000000   0.000000
    9  N  1  Z   -0.004008  -0.008354   0.000417   0.381868  -0.104557
   10  N  1 XX   -0.000585   0.011403  -0.000570  -0.012575   0.006346
   11  N  1 YY   -0.000359  -0.010705   0.000535  -0.012213   0.005797
   12  N  1 ZZ    0.000943  -0.000698   0.000035   0.024788  -0.012143
   13  N  1 XY    0.000000  -0.000605  -0.012115   0.000000  -0.000000
   14  N  1 XZ   -0.000209   0.028085  -0.001403  -0.000987   0.000478
   15  N  1 YZ    0.000000   0.001265   0.025327  -0.000000   0.000000
   16  H  2  S    0.196664  -0.207268   0.327615   0.121023  -0.520232
   17  H  2  S    0.003787  -0.027851   0.043774   0.025371  -0.054104
   18  H  2  X    0.018751   0.007955   0.021791   0.009176  -0.038496
   19  H  2  Y   -0.032795   0.026128  -0.019161  -0.017066   0.067419
   20  H  2  Z   -0.009346   0.008328  -0.016146   0.018607  -0.010188
   21  H  3  S    0.196664  -0.238887  -0.305327   0.121023  -0.520232
   22  H  3  S    0.003787  -0.032075  -0.040780   0.025371  -0.054104
   23  H  3  X    0.018751   0.005744  -0.022475   0.009176  -0.038496
   24  H  3  Y    0.032795  -0.027907  -0.016462   0.017066  -0.067419
   25  H  3  Z   -0.009346   0.009895   0.015236   0.018607  -0.010188
   26  H  4  S    0.192523   0.393532  -0.019659   0.096230  -0.511034
   27  H  4  S    0.003325   0.054449  -0.002720   0.021259  -0.053144
   28  H  4  X   -0.037434  -0.031723   0.001585  -0.017261   0.076875
   29  H  4  Y    0.000000   0.001025   0.020524  -0.000000   0.000000
   30  H  4  Z   -0.009057  -0.019586   0.000978   0.019101  -0.010891

                      6          7

    1  N  1  S   -0.001341  -0.000003
    2  N  1  S   -0.001226  -0.000003
    3  N  1  S    0.004028   0.000009
    4  N  1  X   -0.905318  -0.002027
    5  N  1  Y   -0.002117   0.945587
    6  N  1  Z   -0.012594  -0.000028
    7  N  1  X   -0.041857  -0.000094
    8  N  1  Y   -0.000114   0.050929
    9  N  1  Z   -0.005106  -0.000011
   10  N  1 XX    0.001878   0.000004
   11  N  1 YY   -0.001579  -0.000004
   12  N  1 ZZ   -0.000299  -0.000001
   13  N  1 XY   -0.000004   0.001568
   14  N  1 XZ    0.039869   0.000089
   15  N  1 YZ    0.000089  -0.039790
   16  H  2  S   -0.358985  -0.629764
   17  H  2  S   -0.065459  -0.114833
   18  H  2  X    0.002994  -0.037365
   19  H  2  Y    0.037093   0.040680
   20  H  2  Z    0.001800   0.003014
   21  H  3  S   -0.361801   0.628150
   22  H  3  S   -0.065972   0.114539
   23  H  3  X    0.002827   0.037378
   24  H  3  Y   -0.037275   0.040513
   25  H  3  Z    0.001813  -0.003006
   26  H  4  S    0.725595   0.001625
   27  H  4  S    0.131286   0.000294
   28  H  4  X   -0.062182  -0.000139
   29  H  4  Y    0.000054  -0.024133
   30  H  4  Z   -0.004329  -0.000010

 -------------------------------------------
       MAXIMIZING MORMO OVERLAP TERM        
 -------------------------------------------
   SWEEP    VALUE       PROGRESS
     0     6.84838
     1     6.99570     0.14731955
     2     6.99575     0.00005127
     3     6.99575     0.00000000
     4     6.99575     0.00000000
 THE ROTATION IS DONE
FLIPPING SIGN FOR ORBITAL   7
ACTIVE ORBITALS AFTER MORMO:

                      1          2          3          4          5

    1  N  1  S    0.008345   0.010396  -0.000519  -0.012957   0.270287
    2  N  1  S    0.441310   0.023448  -0.001171  -0.184440   0.849324
    3  N  1  S    0.283399  -0.018790   0.000939  -0.286928   0.149725
    4  N  1  X   -0.002600   0.480846  -0.024021   0.012201   0.012082
    5  N  1  Y   -0.000000   0.025068   0.501814   0.000000   0.000000
    6  N  1  Z    0.089463   0.014314  -0.000715   0.594554   0.696391
    7  N  1  X   -0.010230   0.234542  -0.011717  -0.018095   0.020077
    8  N  1  Y   -0.000000   0.009594   0.192047  -0.000000   0.000000
    9  N  1  Z   -0.000842  -0.024150   0.001206   0.381780  -0.103372
   10  N  1 XX   -0.001173   0.014318  -0.000715  -0.012471   0.022173
   11  N  1 YY    0.000230  -0.013831   0.000691  -0.012081  -0.011727
   12  N  1 ZZ    0.000943  -0.000487   0.000024   0.024552  -0.010446
   13  N  1 XY    0.000000  -0.000451  -0.009029  -0.000000   0.000000
   14  N  1 XZ   -0.000056   0.026697  -0.001334   0.000474  -0.019254
   15  N  1 YZ    0.000000   0.001215   0.024324  -0.000000   0.000000
   16  H  2  S    0.192530  -0.186847   0.337749   0.116022  -0.515299
   17  H  2  S    0.002483  -0.031812   0.042110   0.025745  -0.054529
   18  H  2  X    0.014486   0.011742   0.019016   0.007782  -0.034220
   19  H  2  Y   -0.034449   0.022344  -0.024966  -0.016254   0.067142
   20  H  2  Z   -0.008004   0.006511  -0.015964   0.019078  -0.011649
   21  H  3  S    0.192530  -0.219577  -0.317445   0.116022  -0.515299
   22  H  3  S    0.002483  -0.035850  -0.038730   0.025745  -0.054529
   23  H  3  X    0.014486   0.009789  -0.020092   0.007782  -0.034220
   24  H  3  Y    0.034449  -0.024721  -0.022615   0.016254  -0.067142
   25  H  3  Z   -0.008004   0.008070   0.015236   0.019078  -0.011649
   26  H  4  S    0.194876   0.388608  -0.019413   0.104494  -0.518478
   27  H  4  S    0.004735   0.063240  -0.003159   0.021973  -0.056082
   28  H  4  X   -0.035797  -0.029448   0.001471  -0.019038   0.076452
   29  H  4  Y    0.000000   0.001091   0.021833   0.000000   0.000000
   30  H  4  Z   -0.011537  -0.021446   0.001071   0.018349  -0.010000

                      6          7

    1  N  1  S    0.015303   0.000034
    2  N  1  S    0.036323   0.000081
    3  N  1  S   -0.045165  -0.000101
    4  N  1  X   -0.905558  -0.002028
    5  N  1  Y   -0.002112   0.942923
    6  N  1  Z   -0.035028  -0.000078
    7  N  1  X   -0.036132  -0.000081
    8  N  1  Y   -0.000140   0.062668
    9  N  1  Z    0.012746   0.000029
   10  N  1 XX    0.017039   0.000038
   11  N  1 YY   -0.020207  -0.000045
   12  N  1 ZZ    0.003168   0.000007
   13  N  1 XY    0.000042  -0.018631
   14  N  1 XZ    0.031882   0.000071
   15  N  1 YZ    0.000110  -0.049075
   16  H  2  S   -0.347201  -0.635064
   17  H  2  S   -0.066052  -0.117423
   18  H  2  X    0.005247  -0.033548
   19  H  2  Y    0.033749   0.047713
   20  H  2  Z    0.007273  -0.003608
   21  H  3  S   -0.350042   0.633502
   22  H  3  S   -0.066577   0.117126
   23  H  3  X    0.005096   0.033571
   24  H  3  Y   -0.033962   0.047561
   25  H  3  Z    0.007257   0.003640
   26  H  4  S    0.718906   0.001610
   27  H  4  S    0.140645   0.000315
   28  H  4  X   -0.057819  -0.000129
   29  H  4  Y    0.000073  -0.032652
   30  H  4  Z   -0.007940  -0.000018

Actually Used Diabatic Molecualr Orbitals:

                      1          2          3          4          5

    1  N  1  S    0.008345   0.010396  -0.000519  -0.012957   0.270287
    2  N  1  S    0.441310   0.023448  -0.001171  -0.184440   0.849324
    3  N  1  S    0.283399  -0.018790   0.000939  -0.286928   0.149725
    4  N  1  X   -0.002600   0.480846  -0.024021   0.012201   0.012082
    5  N  1  Y   -0.000000   0.025068   0.501814   0.000000   0.000000
    6  N  1  Z    0.089463   0.014314  -0.000715   0.594554   0.696391
    7  N  1  X   -0.010230   0.234542  -0.011717  -0.018095   0.020077
    8  N  1  Y   -0.000000   0.009594   0.192047  -0.000000   0.000000
    9  N  1  Z   -0.000842  -0.024150   0.001206   0.381780  -0.103372
   10  N  1 XX   -0.001173   0.014318  -0.000715  -0.012471   0.022173
   11  N  1 YY    0.000230  -0.013831   0.000691  -0.012081  -0.011727
   12  N  1 ZZ    0.000943  -0.000487   0.000024   0.024552  -0.010446
   13  N  1 XY    0.000000  -0.000451  -0.009029  -0.000000   0.000000
   14  N  1 XZ   -0.000056   0.026697  -0.001334   0.000474  -0.019254
   15  N  1 YZ    0.000000   0.001215   0.024324  -0.000000   0.000000
   16  H  2  S    0.192530  -0.186847   0.337749   0.116022  -0.515299
   17  H  2  S    0.002483  -0.031812   0.042110   0.025745  -0.054529
   18  H  2  X    0.014486   0.011742   0.019016   0.007782  -0.034220
   19  H  2  Y   -0.034449   0.022344  -0.024966  -0.016254   0.067142
   20  H  2  Z   -0.008004   0.006511  -0.015964   0.019078  -0.011649
   21  H  3  S    0.192530  -0.219577  -0.317445   0.116022  -0.515299
   22  H  3  S    0.002483  -0.035850  -0.038730   0.025745  -0.054529
   23  H  3  X    0.014486   0.009789  -0.020092   0.007782  -0.034220
   24  H  3  Y    0.034449  -0.024721  -0.022615   0.016254  -0.067142
[...]
      332    0.029428   -0.029428  ++-2-0+
      183   -0.027909    0.027909  202+-+0
        6    0.027363   -0.027363  22200+0
      177    0.027230   -0.027230  2+20200
      180   -0.026114    0.026114  -+2+200
      317    0.024011   -0.024011  ++2-200
      462    0.023701   -0.023701  2+02020
       42   -0.022878    0.022878  22020+0
       99    0.022638   -0.022638  20-20++
      751    0.022486   -0.022486  2+20002
      391    0.021553   -0.021553  2+20020
       51   -0.021436    0.021436  22+-00+
      192    0.020713   -0.020713  2+-+-0+
      807    0.020579   -0.020579  2++-+0-
       38   -0.020359    0.020359  2202+00
      534    0.020346    0.020346  0+22020

 State #    3  Energy =     -55.775287723

      Det      Coef        Coefp    Occupancy (Ignoring core)
      ---      ----        ----    --------- --------- -----
       36   -0.983064   -0.983064  22+2000
      463    0.070210   -0.070210  20+2020
      121    0.043287   -0.043287  +22-00+
      472    0.039897    0.039897  2+020-+
      112   -0.034121   -0.034121  +2-20+0
      285    0.032733   -0.032733  02+2200
      460   -0.031167   -0.031167  -++2+-0
      249    0.031139   -0.031139  20+2200
      288   -0.030360   -0.030360  +-+2-+0
      297   -0.029277    0.029277  +202-0+
       86   -0.027325   -0.027325  2+2-00+
      716    0.025826    0.025826  22+0002
      282    0.025110    0.025110  +2+-200
      145   -0.025109   -0.025109  -2++200
      142    0.024679    0.024679  22+0200
       39   -0.024373   -0.024373  2-+2+00
      771   -0.023899   -0.023899  +22+00-
       41   -0.023891    0.023891  22+-0+0
      253    0.023394    0.023394  20+2-+0
      148   -0.023361   -0.023361  2-++-+0
      457   -0.023213    0.023213  2++-+-0
       73    0.022829   -0.022829  2+-2+00
       64   -0.021834    0.021834  2-020++
       16    0.021655   -0.021655  222000+
      459   -0.021640    0.021640  20+2+-0
      356    0.021337    0.021337  22+0020
      157   -0.021049    0.021049  220+-0+
      494    0.020262   -0.020262  +-+2+-0

 ---------------------------------------
    -DIABATIC STATES IN PROTOTYPES-     
 ---------------------------------------

     STATE:    1
 Group Ref#    Coefficients
     1    1    0.994004
     2    2    0.000931
     3    3    0.000031

WEIGHT OF LISTED PROTOTYPES:   98.80%

     STATE:    2
 Group Ref#    Coefficients
     1    1    0.000931
     2    2    0.994099
     3    3    0.000106

WEIGHT OF LISTED PROTOTYPES:   98.82%

     STATE:    3
 Group Ref#    Coefficients
     1    1    0.000031
     2    2    0.000106
     3    3    0.992488

WEIGHT OF LISTED PROTOTYPES:   98.50%

 --------------------------------------------------
 IN DIRECT MAX. DIABATIZATION FOR GMC-QDPT

 DIRECT MAXIMIZATION (DM) WITHOUT TRUNCATING ADIABATS
 EXPANSIONS INTO THE REFERENCE CONFIGURATION SPACE
 --------------------------------------------------

 -------------------------------------------
 - DM DIABT PT HAMILTONIAN MATRIX ELEMENTS -
 -------------------------------------------
                                            
 --- DIABATIC ENERGIES (DIAGONAL ELEMENT) ---       HARTREE            EV
 STATE #  1'S GMC-PT-LEVEL DIABATIC ENERGY=     -56.003437144       0.000000000
 STATE #  2'S GMC-PT-LEVEL DIABATIC ENERGY=     -55.831861926       4.668799489
 STATE #  3'S GMC-PT-LEVEL DIABATIC ENERGY=     -55.775287723       6.208261950

 --- DIABATIC COUPLINGS (OFF DIAGONAL ELEMENTS)---  HATREE            EV
 STATE #  1 &  2'S GMC-PT-LEVEL COUPLING  =      -0.015938342      -0.433704373
 STATE #  1 &  3'S GMC-PT-LEVEL COUPLING  =       0.000038008       0.001034242
 STATE #  2 &  3'S GMC-PT-LEVEL COUPLING  =       0.000102184       0.002780573

 ---------------------------------------
     - ROTATION TO DIABATIC STATES -    
 ---------------------------------------
 ROWS=ADIABATIC, COLUMNS=DIABATIC STATES

             1           2           3

    1    0.9957850   0.0917180  -0.0002056
    2    0.0917182  -0.9957834   0.0017832
    3   -0.0000412  -0.0017946  -0.9999984

 ---------------------------------------
          - DIABATIC STATES -           
 ---------------------------------------

 State #    1  Energy =     -56.003437144

      Det      Coef        Coefp    Occupancy (Ignoring core)
      ---      ----        ----    --------- --------- -----
        1    0.977461   -0.977461  222+000
      393   -0.074644   -0.074644  202+020
        8   -0.069870    0.069870  2-2+0+0
      717   -0.067152   -0.067152  220+002
      386    0.041326   -0.041326  2+2+0-0
      708    0.038336   -0.038336  2-++0+-
      402    0.037246   -0.037246  2+-+0-+
        4   -0.034931    0.034931  2-2++00
      215   -0.034044   -0.034044  022+200
      176    0.033879   -0.033879  2+2+-00
      218    0.033104   -0.033104  +-2+-+0
      390    0.032835   -0.032835  -+2++-0
      227   -0.032224   -0.032224  +2-+-0+
      705   -0.032056   -0.032056  -2+++0-
        2    0.029081   -0.029081  2220+00
       76    0.028544    0.028544  2+2-0+0
      212    0.027873    0.027873  +220200
       17    0.027419    0.027419  22-+00+
      113   -0.026792    0.026792  +-220+0
       51   -0.026266    0.026266  22+-00+
      122    0.024125    0.024125  +2-200+
      106   -0.023521   -0.023521  +222000
      143   -0.023370   -0.023370  220+200
      424   -0.022861   -0.022861  +-2++-0
        6    0.022805   -0.022805  22200+0
      387   -0.022085    0.022085  2+20+-0
      184   -0.022085   -0.022085  -+2+-+0
      702    0.021472    0.021472  22+0+0-
      742   -0.021016   -0.021016  2+-+0+-
      368   -0.020764   -0.020764  2-++0-+
      773    0.020691   -0.020691  +2-++0-
      179   -0.020543   -0.020543  202+200
      159    0.020327   -0.020327  -2++-0+

 State #    2  Energy =     -55.831861926

      Det      Coef        Coefp    Occupancy (Ignoring core)
      ---      ----        ----    --------- --------- -----
       71   -0.979867    0.979867  2+22000
      822    0.065728   -0.065728  2+02002
       74    0.060400   -0.060400  2022+00
       76    0.048775    0.048775  2+2-0+0
       36    0.047187    0.047187  22+2000
      813    0.040728   -0.040728  20+20+-
      386   -0.037634    0.037634  2+2+0-0
      111    0.037007   -0.037007  +22-0+0
      323   -0.033951    0.033951  +022-+0
      320    0.033397    0.033397  0+22200
      810   -0.032360   -0.032360  -++2+0-
      332   -0.030948    0.030948  ++-2-0+
      113    0.029621   -0.029621  +-220+0
      180   -0.028201    0.028201  -+2+200
      317    0.027926   -0.027926  ++2-200
       38   -0.026204    0.026204  2202+00
      106    0.026163    0.026163  +222000
      177    0.025983   -0.025983  2+20200
      183   -0.025793    0.025793  202+-+0
        6    0.025077   -0.025077  22200+0
      248    0.024481   -0.024481  2+02200
       99   -0.023761    0.023761  20-20++
      391    0.023160   -0.023160  2+20020
      807   -0.022424    0.022424  2++-+0-
      192   -0.022066    0.022066  2+-+-0+
      751    0.021752   -0.021752  2+20002
       51    0.021615   -0.021615  22+-00+
      526   -0.020919   -0.020919  ++220-0
      529    0.020640    0.020640  +022+-0
      534    0.020201    0.020201  0+22020
      122    0.020092    0.020092  +2-200+
      878    0.020071    0.020071  ++-2+0-

 State #    3  Energy =     -55.775287723

      Det      Coef        Coefp    Occupancy (Ignoring core)
      ---      ----        ----    --------- --------- -----
       36   -0.979971   -0.979971  22+2000
      463    0.075222   -0.075222  20+2020
       71   -0.047192    0.047192  2+22000
      121   -0.041826    0.041826  +22-00+
      472   -0.041264   -0.041264  2+020-+
      456   -0.040332   -0.040332  2++20-0
      246   -0.039055   -0.039055  2++2-00
       52    0.034306   -0.034306  220200+
      285    0.033964   -0.033964  02+2200
      460   -0.033716   -0.033716  -++2+-0
      288   -0.032633   -0.032633  +-+2-+0
      297    0.031666   -0.031666  +202-0+
      112   -0.031663   -0.031663  +2-20+0
      145   -0.028029   -0.028029  -2++200
      282    0.027865    0.027865  +2+-200
       43    0.027676    0.027676  2-+20+0
       73    0.027635   -0.027635  2+-2+00
       16   -0.026113    0.026113  222000+
      142    0.026033    0.026033  22+0200
      457   -0.024061    0.024061  2++-+-0
      148   -0.023975   -0.023975  2-++-+0
      716    0.023965    0.023965  22+0002
       64    0.023940   -0.023940  2-020++
      157    0.023501   -0.023501  220+-0+
      771    0.022800    0.022800  +22+00-
      249    0.022744   -0.022744  20+2200
      254    0.022458   -0.022458  -++2-+0
       86    0.022304    0.022304  2+2-00+
      494    0.022054   -0.022054  +-+2+-0
      123    0.021783   -0.021783  +-2200+
      356    0.021571    0.021571  22+0020

 ---------------------------------------
      - DIABATIC STATES IN CMO -        
 ---------------------------------------

 State #    1  Energy =     -56.003437144

      Det      Coef        Coefp    Occupancy (Ignoring core)
      ---      ----        ----    --------- --------- -----
        1    0.974712   -0.974712  222+000
       71    0.103112   -0.103112  2+22000
      393   -0.070050   -0.070050  202+020
      717   -0.066268   -0.066268  220+002
       17   -0.044538   -0.044538  22-+00+
        8   -0.042929    0.042929  2-2+0+0
      402   -0.039473    0.039473  2+-+0-+
      708   -0.037524    0.037524  2-++0+-
      215   -0.033110   -0.033110  022+200
      390    0.031539   -0.031539  -+2++-0
      218    0.030171   -0.030171  +-2+-+0
      227    0.029930    0.029930  +2-+-0+
      705    0.029411    0.029411  -2+++0-
      179   -0.028709   -0.028709  202+200
        2    0.027897   -0.027897  2220+00
       76    0.027303    0.027303  2+2-0+0
       51    0.025916   -0.025916  22+-00+
      106   -0.025520   -0.025520  +222000
      113   -0.025385    0.025385  +-220+0
      212    0.024716    0.024716  +220200
      122   -0.024563   -0.024563  +2-200+
      742    0.023526    0.023526  2+-+0+-
      357   -0.022715   -0.022715  220+020
      387   -0.022495    0.022495  2+20+-0
      389    0.021831    0.021831  202++-0
      368    0.021767    0.021767  2-++0-+
      184   -0.020479   -0.020479  -+2+-+0

 State #    2  Energy =     -55.831861926

      Det      Coef        Coefp    Occupancy (Ignoring core)
      ---      ----        ----    --------- --------- -----
       71   -0.979034    0.979034  2+22000
        1    0.103771   -0.103771  222+000
      822    0.065712   -0.065712  2+02002
      813   -0.040805    0.040805  20+20+-
      113    0.033236   -0.033236  +-220+0
      111    0.032989   -0.032989  +22-0+0
      320    0.032969    0.032969  0+22200
      323   -0.030075    0.030075  +022-+0
      810    0.029676    0.029676  -++2+0-
       74    0.029566   -0.029566  2022+00
      332    0.029428   -0.029428  ++-2-0+
      183   -0.027909    0.027909  202+-+0
        6    0.027363   -0.027363  22200+0
      177    0.027230   -0.027230  2+20200
      180   -0.026114    0.026114  -+2+200
      317    0.024011   -0.024011  ++2-200
      462    0.023701   -0.023701  2+02020
       42   -0.022878    0.022878  22020+0
       99    0.022638   -0.022638  20-20++
      751    0.022486   -0.022486  2+20002
      391    0.021553   -0.021553  2+20020
       51   -0.021436    0.021436  22+-00+
      192    0.020713   -0.020713  2+-+-0+
      807    0.020579   -0.020579  2++-+0-
       38   -0.020359    0.020359  2202+00
      534    0.020346    0.020346  0+22020

 State #    3  Energy =     -55.775287723

      Det      Coef        Coefp    Occupancy (Ignoring core)
      ---      ----        ----    --------- --------- -----
       36   -0.983064   -0.983064  22+2000
      463    0.070210   -0.070210  20+2020
      121    0.043287   -0.043287  +22-00+
      472    0.039897    0.039897  2+020-+
      112   -0.034121   -0.034121  +2-20+0
      285    0.032733   -0.032733  02+2200
      460   -0.031167   -0.031167  -++2+-0
      249    0.031139   -0.031139  20+2200
      288   -0.030360   -0.030360  +-+2-+0
      297   -0.029277    0.029277  +202-0+
       86   -0.027325   -0.027325  2+2-00+
      716    0.025826    0.025826  22+0002
      282    0.025110    0.025110  +2+-200
      145   -0.025109   -0.025109  -2++200
      142    0.024679    0.024679  22+0200
       39   -0.024373   -0.024373  2-+2+00
      771   -0.023899   -0.023899  +22+00-
       41   -0.023891    0.023891  22+-0+0
      253    0.023394    0.023394  20+2-+0
      148   -0.023361   -0.023361  2-++-+0
      457   -0.023213    0.023213  2++-+-0
       73    0.022829   -0.022829  2+-2+00
       64   -0.021834    0.021834  2-020++
       16    0.021655   -0.021655  222000+
      459   -0.021640    0.021640  20+2+-0
      356    0.021337    0.021337  22+0020
      157   -0.021049    0.021049  220+-0+
      494    0.020262   -0.020262  +-+2+-0

 ---------------------------------------
    -DIABATIC STATES IN PROTOTYPES-     
 ---------------------------------------

     STATE:    1
 Group Ref#    Coefficients
     1    1    0.994004
     2    2    0.000931
     3    3    0.000031

WEIGHT OF LISTED PROTOTYPES:   98.80%

     STATE:    2
 Group Ref#    Coefficients
     1    1    0.000931
     2    2    0.994099
     3    3    0.000106

WEIGHT OF LISTED PROTOTYPES:   98.82%

     STATE:    3
 Group Ref#    Coefficients
     1    1    0.000031
     2    2    0.000106
     3    3    0.992488

WEIGHT OF LISTED PROTOTYPES:   98.50%

     DIRECT MAX. DIABATIZATION FINISHED    
 CPU     0: STEP CPU TIME=     0.25 TOTAL CPU TIME=          9.8 (      0.2 MIN)
 TOTAL WALL CLOCK TIME=          9.8 SECONDS, CPU UTILIZATION IS   100.00%

DIABATS FOR SPIN-ORBIT CALCULATION ARE READY

TRANSITION DIPOLES BETWEEN ADIABATS (in A.U.):

STATE PAIR      X         Y         Z
    1    1  0.109163  0.000000  0.773181
    2    1  0.017344  0.000000  0.050833
    2    2 -0.071176 -0.000000  0.254519
    3    1 -0.000000 -0.043497  0.000000
    3    2 -0.000000  0.268900  0.000000
    3    3  0.353292  0.000000  0.253476


TRANSITION DIPOLES BETWEEN DIABATS (in A.U.):

STATE PAIR      X         Y         Z
    1    1  0.110814  0.000002  0.778103
    2    1 -0.000581  0.000045 -0.002607
    2    2 -0.072826  0.000975  0.249597
    3    1  0.000011  0.018651 -0.000017
    3    2  0.000765  0.271754  0.000007
    3    3  0.353291 -0.000977  0.253476

TRANSITION DIPOLES BETWEEN DIRECT MAX. DIABATS (in A.U.):

STATE PAIR      X         Y         Z
    1    1  0.110814  0.000002  0.778103
    2    1 -0.000581  0.000045 -0.002607
    2    2 -0.072826  0.000975  0.249597
    3    1  0.000011  0.018651 -0.000017
    3    2  0.000765  0.271754  0.000007
    3    3  0.353291 -0.000977  0.253476
 No $TRANST Group Found.
 Quit without doing spin-orbit coupling
 ..... DONE WITH MP2 ENERGY .....
 CPU     0: STEP CPU TIME=     0.00 TOTAL CPU TIME=          9.8 (      0.2 MIN)
 TOTAL WALL CLOCK TIME=          9.8 SECONDS, CPU UTILIZATION IS    99.90%
            100000000  WORDS OF DYNAMIC MEMORY USED
 EXECUTION OF GAMESS TERMINATED NORMALLY Wed Nov 16 19:24:09 2022
 DDI: 715512 bytes (0.7 MB / 0 MWords) used by master data server.

 ----------------------------------------
 CPU timing information for all processes
 ========================================
 0: 9.624 + 0.200 = 9.824
 ----------------------------------------
Note: The following floating-point exceptions are signalling: IEEE_DENORMAL
 ddikick.x: exited gracefully.
unset echo
----- accounting info -----
Files used on the master node io002 were:
-rw-r--r-- 1 bsonghao nooijen   20722 Nov 16 19:23 /scratch/bsonghao/nh3_diabatization_2d_at_mode_7_8_dist0.0_0.2.F05
-rw-r--r-- 1 bsonghao nooijen  363520 Nov 16 19:24 /scratch/bsonghao/nh3_diabatization_2d_at_mode_7_8_dist0.0_0.2.F09
-rw-r--r-- 1 bsonghao nooijen 1995920 Nov 16 19:24 /scratch/bsonghao/nh3_diabatization_2d_at_mode_7_8_dist0.0_0.2.F10
-rw-r--r-- 1 bsonghao nooijen  104032 Nov 16 19:24 /scratch/bsonghao/nh3_diabatization_2d_at_mode_7_8_dist0.0_0.2.F13
-rw-r--r-- 1 bsonghao nooijen  180312 Nov 16 19:24 /scratch/bsonghao/nh3_diabatization_2d_at_mode_7_8_dist0.0_0.2.F15
-rw-r--r-- 1 bsonghao nooijen       0 Nov 16 19:24 /scratch/bsonghao/nh3_diabatization_2d_at_mode_7_8_dist0.0_0.2.F16
-rw-r--r-- 1 bsonghao nooijen    9808 Nov 16 19:24 /scratch/bsonghao/nh3_diabatization_2d_at_mode_7_8_dist0.0_0.2.F70
-rw-r--r-- 1 bsonghao nooijen    9808 Nov 16 19:24 /scratch/bsonghao/nh3_diabatization_2d_at_mode_7_8_dist0.0_0.2.F71
-rw-r--r-- 1 bsonghao nooijen   19608 Nov 16 19:24 /scratch/bsonghao/nh3_diabatization_2d_at_mode_7_8_dist0.0_0.2.F72
-rw-r--r-- 1 bsonghao nooijen   19608 Nov 16 19:24 /scratch/bsonghao/nh3_diabatization_2d_at_mode_7_8_dist0.0_0.2.F73
-rw-r--r-- 1 bsonghao nooijen 1920824 Nov 16 19:24 /scratch/bsonghao/nh3_diabatization_2d_at_mode_7_8_dist0.0_0.2.F74
-rw-r--r-- 1 bsonghao nooijen       0 Nov 16 19:24 /scratch/bsonghao/nh3_diabatization_2d_at_mode_7_8_dist0.0_0.2.F75
-rw-r--r-- 1 bsonghao nooijen   58848 Nov 16 19:24 /scratch/bsonghao/nh3_diabatization_2d_at_mode_7_8_dist0.0_0.2.F76
-rw-r--r-- 1 bsonghao nooijen       0 Nov 16 19:24 /scratch/bsonghao/nh3_diabatization_2d_at_mode_7_8_dist0.0_0.2.F77
-rw-r--r-- 1 bsonghao nooijen    1864 Nov 16 19:24 /scratch/bsonghao/nh3_diabatization_2d_at_mode_7_8_dist0.0_0.2.F78
-rw-r--r-- 1 bsonghao nooijen   39208 Nov 16 19:24 /scratch/bsonghao/nh3_diabatization_2d_at_mode_7_8_dist0.0_0.2.F79
-rw-r--r-- 1 bsonghao nooijen     104 Nov 16 19:24 /scratch/bsonghao/nh3_diabatization_2d_at_mode_7_8_dist0.0_0.2.F80
-rw-r--r-- 1 bsonghao nooijen   13472 Nov 16 19:24 /scratch/bsonghao/nh3_diabatization_2d_at_mode_7_8_dist0.0_0.2.F81
-rw-r--r-- 1 bsonghao nooijen      16 Nov 16 19:24 /scratch/bsonghao/nh3_diabatization_2d_at_mode_7_8_dist0.0_0.2.F82
-rw-r--r-- 1 bsonghao nooijen   19216 Nov 16 19:24 /scratch/bsonghao/nh3_diabatization_2d_at_mode_7_8_dist0.0_0.2.F83
-rw-r--r-- 1 bsonghao nooijen   29712 Nov 16 19:24 /scratch/bsonghao/nh3_diabatization_2d_at_mode_7_8_dist0.0_0.2.F84
-rw-r--r-- 1 bsonghao nooijen  314792 Nov 16 19:24 /scratch/bsonghao/nh3_diabatization_2d_at_mode_7_8_dist0.0_0.2.F85
-rw-r--r-- 1 bsonghao nooijen  670840 Nov 16 19:24 /scratch/bsonghao/nh3_diabatization_2d_at_mode_7_8_dist0.0_0.2.F86
-rw-r--r-- 1 bsonghao nooijen     656 Nov 16 19:24 /scratch/bsonghao/nh3_diabatization_2d_at_mode_7_8_dist0.0_0.2.F87
-rw-r--r-- 1 bsonghao nooijen   20624 Nov 16 19:24 /scratch/bsonghao/nh3_diabatization_2d_at_mode_7_8_dist0.0_0.2.F88
-rw-r--r-- 1 bsonghao nooijen     240 Nov 16 19:24 /scratch/bsonghao/nh3_diabatization_2d_at_mode_7_8_dist0.0_0.2.F89
-rw-r--r-- 1 bsonghao nooijen       0 Nov 16 19:24 /scratch/bsonghao/nh3_diabatization_2d_at_mode_7_8_dist0.0_0.2.F90
-rw-r--r-- 1 bsonghao nooijen   13760 Nov 16 19:24 /scratch/bsonghao/nh3_diabatization_2d_at_mode_7_8_dist0.0_0.2.F91
-rw-r--r-- 1 bsonghao nooijen   22776 Nov 16 19:24 /scratch/bsonghao/nh3_diabatization_2d_at_mode_7_8_dist0.0_0.2.F92
-rw-r--r-- 1 bsonghao nooijen   23168 Nov 16 19:24 /scratch/bsonghao/nh3_diabatization_2d_at_mode_7_8_dist0.0_0.2.F93
-rw-r--r-- 1 bsonghao nooijen   22776 Nov 16 19:24 /scratch/bsonghao/nh3_diabatization_2d_at_mode_7_8_dist0.0_0.2.F94
-rw-r--r-- 1 bsonghao nooijen   13760 Nov 16 19:24 /scratch/bsonghao/nh3_diabatization_2d_at_mode_7_8_dist0.0_0.2.F95
-rw-r--r-- 1 bsonghao nooijen   29440 Nov 16 19:24 /scratch/bsonghao/nh3_diabatization_2d_at_mode_7_8_dist0.0_0.2.F96
-rw-r--r-- 1 bsonghao nooijen    1184 Nov 16 19:24 /scratch/bsonghao/nh3_diabatization_2d_at_mode_7_8_dist0.0_0.2.F97
-rw-r--r-- 1 bsonghao nooijen    9808 Nov 16 19:24 /scratch/bsonghao/nh3_diabatization_2d_at_mode_7_8_dist0.0_0.2.F98
-rw-r--r-- 1 bsonghao nooijen   30264 Nov 16 19:24 /scratch/bsonghao/nh3_diabatization_2d_at_mode_7_8_dist0.0_0.2.F99
ls: No match.
ls: No match.
ls: No match.
Wed 16 Nov 2022 07:24:13 PM EST
0.291u 0.042s 0:13.20 2.5%	0+0k 48+224io 0pf+0w
