----- GAMESS execution script 'rungms' -----
This job is running on host io002
under operating system Linux at Wed 16 Nov 2022 07:45:14 PM EST
Available scratch disk space (Kbyte units) at beginning of the job is
Filesystem       1K-blocks       Used   Available Use% Mounted on
/dev/sdc1      15378471580 3278917120 11318349060  23% /scratch
GAMESS temporary binary files will be written to /scratch/bsonghao
GAMESS supplementary output files will be written to /home/bsonghao/.gamess_ascii_files/267638
Copying input file nh3_diabatization_2d_at_mode_7_8_dist0.3_-0.1.inp to your run's scratch directory...
cp nh3_diabatization_2d_at_mode_7_8_dist0.3_-0.1.inp /scratch/bsonghao/nh3_diabatization_2d_at_mode_7_8_dist0.3_-0.1.F05
unset echo
/home/bjb2chen/gamess/ddikick.x /home/bjb2chen/gamess/gamess.00.x nh3_diabatization_2d_at_mode_7_8_dist0.3_-0.1 -ddi 1 1 io002 -scr /scratch/bsonghao

 Distributed Data Interface kickoff program.
 Initiating 1 compute processes on 1 nodes to run the following command:
 /home/bjb2chen/gamess/gamess.00.x nh3_diabatization_2d_at_mode_7_8_dist0.3_-0.1 

          ******************************************************
          *         GAMESS VERSION = 02 AUG 2018 (R2)         *
          *             FROM IOWA STATE UNIVERSITY             *
          * M.W.SCHMIDT, K.K.BALDRIDGE, J.A.BOATZ, S.T.ELBERT, *
          *   M.S.GORDON, J.H.JENSEN, S.KOSEKI, N.MATSUNAGA,   *
          *          K.A.NGUYEN, S.J.SU, T.L.WINDUS,           *
          *       TOGETHER WITH M.DUPUIS, J.A.MONTGOMERY       *
          *         J.COMPUT.CHEM.  14, 1347-1363(1993)        *
          **************** 64 BIT LINUX VERSION ****************

  SINCE 1993, STUDENTS AND POSTDOCS WORKING AT IOWA STATE UNIVERSITY
  AND ALSO IN THEIR VARIOUS JOBS AFTER LEAVING ISU HAVE MADE IMPORTANT
  CONTRIBUTIONS TO THE CODE:
     IVANA ADAMOVIC, CHRISTINE AIKENS, YURI ALEXEEV, POOJA ARORA,
     ANDREY ASADCHEV, ROB BELL, PRADIPTA BANDYOPADHYAY, JONATHAN BENTZ,
     BRETT BODE, KURT BRORSEN, CALEB CARLIN, GALINA CHABAN, WEI CHEN,
     CHEOL HO CHOI, PAUL DAY, ALBERT DEFUSCO, NUWAN DESILVA, TIM DUDLEY,
     DMITRI FEDOROV, ALEX FINDLATER, GRAHAM FLETCHER, MARK FREITAG,
     KURT GLAESEMANN, ANASTASIA GUININA,
     DAN KEMP, GRANT MERRILL, NORIYUKI MINEZAWA, JONATHAN MULLIN,
     TAKESHI NAGATA, SEAN NEDD, HEATHER NETZLOFF, BOSILJKA NJEGIC, RYAN OLSON,
     MIKE PAK, BUU PHAM,
     SPENCER PRUITT, LUKE ROSKOP, JIM SHOEMAKER, LYUDMILA SLIPCHENKO,
     TONY SMITH, SAROM SOK LEANG, JIE SONG, TETSUYA TAKETSUGU, SIMON WEBB,
     PENG XU, SOOHAENG YOO, FEDERICO ZAHARIEV

  ADDITIONAL CODE HAS BEEN PROVIDED BY COLLABORATORS IN OTHER GROUPS:
     IOWA STATE UNIVERSITY:
          JOE IVANIC, AARON WEST, LAIMUTIS BYTAUTAS, KLAUS RUEDENBERG
     UNIVERSITY OF TOKYO: KIMIHIKO HIRAO, TAKAHITO NAKAJIMA,
          TAKAO TSUNEDA, MUNEAKI KAMIYA, SUSUMU YANAGISAWA,
          KIYOSHI YAGI, MAHITO CHIBA, SEIKEN TOKURA, NAOAKI KAWAKAMI
     UNIVERSITY OF AARHUS: FRANK JENSEN
     UNIVERSITY OF IOWA: VISVALDAS KAIRYS, HUI LI
     NATIONAL INST. OF STANDARDS AND TECHNOLOGY: WALT STEVENS, DAVID GARMER
     UNIVERSITY OF PISA: BENEDETTA MENNUCCI, JACOPO TOMASI
     UNIVERSITY OF MEMPHIS: HENRY KURTZ, PRAKASHAN KORAMBATH
     UNIVERSITY OF ALBERTA: TOBY ZENG, MARIUSZ KLOBUKOWSKI
     UNIVERSITY OF NEW ENGLAND: MARK SPACKMAN
     MIE UNIVERSITY: HIROAKI UMEDA
     NAT. INST. OF ADVANCED INDUSTRIAL SCIENCE AND TECHNOLOGY: KAZUO KITAURA
     MICHIGAN STATE UNIVERSITY:
          KAROL KOWALSKI, MARTA WLOCH, JEFFREY GOUR, JESSE LUTZ,
          WEI LI, JUN SHEN, J. EMILIANO DEUSTUA, PIOTR PIECUCH
     UNIVERSITY OF MINNESOTA:
          YINAN SHU
     UNIVERSITY OF SILESIA: MONIKA MUSIAL, STANISLAW KUCHARSKI
     FACULTES UNIVERSITAIRES NOTRE-DAME DE LA PAIX:
          OLIVIER QUINET, BENOIT CHAMPAGNE
     UNIVERSITY OF CALIFORNIA - SANTA BARBARA: BERNARD KIRTMAN
     INSTITUTE FOR MOLECULAR SCIENCE:
          KAZUYA ISHIMURA, MICHIO KATOUDA, AND SHIGERU NAGASE
     UNIVERSITY OF NOTRE DAME: ANNA POMOGAEVA, DAN CHIPMAN
     KYUSHU UNIVERSITY:
          HARUYUKI NAKANO,
          FENG LONG GU, JACEK KORCHOWIEC, MARCIN MAKOWSKI, AND YURIKO AOKI,
          HIROTOSHI MORI AND EISAKU MIYOSHI
     PENNSYLVANIA STATE UNIVERSITY:
          TZVETELIN IORDANOV, CHET SWALINA, JONATHAN SKONE,
          SHARON HAMMES-SCHIFFER
     WASEDA UNIVERSITY:
          MASATO KOBAYASHI, TOMOKO AKAMA, TSUGUKI TOUMA,
          TAKESHI YOSHIKAWA, YASUHIRO IKABATA, JUNJI SEINO,
          YUYA NAKAJIMA, HIROMI NAKAI
     NANJING UNIVERSITY: SHUHUA LI
     UNIVERSITY OF NEBRASKA:
          PEIFENG SU, DEJUN SI, NANDUN THELLAMUREGE, YALI WANG, HUI LI
     UNIVERSITY OF ZURICH: ROBERTO PEVERATI, KIM BALDRIDGE
     N. COPERNICUS UNIVERSITY AND JACKSON STATE UNIVERSITY:
          MARIA BARYSZ
     UNIVERSITY OF COPENHAGEN: Jimmy Kromann, CASPER STEINMANN
     TOKYO INSTITUTE OF TECHNOLOGY: HIROYA NAKATA
     NAGOYA UNIVERSITY: YOSHIO NISHIMOTO, STEPHAN IRLE
     MOSCOW STATE UNIVERSITY: VLADIMIR MIRONOV

 EXECUTION OF GAMESS BEGUN Wed Nov 16 19:45:15 2022

            ECHO OF THE FIRST FEW INPUT CARDS -
 INPUT CARD> $system kdiag=3 mwords=100 memddi=1000 parall=.t. $end                         
 INPUT CARD> $contrl runtyp=energy ispher=1 $end                                            
 INPUT CARD> $contrl icut=9 itol=20 inttyp=rysquad qmttol=1.0d-05 nosym=1 $end              
 INPUT CARD> $scf    npunch=2 conv=1.0d-06 dirscf=.t.      $end                             
 INPUT CARD> $contrl scftyp=mcscf  mult=2 maxit=200 icharg=1 mplevl=2 $end                  
 INPUT CARD> $guess  guess=moread norb=29 purify=.t. $end                                   
 INPUT CARD> $basis  gbasis=ccd $end                                                        
 INPUT CARD> $mcscf  cistep=gmcci fullnr=.t. finci=mos                                      
 INPUT CARD>         acurcy=1.d-6 maxit=100 $end                                            
 INPUT CARD> $trans  dirtrf=.t. $end                                                        
 INPUT CARD> $mrmp   mrpt=gmcpt rdvecs=.f. $end                                             
 INPUT CARD> $gmcpt  nmofzc=0 nmodoc=1 nmoact=7 nelact=7 stsym(1)=A                         
 INPUT CARD>         reftyp=ormas nspace=1 mstart(1)=2 mine(1)=7 maxe(1)=7                  
 INPUT CARD>         kstate(1)=1,1,1                                                        
 INPUT CARD>         wstate(1)=1,1,1                                                        
 INPUT CARD>         iwgt=0 thrwgt=-1.0 krot=.f. kszdoe=.f. knospn=.f.                      
 INPUT CARD>         thrde=-1.0 edshft=0.02 $end                                            
 INPUT CARD> $data                                                                          
 INPUT CARD> NH3+ 3 states calculation at NH3 structure.                                    
 INPUT CARD> c1                                                                             
 INPUT CARD>N 7.0 0.006228917999999998 -0.018686709000000003 -0.1693806302                  
 INPUT CARD>H 1.0 -0.401602064 0.7881224208000001 0.3382408791                              
 INPUT CARD>H 1.0 -0.630878013 -0.7473915118000001 0.2010764561                             
 INPUT CARD>H 1.0 0.945927582 0.21892723000000003 0.23006252210000003                       
 INPUT CARD>$end                                                                            
 INPUT CARD>--- OPTIMIZED RHF      MO-S --- GENERATED AT Mon Nov 14 16:47:08 2022           
 INPUT CARD>E=      -56.3825050291, E(NUC)=   11.8429239490                                 
 INPUT CARD> $VEC                                                                           
 INPUT CARD> 1  1-1.00134066E+00-2.25158504E-03 3.44925845E-03 0.00000000E+00 0.00000000E+00
 INPUT CARD> 1  2-2.13170927E-03 0.00000000E+00 0.00000000E+00 6.57129898E-04-6.87950443E-05
 INPUT CARD> 1  3-6.87950443E-05 1.37590089E-04 0.00000000E+00 0.00000000E+00 0.00000000E+00
 INPUT CARD> 1  4 3.25502815E-04-4.84772356E-04 3.62525460E-04-6.27912517E-04-3.45956485E-04
 INPUT CARD> 1  5 3.25502815E-04-4.84772356E-04 3.62525460E-04 6.27912517E-04-3.45956485E-04
 INPUT CARD> 1  6 3.25502815E-04-4.84772356E-04-7.25050921E-04 0.00000000E+00-3.45956485E-04
 INPUT CARD> 2  1 1.31286642E-02-4.05911371E-01-2.82090992E-01 0.00000000E+00 0.00000000E+00
 INPUT CARD> 2  2-7.71489043E-02 0.00000000E+00 0.00000000E+00 9.73717494E-03 6.62450916E-04
 INPUT CARD> 2  3 6.62450916E-04-1.32490183E-03 0.00000000E+00 0.00000000E+00 0.00000000E+00
 INPUT CARD> 2  4-1.96090317E-01-1.96656153E-02-1.74855877E-02 3.02859263E-02 8.68214399E-03
 INPUT CARD> 2  5-1.96090317E-01-1.96656153E-02-1.74855877E-02-3.02859263E-02 8.68214399E-03
 INPUT CARD> 2  6-1.96090317E-01-1.96656153E-02 3.49711754E-02 0.00000000E+00 8.68214399E-03
 INPUT CARD> 3  1 0.00000000E+00 0.00000000E+00 0.00000000E+00 4.48608762E-01 0.00000000E+00
 INPUT CARD> 3  2 0.00000000E+00 2.18692520E-01 0.00000000E+00 0.00000000E+00 1.30198027E-02
 INPUT CARD> 3  3-1.30198027E-02 0.00000000E+00 0.00000000E+00 2.71832968E-02 0.00000000E+00
 INPUT CARD> 3  4-1.85332726E-01-7.03958951E-02 8.47929477E-03 1.95242443E-02 8.32835058E-03
 INPUT CARD> 3  5-1.85332726E-01-7.03958951E-02 8.47929477E-03-1.95242443E-02 8.32835058E-03
 INPUT CARD> 3  6 3.70665453E-01 1.40791790E-01-2.53376884E-02 0.00000000E+00-1.66567012E-02
 INPUT CARD> 4  1 0.00000000E+00 0.00000000E+00 0.00000000E+00 0.00000000E+00 4.48608762E-01
 INPUT CARD> 4  2 0.00000000E+00 0.00000000E+00 2.18692520E-01 0.00000000E+00 0.00000000E+00
 INPUT CARD> 4  3 0.00000000E+00 0.00000000E+00-1.50339731E-02 0.00000000E+00 2.71832968E-02
 INPUT CARD> 4  4 3.21005698E-01 1.21929267E-01 1.95242443E-02-1.40653607E-02-1.44251263E-02
  100000000 WORDS OF MEMORY AVAILABLE

     BASIS OPTIONS
     -------------
     GBASIS=CCD          IGAUSS=       0      POLAR=NONE    
     NDFUNC=       0     NFFUNC=       0     DIFFSP=       F
     NPFUNC=       0      DIFFS=       F     BASNAM=        


     RUN TITLE
     ---------
  NH3+ 3 states calculation at NH3 structure.                                    

 THE POINT GROUP OF THE MOLECULE IS C1      
 THE ORDER OF THE PRINCIPAL AXIS IS     0

 ATOM      ATOMIC                      COORDINATES (BOHR)
           CHARGE         X                   Y                   Z
 N           7.0     0.0117709482       -0.0353127596       -0.3200829787
 H           1.0    -0.7589178571        1.4893354201        0.6391825793
 H           1.0    -1.1921865762       -1.4123651629        0.3799794046
 H           1.0     1.7875439342        0.4137124760        0.4347551268

          INTERNUCLEAR DISTANCES (ANGS.)
          ------------------------------

                1 N          2 H          3 H          4 H     

   1 N       0.0000000    1.0367964 *  1.0364142 *  1.0483553 *
   2 H       1.0367964 *  0.0000000    1.5585842 *  1.4668067 *
   3 H       1.0364142 *  1.5585842 *  0.0000000    1.8495751 *
   4 H       1.0483553 *  1.4668067 *  1.8495751 *  0.0000000  

  * ... LESS THAN  3.000


     ATOMIC BASIS SET
     ----------------
 THE CONTRACTED PRIMITIVE FUNCTIONS HAVE BEEN UNNORMALIZED
 THE CONTRACTED BASIS FUNCTIONS ARE NOW NORMALIZED TO UNITY

  SHELL TYPE  PRIMITIVE        EXPONENT          CONTRACTION COEFFICIENT(S)

 N         

      1   S       1          9046.0000000    0.000699617413
      1   S       2          1357.0000000    0.005386054630
      1   S       3           309.3000000    0.027391021189
      1   S       4            87.7300000    0.103150591982
      1   S       5            28.5600000    0.278570663317
      1   S       6            10.2100000    0.448294849454
      1   S       7             3.8380000    0.278085928395
      1   S       8             0.7466000    0.015431561233

      2   S       9          9046.0000000   -0.000304990096
      2   S      10          1357.0000000   -0.002408026379
      2   S      11           309.3000000   -0.011944448725
      2   S      12            87.7300000   -0.048925992909
      2   S      13            28.5600000   -0.134472724725
      2   S      14            10.2100000   -0.315112577700
      2   S      15             3.8380000   -0.242857832550
      2   S      16             0.7466000    1.094382206854

      3   S      17             0.2248000    1.000000000000

      4   P      18            13.5500000    0.058905676772
      4   P      19             2.9170000    0.320461106714
      4   P      20             0.7973000    0.753042061792

      5   P      21             0.2185000    1.000000000000

      6   D      22             0.8170000    1.000000000000

 H         

      7   S      23            13.0100000    0.033498726390
      7   S      24             1.9620000    0.234800801174
      7   S      25             0.4446000    0.813682957883

      8   S      26             0.1220000    1.000000000000

      9   P      27             0.7270000    1.000000000000

 H         

     10   S      28            13.0100000    0.033498726390
     10   S      29             1.9620000    0.234800801174
     10   S      30             0.4446000    0.813682957883

     11   S      31             0.1220000    1.000000000000

     12   P      32             0.7270000    1.000000000000

 H         

     13   S      33            13.0100000    0.033498726390
     13   S      34             1.9620000    0.234800801174
     13   S      35             0.4446000    0.813682957883

     14   S      36             0.1220000    1.000000000000

     15   P      37             0.7270000    1.000000000000

 TOTAL NUMBER OF BASIS SET SHELLS             =   15
 NUMBER OF CARTESIAN GAUSSIAN BASIS FUNCTIONS =   30
 NOTE: THIS RUN WILL RESTRICT THE MO VARIATION SPACE TO SPHERICAL HARMONICS.
 THE NUMBER OF ORBITALS KEPT IN THE VARIATIONAL SPACE WILL BE PRINTED LATER.
 NUMBER OF ELECTRONS                          =    9
 CHARGE OF MOLECULE                           =    1
 SPIN MULTIPLICITY                            =    2
 NUMBER OF OCCUPIED ORBITALS (ALPHA)          =    5
 NUMBER OF OCCUPIED ORBITALS (BETA )          =    4
 TOTAL NUMBER OF ATOMS                        =    4
 THE NUCLEAR REPULSION ENERGY IS       11.6666517025

     $CONTRL OPTIONS
     ---------------
 SCFTYP=MCSCF        RUNTYP=ENERGY       EXETYP=RUN     
 MPLEVL=       2     CITYP =NONE         CCTYP =NONE         VBTYP =NONE    
 DFTTYP=NONE         TDDFT =NONE    
 MULT  =       2     ICHARG=       1     NZVAR =       0     COORD =UNIQUE  
 PP    =NONE         RELWFN=NONE         LOCAL =NONE         NUMGRD=       F
 ISPHER=       1     NOSYM =       1     MAXIT =     200     UNITS =ANGS    
 PLTORB=       F     MOLPLT=       F     AIMPAC=       F     FRIEND=        
 NPRINT=       7     IREST =       0     GEOM  =INPUT   
 NORMF =       0     NORMP =       0     ITOL  =      20     ICUT  =       9
 INTTYP=RYSQUAD      GRDTYP=BEST         QMTTOL= 1.0E-05

     $SYSTEM OPTIONS
     ---------------
  REPLICATED MEMORY=   100000000 WORDS (ON EVERY NODE).
 DISTRIBUTED MEMDDI=        1000 MILLION WORDS IN AGGREGATE,
 MEMDDI DISTRIBUTED OVER   1 PROCESSORS IS  1000000000 WORDS/PROCESSOR.
 TOTAL MEMORY REQUESTED ON EACH PROCESSOR=  1100000000 WORDS.
 TIMLIM=      525600.00 MINUTES, OR     365.0 DAYS.
 PARALL= T  BALTYP=  DLB     KDIAG=    3  COREFL= F
 MXSEQ2=     300 MXSEQ3=     150  mem10=         0

          ----------------
          PROPERTIES INPUT
          ----------------

     MOMENTS            FIELD           POTENTIAL          DENSITY
 IEMOM =       1   IEFLD =       0   IEPOT =       0   IEDEN =       0
 WHERE =COMASS     WHERE =NUCLEI     WHERE =NUCLEI     WHERE =NUCLEI  
 OUTPUT=BOTH       OUTPUT=BOTH       OUTPUT=BOTH       OUTPUT=BOTH    
 IEMINT=       0   IEFINT=       0                     IEDINT=       0
                                                       MORB  =       0

     -------------------------------
     INTEGRAL TRANSFORMATION OPTIONS
     -------------------------------
     NWORD  =            0
     CUTOFF = 1.0E-09     MPTRAN =       0
     DIRTRF =       T     AOINTS =DUP     

          ----------------------
          MCSCF INPUT PARAMETERS
          ----------------------
 CONVERGER SELECTION: FOCAS = F  SOSCF = F  FULLNR = T  QUD = F  JACOBI = F
 SECULAR EQUATION METHOD CISTEP = GMCCI   
 --- GENERAL INPUT OPTIONS:
 MAXIT =     100  MICIT =       1  ACURCY= 1.000E-06
 DAMP  =   0.000  CANONC=       T  ENGTOL= 1.000E-10
 EKT   =       F  NPUNCH=       2  NWORD =         0
 REGENERATE CI AFTER CONVERGENCE = NONE    
 DIABATIZATION AFTER CONVERGENCE =        F
 --- INPUT FOR FULLNR CONVERGER:
 METHOD=DM2       FORS  =       F  DROPC =       T
 LINSER=       F  FCORE =       F  NORB  =      30

          ----------------------
          INTEGRAL INPUT OPTIONS
          ----------------------
 NOPK  =       1 NORDER=       0 SCHWRZ=       T

 ------------------------------------------
 MULTIREFERENCE PERTURBATION THEORY CONTROL
 ------------------------------------------
 MRPT=GMCPT    READ CONVERGED MCSCF VECTORS= F


     ------------------------------------------
     THE POINT GROUP IS C1 , NAXIS= 1, ORDER= 1
     ------------------------------------------

 -- VARIATIONAL SPACE WILL BE RESTRICTED TO PURE SPHERICAL HARMONICS ONLY --
 AFTER EXCLUDING CONTAMINANT COMBINATIONS FROM THE CARTESIAN GAUSSIAN BASIS
 SET, THE NUMBER OF SPHERICAL HARMONICS KEPT IN THE VARIATION SPACE IS   29

     DIMENSIONS OF THE SYMMETRY SUBSPACES ARE
 A   =   29

 ..... DONE SETTING UP THE RUN .....
 CPU     0: STEP CPU TIME=     0.03 TOTAL CPU TIME=          0.0 (      0.0 MIN)
 TOTAL WALL CLOCK TIME=          0.0 SECONDS, CPU UTILIZATION IS    60.00%

          ********************
          1 ELECTRON INTEGRALS
          ********************
 TIME TO DO   DIPOLE INTEGRALS=      0.00
 ...... END OF ONE-ELECTRON INTEGRALS ......
 CPU     0: STEP CPU TIME=     0.00 TOTAL CPU TIME=          0.0 (      0.0 MIN)
 TOTAL WALL CLOCK TIME=          0.0 SECONDS, CPU UTILIZATION IS    60.00%

          -------------
          GUESS OPTIONS
          -------------
          GUESS =MOREAD            NORB  =      29          NORDER=       0
          MIX   =       F          PRTMO =       F          PUNMO =       F
          TOLZ  = 1.0E-08          TOLE  = 1.0E-05
          SYMDEN=       F          PURIFY=       T

 INITIAL GUESS ORBITALS GENERATED BY MOREAD   ROUTINE.

 STATISTICS FOR GENERATION OF SYMMETRY ORBITAL -Q- MATRIX
 NUMBER OF CARTESIAN ATOMIC ORBITALS=         30
 NUMBER OF SPHERICAL CONTAMINANTS DROPPED=     1
 NUMBER OF LINEARLY DEPENDENT MOS DROPPED=     0
 TOTAL NUMBER OF MOS IN VARIATION SPACE=      29
 ORBITAL PURIFICATION WILL OCCUR

 SYMMETRIES FOR INITIAL GUESS ORBITALS FOLLOW.   BOTH SET(S).
     5 ORBITALS ARE OCCUPIED (    1 CORE ORBITALS).
     1=A        2=A        3=A        4=A        5=A        6=A        7=A   
     8=A        9=A       10=A       11=A       12=A       13=A       14=A   
    15=A       16=A       17=A       18=A       19=A       20=A       21=A   
    22=A       23=A       24=A       25=A       26=A       27=A       28=A   
    29=A   
 ...... END OF INITIAL ORBITAL SELECTION ......
 CPU     0: STEP CPU TIME=     0.01 TOTAL CPU TIME=          0.0 (      0.0 MIN)
 TOTAL WALL CLOCK TIME=          0.0 SECONDS, CPU UTILIZATION IS    80.00%

                    ----------------------
                    AO INTEGRAL TECHNOLOGY
                    ----------------------
     S,P,L SHELL ROTATED AXIS INTEGRALS, REPROGRAMMED BY
        KAZUYA ISHIMURA (IMS) AND JOSE SIERRA (SYNSTAR).
     S,P,D,L SHELL ROTATED AXIS INTEGRALS PROGRAMMED BY
        KAZUYA ISHIMURA (INSTITUTE FOR MOLECULAR SCIENCE).
     S,P,D,F,G SHELL TO TOTAL QUARTET ANGULAR MOMENTUM SUM 5,
        ERIC PROGRAM BY GRAHAM FLETCHER (ELORET AND NASA ADVANCED
        SUPERCOMPUTING DIVISION, AMES RESEARCH CENTER).
     S,P,D,F,G,L SHELL GENERAL RYS QUADRATURE PROGRAMMED BY
        MICHEL DUPUIS (PACIFIC NORTHWEST NATIONAL LABORATORY).

          --------------------
          2 ELECTRON INTEGRALS
          --------------------

 DIRECT SCF METHOD SKIPS INTEGRAL STORAGE ON DISK.
 DIRECT TRANSFORMATION SKIPS AO INTEGRAL STORAGE ON DISK.
  ...... END OF TWO-ELECTRON INTEGRALS .....
 STEP CPU TIME =     0.02 TOTAL CPU TIME =          0.1 (      0.0 MIN)
 TOTAL WALL CLOCK TIME=          0.1 SECONDS, CPU UTILIZATION IS    75.00%
 DDI: Creating Array [0] - 900 x 36 = 32400 words.
 DDI: Creating Array [1] - 21 x 288 = 6048 words.
 DDI: Creating Array [2] - 36 x 36 = 1296 words.
 DDI: Creating Array [3] - 465 x 36 = 16740 words.

          -----------------
          MCSCF CALCULATION
          -----------------

 ----- NUCLEAR ENERGY ----- =        11.6666517025

     -------------------------------------------------
     GMC-PT/GMC-QDPT or general MCSCF input parameters
     -------------------------------------------------
 # of frozen core orbs. =         0 ->         0
 # of doubly occ. orbs. =         1
 # of active      orbs. =         7
 # of virtual     orbs. =        21
 # of active electrons  =         7
 # of states in CI      =         3
 Highest state in CI    =         3
 kstate =  1 1 1
 avecoe =  0.333 0.333 0.333
 State symmetry           = A           
 Assigned symmetry number = 1

 <<<Act. MO sym.: 1111111

 <<<Division of 1-ext.:  0
 <<<Division of 2-ext.:  0

 *** Reference space

 Reference type: ORMAS (= Occupation restricted multiple active space)
 # of orbitals          =  7
 # of minimum electrons =  7
 # of maximum electrons =  7
 State symmetry    =    1 (input)
 2*Sz              =    1 (input)
 Spin multiplicity =    2 (input)
 Dimension of reference space =      1225  (from      3432 walks)

 Dimension of reference space =      1225  (from      1225 walks)

 <<<Ionized spaces for Ref-CI:
      0:         1225 /   -1-0:         1960 /  0-1-0:         2891

 EVALUATING EXCHANGE INTEGRALS FOR DIRECT INTEGRAL TRANSFORMATION
 SCHWARZ INEQUALITY OVERHEAD:       465 INTEGRALS, T=        0.00

     --------------------------------------------
     PARTIAL TWO ELECTRON INTEGRAL TRANSFORMATION
     --------------------------------------------

 NUMBER OF CORE MOLECULAR ORBITALS     =    1
 NUMBER OF OCCUPIED MOLECULAR ORBITALS =    8
 TOTAL NUMBER OF MOLECULAR ORBITALS    =   29
 TOTAL NUMBER OF ATOMIC ORBITALS       =   30
 THRESHOLD FOR KEEPING TRANSFORMED 2E- INTEGRALS = 1.000E-09

 -------------------------------     ------------------------------
 DISTRIBUTED DATA TRANSFORMATION     PROGRAM WRITTEN BY G. FLETCHER
 -------------------------------     ------------------------------

 THE DISTRIBUTED MEMORY REQUIRED FOR THIS STEP IS MEMDDI=         1 MWORDS
 CREATING DISTRIBUTED STORAGE FOR [VIR OCC|VIR OCC] INTEGRALS
 CREATING DISTRIBUTED STORAGE FOR [VIR OCC|OCC OCC] INTEGRALS
 CREATING DISTRIBUTED STORAGE FOR [OCC OCC|OCC OCC] INTEGRALS
 CREATING DISTRIBUTED STORAGE FOR [VIR VIR|OCC OCC] INTEGRALS
 FOR    1 PROCESSORS, THE REPLICATED MEMORY NEEDED IS       73700 WORDS.
 SCHWARZ INEQUALITY OVERHEAD:       465 INTEGRALS, T=        0.00

      DIRECT 4-INDEX TRANSFORMATION 
      SCHWARZ INEQUALITY TEST SKIPPED          0 INTEGRAL BLOCKS
 ----- FROZEN CORE ENERGY =       -47.7836135991
 ... END OF INTEGRAL TRANSFORMATION ...
 CPU     0: STEP CPU TIME=     0.22 TOTAL CPU TIME=          0.3 (      0.0 MIN)
 TOTAL WALL CLOCK TIME=          0.3 SECONDS, CPU UTILIZATION IS    93.33%

     --------------------------------     -----------------------------
     MCHF NEWTON-RAPHSON OPTIMIZATION     CODE WRITTEN BY MICHEL DUPUIS
     --------------------------------     -----------------------------
     PARALLEL VERSION WRITTEN BY G. FLETCHER (ELORET)
     NASA ADVANCED SUPERCOMPUTING DIVISION, AMES RESEARCH CENTER

 NUMBER OF INDEPENDENT ORBITAL ROTATION PARAMETERS =   175
 ..... DONE SOLVING NEWTON-RAPHSON EQUATIONS .....
 CPU     0: STEP CPU TIME=     0.71 TOTAL CPU TIME=          1.0 (      0.0 MIN)
 TOTAL WALL CLOCK TIME=          1.0 SECONDS, CPU UTILIZATION IS    98.02%
 ..... DONE WITH NTN-RPH ORBITAL ROTATIONS ..... 
 CPU     0: STEP CPU TIME=     0.00 TOTAL CPU TIME=          1.0 (      0.0 MIN)
 TOTAL WALL CLOCK TIME=          1.0 SECONDS, CPU UTILIZATION IS    98.02%
 MAXIMUM MEMORY USED BY NTN-RPH CODE WAS     57645 WORDS.

 ITER     TOTAL ENERGY      DEL(E)  LAGRANGIAN ASYMMETRY   SQCDF  MICIT   DAMP
   1      -55.672264529 -0.672264529  0.127480   12    5 1.621E-01  1   0.0000
   2      -55.710275876 -0.038011347  0.024029   12    5 4.518E-01  1   0.0000
   3      -55.742688993 -0.032413117  0.012186   12    5 2.114E-01  1   0.0258
   4      -55.756142810 -0.013453817  0.004134   11    6 3.715E-02  1   0.0044
   5      -55.757759118 -0.001616308  0.000720   12    5 1.027E-03  1   0.0000
   6      -55.757804762 -0.000045644  0.000236   12    5 7.835E-05  1   0.0000
   7      -55.757809052 -0.000004291  0.000105   12    5 1.078E-05  1   0.0000
   8      -55.757809690 -0.000000638  0.000046   12    5 1.699E-06  1   0.0000
   9      -55.757809796 -0.000000105  0.000019   12    5 2.969E-07  1   0.0000
  10      -55.757809815 -0.000000019  0.000008   12    5 5.889E-08  1   0.0000
  11      -55.757809819 -0.000000004  0.000004   12    8 1.353E-08  1   0.0000
  12      -55.757809820 -0.000000001  0.000002   12    8 3.539E-09  1   0.0000
  13      -55.757809820 -0.000000000  0.000001   12    8 1.015E-09  1   0.0000
  14      -55.757809820 -0.000000000  0.000001   12    8 3.084E-10  1   0.0000

          --------------------
          LAGRANGIAN CONVERGED
          --------------------

 FINAL MCSCF ENERGY IS      -55.7578098200 AFTER  14 ITERATIONS

 -MCCI- BASED ON OPTIMIZED ORBITALS
 ----------------------------------

 PLEASE NOTE: IF THE ACTIVE ORBITALS ARE CANONICALIZED BELOW,
 THE FOLLOWING CI EXPANSION COEFFICIENTS AND THE DENSITY DO NOT
 CORRESPOND TO THE PRINTED ORBITALS.  THE PRINTED EXPANSIONS MATCH
 THE ORBITALS USED DURING THE LAST ITERATION.  IF YOU WISH TO SEE
 CI EXPANSIONS BASED ON THE CANONICAL (OR NATURAL) ORBITALS, YOU
 MUST RUN A CI CALCULATION WITH THAT ORBITAL CHOICE READ IN $VEC.

 Averaged energy =     -55.757809820

 State #    1  Energy =     -55.899774835  S =  0.500

      Det      Coef    Occupancy (Ignoring core)
      ---      ----    --------- --------- -----
        1    0.945934  11110001110000
        2    0.055434  11101001110000
        5   -0.061143  01111001110000
        8   -0.129002  10110101110000
       17    0.126612  11010011110000
       36    0.111426  11110001101000
      386    0.103632  11110001010010
      393    0.055742  10110101010010
      701   -0.096508  11110001100001
      717    0.063649  11010011100001

 State #    2  Energy =     -55.728989472  S =  0.500

      Det      Coef    Occupancy (Ignoring core)
      ---      ----    --------- --------- -----
        1    0.116033  11110001110000
       36   -0.776436  11110001101000
       43    0.075962  10110101101000
       52   -0.056450  11010011101000
       71   -0.566883  11110001011000
       87   -0.052870  11010011011000
      456   -0.081447  11110001001010
      806   -0.057752  11110001001001

 State #    3  Energy =     -55.644665154  S =  0.500

      Det      Coef    Occupancy (Ignoring core)
      ---      ----    --------- --------- -----
       36   -0.569077  11110001101000
       43    0.052217  10110101101000
       71    0.785592  11110001011000
       78   -0.050362  10110101011000
       87    0.067103  11010011011000
      316    0.053803  11110000011100
      456   -0.053022  11110001001010
      806    0.078251  11110001001001
      822   -0.056115  11010011001001

 DENSITY MATRIX OVER ACTIVE MO-S

             1           2           3           4           5

    1    1.9791869
    2   -0.0041609   1.6362575
    3    0.0095221  -0.0000877   1.6364635
    4    0.0031081  -0.0007100   0.0011906   1.6553747
    5    0.0956315   0.0057058  -0.0111337   0.0425428   0.0246713
    6   -0.0009930  -0.1438732  -0.0130817  -0.0073383  -0.0014762
    7   -0.0022959  -0.0067057  -0.1383911   0.0173262   0.0023588

             6           7

    6    0.0333388
    7   -0.0008926   0.0347073

 FORMING THE "STANDARD FOCK OPERATOR" IN DIRECT AO INTEGRAL MODE...
 ONLY THE    1 CORE AND   21 VIRTUAL ORBITALS WILL BE CANONICALIZED

          ----------------------
          MCSCF NATURAL ORBITALS
          ----------------------

                      1          2          3          4          5
                  -15.9865     1.9842     1.6567     1.6504     1.6469
                     A          A          A          A          A   
    1  N  1  S    1.001307   0.008703  -0.011012  -0.000578  -0.001720
    2  N  1  S   -0.001801   0.438762  -0.180165  -0.022983  -0.049099
    3  N  1  S   -0.006366   0.287988  -0.283537  -0.032045  -0.072743
    4  N  1  X   -0.000020  -0.009948   0.010009   0.375295  -0.331324
    5  N  1  Y   -0.000020   0.023516  -0.071871   0.312898   0.394519
    6  N  1  Z    0.001154   0.096752   0.592513   0.031367   0.032222
    7  N  1  X   -0.000026   0.002024   0.014201   0.140118  -0.157612
    8  N  1  Y    0.000051  -0.003538  -0.052043   0.118072   0.189479
    9  N  1  Z   -0.000439   0.005906   0.383371   0.014303   0.001532
   10  N  1 XX    0.000161  -0.000541  -0.011933   0.002824  -0.008778
   11  N  1 YY    0.000024  -0.000572  -0.012348  -0.004337   0.007102
   12  N  1 ZZ   -0.000185   0.001113   0.024281   0.001514   0.001676
   13  N  1 XY    0.000269   0.000908   0.000896  -0.005337  -0.012883
   14  N  1 XZ   -0.000047  -0.000113  -0.000703   0.017637  -0.016395
   15  N  1 YZ    0.000104   0.001067  -0.000824   0.015392   0.020064
   16  H  2  S   -0.002007   0.207321   0.090880   0.077241   0.375483
   17  H  2  S    0.000347   0.007106   0.020632   0.009900   0.068869
   18  H  2  X   -0.000435   0.016037   0.008311   0.022525   0.009567
   19  H  2  Y    0.000840  -0.031872  -0.016244   0.004896  -0.027314
   20  H  2  Z    0.000482  -0.013463   0.019776  -0.002946  -0.019636
   21  H  3  S   -0.002045   0.183158   0.128555  -0.351642  -0.101804
   22  H  3  S    0.000548   0.000757   0.028453  -0.043315  -0.020691
   23  H  3  X   -0.000642   0.022471   0.011562  -0.017985  -0.019759
   24  H  3  Y   -0.000835   0.028705   0.013572  -0.028293   0.007399
   25  H  3  Z    0.000418  -0.006212   0.018335   0.016682   0.005721
   26  H  4  S   -0.001981   0.184677   0.100428   0.307132  -0.214188
   27  H  4  S    0.000496   0.001064   0.025950   0.039122  -0.041056
   28  H  4  X    0.000993  -0.034931  -0.015277  -0.031407   0.013482
   29  H  4  Y    0.000174  -0.007037  -0.003541   0.004237   0.021004
   30  H  4  Z    0.000431  -0.007441   0.019712  -0.012834   0.010847

                      6          7          8
                    0.0246     0.0188     0.0185
                     A          A          A   
    1  N  1  S   -0.081826   0.064607   0.237652
    2  N  1  S   -0.253544   0.215155   0.756704
    3  N  1  S    0.015130   0.070252   0.147995
    4  N  1  X   -0.494633   0.682455  -0.375224
    5  N  1  Y    0.660098   0.600992   0.020877
    6  N  1  Z   -0.089647   0.228290   0.642543
    7  N  1  X   -0.003880   0.049718  -0.035808
    8  N  1  Y    0.005991   0.057553   0.028176
    9  N  1  Z    0.024380  -0.027988  -0.096473
   10  N  1 XX    0.017133   0.022002  -0.006213
   11  N  1 YY   -0.015806  -0.017656   0.013869
   12  N  1 ZZ   -0.001327  -0.004346  -0.007657
   13  N  1 XY    0.033620  -0.020983  -0.015403
   14  N  1 XZ    0.014725  -0.036480   0.025657
   15  N  1 YZ   -0.017281  -0.039069  -0.019443
   16  H  2  S   -0.584382  -0.281834  -0.593406
   17  H  2  S   -0.133776  -0.040299  -0.079451
   18  H  2  X   -0.013823  -0.046374  -0.027642
   19  H  2  Y    0.033597   0.010871   0.072528
   20  H  2  Z    0.014439  -0.003992  -0.006627
   21  H  3  S    0.393085   0.491179  -0.627501
   22  H  3  S    0.066652   0.106222  -0.080474
   23  H  3  X    0.037366   0.020211  -0.044088
   24  H  3  Y    0.019406   0.032929  -0.069524
   25  H  3  Z   -0.004528   0.003291  -0.015231
   26  H  4  S    0.529171  -0.670982  -0.189757
   27  H  4  S    0.099204  -0.119246   0.002838
   28  H  4  X   -0.046708   0.071740   0.041440
   29  H  4  Y   -0.027232  -0.003223   0.002910
   30  H  4  Z   -0.006343  -0.012982  -0.012015

          ------------------------
          MCSCF OPTIMIZED ORBITALS
          ------------------------

                      1          2          3          4          5
                  -15.9865     0.0000     0.0000     0.0000     0.0000
                     A          A          A          A          A   
    1  N  1  S    1.001307  -0.003630  -0.000314   0.003813  -0.017958
    2  N  1  S   -0.001801   0.402276   0.005177  -0.013021  -0.199008
    3  N  1  S   -0.006366   0.286447   0.018430  -0.049017  -0.287500
    4  N  1  X   -0.000020  -0.003376   0.416012  -0.039029   0.006930
    5  N  1  Y   -0.000020   0.006707  -0.007168   0.430296  -0.022369
    6  N  1  Z    0.001154   0.053248  -0.000557  -0.001017   0.578442
    7  N  1  X   -0.000026   0.005875   0.201668  -0.042059   0.012886
    8  N  1  Y    0.000051  -0.011371  -0.025682   0.221378  -0.034627
    9  N  1  Z   -0.000439   0.005085   0.007638  -0.022188   0.385545
   10  N  1 XX    0.000161  -0.000036   0.006716  -0.006584  -0.011963
   11  N  1 YY    0.000024  -0.001054  -0.006707   0.006047  -0.012597
   12  N  1 ZZ   -0.000185   0.001090  -0.000010   0.000537   0.024560
   13  N  1 XY    0.000269   0.002695   0.006184  -0.014688   0.000847
   14  N  1 XZ   -0.000047  -0.000181   0.027910  -0.000856  -0.000836
   15  N  1 YZ    0.000104   0.001689   0.001173   0.028239   0.001624
   16  H  2  S   -0.002007   0.219095  -0.196844   0.387902   0.125712
   17  H  2  S    0.000347   0.007519  -0.040231   0.068858   0.025121
   18  H  2  X   -0.000435   0.017261   0.013387   0.024091   0.010999
   19  H  2  Y    0.000840  -0.033897   0.024015  -0.020088  -0.019165
   20  H  2  Z    0.000482  -0.012629   0.010439  -0.019977   0.018541
   21  H  3  S   -0.002045   0.211104  -0.253039  -0.358021   0.122979
   22  H  3  S    0.000548   0.003875  -0.028512  -0.055785   0.027009
   23  H  3  X   -0.000642   0.025020  -0.003465  -0.030785   0.011162
   24  H  3  Y   -0.000835   0.031262  -0.030752  -0.015488   0.014528
   25  H  3  Z    0.000418  -0.006203   0.008643   0.012964   0.019687
   26  H  4  S   -0.001981   0.211349   0.434678   0.014228   0.123817
   27  H  4  S    0.000496   0.004381   0.068588  -0.010733   0.027808
   28  H  4  X    0.000993  -0.038272  -0.038290  -0.008528  -0.018793
   29  H  4  Y    0.000174  -0.007978  -0.010331   0.021168  -0.002631
   30  H  4  Z    0.000431  -0.007239  -0.016523  -0.000118   0.019689

                      6          7          8          9         10
                    0.0000     0.0000     0.0000     0.1542     0.2005
                     A          A          A          A          A   
    1  N  1  S    0.257556   0.000646  -0.029368  -0.157119  -0.012042
    2  N  1  S    0.838218   0.005420  -0.082599  -0.242982  -0.023930
    3  N  1  S    0.162495  -0.012171   0.052082   1.553974   0.062878
    4  N  1  X   -0.019224   0.962766  -0.009173   0.012842  -0.092081
    5  N  1  Y    0.058404   0.094673   0.926553  -0.028507  -0.065298
    6  N  1  Z    0.703352  -0.025482   0.051812  -0.234319  -0.025194
    7  N  1  X   -0.014859   0.071181   0.022860  -0.035050   0.501097
    8  N  1  Y    0.039713   0.028674   0.057537   0.109072   0.543972
    9  N  1  Z   -0.092982   0.005373  -0.002117   0.539578   0.070148
   10  N  1 XX   -0.002856   0.010330   0.026410   0.035727   0.019650
   11  N  1 YY    0.010320  -0.010837  -0.022598   0.010933  -0.024829
   12  N  1 ZZ   -0.007465   0.000507  -0.003813  -0.046659   0.005179
   13  N  1 XY   -0.028067  -0.027481   0.014107   0.049918  -0.060051
   14  N  1 XZ    0.008992  -0.042909  -0.009154  -0.012918   0.067813
   15  N  1 YZ   -0.026518  -0.012388  -0.034400   0.036126   0.083810
   16  H  2  S   -0.496575   0.316344  -0.609570   0.161106   0.236558
   17  H  2  S   -0.055939   0.069119  -0.127262  -0.690925  -0.850442
   18  H  2  X   -0.036093  -0.015480  -0.036195  -0.030899  -0.042761
   19  H  2  Y    0.061043  -0.035999   0.032223   0.092392   0.021524
   20  H  2  Z   -0.010555  -0.007348   0.007631   0.050525   0.036423
   21  H  3  S   -0.497305   0.378417   0.575510   0.310797  -0.531015
   22  H  3  S   -0.054509   0.072789   0.111253  -0.917433   1.871321
   23  H  3  X   -0.040970   0.011806   0.039658  -0.074295   0.059463
   24  H  3  Y   -0.056276   0.038599   0.033572  -0.081502   0.072997
   25  H  3  Z   -0.011880   0.011766  -0.000832   0.008909  -0.076282
   26  H  4  S   -0.490043  -0.677721   0.045265   0.302406   0.268338
   27  H  4  S   -0.055862  -0.138231   0.010936  -0.930349  -1.053708
   28  H  4  X    0.068911   0.059621   0.002676   0.097346   0.066648
   29  H  4  Y    0.007094   0.010274  -0.022368   0.041031  -0.009089
   30  H  4  Z   -0.013688  -0.003144  -0.013004   0.021459   0.066390

                     11         12         13         14         15
                    0.2047     0.5404     0.5935     0.6273     0.8029
                     A          A          A          A          A   
    1  N  1  S    0.027710   0.048798  -0.012807   0.098144  -0.096170
    2  N  1  S    0.052547   0.048936  -0.078001   0.351328  -0.218932
    3  N  1  S   -0.189391  -0.394838  -0.160796   0.121272   0.411088
    4  N  1  X   -0.039499   0.294169  -0.441861  -0.059482  -0.082460
    5  N  1  Y   -0.017197  -0.511298  -0.143534  -0.225369  -0.054320
    6  N  1  Z    0.047223   0.311362   0.214286  -0.584831   0.075047
    7  N  1  X    0.469004  -0.718880   1.698129   0.276379   0.508704
    8  N  1  Y   -0.210767   1.359925   0.625066   1.040121   0.343528
    9  N  1  Z   -0.130239  -0.405513  -0.359427   1.002056  -0.000861
   10  N  1 XX    0.062136  -0.004075  -0.032010  -0.046093   0.130386
   11  N  1 YY   -0.058018   0.018632   0.053155  -0.016901  -0.108884
   12  N  1 ZZ   -0.004118  -0.014557  -0.021145   0.062993  -0.021502
   13  N  1 XY    0.061069  -0.011040   0.037122  -0.014531  -0.092252
   14  N  1 XZ    0.074028  -0.018929  -0.001647   0.002328  -0.110205
   15  N  1 YZ   -0.044784   0.035250   0.004755  -0.035332  -0.068094
   16  H  2  S   -0.551629  -0.260096   0.260971  -0.751959  -0.002640
   17  H  2  S    1.921072  -0.937799   0.188943  -0.305826  -0.078135
   18  H  2  X    0.030823  -0.031388   0.088376  -0.019728  -0.474668
   19  H  2  Y   -0.085549   0.112827   0.035536   0.031054  -0.163472
   20  H  2  Z   -0.058461   0.076955  -0.036188   0.040201  -0.027357
   21  H  3  S    0.089660   0.407308   0.732427  -0.071516   0.116496
   22  H  3  S   -0.172248   0.537814   0.572651   0.586239   0.114096
   23  H  3  X   -0.022216   0.021647   0.166320   0.098430  -0.076549
   24  H  3  Y    0.033543   0.065305   0.013525   0.080405   0.275549
   25  H  3  Z   -0.014711  -0.069309  -0.024557   0.065783   0.265420
   26  H  4  S    0.485430   0.346610  -0.483586  -0.590508  -0.127563
   27  H  4  S   -1.586355   0.531672  -0.798418   0.048101  -0.273141
   28  H  4  X    0.057598  -0.060250   0.114037   0.016635   0.307833
   29  H  4  Y    0.026695   0.022668   0.161542   0.019695  -0.280302
   30  H  4  Z    0.038318  -0.073482  -0.001601   0.020500  -0.244798

                     16         17         18         19         20
                    0.9630     0.9886     1.3135     1.4749     1.5267
                     A          A          A          A          A   
    1  N  1  S   -0.550134  -0.158174   0.009197  -0.564485  -0.191637
    2  N  1  S   -1.168779  -0.335358   0.018827  -1.166817  -0.382909
    3  N  1  S    2.366337   0.851918  -0.031071   2.176795   0.912581
    4  N  1  X    0.018286   0.039268  -0.184750   0.001719  -0.081472
    5  N  1  Y   -0.056538  -0.038414  -0.088852  -0.010456   0.110873
    6  N  1  Z    0.173681   0.062619   0.003626  -0.030528   0.018222
    7  N  1  X   -0.098841  -0.274457   0.695437  -0.068829  -0.041977
    8  N  1  Y    0.257531   0.297108   0.408941  -0.193828   0.774347
    9  N  1  Z   -0.037575   0.286075  -0.000965   0.902392   0.439142
   10  N  1 XX   -0.111027  -0.048931   0.058260   0.139737  -0.002451
   11  N  1 YY   -0.100727   0.137836  -0.061437   0.131515  -0.004879
   12  N  1 ZZ    0.211755  -0.088905   0.003178  -0.271251   0.007330
   13  N  1 XY    0.021507  -0.123635  -0.038467   0.001266   0.034433
   14  N  1 XZ    0.022882   0.146999   0.017115   0.004672   0.064578
   15  N  1 YZ   -0.034043  -0.177321  -0.000090   0.010040  -0.128848
   16  H  2  S   -0.437375  -0.239870   0.008495  -0.560134  -0.433893
   17  H  2  S   -0.344075  -0.233794  -0.005857  -0.181498  -0.337750
   18  H  2  X    0.079740  -0.132423   0.199869   0.087634  -0.220991
   19  H  2  Y   -0.062972   0.364950   0.152334   0.198672  -0.093183
   20  H  2  Z    0.300255  -0.464633  -0.001980  -0.316168   0.573001
   21  H  3  S   -0.295496  -0.109130   0.366086  -0.676414  -0.051990
   22  H  3  S   -0.318011  -0.096613   0.163277  -0.229923   0.107954
   23  H  3  X    0.019730   0.267488  -0.580115  -0.250306   0.289469
   24  H  3  Y    0.009834  -0.325889   0.208023   0.249008  -0.410248
   25  H  3  Z    0.310098   0.068937  -0.303770  -0.303230  -0.657163
   26  H  4  S   -0.333384  -0.050787  -0.365321  -0.557483  -0.325287
   27  H  4  S   -0.305789  -0.038035  -0.142494  -0.142016  -0.009629
   28  H  4  X   -0.051460   0.090651  -0.126619  -0.063199   0.083383
   29  H  4  Y    0.027251  -0.295766  -0.611604   0.326524  -0.350843
   30  H  4  Z    0.343430   0.170731   0.320105  -0.433330  -0.304863

                     21         22         23         24         25
                    1.5999     1.8317     1.8877     2.0279     2.2093
                     A          A          A          A          A   
    1  N  1  S   -0.051354   0.100213  -0.010711   0.105902  -0.121881
    2  N  1  S   -0.106366   0.191076  -0.013738   0.338393  -0.249993
    3  N  1  S    0.164113  -0.583760   0.088667   1.618847   0.319194
    4  N  1  X    0.093110  -0.144779   0.525920  -0.055258  -0.004948
    5  N  1  Y   -0.087276   0.389665   0.319173   0.094629  -0.100209
    6  N  1  Z   -0.014361   0.026365   0.017671   0.356848  -0.029306
    7  N  1  X    0.864329   0.171180   0.052179   0.104405  -0.073044
    8  N  1  Y    0.301821  -0.144221   0.061928  -0.182312   0.099782
    9  N  1  Z    0.062892  -0.225983   0.046628   0.666335   0.451669
   10  N  1 XX    0.012874   0.035173  -0.230875  -0.170045  -0.334676
   11  N  1 YY    0.048027  -0.146243   0.200314  -0.114573  -0.436852
   12  N  1 ZZ   -0.060901   0.111070   0.030561   0.284617   0.771527
   13  N  1 XY   -0.015427   0.221948   0.140091  -0.100478   0.520148
   14  N  1 XZ   -0.130629   0.036388  -0.164535   0.111608  -0.168250
   15  N  1 YZ    0.021619  -0.111367  -0.086945  -0.156597   0.480492
   16  H  2  S   -0.060454   0.313165  -0.028833  -0.388562  -0.151035
   17  H  2  S    0.121104  -0.391299   0.017151  -0.179147   0.024185
   18  H  2  X   -0.652557  -0.523614   0.176649  -0.294482  -0.143844
   19  H  2  Y   -0.459026   0.649746   0.069960   0.630428   0.080015
   20  H  2  Z   -0.263954   0.172715   0.019030   0.188001  -0.679434
   21  H  3  S    0.260579   0.093705  -0.041035  -0.450887  -0.129364
   22  H  3  S    0.126717   0.325212   0.328396  -0.331329  -0.063937
   23  H  3  X   -0.141934   0.267112   0.271906  -0.754074   0.068798
   24  H  3  Y   -0.068272   0.484916   0.609870  -0.418560  -0.212524
   25  H  3  Z   -0.429146  -0.045938  -0.391966  -0.082870  -0.182352
   26  H  4  S   -0.340049   0.066429   0.002537  -0.441423  -0.097566
   27  H  4  S   -0.284993   0.272616  -0.382295  -0.311166   0.012163
   28  H  4  X   -0.123455  -0.529421   0.773166   0.664196   0.087489
   29  H  4  Y    0.318865   0.086844  -0.076808   0.529106  -0.297343
   30  H  4  Z    0.611307   0.110836   0.348635  -0.055623  -0.321224

                     26         27         28         29
                    2.3515     2.5474     2.7322     2.9892
                     A          A          A          A   
    1  N  1  S    0.027003  -0.042443  -0.020680   0.025160
    2  N  1  S    0.038737   0.062535  -0.041524   0.094794
    3  N  1  S   -0.311821   2.223607  -0.013134   0.487713
    4  N  1  X   -0.085089  -0.121647   0.529757   0.273110
    5  N  1  Y   -0.077426   0.176002   0.329559  -0.499623
    6  N  1  Z   -0.034780   0.334954  -0.007157   0.045733
    7  N  1  X    0.281833  -0.279463   1.243064   0.435892
    8  N  1  Y   -0.036790   0.631199   0.790429  -0.808798
    9  N  1  Z   -0.146589   0.538068   0.023337  -0.035642
   10  N  1 XX   -0.791698   0.305417   0.494546   0.778193
   11  N  1 YY    0.830924   0.401229  -0.524458  -0.436930
   12  N  1 ZZ   -0.039226  -0.706646   0.029912  -0.341263
   13  N  1 XY    0.362608   0.385208  -0.323387   1.178318
   14  N  1 XZ    0.608130  -0.300008   1.037349   0.401819
   15  N  1 YZ    0.048145   0.778348   0.648054  -0.683419
   16  H  2  S    0.160768  -1.182539  -0.039913   1.133743
   17  H  2  S    0.090353  -0.476336  -0.001794   0.388727
   18  H  2  X   -0.432731  -0.408935  -0.151098   0.373707
   19  H  2  Y   -0.386147   0.654713  -0.086355  -0.764225
   20  H  2  Z    0.076608   0.477744  -0.014690  -0.476044
   21  H  3  S    0.083573  -0.621612   1.174912  -0.853389
   22  H  3  S   -0.013466  -0.120098   0.466220  -0.267919
   23  H  3  X   -0.401157  -0.089905   0.599242  -0.420037
   24  H  3  Y    0.296902  -0.459264   0.627619  -0.534343
   25  H  3  Z    0.264734   0.441324  -0.210980   0.387212
   26  H  4  S    0.055198  -0.627925  -1.123897  -0.844335
   27  H  4  S    0.029792  -0.102228  -0.447930  -0.274029
   28  H  4  X   -0.067967   0.405075   0.781505   0.690412
   29  H  4  Y   -0.233096  -0.235253   0.241125   0.151159
   30  H  4  Z   -0.276335   0.359117   0.223337   0.415044
 .....DONE WITH MCSCF ITERATIONS.....
 CPU     0: STEP CPU TIME=     8.67 TOTAL CPU TIME=          9.7 (      0.2 MIN)
 TOTAL WALL CLOCK TIME=          9.7 SECONDS, CPU UTILIZATION IS    99.90%

     ----------------------------------------------------------------
     PROPERTY VALUES FOR THE MCSCF SELF-CONSISTENT FIELD WAVEFUNCTION
     ----------------------------------------------------------------

          -----------------
          ENERGY COMPONENTS
          -----------------

         WAVEFUNCTION NORMALIZATION =       1.0000000000

                ONE ELECTRON ENERGY =     -94.7527750306
                TWO ELECTRON ENERGY =      27.3283135082
           NUCLEAR REPULSION ENERGY =      11.6666517025
                                      ------------------
                       TOTAL ENERGY =     -55.7578098200

 ELECTRON-ELECTRON POTENTIAL ENERGY =      27.3283135082
  NUCLEUS-ELECTRON POTENTIAL ENERGY =    -150.6494751580
   NUCLEUS-NUCLEUS POTENTIAL ENERGY =      11.6666517025
                                      ------------------
             TOTAL POTENTIAL ENERGY =    -111.6545099474
               TOTAL KINETIC ENERGY =      55.8967001274
                 VIRIAL RATIO (V/T) =       1.9975152324

          ---------------------------------------
          MULLIKEN AND LOWDIN POPULATION ANALYSES
          ---------------------------------------

     ATOMIC MULLIKEN POPULATION IN EACH MOLECULAR ORBITAL

                      1          2          3          4          5

                  2.000000   1.984228   1.656663   1.650392   1.646899

    1             2.000990   1.303406   1.544055   0.927009   1.050553
    2            -0.000344   0.264277   0.032051   0.027712   0.410116
    3            -0.000334   0.206195   0.048473   0.394863   0.039825
    4            -0.000312   0.210349   0.032084   0.300808   0.146404

                      6          7          8

                  0.024558   0.018791   0.018469

    1             0.012034   0.010132   0.009866
    2             0.005324   0.000916   0.003856
    3             0.002561   0.002607   0.004385
    4             0.004640   0.005136   0.000361
 WARNING! MCSCF POPULATIONS SHOWN ABOVE ARE FOR THE NATURAL ORBITALS.
 IGNORE THE ABOVE DATA FOR MCSCF FUNCTIONS WHICH ARE NOT OF -FORS- TYPE.
 THE FOLLOWING POPULATIONS ARE CORRECT FOR ANY MCSCF WAVEFUNCTION.

               ----- POPULATIONS IN EACH AO -----
                             MULLIKEN      LOWDIN
              1  N  1  S      2.00270     1.89482
              2  N  1  S      0.82709     0.57624
              3  N  1  S      0.62604     0.39144
              4  N  1  X      0.68447     0.60831
              5  N  1  Y      0.69630     0.62515
              6  N  1  Z      0.88703     0.82886
              7  N  1  X      0.28953     0.39199
              8  N  1  Y      0.30828     0.40045
              9  N  1  Z      0.51773     0.55484
             10  N  1 XX      0.00056     0.17148
             11  N  1 YY      0.00196     0.16325
             12  N  1 ZZ      0.00361     0.14207
             13  N  1 XY      0.00618     0.01218
             14  N  1 XZ      0.00657     0.01158
             15  N  1 YZ      0.00000     0.01246
             16  H  2  S      0.63965     0.49484
             17  H  2  S      0.04424     0.14132
             18  H  2  X      0.01468     0.02783
             19  H  2  Y      0.02784     0.04748
             20  H  2  Z      0.01750     0.04286
             21  H  3  S      0.60900     0.47278
             22  H  3  S      0.03157     0.14234
             23  H  3  X      0.01971     0.03737
             24  H  3  Y      0.02500     0.04250
             25  H  3  Z      0.01329     0.03581
             26  H  4  S      0.60669     0.47163
             27  H  4  S      0.03504     0.14292
             28  H  4  X      0.03413     0.05613
             29  H  4  Y      0.00981     0.02296
             30  H  4  Z      0.01380     0.03609

          ----- MULLIKEN ATOMIC OVERLAP POPULATIONS -----
          (OFF-DIAGONAL ELEMENTS NEED TO BE MULTIPLIED BY 2)

             1           2           3           4

    1    5.9254721
    2    0.3088574   0.4463805
    3    0.3150622  -0.0052613   0.3947419
    4    0.3086536  -0.0060674  -0.0059669   0.4028504

          TOTAL MULLIKEN AND LOWDIN ATOMIC POPULATIONS
       ATOM         MULL.POP.    CHARGE          LOW.POP.     CHARGE
    1 N             6.858045    0.141955         6.785133    0.214867
    2 H             0.743909    0.256091         0.754333    0.245667
    3 H             0.698576    0.301424         0.730802    0.269198
    4 H             0.699470    0.300530         0.729732    0.270268

          MULLIKEN SPHERICAL HARMONIC POPULATIONS
       ATOM           S       P       D      F      G      H      I    TOTAL
    1 N             3.46    3.38    0.02   0.00   0.00   0.00   0.00    6.86
    2 H             0.68    0.06    0.00   0.00   0.00   0.00   0.00    0.74
    3 H             0.64    0.06    0.00   0.00   0.00   0.00   0.00    0.70
    4 H             0.64    0.06    0.00   0.00   0.00   0.00   0.00    0.70

          ---------------------
          ELECTROSTATIC MOMENTS
          ---------------------

 POINT   1           X           Y           Z (BOHR)    CHARGE
                -0.000001    0.000002   -0.177185        1.00 (A.U.)
         DX          DY          DZ         /D/  (DEBYE)
    -0.101102    0.312021    2.143813    2.168758
 ...... END OF PROPERTY EVALUATION ......
 CPU     0: STEP CPU TIME=     0.01 TOTAL CPU TIME=          9.7 (      0.2 MIN)
 TOTAL WALL CLOCK TIME=          9.7 SECONDS, CPU UTILIZATION IS    99.90%

     -------------------------------------------------
     GMC-PT/GMC-QDPT or general MCSCF input parameters
     -------------------------------------------------
 # of frozen core orbs. =         0 ->         0
 # of doubly occ. orbs. =         1
 # of active      orbs. =         7
 # of virtual     orbs. =        21
 # of active electrons  =         7
 # of states in CI      =         3
 Highest state in CI    =         3
 kstate =  1 1 1
 avecoe =  0.333 0.333 0.333
 State symmetry           = A           
 Assigned symmetry number = 1

 <<<Act. MO sym.: 1111111

 <<<Division of 1-ext.:  0
 <<<Division of 2-ext.:  0

     ------------------------
     Orbital canonicalization
     ------------------------

 MOs are canonicalized for core, virtual, and invariant-active orbital spaces.
 This is a part of the GMC-QDPT calculation.
 SCHWARZ INEQUALITY OVERHEAD:       465 INTEGRALS, T=        0.00
 DIRECT TRANSFORMATION SKIPS AO INTEGRAL STORAGE ON DISK.

 Averaged energy =     -55.757809820

 State #    1  Energy =     -55.899774835  S =  0.500
 State #    2  Energy =     -55.728989472  S =  0.500
 State #    3  Energy =     -55.644665154  S =  0.500

 Orbital energies for filled orbital space
  -15.986525
 Orbital energies for active orbital space
   -1.531330  -0.977766  -0.890392  -0.755894   0.417277
    0.415825   0.284265
 Orbital energies for external orbital space
    0.154160   0.200498   0.204692   0.540428   0.593509
    0.627292   0.802932   0.962976   0.988585   1.313546
    1.474871   1.526659   1.599864   1.831749   1.887706
    2.027898   2.209264   2.351523   2.547382   2.732219
    2.989227

 Zero values mean non-canonical orbitals.
 ... done with orbital canonicalization ...
 CPU     0: STEP CPU TIME=     0.58 TOTAL CPU TIME=         10.2 (      0.2 MIN)
 TOTAL WALL CLOCK TIME=         10.3 SECONDS, CPU UTILIZATION IS    99.81%

     --------------------------------------------
     PARTIAL TWO ELECTRON INTEGRAL TRANSFORMATION
     --------------------------------------------

 NUMBER OF CORE MOLECULAR ORBITALS     =    0
 NUMBER OF OCCUPIED MOLECULAR ORBITALS =    8
 TOTAL NUMBER OF MOLECULAR ORBITALS    =   29
 TOTAL NUMBER OF ATOMIC ORBITALS       =   30
 THRESHOLD FOR KEEPING TRANSFORMED 2E- INTEGRALS = 1.000E-09
 AO INTEGRALS WILL BE CALCULATED IN DIRECT MODE...
 DIRECT TRANSFORMATION SKIPS AO INTEGRAL STORAGE ON DISK.
 SCHWARZ INEQUALITY OVERHEAD:       465 INTEGRALS, T=        0.00

 PLAN A: REQUIREMENTS FOR FULLY IN-MEMORY TRANSFORMATION:
 # OF WORDS AVAILABLE =            100000000
 # OF WORDS NEEDED    =               221798

 PARALLEL ONLY WORKS WITH THE SEGMENTED ALGORITHM.
 ADJUSTING MEMORY TO USE SEGMENTED ALGORITHM.


 PLAN B: REQUIREMENTS FOR THE SEGMENTED TRANSFORMATION:
       MINIMUM=         124148 WORDS FOR 1 MOLECULAR ORBITAL PER PASS
       MAXIMUM=         221798 WORDS FOR ALL MOLECULAR ORBITALS IN 1 PASS
              (          13950 EXTRA WORDS INCLUDES 1 EXTRA ORBITAL/PASS)
 THIS RUN USES=         221798 WORDS,
 DISTRIBUTING   1 PASSES EACH CONTAINING     8 ORBITALS OVER   1 PROCESSORS.

 CHOOSING SEGMENTED PARTIAL TRANSFORMATION...
 DIRECT TRANSFORMATION SKIPS AO INTEGRAL STORAGE ON DISK.
 PASS #   1 TOOK        0.04 SECONDS.
 TOTAL NUMBER OF TRANSFORMED 2E- INTEGRALS KEPT =        29226
 ... END OF INTEGRAL TRANSFORMATION ...
 CPU     0: STEP CPU TIME=     0.04 TOTAL CPU TIME=         10.3 (      0.2 MIN)
 TOTAL WALL CLOCK TIME=         10.3 SECONDS, CPU UTILIZATION IS    99.81%

     --------     ------------------------------------------
     GMC-QDPT     Program written by H.Nakano (Kyushu Univ.)
     --------     ------------------------------------------

 *** Reference space

 Reference type: ORMAS (= Occupation restricted multiple active space)
 # of orbitals          =  7
 # of minimum electrons =  7
 # of maximum electrons =  7
 State symmetry    =    1 (input)
 2*Sz              =    1 (input)
 Spin multiplicity =    2 (input)
 Dimension of reference space =      1225  (from      3432 walks)

 Dimension of reference space =      1225  (from      1225 walks)

 <<<Ionized spaces for Ref-CI:
      0:         1225 /   -1-0:         1960 /  0-1-0:         2891

 ***                    ***
 *** Reference space CI ***
 ***                    ***

 Converged after   28 iterations

 Reference wavefunctions:

 State #    1  Energy =     -55.899774835  S =  0.500

      Det      Coef    Occupancy (Ignoring core)
      ---      ----    --------- --------- -----
        1    0.979150  11110001110000
      717    0.069408  11010011100001

 State #    2  Energy =     -55.728989472  S =  0.500

      Det      Coef    Occupancy (Ignoring core)
      ---      ----    --------- --------- -----
       36    0.983620  11110001101000

 State #    3  Energy =     -55.644665154  S =  0.500

      Det      Coef    Occupancy (Ignoring core)
      ---      ----    --------- --------- -----
       71    0.981961  11110001011000
      822   -0.069582  11010011001001

 Davidson method: CPU/Wall time =           0.40 /           0.40 sec.

 Oscillator strength (invalid if E(1)/=E(GS)):
 -----------------------------------------
   State                        f
 -----------------------------------------
     2     F(REF-CI)=        0.0008010162
     3     F(REF-CI)=        0.0007976928
 -----------------------------------------

 Dipole moment matrix elements, x, y, z, in A.U.

 Dimension of ionized spaces for PT:
 (N-2) space:         1715 /  (N-1) space:         2842 /  N space:         2891
 (N+1) space:         2842 /  (N+2) space:         1715

 <<<Ionized spaces for internal:
         0:         1225 /      -1-0:         1960 /     0-1-0:         2891
  -1-0-1-0:         2842 / 0-1-0-1-0:         3381

 Diagonal elements of averaged one-particle density matrix:
       2       3       4       5       6       7       8
  0.9942  0.9891  0.9878  0.9931  0.0105  0.0108  0.0145
  0.9900  0.6611  0.6589  0.6635  0.0082  0.0081  0.0102

 Orbital energies:
 -------- Doubly-occupied orbitals (highest several orbs.) -------
             1
 -1.598652D+01
 -------- Active orbitals ----------------------------------------
             2            3            4            5            6
 -1.531330D+00-9.777663D-01-8.903922D-01-7.558937D-01 4.172765D-01
             7            8
  4.158248D-01 2.842648D-01
 -------- External orbitals (lowest several orbs.) ---------------
             9           10           11           12           13
  1.541601D-01 2.004979D-01 2.046918D-01 5.404280D-01 5.935088D-01
            14           15           16           17           18
  6.272916D-01 8.029325D-01 9.629758D-01 9.885850D-01 1.313546D+00

 *** Quasi-degeneracy checking

 === Det (|Ci| > 1.0D-01 and dE < 5.0D-03)

 # of small denominators (single excitations)
 State       dEmin  dE < 5.0D-03  dE < 5.0D-04  dE < 5.0D-05  dE < 5.0D-06
 ----- ----------- ------------- ------------- ------------- -------------
     1    5.00D-03             0             0             0             0
     2    5.00D-03             0             0             0             0
     3    5.00D-03             0             0             0             0

 # of small denominators (double excitations)
 State       dEmin  dE < 5.0D-03  dE < 5.0D-04  dE < 5.0D-05  dE < 5.0D-06
 ----- ----------- ------------- ------------- ------------- -------------
     1    5.00D-03             0             0             0             0
     2    5.00D-03             0             0             0             0
     3    5.00D-03             0             0             0             0

 *** Zeroth-Order Setup (Granovsky's zeroth-order vectors)
 Zeroth-order effective Hamiltonian
  (= Sum_i e(i)*<I|a+(i)a(i)|J> ):
                   1            2            3
     1 -7.454374D+00
     2 -7.039306D-03-7.340659D+00
     3  9.493997D-04-7.559240D-04-7.248015D+00

 Zeroth-order vectors:
 State #    1
       MC st            1           2           3
       Coeff    9.981D-01   6.152D-02  -4.357D-03
 State #    2
       MC st            2           1           3
       Coeff    9.981D-01  -6.148D-02   8.814D-03
 State #    3
       MC st            3           2           1
       Coeff    1.000D+00  -8.530D-03   4.891D-03

 *** GMC-QDPT computation

 (Integral reading:  CPU/Wall time =           0.00 /           0.00 sec.)

 One-external:
   0 -ionized terms: CPU/Wall time =           0.04 /           0.03 sec.
 (-1)-ionized terms: CPU/Wall time =           0.08 /           0.08 sec.
 (+1)-ionized terms: CPU/Wall time =           0.02 /           0.03 sec.
 (+1)-ionized terms: CPU/Wall time =           0.01 /           0.01 sec.
 (+2)-ionized terms: CPU/Wall time =           0.00 /           0.00 sec.

 Internal:
 # of macro loops for internal contribution =         1 (input)
 Loop:    1
 Dimension of internal CISD space     =         0  (after screening)
 Space construction: CPU/Wall time =           0.02 /           0.01 sec.
 Internal terms:     CPU/Wall time =           0.00 /           0.00 sec.

 Two-external:
   0 -ionized terms: CPU/Wall time =           0.06 /           0.06 sec.
 (-1)-ionized terms: CPU/Wall time =           0.99 /           0.98 sec.
 (-2)-ionized terms: CPU/Wall time =           0.17 /           0.18 sec.

 Total time:         CPU/Wall time =           1.39 /           1.38 sec.

 ***                  ***
 *** GMC-QDPT Results ***
 ***                  ***

 Diagonal elements of effective Hamiltonian:
 Heff(  1) =   -55.99686243
 Heff(  2) =   -55.83855387
 Heff(  3) =   -55.75552279

 Off-diagonal elements of effective Hamiltonian:
                   1            2
     2  9.326321D-03
     3 -1.051514D-03 7.262112D-04

 ******** GMC-QDPT energies ********
 ----------------------------------------------------------------------------
   State                        1st order                           2nd order
 ----------------------------------------------------------------------------
     1     E(REF-CI)=      -55.8997748346   E(GMC-QDPT2)=      -55.9974148990
     2     E(REF-CI)=      -55.7289894716   E(GMC-QDPT2)=      -55.8380116646
     3     E(REF-CI)=      -55.6446651537   E(GMC-QDPT2)=      -55.7555125200
 ----------------------------------------------------------------------------

 Excitation energies (invalid if E(1)/=E(GS)):
 ----------------------------------------------------------------------------
   State                        1st order                           2nd order
 ----------------------------------------------------------------------------

     TZ Sorted GMC-PT ENERGIES:
         1      -55.9974148990
         2      -55.8380116646
         3      -55.7555125200
     2     E(REF-CI)=        4.6473088 eV   E(GMC-QDPT2)=        4.3375852 eV
     3     E(REF-CI)=        6.9418916 eV   E(GMC-QDPT2)=        6.5825024 eV
 ----------------------------------------------------------------------------

 Main characters of perturbed GMC-QDPT states:

 State #    1  Energy =     -55.997414899  S =  0.500

      Det      Coef    Occupancy (Ignoring core)
      ---      ----    --------- --------- -----
        1    0.979232  11110001110000
      717    0.069396  11010011100001

 State #    2  Energy =     -55.838011665  S =  0.500

      Det      Coef    Occupancy (Ignoring core)
      ---      ----    --------- --------- -----
       36    0.983699  11110001101000

 State #    3  Energy =     -55.755512520  S =  0.500

      Det      Coef    Occupancy (Ignoring core)
      ---      ----    --------- --------- -----
       71    0.981965  11110001011000
      822   -0.069583  11010011001001

 <<<Max |V/de| = 2.688D-02  Thresh = 1.000D+00

 Oscillator strength (invalid if E(1)/=E(GS)):
 ----------------------------------------------------------------------------
   State                        1st order                           2nd order
 ----------------------------------------------------------------------------
     2     F(REF-CI)=        0.0008010162     F(GMC-PT2)=        0.0007739976
     3     F(REF-CI)=        0.0007976928     F(GMC-PT2)=        0.0007741369
 ----------------------------------------------------------------------------

 Dipole moment matrix elements, x, y, z, in A.U.
States    1    1       -0.0495162460        0.1598869041        0.7600486654
States    1    2        0.0121300615       -0.0223916168       -0.0814547096
States    1    3       -0.0545763762       -0.0384259996        0.0185786765
States    2    1        0.0121300615       -0.0223916168       -0.0814547096
States    2    2       -0.0568310848        0.0083371830        0.2630279467
States    2    3       -0.2498742683       -0.0885111757        0.0007829311
States    3    1       -0.0545763762       -0.0384259996        0.0185786765
States    3    2       -0.2498742683       -0.0885111757        0.0007829311
States    3    3       -0.0884537149        0.4059094196        0.2588128410

 Oscillator strength (valid only when positive): 
 ----------------------------------------------------------------------------
  States                        1st order                           2nd order
 ----------------------------------------------------------------------------
  1  1     F(REF-CI)=        0.0000000000     F(GMC-PT2)=        0.0000000000
  1  2     F(REF-CI)=       -0.0008010162     F(GMC-PT2)=       -0.0007739976
  1  3     F(REF-CI)=       -0.0007976928     F(GMC-PT2)=       -0.0007741369
  2  1     F(REF-CI)=        0.0008010162     F(GMC-PT2)=        0.0007739976
  2  2     F(REF-CI)=        0.0000000000     F(GMC-PT2)=        0.0000000000
  2  3     F(REF-CI)=       -0.0039574673     F(GMC-PT2)=       -0.0038649194
  3  1     F(REF-CI)=        0.0007976928     F(GMC-PT2)=        0.0007741369
  3  2     F(REF-CI)=        0.0039574673     F(GMC-PT2)=        0.0038649194
  3  3     F(REF-CI)=        0.0000000000     F(GMC-PT2)=        0.0000000000
 CPU     0: STEP CPU TIME=     1.87 TOTAL CPU TIME=         12.2 (      0.2 MIN)
 TOTAL WALL CLOCK TIME=         12.2 SECONDS, CPU UTILIZATION IS    99.92%

     !!! DIABATIZATION FOR REF CI STATES !!!

 *******************************************************
          $DMO GROUP FOUND IN THE INPUT.
        DIABATIZATION OF ADIABATIC STATES BEGINS.
     PROGRAMMED BY TAO ZENG (CARLETON UNIVERSITY).
               Email: toby.zeng@carleton.ca
     See T. Zeng, J. Chem. Phys. 2017, 146, 144103
 *******************************************************

 *************************************************************************
     STEP 1: TRANSFORMATION OF ADIABATIC STATES TO THE DMO REPRESENTATION
         See Atchity and Ruedenberg, J. Chem. Phys. 1999, 111, 2910
 *************************************************************************

Read in Diabatic Molecualr Orbitals:

                      1          2          3          4          5

    1  N  1  S    0.008609   0.000000   0.000000  -0.013219   0.279491
    2  N  1  S    0.442914  -0.000000   0.000000  -0.184329   0.867803
    3  N  1  S    0.276913   0.000000  -0.000000  -0.288315   0.144236
    4  N  1  X   -0.000000   0.493155  -0.024636  -0.000000  -0.000000
    5  N  1  Y    0.000000   0.024636   0.493155  -0.000000   0.000000
    6  N  1  Z    0.090197   0.000000   0.000000   0.593421   0.705309
    7  N  1  X   -0.000000   0.210628  -0.010522   0.000000   0.000000
    8  N  1  Y    0.000000   0.010522   0.210628  -0.000000  -0.000000
    9  N  1  Z   -0.004381   0.000000   0.000000   0.381592  -0.106092
   10  N  1 XX   -0.000457   0.010719  -0.000535  -0.012387   0.006153
   11  N  1 YY   -0.000457  -0.010719   0.000535  -0.012387   0.006153
   12  N  1 ZZ    0.000914  -0.000000   0.000000   0.024773  -0.012306
   13  N  1 XY    0.000000  -0.000618  -0.012377  -0.000000   0.000000
   14  N  1 XZ   -0.000000   0.026529  -0.001325  -0.000000   0.000000
   15  N  1 YZ    0.000000   0.001325   0.026529  -0.000000   0.000000
   16  H  2  S    0.194462  -0.176074   0.343485   0.112865  -0.523343
   17  H  2  S    0.003574  -0.023812   0.046452   0.024014  -0.054445
   18  H  2  X    0.018760   0.009101   0.022834   0.009336  -0.039151
   19  H  2  Y   -0.032493   0.022287  -0.020044  -0.016171   0.067811
   20  H  2  Z   -0.009251   0.008464  -0.016511   0.018769  -0.010566
   21  H  3  S    0.194462  -0.209430  -0.324227   0.112865  -0.523343
   22  H  3  S    0.003574  -0.028322  -0.043847   0.024014  -0.054445
   23  H  3  X    0.018760   0.006781  -0.023627   0.009336  -0.039151
   24  H  3  Y    0.032493  -0.024174  -0.017723   0.016171  -0.067811
   25  H  3  Z   -0.009251   0.010067   0.015585   0.018769  -0.010566
   26  H  4  S    0.194462   0.385503  -0.019258   0.112865  -0.523343
   27  H  4  S    0.003574   0.052134  -0.002604   0.024014  -0.054445
   28  H  4  X   -0.037519  -0.032295   0.001613  -0.018672   0.078302
   29  H  4  Y    0.000000   0.001067   0.021353  -0.000000   0.000000
   30  H  4  Z   -0.009251  -0.018530   0.000926   0.018769  -0.010566

                      6          7

    1  N  1  S    0.000000  -0.000000
    2  N  1  S    0.000000  -0.000000
    3  N  1  S   -0.000000   0.000000
    4  N  1  X   -0.930415  -0.002083
    5  N  1  Y   -0.002083   0.930415
    6  N  1  Z   -0.000000   0.000000
    7  N  1  X   -0.046866  -0.000105
    8  N  1  Y   -0.000105   0.046866
    9  N  1  Z   -0.000000   0.000000
   10  N  1 XX    0.001538   0.000003
   11  N  1 YY   -0.001538  -0.000003
   12  N  1 ZZ   -0.000000   0.000000
   13  N  1 XY   -0.000004   0.001776
   14  N  1 XZ    0.039985   0.000090
   15  N  1 YZ    0.000090  -0.039985
   16  H  2  S   -0.362630  -0.631354
   17  H  2  S   -0.065964  -0.114846
   18  H  2  X    0.002763  -0.037520
   19  H  2  Y    0.037435   0.040736
   20  H  2  Z    0.001882   0.003276
   21  H  3  S   -0.365454   0.629724
   22  H  3  S   -0.066477   0.114549
   23  H  3  X    0.002595   0.037532
   24  H  3  Y   -0.037617   0.040567
   25  H  3  Z    0.001896  -0.003268
   26  H  4  S    0.728084   0.001630
   27  H  4  S    0.132441   0.000297
   28  H  4  X   -0.062317  -0.000140
   29  H  4  Y    0.000055  -0.024345
   30  H  4  Z   -0.003778  -0.000008

NUMBER OF SUB ACTIVE SPACES:   1
ROTATE ACTIVE MOS TO DMOS IN EACH SUB-SPACE

SPACE  1:

OVERLAP BETWEEN ORTHONORMAL AND PRE-ORTHONORMAL REF. DMOS

             1           2           3           4           5

    1    0.9947575  -0.0059776   0.0158231  -0.0017942   0.0008342
    2   -0.0059776   1.0043496   0.0325884  -0.0065623   0.0095084
    3    0.0158231   0.0325884   0.9787869   0.0210947  -0.0384026
    4   -0.0017942  -0.0065623   0.0210947   0.9987835  -0.0025296
    5    0.0008342   0.0095084  -0.0384026  -0.0025296   1.0306852
    6    0.0006440   0.0063847   0.0271231  -0.0063598  -0.0120425
    7    0.0027768  -0.0281810   0.0110562  -0.0222042  -0.0081691

             6           7

    1    0.0006440   0.0027768
    2    0.0063847  -0.0281810
    3    0.0271231   0.0110562
    4   -0.0063598  -0.0222042
    5   -0.0120425  -0.0081691
    6    1.0070706   0.0160937
    7    0.0160937   1.0195054
REFERENCE DMOS AFTER ORTHONORMALIZATION:

                      1          2          3          4          5

    1  N  1  S    0.008208  -0.002928   0.010798  -0.012725   0.271608
    2  N  1  S    0.443685  -0.007518   0.029830  -0.182232   0.842441
    3  N  1  S    0.277624  -0.001953   0.007330  -0.288120   0.139249
    4  N  1  X    0.003802   0.498367  -0.017014  -0.001717  -0.015863
    5  N  1  Y   -0.010179   0.033959   0.494200   0.009852   0.024991
    6  N  1  Z    0.090910  -0.002027   0.012165   0.596245   0.686446
    7  N  1  X    0.001550   0.210795  -0.016705   0.001578  -0.003067
    8  N  1  Y   -0.003526   0.004645   0.215181  -0.003566   0.008240
    9  N  1  Z   -0.003429   0.004060  -0.012462   0.382262  -0.102416
   10  N  1 XX   -0.000417   0.010541  -0.000438  -0.012299   0.005844
   11  N  1 YY   -0.000573  -0.010868   0.001473  -0.012511   0.006073
   12  N  1 ZZ    0.000990   0.000327  -0.001035   0.024809  -0.011917
   13  N  1 XY    0.000197  -0.000146  -0.012698   0.000310  -0.000453
   14  N  1 XZ    0.000186   0.026281  -0.003340   0.000501   0.000099
   15  N  1 YZ   -0.000337  -0.000706   0.027640  -0.001467   0.000719
   16  H  2  S    0.191306  -0.195438   0.349913   0.087181  -0.502070
   17  H  2  S    0.003087  -0.027405   0.048926   0.019777  -0.052360
   18  H  2  X    0.018712   0.007831   0.021474   0.008075  -0.037520
   19  H  2  Y   -0.032438   0.022807  -0.019329  -0.014384   0.065614
   20  H  2  Z   -0.008927   0.009284  -0.017983   0.019292  -0.010895
   21  H  3  S    0.199184  -0.170512  -0.348750   0.129749  -0.518404
   22  H  3  S    0.004015  -0.022379  -0.046248   0.026839  -0.054161
   23  H  3  X    0.019290   0.009208  -0.026992   0.010756  -0.038744
   24  H  3  Y    0.032860  -0.021116  -0.020305   0.017013  -0.066468
   25  H  3  Z   -0.009432   0.009607   0.014967   0.018445  -0.009735
   26  H  4  S    0.199243   0.388571  -0.078154   0.120848  -0.505744
   27  H  4  S    0.004081   0.052102  -0.010681   0.025319  -0.052114
   28  H  4  X   -0.038110  -0.033110   0.008452  -0.019354   0.075862
   29  H  4  Y   -0.000289  -0.000348   0.022156  -0.001007   0.000633
   30  H  4  Z   -0.009381  -0.018303   0.001015   0.018582  -0.010036

                      6          7

    1  N  1  S    0.002864   0.001634
    2  N  1  S    0.007869   0.000917
    3  N  1  S   -0.000420  -0.006042
    4  N  1  X   -0.927209   0.026379
    5  N  1  Y   -0.029755   0.909106
    6  N  1  Z    0.011315   0.017872
    7  N  1  X   -0.047557   0.006661
    8  N  1  Y   -0.006552   0.043865
    9  N  1  Z    0.001378   0.007740
   10  N  1 XX    0.001464   0.000057
   11  N  1 YY   -0.001496  -0.000518
   12  N  1 ZZ    0.000032   0.000462
   13  N  1 XY    0.000305   0.001873
   14  N  1 XZ    0.039629   0.000236
   15  N  1 YZ   -0.000019  -0.039565
   16  H  2  S   -0.363851  -0.625374
   17  H  2  S   -0.065343  -0.112902
   18  H  2  X    0.002298  -0.037030
   19  H  2  Y    0.037615   0.040503
   20  H  2  Z    0.002228   0.003987
   21  H  3  S   -0.367840   0.620681
   22  H  3  S   -0.066917   0.113436
   23  H  3  X    0.002243   0.037197
   24  H  3  Y   -0.038016   0.039776
   25  H  3  Z    0.001470  -0.002776
   26  H  4  S    0.717203  -0.000097
   27  H  4  S    0.131004  -0.000098
   28  H  4  X   -0.061090   0.000111
   29  H  4  Y   -0.000153  -0.024142
   30  H  4  Z   -0.003658  -0.000118

 -------------------------------------------
       MAXIMIZING MORMO OVERLAP TERM        
 -------------------------------------------
   SWEEP    VALUE       PROGRESS
     0     4.65577
     1     6.96639     2.31062647
     2     6.98986     0.02346644
     3     6.98986     0.00000031
     4     6.98986     0.00000000
     5     6.98986    -0.00000000
     6     6.98986     0.00000000
 THE ROTATION IS DONE
FLIPPING SIGN FOR ORBITAL   7
ACTIVE ORBITALS AFTER MORMO:

                      1          2          3          4          5

    1  N  1  S    0.007925  -0.004558   0.015133  -0.012645   0.257956
    2  N  1  S    0.438830  -0.011523   0.034410  -0.184742   0.824660
    3  N  1  S    0.292089   0.013222  -0.027510  -0.284756   0.156559
    4  N  1  X    0.000145   0.493288  -0.009303  -0.006384  -0.011472
    5  N  1  Y   -0.003508   0.040542   0.484116   0.018398   0.015032
    6  N  1  Z    0.088338  -0.005010   0.021124   0.596089   0.684860
    7  N  1  X    0.007241   0.207396  -0.041783   0.010054  -0.011294
    8  N  1  Y   -0.014021  -0.019426   0.227610  -0.026753   0.028769
    9  N  1  Z    0.003940   0.011687  -0.036109   0.382161  -0.100319
   10  N  1 XX   -0.000236   0.008462  -0.004723  -0.011437  -0.002844
   11  N  1 YY   -0.000697  -0.008615   0.005321  -0.012790   0.010813
   12  N  1 ZZ    0.000932   0.000152  -0.000598   0.024227  -0.007968
   13  N  1 XY    0.001616   0.004624  -0.016381   0.000482  -0.027720
   14  N  1 XZ    0.000427   0.023761  -0.002929  -0.000790   0.009628
   15  N  1 YZ    0.000230  -0.000616   0.024552   0.000573  -0.027001
   16  H  2  S    0.193450  -0.184483   0.345920   0.099545  -0.513417
   17  H  2  S    0.004560  -0.037878   0.061999   0.020768  -0.057238
   18  H  2  X    0.015572   0.011272   0.019573   0.009373  -0.037069
   19  H  2  Y   -0.030973   0.021333  -0.017154  -0.016708   0.063292
   20  H  2  Z   -0.012609   0.010227  -0.021099   0.018143  -0.009480
   21  H  3  S    0.190707  -0.195859  -0.332391   0.119144  -0.509295
   22  H  3  S    0.001774  -0.017707  -0.049816   0.027663  -0.055683
   23  H  3  X    0.023500  -0.000784  -0.029976   0.010535  -0.041847
   24  H  3  Y    0.028695  -0.025658  -0.014361   0.013614  -0.058391
   25  H  3  Z   -0.006742   0.009995   0.012045   0.019516  -0.012469
   26  H  4  S    0.191600   0.384271  -0.039329   0.114672  -0.497202
   27  H  4  S    0.002486   0.058041  -0.019753   0.027182  -0.055403
   28  H  4  X   -0.035322  -0.033918  -0.002298  -0.017165   0.070716
   29  H  4  Y   -0.007950  -0.010170   0.020754  -0.002672   0.006933
   30  H  4  Z   -0.007744  -0.016874  -0.001941   0.019119  -0.013645

                      6          7

    1  N  1  S   -0.001466  -0.023073
    2  N  1  S   -0.005711  -0.054532
    3  N  1  S    0.018487   0.067299
    4  N  1  X   -0.926216   0.023505
    5  N  1  Y   -0.027090   0.905154
    6  N  1  Z    0.023431   0.047854
    7  N  1  X   -0.055058   0.019442
    8  N  1  Y   -0.018887   0.049255
    9  N  1  Z   -0.009960  -0.015299
   10  N  1 XX   -0.008381   0.027218
   11  N  1 YY    0.009355  -0.022471
   12  N  1 ZZ   -0.000974  -0.004748
   13  N  1 XY    0.028016   0.012572
   14  N  1 XZ    0.044393  -0.012198
   15  N  1 YZ    0.011455  -0.037156
   16  H  2  S   -0.352274  -0.618497
   17  H  2  S   -0.076919  -0.127382
   18  H  2  X    0.015160  -0.039831
   19  H  2  Y    0.039070   0.032198
   20  H  2  Z    0.007606   0.007024
   21  H  3  S   -0.379559   0.608904
   22  H  3  S   -0.070892   0.116732
   23  H  3  X   -0.011095   0.040796
   24  H  3  Y   -0.039766   0.035969
   25  H  3  Z   -0.010827  -0.002256
   26  H  4  S    0.709825  -0.022604
   27  H  4  S    0.142779  -0.000553
   28  H  4  X   -0.062233   0.009774
   29  H  4  Y   -0.011490  -0.022294
   30  H  4  Z    0.000828  -0.013363

Actually Used Diabatic Molecualr Orbitals:

                      1          2          3          4          5

    1  N  1  S    0.007925  -0.004558   0.015133  -0.012645   0.257956
    2  N  1  S    0.438830  -0.011523   0.034410  -0.184742   0.824660
    3  N  1  S    0.292089   0.013222  -0.027510  -0.284756   0.156559
    4  N  1  X    0.000145   0.493288  -0.009303  -0.006384  -0.011472
    5  N  1  Y   -0.003508   0.040542   0.484116   0.018398   0.015032
    6  N  1  Z    0.088338  -0.005010   0.021124   0.596089   0.684860
    7  N  1  X    0.007241   0.207396  -0.041783   0.010054  -0.011294
    8  N  1  Y   -0.014021  -0.019426   0.227610  -0.026753   0.028769
    9  N  1  Z    0.003940   0.011687  -0.036109   0.382161  -0.100319
   10  N  1 XX   -0.000236   0.008462  -0.004723  -0.011437  -0.002844
   11  N  1 YY   -0.000697  -0.008615   0.005321  -0.012790   0.010813
   12  N  1 ZZ    0.000932   0.000152  -0.000598   0.024227  -0.007968
   13  N  1 XY    0.001616   0.004624  -0.016381   0.000482  -0.027720
   14  N  1 XZ    0.000427   0.023761  -0.002929  -0.000790   0.009628
   15  N  1 YZ    0.000230  -0.000616   0.024552   0.000573  -0.027001
   16  H  2  S    0.193450  -0.184483   0.345920   0.099545  -0.513417
   17  H  2  S    0.004560  -0.037878   0.061999   0.020768  -0.057238
   18  H  2  X    0.015572   0.011272   0.019573   0.009373  -0.037069
   19  H  2  Y   -0.030973   0.021333  -0.017154  -0.016708   0.063292
   20  H  2  Z   -0.012609   0.010227  -0.021099   0.018143  -0.009480
   21  H  3  S    0.190707  -0.195859  -0.332391   0.119144  -0.509295
   22  H  3  S    0.001774  -0.017707  -0.049816   0.027663  -0.055683
   23  H  3  X    0.023500  -0.000784  -0.029976   0.010535  -0.041847
[...]
      ---      ----        ----    --------- --------- -----
       71   -0.770382    0.770382  2+22000
       36    0.605190    0.605190  22+2000
        1   -0.079359    0.079359  222+000
      822    0.054215   -0.054215  2+02002
      123   -0.036183    0.036183  +-2200+
      472   -0.033894   -0.033894  2+020-+
      463   -0.029138    0.029138  20+2020
      107    0.028746   -0.028746  +22-+00
      111    0.023383   -0.023383  +22-0+0
      813   -0.023310    0.023310  20+20+-
       86   -0.022654   -0.022654  2+2-00+
       41   -0.022414    0.022414  22+-0+0
      809   -0.022367    0.022367  20+2+0-
      810    0.021244    0.021244  -++2+0-
      320    0.021119    0.021119  0+22200
      249   -0.020947    0.020947  20+2200
      812    0.020752   -0.020752  2+020+-
      177    0.020311   -0.020311  2+20200
       53   -0.020130   -0.020130  2-+200+

 State #    3  Energy =     -55.809892126

      Det      Coef        Coefp    Occupancy (Ignoring core)
      ---      ----        ----    --------- --------- -----
       36   -0.756641   -0.756641  22+2000
       71   -0.607868    0.607868  2+22000
        1    0.157985   -0.157985  222+000
      822    0.043540   -0.043540  2+02002
      122    0.036197    0.036197  +2-200+
      463    0.032535   -0.032535  20+2020
      262    0.029552    0.029552  2+02-0+
      111    0.029294   -0.029294  +22-0+0
      249    0.029254   -0.029254  20+2200
      813   -0.025227    0.025227  20+20+-
      253   -0.024492   -0.024492  20+2-+0
      823    0.023318   -0.023318  20+2002
      250   -0.023234   -0.023234  -++2200
       88   -0.023160    0.023160  202200+
       16    0.022999   -0.022999  222000+
      142    0.020943    0.020943  22+0200
       38    0.020938   -0.020938  2202+00
      121    0.020817   -0.020817  +22-00+
       42   -0.020366    0.020366  22020+0
       74   -0.020342    0.020342  2022+00
      285    0.020298   -0.020298  02+2200

 ---------------------------------------
    -DIABATIC STATES IN PROTOTYPES-     
 ---------------------------------------

     STATE:    1
 Group Ref#    Coefficients
     1    1    0.989676
     2    2   -0.000883
     3    3    0.001276

WEIGHT OF LISTED PROTOTYPES:   97.95%

     STATE:    2
 Group Ref#    Coefficients
     1    1   -0.000883
     2    2    0.988046
     3    3   -0.001538

WEIGHT OF LISTED PROTOTYPES:   97.62%

     STATE:    3
 Group Ref#    Coefficients
     1    1    0.001276
     2    2   -0.001538
     3    3    0.989010

WEIGHT OF LISTED PROTOTYPES:   97.81%

 --------------------------------------------------
 IN DIRECT MAX. DIABATIZATION FOR GMC-QDPT

 DIRECT MAXIMIZATION (DM) WITHOUT TRUNCATING ADIABATS
 EXPANSIONS INTO THE REFERENCE CONFIGURATION SPACE
 --------------------------------------------------

 -------------------------------------------
 - DM DIABT PT HAMILTONIAN MATRIX ELEMENTS -
 -------------------------------------------
                                            
 --- DIABATIC ENERGIES (DIAGONAL ELEMENT) ---       HARTREE            EV
 STATE #  1'S GMC-PT-LEVEL DIABATIC ENERGY=     -55.993551776       0.000000000
 STATE #  2'S GMC-PT-LEVEL DIABATIC ENERGY=     -55.787495224       5.607084367
 STATE #  3'S GMC-PT-LEVEL DIABATIC ENERGY=     -55.809892084       4.997634778

 --- DIABATIC COUPLINGS (OFF DIAGONAL ELEMENTS)---  HATREE            EV
 STATE #  1 &  2'S GMC-PT-LEVEL COUPLING  =       0.008066794       0.219508659
 STATE #  1 &  3'S GMC-PT-LEVEL COUPLING  =      -0.023652248      -0.643610443
 STATE #  2 &  3'S GMC-PT-LEVEL COUPLING  =       0.041419489       1.127081711

 ---------------------------------------
     - ROTATION TO DIABATIC STATES -    
 ---------------------------------------
 ROWS=ADIABATIC, COLUMNS=DIABATIC STATES

             1           2           3

    1   -0.9881184   0.0654134  -0.1390797
    2    0.1497930   0.6124758  -0.7761672
    3   -0.0344112   0.7877782   0.6149971

 ---------------------------------------
          - DIABATIC STATES -           
 ---------------------------------------

 State #    1  Energy =     -55.993551776

      Det      Coef        Coefp    Occupancy (Ignoring core)
      ---      ----        ----    --------- --------- -----
        1    0.972419   -0.972419  222+000
      717   -0.073569   -0.073569  220+002
      393   -0.070414   -0.070414  202+020
       17    0.064467    0.064467  22-+00+
        3   -0.053566   -0.053566  22-++00
      141    0.051890    0.051890  22++-00
        8   -0.042995    0.042995  2-2+0+0
      402    0.037809   -0.037809  2+-+0-+
      708    0.037208   -0.037208  2-++0+-
      701   -0.036199   -0.036199  22++00-
       16   -0.035081    0.035081  222000+
      215   -0.034675   -0.034675  022+200
        7    0.033907    0.033907  22-+0+0
      227   -0.032934   -0.032934  +2-+-0+
      218    0.032921   -0.032921  +-2+-+0
      705   -0.032770   -0.032770  -2+++0-
      390    0.032757   -0.032757  -+2++-0
      351   -0.030894   -0.030894  22++0-0
       18   -0.030705    0.030705  2-2+00+
      736    0.030364   -0.030364  2+2+00-
       51   -0.028267    0.028267  22+-00+
      212    0.028229    0.028229  +220200
        2    0.028152   -0.028152  2220+00
       76    0.027472    0.027472  2+2-0+0
      122    0.026373    0.026373  +2-200+
      113   -0.024859    0.024859  +-220+0
      179   -0.023801   -0.023801  202+200
      773    0.023047   -0.023047  +2-++0-
      702    0.022283    0.022283  22+0+0-
      159    0.022099   -0.022099  -2++-0+
      387   -0.022027    0.022027  2+20+-0
      106   -0.021715   -0.021715  +222000
      424   -0.021612   -0.021612  +-2++-0
      184   -0.021153   -0.021153  -+2+-+0
      143   -0.020264   -0.020264  220+200

 State #    2  Energy =     -55.787495224

      Det      Coef        Coefp    Occupancy (Ignoring core)
      ---      ----        ----    --------- --------- -----
       71   -0.974741    0.974741  2+22000
      822    0.073942   -0.073942  2+02002
      246    0.058708    0.058708  2++2-00
       73   -0.054044    0.054044  2+-2+00
       36    0.046927    0.046927  22+2000
      736    0.042471   -0.042471  2+2+00-
      813    0.040944   -0.040944  20+20+-
      111    0.039897   -0.039897  +22-0+0
       86   -0.039558   -0.039558  2+2-00+
       77    0.035268   -0.035268  2+-20+0
      456   -0.034661   -0.034661  2++20-0
      320    0.034563    0.034563  0+22200
      810   -0.033637   -0.033637  -++2+0-
      332   -0.033127    0.033127  ++-2-0+
      323   -0.031952    0.031952  +022-+0
      806   -0.031572   -0.031572  2++200-
      180   -0.028599    0.028599  -+2+200
      317    0.028454   -0.028454  ++2-200
       38   -0.028226    0.028226  2202+00
      122    0.027534    0.027534  +2-200+
      177    0.026871   -0.026871  2+20200
       88    0.025980   -0.025980  202200+
        6    0.025939   -0.025939  22200+0
       99   -0.025289    0.025289  20-20++
      183   -0.024475    0.024475  202+-+0
      391    0.024448   -0.024448  2+20020
      807   -0.024213    0.024213  2++-+0-
      192   -0.024182    0.024182  2+-+-0+
      113    0.023812   -0.023812  +-220+0
       51    0.023490   -0.023490  22+-00+
       87    0.023249   -0.023249  2+-200+
      878    0.022833    0.022833  ++-2+0-
      264    0.022354   -0.022354  -++2-0+
      248    0.022153   -0.022153  2+02200
      421   -0.021273   -0.021273  +22+0-0
      751    0.020145   -0.020145  2+20002

 State #    3  Energy =     -55.809892084

      Det      Coef        Coefp    Occupancy (Ignoring core)
      ---      ----        ----    --------- --------- -----
       36   -0.974874   -0.974874  22+2000
      463    0.069833   -0.069833  20+2020
       38    0.056113   -0.056113  2202+00
       71   -0.047031    0.047031  2+22000
       39   -0.042968   -0.042968  2-+2+00
       51   -0.042491    0.042491  22+-00+
      701    0.041607    0.041607  22++00-
      472   -0.041249   -0.041249  2+020-+
       53    0.039060    0.039060  2-+200+
      106    0.038509    0.038509  +222000
      121   -0.036917    0.036917  +22-00+
      806   -0.036785   -0.036785  2++200-
       41   -0.036620    0.036620  22+-0+0
      285    0.034175   -0.034175  02+2200
      460   -0.033416   -0.033416  -++2+-0
      297    0.033037   -0.033037  +202-0+
      288   -0.032986   -0.032986  +-+2-+0
      123    0.028970   -0.028970  +-2200+
      145   -0.028794   -0.028794  -2++200
      282    0.028576    0.028576  +2+-200
      142    0.026777    0.026777  22+0200
       42   -0.026704    0.026704  22020+0
      351    0.026197    0.026197  22++0-0
      157    0.025502   -0.025502  220+-0+
       16   -0.025379    0.025379  222000+
       64    0.025267   -0.025267  2-020++
      249    0.025136   -0.025136  20+2200
      112   -0.023649   -0.023649  +2-20+0
      457   -0.023495    0.023495  2++-+-0
      716    0.023302    0.023302  22+0002
       73    0.023227   -0.023227  2+-2+00
      148   -0.023130   -0.023130  2-++-+0
      494    0.021689   -0.021689  +-+2+-0
      254    0.020707   -0.020707  -++2-+0
      356    0.020584    0.020584  22+0020
       86    0.020058    0.020058  2+2-00+

 ---------------------------------------
      - DIABATIC STATES IN CMO -        
 ---------------------------------------

 State #    1  Energy =     -55.993551776

      Det      Coef        Coefp    Occupancy (Ignoring core)
      ---      ----        ----    --------- --------- -----
        1    0.963516   -0.963516  222+000
       36    0.171938    0.171938  22+2000
      717   -0.069249   -0.069249  220+002
      393   -0.042863   -0.042863  202+020
       17   -0.039085   -0.039085  22-+00+
        8   -0.036442    0.036442  2-2+0+0
       71    0.035957   -0.035957  2+22000
      179   -0.035756   -0.035756  202+200
      708   -0.035251    0.035251  2-++0+-
      402   -0.031616    0.031616  2+-+0-+
      753   -0.027635   -0.027635  202+002
      106   -0.026596   -0.026596  +222000
      215   -0.026158   -0.026158  022+200
       51    0.026109   -0.026109  22+-00+
      122   -0.024982   -0.024982  +2-200+
        4   -0.024786    0.024786  2-2++00
      183    0.024591   -0.024591  202+-+0
      389   -0.024196   -0.024196  202++-0
      703    0.023023    0.023023  220++0-
      429   -0.022531   -0.022531  022+020
      143   -0.022325   -0.022325  220+200
      705    0.022029    0.022029  -2+++0-
      180    0.021742   -0.021742  -+2+200
      214   -0.021702   -0.021702  +-2+200
      368    0.021210    0.021210  2-++0-+
       76    0.020801    0.020801  2+2-0+0
      428    0.020700    0.020700  +-2+020
      113   -0.020684    0.020684  +-220+0
      157   -0.020585    0.020585  220+-0+
      357   -0.020443   -0.020443  220+020
      394   -0.020196    0.020196  -+2+020
        2    0.020081   -0.020081  2220+00

 State #    2  Energy =     -55.787495224

      Det      Coef        Coefp    Occupancy (Ignoring core)
      ---      ----        ----    --------- --------- -----
       71   -0.770382    0.770382  2+22000
       36    0.605190    0.605190  22+2000
        1   -0.079360    0.079360  222+000
      822    0.054215   -0.054215  2+02002
      123   -0.036183    0.036183  +-2200+
      472   -0.033894   -0.033894  2+020-+
      463   -0.029139    0.029139  20+2020
      107    0.028746   -0.028746  +22-+00
      111    0.023383   -0.023383  +22-0+0
      813   -0.023310    0.023310  20+20+-
       86   -0.022654   -0.022654  2+2-00+
       41   -0.022414    0.022414  22+-0+0
      809   -0.022367    0.022367  20+2+0-
      810    0.021244    0.021244  -++2+0-
      320    0.021119    0.021119  0+22200
      249   -0.020947    0.020947  20+2200
      812    0.020752   -0.020752  2+020+-
      177    0.020311   -0.020311  2+20200
       53   -0.020130   -0.020130  2-+200+

 State #    3  Energy =     -55.809892084

      Det      Coef        Coefp    Occupancy (Ignoring core)
      ---      ----        ----    --------- --------- -----
       36   -0.756640   -0.756640  22+2000
       71   -0.607869    0.607869  2+22000
        1    0.157985   -0.157985  222+000
      822    0.043540   -0.043540  2+02002
      122    0.036197    0.036197  +2-200+
      463    0.032534   -0.032534  20+2020
      262    0.029552    0.029552  2+02-0+
      111    0.029294   -0.029294  +22-0+0
      249    0.029254   -0.029254  20+2200
      813   -0.025227    0.025227  20+20+-
      253   -0.024492   -0.024492  20+2-+0
      823    0.023318   -0.023318  20+2002
      250   -0.023234   -0.023234  -++2200
       88   -0.023160    0.023160  202200+
       16    0.022999   -0.022999  222000+
      142    0.020943    0.020943  22+0200
       38    0.020938   -0.020938  2202+00
      121    0.020817   -0.020817  +22-00+
       42   -0.020366    0.020366  22020+0
       74   -0.020342    0.020342  2022+00
      285    0.020298   -0.020298  02+2200

 ---------------------------------------
    -DIABATIC STATES IN PROTOTYPES-     
 ---------------------------------------

     STATE:    1
 Group Ref#    Coefficients
     1    1    0.989676
     2    2   -0.000882
     3    3    0.001276

WEIGHT OF LISTED PROTOTYPES:   97.95%

     STATE:    2
 Group Ref#    Coefficients
     1    1   -0.000884
     2    2    0.988046
     3    3   -0.001539

WEIGHT OF LISTED PROTOTYPES:   97.62%

     STATE:    3
 Group Ref#    Coefficients
     1    1    0.001277
     2    2   -0.001537
     3    3    0.989010

WEIGHT OF LISTED PROTOTYPES:   97.81%

     DIRECT MAX. DIABATIZATION FINISHED    
 CPU     0: STEP CPU TIME=     0.24 TOTAL CPU TIME=         12.4 (      0.2 MIN)
 TOTAL WALL CLOCK TIME=         12.4 SECONDS, CPU UTILIZATION IS    99.84%

DIABATS FOR SPIN-ORBIT CALCULATION ARE READY

TRANSITION DIPOLES BETWEEN ADIABATS (in A.U.):

STATE PAIR      X         Y         Z
    1    1 -0.049516  0.159887  0.760049
    2    1  0.012130 -0.022392 -0.081455
    2    2 -0.056831  0.008337  0.263028
    3    1 -0.054576 -0.038426  0.018579
    3    2 -0.249874 -0.088511  0.000783
    3    3 -0.088454  0.405909  0.258813


TRANSITION DIPOLES BETWEEN DIABATS (in A.U.):

STATE PAIR      X         Y         Z
    1    1 -0.054453  0.161706  0.773671
    2    1  0.011549  0.014178  0.002059
    2    2 -0.322204  0.164550  0.258682
    3    1  0.013936  0.008356 -0.003489
    3    2  0.045413  0.217726  0.003038
    3    3  0.181855  0.247878  0.249536

TRANSITION DIPOLES BETWEEN DIRECT MAX. DIABATS (in A.U.):

STATE PAIR      X         Y         Z
    1    1 -0.054453  0.161706  0.773671
    2    1  0.011549  0.014178  0.002059
    2    2 -0.322204  0.164550  0.258682
    3    1  0.013936  0.008356 -0.003489
    3    2  0.045412  0.217726  0.003038
    3    3  0.181855  0.247878  0.249536
 No $TRANST Group Found.
 Quit without doing spin-orbit coupling
 ..... DONE WITH MP2 ENERGY .....
 CPU     0: STEP CPU TIME=     0.00 TOTAL CPU TIME=         12.4 (      0.2 MIN)
 TOTAL WALL CLOCK TIME=         12.4 SECONDS, CPU UTILIZATION IS    99.84%
            100000000  WORDS OF DYNAMIC MEMORY USED
 EXECUTION OF GAMESS TERMINATED NORMALLY Wed Nov 16 19:45:27 2022
 DDI: 715512 bytes (0.7 MB / 0 MWords) used by master data server.

 ----------------------------------------
 CPU timing information for all processes
 ========================================
 0: 12.150 + 0.268 = 12.418
 ----------------------------------------
Note: The following floating-point exceptions are signalling: IEEE_DENORMAL
 ddikick.x: exited gracefully.
unset echo
----- accounting info -----
Files used on the master node io002 were:
-rw-r--r-- 1 bsonghao nooijen   20724 Nov 16 19:45 /scratch/bsonghao/nh3_diabatization_2d_at_mode_7_8_dist0.3_-0.1.F05
-rw-r--r-- 1 bsonghao nooijen  363520 Nov 16 19:45 /scratch/bsonghao/nh3_diabatization_2d_at_mode_7_8_dist0.3_-0.1.F09
-rw-r--r-- 1 bsonghao nooijen 1995920 Nov 16 19:45 /scratch/bsonghao/nh3_diabatization_2d_at_mode_7_8_dist0.3_-0.1.F10
-rw-r--r-- 1 bsonghao nooijen  131264 Nov 16 19:45 /scratch/bsonghao/nh3_diabatization_2d_at_mode_7_8_dist0.3_-0.1.F13
-rw-r--r-- 1 bsonghao nooijen  180312 Nov 16 19:45 /scratch/bsonghao/nh3_diabatization_2d_at_mode_7_8_dist0.3_-0.1.F15
-rw-r--r-- 1 bsonghao nooijen       0 Nov 16 19:45 /scratch/bsonghao/nh3_diabatization_2d_at_mode_7_8_dist0.3_-0.1.F16
-rw-r--r-- 1 bsonghao nooijen    9808 Nov 16 19:45 /scratch/bsonghao/nh3_diabatization_2d_at_mode_7_8_dist0.3_-0.1.F70
-rw-r--r-- 1 bsonghao nooijen    9808 Nov 16 19:45 /scratch/bsonghao/nh3_diabatization_2d_at_mode_7_8_dist0.3_-0.1.F71
-rw-r--r-- 1 bsonghao nooijen   19608 Nov 16 19:45 /scratch/bsonghao/nh3_diabatization_2d_at_mode_7_8_dist0.3_-0.1.F72
-rw-r--r-- 1 bsonghao nooijen   19608 Nov 16 19:45 /scratch/bsonghao/nh3_diabatization_2d_at_mode_7_8_dist0.3_-0.1.F73
-rw-r--r-- 1 bsonghao nooijen 1920824 Nov 16 19:45 /scratch/bsonghao/nh3_diabatization_2d_at_mode_7_8_dist0.3_-0.1.F74
-rw-r--r-- 1 bsonghao nooijen       0 Nov 16 19:45 /scratch/bsonghao/nh3_diabatization_2d_at_mode_7_8_dist0.3_-0.1.F75
-rw-r--r-- 1 bsonghao nooijen   58848 Nov 16 19:45 /scratch/bsonghao/nh3_diabatization_2d_at_mode_7_8_dist0.3_-0.1.F76
-rw-r--r-- 1 bsonghao nooijen       0 Nov 16 19:45 /scratch/bsonghao/nh3_diabatization_2d_at_mode_7_8_dist0.3_-0.1.F77
-rw-r--r-- 1 bsonghao nooijen    1864 Nov 16 19:45 /scratch/bsonghao/nh3_diabatization_2d_at_mode_7_8_dist0.3_-0.1.F78
-rw-r--r-- 1 bsonghao nooijen   39208 Nov 16 19:45 /scratch/bsonghao/nh3_diabatization_2d_at_mode_7_8_dist0.3_-0.1.F79
-rw-r--r-- 1 bsonghao nooijen     104 Nov 16 19:45 /scratch/bsonghao/nh3_diabatization_2d_at_mode_7_8_dist0.3_-0.1.F80
-rw-r--r-- 1 bsonghao nooijen   13472 Nov 16 19:45 /scratch/bsonghao/nh3_diabatization_2d_at_mode_7_8_dist0.3_-0.1.F81
-rw-r--r-- 1 bsonghao nooijen      16 Nov 16 19:45 /scratch/bsonghao/nh3_diabatization_2d_at_mode_7_8_dist0.3_-0.1.F82
-rw-r--r-- 1 bsonghao nooijen   19216 Nov 16 19:45 /scratch/bsonghao/nh3_diabatization_2d_at_mode_7_8_dist0.3_-0.1.F83
-rw-r--r-- 1 bsonghao nooijen   29712 Nov 16 19:45 /scratch/bsonghao/nh3_diabatization_2d_at_mode_7_8_dist0.3_-0.1.F84
-rw-r--r-- 1 bsonghao nooijen  401576 Nov 16 19:45 /scratch/bsonghao/nh3_diabatization_2d_at_mode_7_8_dist0.3_-0.1.F85
-rw-r--r-- 1 bsonghao nooijen  903672 Nov 16 19:45 /scratch/bsonghao/nh3_diabatization_2d_at_mode_7_8_dist0.3_-0.1.F86
-rw-r--r-- 1 bsonghao nooijen     656 Nov 16 19:45 /scratch/bsonghao/nh3_diabatization_2d_at_mode_7_8_dist0.3_-0.1.F87
-rw-r--r-- 1 bsonghao nooijen   31856 Nov 16 19:45 /scratch/bsonghao/nh3_diabatization_2d_at_mode_7_8_dist0.3_-0.1.F88
-rw-r--r-- 1 bsonghao nooijen     240 Nov 16 19:45 /scratch/bsonghao/nh3_diabatization_2d_at_mode_7_8_dist0.3_-0.1.F89
-rw-r--r-- 1 bsonghao nooijen       0 Nov 16 19:45 /scratch/bsonghao/nh3_diabatization_2d_at_mode_7_8_dist0.3_-0.1.F90
-rw-r--r-- 1 bsonghao nooijen   13760 Nov 16 19:45 /scratch/bsonghao/nh3_diabatization_2d_at_mode_7_8_dist0.3_-0.1.F91
-rw-r--r-- 1 bsonghao nooijen   22776 Nov 16 19:45 /scratch/bsonghao/nh3_diabatization_2d_at_mode_7_8_dist0.3_-0.1.F92
-rw-r--r-- 1 bsonghao nooijen   23168 Nov 16 19:45 /scratch/bsonghao/nh3_diabatization_2d_at_mode_7_8_dist0.3_-0.1.F93
-rw-r--r-- 1 bsonghao nooijen   22776 Nov 16 19:45 /scratch/bsonghao/nh3_diabatization_2d_at_mode_7_8_dist0.3_-0.1.F94
-rw-r--r-- 1 bsonghao nooijen   13760 Nov 16 19:45 /scratch/bsonghao/nh3_diabatization_2d_at_mode_7_8_dist0.3_-0.1.F95
-rw-r--r-- 1 bsonghao nooijen   29440 Nov 16 19:45 /scratch/bsonghao/nh3_diabatization_2d_at_mode_7_8_dist0.3_-0.1.F96
-rw-r--r-- 1 bsonghao nooijen    1184 Nov 16 19:45 /scratch/bsonghao/nh3_diabatization_2d_at_mode_7_8_dist0.3_-0.1.F97
-rw-r--r-- 1 bsonghao nooijen    9808 Nov 16 19:45 /scratch/bsonghao/nh3_diabatization_2d_at_mode_7_8_dist0.3_-0.1.F98
-rw-r--r-- 1 bsonghao nooijen   30264 Nov 16 19:45 /scratch/bsonghao/nh3_diabatization_2d_at_mode_7_8_dist0.3_-0.1.F99
ls: No match.
ls: No match.
ls: No match.
Wed 16 Nov 2022 07:45:30 PM EST
0.282u 0.047s 0:15.79 2.0%	0+0k 48+224io 0pf+0w
