----- GAMESS execution script 'rungms' -----
This job is running on host io002
under operating system Linux at Wed 16 Nov 2022 06:18:30 PM EST
Available scratch disk space (Kbyte units) at beginning of the job is
Filesystem       1K-blocks       Used   Available Use% Mounted on
/dev/sdc1      15378471580 3278917120 11318349060  23% /scratch
GAMESS temporary binary files will be written to /scratch/bsonghao
GAMESS supplementary output files will be written to /home/bsonghao/.gamess_ascii_files/267638
Copying input file nh3_diabatization_2d_at_mode_7_8_dist-0.8_-0.4.inp to your run's scratch directory...
cp nh3_diabatization_2d_at_mode_7_8_dist-0.8_-0.4.inp /scratch/bsonghao/nh3_diabatization_2d_at_mode_7_8_dist-0.8_-0.4.F05
unset echo
/home/bjb2chen/gamess/ddikick.x /home/bjb2chen/gamess/gamess.00.x nh3_diabatization_2d_at_mode_7_8_dist-0.8_-0.4 -ddi 1 1 io002 -scr /scratch/bsonghao

 Distributed Data Interface kickoff program.
 Initiating 1 compute processes on 1 nodes to run the following command:
 /home/bjb2chen/gamess/gamess.00.x nh3_diabatization_2d_at_mode_7_8_dist-0.8_-0.4 

          ******************************************************
          *         GAMESS VERSION = 02 AUG 2018 (R2)         *
          *             FROM IOWA STATE UNIVERSITY             *
          * M.W.SCHMIDT, K.K.BALDRIDGE, J.A.BOATZ, S.T.ELBERT, *
          *   M.S.GORDON, J.H.JENSEN, S.KOSEKI, N.MATSUNAGA,   *
          *          K.A.NGUYEN, S.J.SU, T.L.WINDUS,           *
          *       TOGETHER WITH M.DUPUIS, J.A.MONTGOMERY       *
          *         J.COMPUT.CHEM.  14, 1347-1363(1993)        *
          **************** 64 BIT LINUX VERSION ****************

  SINCE 1993, STUDENTS AND POSTDOCS WORKING AT IOWA STATE UNIVERSITY
  AND ALSO IN THEIR VARIOUS JOBS AFTER LEAVING ISU HAVE MADE IMPORTANT
  CONTRIBUTIONS TO THE CODE:
     IVANA ADAMOVIC, CHRISTINE AIKENS, YURI ALEXEEV, POOJA ARORA,
     ANDREY ASADCHEV, ROB BELL, PRADIPTA BANDYOPADHYAY, JONATHAN BENTZ,
     BRETT BODE, KURT BRORSEN, CALEB CARLIN, GALINA CHABAN, WEI CHEN,
     CHEOL HO CHOI, PAUL DAY, ALBERT DEFUSCO, NUWAN DESILVA, TIM DUDLEY,
     DMITRI FEDOROV, ALEX FINDLATER, GRAHAM FLETCHER, MARK FREITAG,
     KURT GLAESEMANN, ANASTASIA GUININA,
     DAN KEMP, GRANT MERRILL, NORIYUKI MINEZAWA, JONATHAN MULLIN,
     TAKESHI NAGATA, SEAN NEDD, HEATHER NETZLOFF, BOSILJKA NJEGIC, RYAN OLSON,
     MIKE PAK, BUU PHAM,
     SPENCER PRUITT, LUKE ROSKOP, JIM SHOEMAKER, LYUDMILA SLIPCHENKO,
     TONY SMITH, SAROM SOK LEANG, JIE SONG, TETSUYA TAKETSUGU, SIMON WEBB,
     PENG XU, SOOHAENG YOO, FEDERICO ZAHARIEV

  ADDITIONAL CODE HAS BEEN PROVIDED BY COLLABORATORS IN OTHER GROUPS:
     IOWA STATE UNIVERSITY:
          JOE IVANIC, AARON WEST, LAIMUTIS BYTAUTAS, KLAUS RUEDENBERG
     UNIVERSITY OF TOKYO: KIMIHIKO HIRAO, TAKAHITO NAKAJIMA,
          TAKAO TSUNEDA, MUNEAKI KAMIYA, SUSUMU YANAGISAWA,
          KIYOSHI YAGI, MAHITO CHIBA, SEIKEN TOKURA, NAOAKI KAWAKAMI
     UNIVERSITY OF AARHUS: FRANK JENSEN
     UNIVERSITY OF IOWA: VISVALDAS KAIRYS, HUI LI
     NATIONAL INST. OF STANDARDS AND TECHNOLOGY: WALT STEVENS, DAVID GARMER
     UNIVERSITY OF PISA: BENEDETTA MENNUCCI, JACOPO TOMASI
     UNIVERSITY OF MEMPHIS: HENRY KURTZ, PRAKASHAN KORAMBATH
     UNIVERSITY OF ALBERTA: TOBY ZENG, MARIUSZ KLOBUKOWSKI
     UNIVERSITY OF NEW ENGLAND: MARK SPACKMAN
     MIE UNIVERSITY: HIROAKI UMEDA
     NAT. INST. OF ADVANCED INDUSTRIAL SCIENCE AND TECHNOLOGY: KAZUO KITAURA
     MICHIGAN STATE UNIVERSITY:
          KAROL KOWALSKI, MARTA WLOCH, JEFFREY GOUR, JESSE LUTZ,
          WEI LI, JUN SHEN, J. EMILIANO DEUSTUA, PIOTR PIECUCH
     UNIVERSITY OF MINNESOTA:
          YINAN SHU
     UNIVERSITY OF SILESIA: MONIKA MUSIAL, STANISLAW KUCHARSKI
     FACULTES UNIVERSITAIRES NOTRE-DAME DE LA PAIX:
          OLIVIER QUINET, BENOIT CHAMPAGNE
     UNIVERSITY OF CALIFORNIA - SANTA BARBARA: BERNARD KIRTMAN
     INSTITUTE FOR MOLECULAR SCIENCE:
          KAZUYA ISHIMURA, MICHIO KATOUDA, AND SHIGERU NAGASE
     UNIVERSITY OF NOTRE DAME: ANNA POMOGAEVA, DAN CHIPMAN
     KYUSHU UNIVERSITY:
          HARUYUKI NAKANO,
          FENG LONG GU, JACEK KORCHOWIEC, MARCIN MAKOWSKI, AND YURIKO AOKI,
          HIROTOSHI MORI AND EISAKU MIYOSHI
     PENNSYLVANIA STATE UNIVERSITY:
          TZVETELIN IORDANOV, CHET SWALINA, JONATHAN SKONE,
          SHARON HAMMES-SCHIFFER
     WASEDA UNIVERSITY:
          MASATO KOBAYASHI, TOMOKO AKAMA, TSUGUKI TOUMA,
          TAKESHI YOSHIKAWA, YASUHIRO IKABATA, JUNJI SEINO,
          YUYA NAKAJIMA, HIROMI NAKAI
     NANJING UNIVERSITY: SHUHUA LI
     UNIVERSITY OF NEBRASKA:
          PEIFENG SU, DEJUN SI, NANDUN THELLAMUREGE, YALI WANG, HUI LI
     UNIVERSITY OF ZURICH: ROBERTO PEVERATI, KIM BALDRIDGE
     N. COPERNICUS UNIVERSITY AND JACKSON STATE UNIVERSITY:
          MARIA BARYSZ
     UNIVERSITY OF COPENHAGEN: Jimmy Kromann, CASPER STEINMANN
     TOKYO INSTITUTE OF TECHNOLOGY: HIROYA NAKATA
     NAGOYA UNIVERSITY: YOSHIO NISHIMOTO, STEPHAN IRLE
     MOSCOW STATE UNIVERSITY: VLADIMIR MIRONOV

 EXECUTION OF GAMESS BEGUN Wed Nov 16 18:18:31 2022

            ECHO OF THE FIRST FEW INPUT CARDS -
 INPUT CARD> $system kdiag=3 mwords=100 memddi=1000 parall=.t. $end                         
 INPUT CARD> $contrl runtyp=energy ispher=1 $end                                            
 INPUT CARD> $contrl icut=9 itol=20 inttyp=rysquad qmttol=1.0d-05 nosym=1 $end              
 INPUT CARD> $scf    npunch=2 conv=1.0d-06 dirscf=.t.      $end                             
 INPUT CARD> $contrl scftyp=mcscf  mult=2 maxit=200 icharg=1 mplevl=2 $end                  
 INPUT CARD> $guess  guess=moread norb=29 purify=.t. $end                                   
 INPUT CARD> $basis  gbasis=ccd $end                                                        
 INPUT CARD> $mcscf  cistep=gmcci fullnr=.t. finci=mos                                      
 INPUT CARD>         acurcy=1.d-6 maxit=100 $end                                            
 INPUT CARD> $trans  dirtrf=.t. $end                                                        
 INPUT CARD> $mrmp   mrpt=gmcpt rdvecs=.f. $end                                             
 INPUT CARD> $gmcpt  nmofzc=0 nmodoc=1 nmoact=7 nelact=7 stsym(1)=A                         
 INPUT CARD>         reftyp=ormas nspace=1 mstart(1)=2 mine(1)=7 maxe(1)=7                  
 INPUT CARD>         kstate(1)=1,1,1                                                        
 INPUT CARD>         wstate(1)=1,1,1                                                        
 INPUT CARD>         iwgt=0 thrwgt=-1.0 krot=.f. kszdoe=.f. knospn=.f.                      
 INPUT CARD>         thrde=-1.0 edshft=0.02 $end                                            
 INPUT CARD> $data                                                                          
 INPUT CARD> NH3+ 3 states calculation at NH3 structure.                                    
 INPUT CARD> c1                                                                             
 INPUT CARD>N 7.0 0.024915672 0.04983122400000001 -0.1693804682                             
 INPUT CARD>H 1.0 -0.974681086 0.5988111798 0.1263680721                                    
 INPUT CARD>H 1.0 -0.363278542 -0.7074269438 0.49213988010000004                            
 INPUT CARD>H 1.0 0.991749708 -0.58380596 0.1508694241                                      
 INPUT CARD>$end                                                                            
 INPUT CARD>--- OPTIMIZED RHF      MO-S --- GENERATED AT Mon Nov 14 16:47:08 2022           
 INPUT CARD>E=      -56.3825050291, E(NUC)=   11.8429239490                                 
 INPUT CARD> $VEC                                                                           
 INPUT CARD> 1  1-1.00134066E+00-2.25158504E-03 3.44925845E-03 0.00000000E+00 0.00000000E+00
 INPUT CARD> 1  2-2.13170927E-03 0.00000000E+00 0.00000000E+00 6.57129898E-04-6.87950443E-05
 INPUT CARD> 1  3-6.87950443E-05 1.37590089E-04 0.00000000E+00 0.00000000E+00 0.00000000E+00
 INPUT CARD> 1  4 3.25502815E-04-4.84772356E-04 3.62525460E-04-6.27912517E-04-3.45956485E-04
 INPUT CARD> 1  5 3.25502815E-04-4.84772356E-04 3.62525460E-04 6.27912517E-04-3.45956485E-04
 INPUT CARD> 1  6 3.25502815E-04-4.84772356E-04-7.25050921E-04 0.00000000E+00-3.45956485E-04
 INPUT CARD> 2  1 1.31286642E-02-4.05911371E-01-2.82090992E-01 0.00000000E+00 0.00000000E+00
 INPUT CARD> 2  2-7.71489043E-02 0.00000000E+00 0.00000000E+00 9.73717494E-03 6.62450916E-04
 INPUT CARD> 2  3 6.62450916E-04-1.32490183E-03 0.00000000E+00 0.00000000E+00 0.00000000E+00
 INPUT CARD> 2  4-1.96090317E-01-1.96656153E-02-1.74855877E-02 3.02859263E-02 8.68214399E-03
 INPUT CARD> 2  5-1.96090317E-01-1.96656153E-02-1.74855877E-02-3.02859263E-02 8.68214399E-03
 INPUT CARD> 2  6-1.96090317E-01-1.96656153E-02 3.49711754E-02 0.00000000E+00 8.68214399E-03
 INPUT CARD> 3  1 0.00000000E+00 0.00000000E+00 0.00000000E+00 4.48608762E-01 0.00000000E+00
 INPUT CARD> 3  2 0.00000000E+00 2.18692520E-01 0.00000000E+00 0.00000000E+00 1.30198027E-02
 INPUT CARD> 3  3-1.30198027E-02 0.00000000E+00 0.00000000E+00 2.71832968E-02 0.00000000E+00
 INPUT CARD> 3  4-1.85332726E-01-7.03958951E-02 8.47929477E-03 1.95242443E-02 8.32835058E-03
 INPUT CARD> 3  5-1.85332726E-01-7.03958951E-02 8.47929477E-03-1.95242443E-02 8.32835058E-03
 INPUT CARD> 3  6 3.70665453E-01 1.40791790E-01-2.53376884E-02 0.00000000E+00-1.66567012E-02
 INPUT CARD> 4  1 0.00000000E+00 0.00000000E+00 0.00000000E+00 0.00000000E+00 4.48608762E-01
 INPUT CARD> 4  2 0.00000000E+00 0.00000000E+00 2.18692520E-01 0.00000000E+00 0.00000000E+00
 INPUT CARD> 4  3 0.00000000E+00 0.00000000E+00-1.50339731E-02 0.00000000E+00 2.71832968E-02
 INPUT CARD> 4  4 3.21005698E-01 1.21929267E-01 1.95242443E-02-1.40653607E-02-1.44251263E-02
  100000000 WORDS OF MEMORY AVAILABLE

     BASIS OPTIONS
     -------------
     GBASIS=CCD          IGAUSS=       0      POLAR=NONE    
     NDFUNC=       0     NFFUNC=       0     DIFFSP=       F
     NPFUNC=       0      DIFFS=       F     BASNAM=        


     RUN TITLE
     ---------
  NH3+ 3 states calculation at NH3 structure.                                    

 THE POINT GROUP OF THE MOLECULE IS C1      
 THE ORDER OF THE PRINCIPAL AXIS IS     0

 ATOM      ATOMIC                      COORDINATES (BOHR)
           CHARGE         X                   Y                   Z
 N           7.0     0.0470837929        0.0941673590       -0.3200826726
 H           1.0    -1.8418801780        1.1315890482        0.2388010299
 H           1.0    -0.6864969016       -1.3368430801        0.9300095210
 H           1.0     1.8741351965       -1.1032332944        0.2851018715

          INTERNUCLEAR DISTANCES (ANGS.)
          ------------------------------

                1 N          2 H          3 H          4 H     

   1 N       0.0000000    1.1781510 *  1.0778422 *  1.1995100 *
   2 H       1.1781510 *  0.0000000    1.4879046 *  2.2947840 *
   3 H       1.0778422 *  1.4879046 *  0.0000000    1.4028005 *
   4 H       1.1995100 *  2.2947840 *  1.4028005 *  0.0000000  

  * ... LESS THAN  3.000


     ATOMIC BASIS SET
     ----------------
 THE CONTRACTED PRIMITIVE FUNCTIONS HAVE BEEN UNNORMALIZED
 THE CONTRACTED BASIS FUNCTIONS ARE NOW NORMALIZED TO UNITY

  SHELL TYPE  PRIMITIVE        EXPONENT          CONTRACTION COEFFICIENT(S)

 N         

      1   S       1          9046.0000000    0.000699617413
      1   S       2          1357.0000000    0.005386054630
      1   S       3           309.3000000    0.027391021189
      1   S       4            87.7300000    0.103150591982
      1   S       5            28.5600000    0.278570663317
      1   S       6            10.2100000    0.448294849454
      1   S       7             3.8380000    0.278085928395
      1   S       8             0.7466000    0.015431561233

      2   S       9          9046.0000000   -0.000304990096
      2   S      10          1357.0000000   -0.002408026379
      2   S      11           309.3000000   -0.011944448725
      2   S      12            87.7300000   -0.048925992909
      2   S      13            28.5600000   -0.134472724725
      2   S      14            10.2100000   -0.315112577700
      2   S      15             3.8380000   -0.242857832550
      2   S      16             0.7466000    1.094382206854

      3   S      17             0.2248000    1.000000000000

      4   P      18            13.5500000    0.058905676772
      4   P      19             2.9170000    0.320461106714
      4   P      20             0.7973000    0.753042061792

      5   P      21             0.2185000    1.000000000000

      6   D      22             0.8170000    1.000000000000

 H         

      7   S      23            13.0100000    0.033498726390
      7   S      24             1.9620000    0.234800801174
      7   S      25             0.4446000    0.813682957883

      8   S      26             0.1220000    1.000000000000

      9   P      27             0.7270000    1.000000000000

 H         

     10   S      28            13.0100000    0.033498726390
     10   S      29             1.9620000    0.234800801174
     10   S      30             0.4446000    0.813682957883

     11   S      31             0.1220000    1.000000000000

     12   P      32             0.7270000    1.000000000000

 H         

     13   S      33            13.0100000    0.033498726390
     13   S      34             1.9620000    0.234800801174
     13   S      35             0.4446000    0.813682957883

     14   S      36             0.1220000    1.000000000000

     15   P      37             0.7270000    1.000000000000

 TOTAL NUMBER OF BASIS SET SHELLS             =   15
 NUMBER OF CARTESIAN GAUSSIAN BASIS FUNCTIONS =   30
 NOTE: THIS RUN WILL RESTRICT THE MO VARIATION SPACE TO SPHERICAL HARMONICS.
 THE NUMBER OF ORBITALS KEPT IN THE VARIATIONAL SPACE WILL BE PRINTED LATER.
 NUMBER OF ELECTRONS                          =    9
 CHARGE OF MOLECULE                           =    1
 SPIN MULTIPLICITY                            =    2
 NUMBER OF OCCUPIED ORBITALS (ALPHA)          =    5
 NUMBER OF OCCUPIED ORBITALS (BETA )          =    4
 TOTAL NUMBER OF ATOMS                        =    4
 THE NUCLEAR REPULSION ENERGY IS       10.6324427965

     $CONTRL OPTIONS
     ---------------
 SCFTYP=MCSCF        RUNTYP=ENERGY       EXETYP=RUN     
 MPLEVL=       2     CITYP =NONE         CCTYP =NONE         VBTYP =NONE    
 DFTTYP=NONE         TDDFT =NONE    
 MULT  =       2     ICHARG=       1     NZVAR =       0     COORD =UNIQUE  
 PP    =NONE         RELWFN=NONE         LOCAL =NONE         NUMGRD=       F
 ISPHER=       1     NOSYM =       1     MAXIT =     200     UNITS =ANGS    
 PLTORB=       F     MOLPLT=       F     AIMPAC=       F     FRIEND=        
 NPRINT=       7     IREST =       0     GEOM  =INPUT   
 NORMF =       0     NORMP =       0     ITOL  =      20     ICUT  =       9
 INTTYP=RYSQUAD      GRDTYP=BEST         QMTTOL= 1.0E-05

     $SYSTEM OPTIONS
     ---------------
  REPLICATED MEMORY=   100000000 WORDS (ON EVERY NODE).
 DISTRIBUTED MEMDDI=        1000 MILLION WORDS IN AGGREGATE,
 MEMDDI DISTRIBUTED OVER   1 PROCESSORS IS  1000000000 WORDS/PROCESSOR.
 TOTAL MEMORY REQUESTED ON EACH PROCESSOR=  1100000000 WORDS.
 TIMLIM=      525600.00 MINUTES, OR     365.0 DAYS.
 PARALL= T  BALTYP=  DLB     KDIAG=    3  COREFL= F
 MXSEQ2=     300 MXSEQ3=     150  mem10=         0

          ----------------
          PROPERTIES INPUT
          ----------------

     MOMENTS            FIELD           POTENTIAL          DENSITY
 IEMOM =       1   IEFLD =       0   IEPOT =       0   IEDEN =       0
 WHERE =COMASS     WHERE =NUCLEI     WHERE =NUCLEI     WHERE =NUCLEI  
 OUTPUT=BOTH       OUTPUT=BOTH       OUTPUT=BOTH       OUTPUT=BOTH    
 IEMINT=       0   IEFINT=       0                     IEDINT=       0
                                                       MORB  =       0

     -------------------------------
     INTEGRAL TRANSFORMATION OPTIONS
     -------------------------------
     NWORD  =            0
     CUTOFF = 1.0E-09     MPTRAN =       0
     DIRTRF =       T     AOINTS =DUP     

          ----------------------
          MCSCF INPUT PARAMETERS
          ----------------------
 CONVERGER SELECTION: FOCAS = F  SOSCF = F  FULLNR = T  QUD = F  JACOBI = F
 SECULAR EQUATION METHOD CISTEP = GMCCI   
 --- GENERAL INPUT OPTIONS:
 MAXIT =     100  MICIT =       1  ACURCY= 1.000E-06
 DAMP  =   0.000  CANONC=       T  ENGTOL= 1.000E-10
 EKT   =       F  NPUNCH=       2  NWORD =         0
 REGENERATE CI AFTER CONVERGENCE = NONE    
 DIABATIZATION AFTER CONVERGENCE =        F
 --- INPUT FOR FULLNR CONVERGER:
 METHOD=DM2       FORS  =       F  DROPC =       T
 LINSER=       F  FCORE =       F  NORB  =      30

          ----------------------
          INTEGRAL INPUT OPTIONS
          ----------------------
 NOPK  =       1 NORDER=       0 SCHWRZ=       T

 ------------------------------------------
 MULTIREFERENCE PERTURBATION THEORY CONTROL
 ------------------------------------------
 MRPT=GMCPT    READ CONVERGED MCSCF VECTORS= F


     ------------------------------------------
     THE POINT GROUP IS C1 , NAXIS= 1, ORDER= 1
     ------------------------------------------

 -- VARIATIONAL SPACE WILL BE RESTRICTED TO PURE SPHERICAL HARMONICS ONLY --
 AFTER EXCLUDING CONTAMINANT COMBINATIONS FROM THE CARTESIAN GAUSSIAN BASIS
 SET, THE NUMBER OF SPHERICAL HARMONICS KEPT IN THE VARIATION SPACE IS   29

     DIMENSIONS OF THE SYMMETRY SUBSPACES ARE
 A   =   29

 ..... DONE SETTING UP THE RUN .....
 CPU     0: STEP CPU TIME=     0.03 TOTAL CPU TIME=          0.0 (      0.0 MIN)
 TOTAL WALL CLOCK TIME=          0.1 SECONDS, CPU UTILIZATION IS    60.00%

          ********************
          1 ELECTRON INTEGRALS
          ********************
 TIME TO DO   DIPOLE INTEGRALS=      0.01
 ...... END OF ONE-ELECTRON INTEGRALS ......
 CPU     0: STEP CPU TIME=     0.01 TOTAL CPU TIME=          0.0 (      0.0 MIN)
 TOTAL WALL CLOCK TIME=          0.1 SECONDS, CPU UTILIZATION IS    80.00%

          -------------
          GUESS OPTIONS
          -------------
          GUESS =MOREAD            NORB  =      29          NORDER=       0
          MIX   =       F          PRTMO =       F          PUNMO =       F
          TOLZ  = 1.0E-08          TOLE  = 1.0E-05
          SYMDEN=       F          PURIFY=       T

 INITIAL GUESS ORBITALS GENERATED BY MOREAD   ROUTINE.

 STATISTICS FOR GENERATION OF SYMMETRY ORBITAL -Q- MATRIX
 NUMBER OF CARTESIAN ATOMIC ORBITALS=         30
 NUMBER OF SPHERICAL CONTAMINANTS DROPPED=     1
 NUMBER OF LINEARLY DEPENDENT MOS DROPPED=     0
 TOTAL NUMBER OF MOS IN VARIATION SPACE=      29
 ORBITAL PURIFICATION WILL OCCUR

 SYMMETRIES FOR INITIAL GUESS ORBITALS FOLLOW.   BOTH SET(S).
     5 ORBITALS ARE OCCUPIED (    1 CORE ORBITALS).
     1=A        2=A        3=A        4=A        5=A        6=A        7=A   
     8=A        9=A       10=A       11=A       12=A       13=A       14=A   
    15=A       16=A       17=A       18=A       19=A       20=A       21=A   
    22=A       23=A       24=A       25=A       26=A       27=A       28=A   
    29=A   
 ...... END OF INITIAL ORBITAL SELECTION ......
 CPU     0: STEP CPU TIME=     0.00 TOTAL CPU TIME=          0.0 (      0.0 MIN)
 TOTAL WALL CLOCK TIME=          0.1 SECONDS, CPU UTILIZATION IS    66.67%

                    ----------------------
                    AO INTEGRAL TECHNOLOGY
                    ----------------------
     S,P,L SHELL ROTATED AXIS INTEGRALS, REPROGRAMMED BY
        KAZUYA ISHIMURA (IMS) AND JOSE SIERRA (SYNSTAR).
     S,P,D,L SHELL ROTATED AXIS INTEGRALS PROGRAMMED BY
        KAZUYA ISHIMURA (INSTITUTE FOR MOLECULAR SCIENCE).
     S,P,D,F,G SHELL TO TOTAL QUARTET ANGULAR MOMENTUM SUM 5,
        ERIC PROGRAM BY GRAHAM FLETCHER (ELORET AND NASA ADVANCED
        SUPERCOMPUTING DIVISION, AMES RESEARCH CENTER).
     S,P,D,F,G,L SHELL GENERAL RYS QUADRATURE PROGRAMMED BY
        MICHEL DUPUIS (PACIFIC NORTHWEST NATIONAL LABORATORY).

          --------------------
          2 ELECTRON INTEGRALS
          --------------------

 DIRECT SCF METHOD SKIPS INTEGRAL STORAGE ON DISK.
 DIRECT TRANSFORMATION SKIPS AO INTEGRAL STORAGE ON DISK.
  ...... END OF TWO-ELECTRON INTEGRALS .....
 STEP CPU TIME =     0.02 TOTAL CPU TIME =          0.1 (      0.0 MIN)
 TOTAL WALL CLOCK TIME=          0.1 SECONDS, CPU UTILIZATION IS    75.00%
 DDI: Creating Array [0] - 900 x 36 = 32400 words.
 DDI: Creating Array [1] - 21 x 288 = 6048 words.
 DDI: Creating Array [2] - 36 x 36 = 1296 words.
 DDI: Creating Array [3] - 465 x 36 = 16740 words.

          -----------------
          MCSCF CALCULATION
          -----------------

 ----- NUCLEAR ENERGY ----- =        10.6324427965

     -------------------------------------------------
     GMC-PT/GMC-QDPT or general MCSCF input parameters
     -------------------------------------------------
 # of frozen core orbs. =         0 ->         0
 # of doubly occ. orbs. =         1
 # of active      orbs. =         7
 # of virtual     orbs. =        21
 # of active electrons  =         7
 # of states in CI      =         3
 Highest state in CI    =         3
 kstate =  1 1 1
 avecoe =  0.333 0.333 0.333
 State symmetry           = A           
 Assigned symmetry number = 1

 <<<Act. MO sym.: 1111111

 <<<Division of 1-ext.:  0
 <<<Division of 2-ext.:  0

 *** Reference space

 Reference type: ORMAS (= Occupation restricted multiple active space)
 # of orbitals          =  7
 # of minimum electrons =  7
 # of maximum electrons =  7
 State symmetry    =    1 (input)
 2*Sz              =    1 (input)
 Spin multiplicity =    2 (input)
 Dimension of reference space =      1225  (from      3432 walks)

 Dimension of reference space =      1225  (from      1225 walks)

 <<<Ionized spaces for Ref-CI:
      0:         1225 /   -1-0:         1960 /  0-1-0:         2891

 EVALUATING EXCHANGE INTEGRALS FOR DIRECT INTEGRAL TRANSFORMATION
 SCHWARZ INEQUALITY OVERHEAD:       465 INTEGRALS, T=        0.00

     --------------------------------------------
     PARTIAL TWO ELECTRON INTEGRAL TRANSFORMATION
     --------------------------------------------

 NUMBER OF CORE MOLECULAR ORBITALS     =    1
 NUMBER OF OCCUPIED MOLECULAR ORBITALS =    8
 TOTAL NUMBER OF MOLECULAR ORBITALS    =   29
 TOTAL NUMBER OF ATOMIC ORBITALS       =   30
 THRESHOLD FOR KEEPING TRANSFORMED 2E- INTEGRALS = 1.000E-09

 -------------------------------     ------------------------------
 DISTRIBUTED DATA TRANSFORMATION     PROGRAM WRITTEN BY G. FLETCHER
 -------------------------------     ------------------------------

 THE DISTRIBUTED MEMORY REQUIRED FOR THIS STEP IS MEMDDI=         1 MWORDS
 CREATING DISTRIBUTED STORAGE FOR [VIR OCC|VIR OCC] INTEGRALS
 CREATING DISTRIBUTED STORAGE FOR [VIR OCC|OCC OCC] INTEGRALS
 CREATING DISTRIBUTED STORAGE FOR [OCC OCC|OCC OCC] INTEGRALS
 CREATING DISTRIBUTED STORAGE FOR [VIR VIR|OCC OCC] INTEGRALS
 FOR    1 PROCESSORS, THE REPLICATED MEMORY NEEDED IS       73700 WORDS.
 SCHWARZ INEQUALITY OVERHEAD:       465 INTEGRALS, T=        0.00

      DIRECT 4-INDEX TRANSFORMATION 
      SCHWARZ INEQUALITY TEST SKIPPED          0 INTEGRAL BLOCKS
 ----- FROZEN CORE ENERGY =       -47.4944466130
 ... END OF INTEGRAL TRANSFORMATION ...
 CPU     0: STEP CPU TIME=     0.22 TOTAL CPU TIME=          0.3 (      0.0 MIN)
 TOTAL WALL CLOCK TIME=          0.3 SECONDS, CPU UTILIZATION IS    93.33%

     --------------------------------     -----------------------------
     MCHF NEWTON-RAPHSON OPTIMIZATION     CODE WRITTEN BY MICHEL DUPUIS
     --------------------------------     -----------------------------
     PARALLEL VERSION WRITTEN BY G. FLETCHER (ELORET)
     NASA ADVANCED SUPERCOMPUTING DIVISION, AMES RESEARCH CENTER

 NUMBER OF INDEPENDENT ORBITAL ROTATION PARAMETERS =   175
 ..... DONE SOLVING NEWTON-RAPHSON EQUATIONS .....
 CPU     0: STEP CPU TIME=     0.87 TOTAL CPU TIME=          1.1 (      0.0 MIN)
 TOTAL WALL CLOCK TIME=          1.2 SECONDS, CPU UTILIZATION IS    99.14%
 ..... DONE WITH NTN-RPH ORBITAL ROTATIONS ..... 
 CPU     0: STEP CPU TIME=     0.00 TOTAL CPU TIME=          1.1 (      0.0 MIN)
 TOTAL WALL CLOCK TIME=          1.2 SECONDS, CPU UTILIZATION IS    99.14%
 MAXIMUM MEMORY USED BY NTN-RPH CODE WAS     57645 WORDS.

 ITER     TOTAL ENERGY      DEL(E)  LAGRANGIAN ASYMMETRY   SQCDF  MICIT   DAMP
   1      -55.560414333 -0.560414333  0.104098   10    4 8.856E-02  1   0.0000
   2      -55.636830002 -0.076415669  0.020733   12    5 4.577E-01  1   0.0000
   3      -55.674635603 -0.037805602  0.014991   11    6 2.210E-01  1   0.0144
   4      -55.692119384 -0.017483781  0.005218   11    6 4.092E-02  1   0.0065
   5      -55.694488441 -0.002369057  0.001479   14    5 1.326E-03  1   0.0000
   6      -55.694602027 -0.000113585  0.000676   14    5 1.542E-04  1   0.0000
   7      -55.694619126 -0.000017100  0.000310   14    5 3.354E-05  1   0.0000
   8      -55.694622791 -0.000003665  0.000148   14    5 7.896E-06  1   0.0000
   9      -55.694623629 -0.000000838  0.000071   14    5 1.924E-06  1   0.0000
  10      -55.694623827 -0.000000198  0.000035   14    5 4.831E-07  1   0.0000
  11      -55.694623875 -0.000000048  0.000017   14    5 1.249E-07  1   0.0000
  12      -55.694623887 -0.000000012  0.000009   14    5 3.321E-08  1   0.0000
  13      -55.694623890 -0.000000003  0.000004   14    5 9.089E-09  1   0.0000
  14      -55.694623891 -0.000000001  0.000002   23    5 2.562E-09  1   0.0000
  15      -55.694623891 -0.000000000  0.000001   23    5 7.359E-10  1   0.0000
  16      -55.694623892 -0.000000000  0.000001   23    5 2.149E-10  1   0.0000

          --------------------
          LAGRANGIAN CONVERGED
          --------------------

 FINAL MCSCF ENERGY IS      -55.6946238915 AFTER  16 ITERATIONS

 -MCCI- BASED ON OPTIMIZED ORBITALS
 ----------------------------------

 PLEASE NOTE: IF THE ACTIVE ORBITALS ARE CANONICALIZED BELOW,
 THE FOLLOWING CI EXPANSION COEFFICIENTS AND THE DENSITY DO NOT
 CORRESPOND TO THE PRINTED ORBITALS.  THE PRINTED EXPANSIONS MATCH
 THE ORBITALS USED DURING THE LAST ITERATION.  IF YOU WISH TO SEE
 CI EXPANSIONS BASED ON THE CANONICAL (OR NATURAL) ORBITALS, YOU
 MUST RUN A CI CALCULATION WITH THAT ORBITAL CHOICE READ IN $VEC.

 Averaged energy =     -55.694623892

 State #    1  Energy =     -55.833775831  S =  0.500

      Det      Coef    Occupancy (Ignoring core)
      ---      ----    --------- --------- -----
        1   -0.826381  11110001110000
        2   -0.071369  11101001110000
        3    0.068111  11011001110000
        5    0.080739  01111001110000
        8    0.124612  10110101110000
       16   -0.071357  11100011110000
       17    0.162012  11010011110000
       36    0.369713  11110001101000
       51    0.068248  11100011101000
       52   -0.062626  11010011101000
       71   -0.184716  11110001011000
      211   -0.055384  11110000110100
      386   -0.092624  11110001010010
      393   -0.051130  10110101010010
      701   -0.093765  11110001100001
      717   -0.067116  11010011100001

 State #    2  Energy =     -55.686719822  S =  0.500

      Det      Coef    Occupancy (Ignoring core)
      ---      ----    --------- --------- -----
        1   -0.401574  11110001110000
        8    0.064387  10110101110000
       17    0.064284  11010011110000
       36   -0.711308  11110001101000
       38    0.093529  11011001101000
       39   -0.053945  10111001101000
       40    0.064087  01111001101000
       43    0.086782  10110101101000
       51   -0.064539  11100011101000
       52    0.114046  11010011101000
       71    0.425341  11110001011000
       73   -0.062305  11011001011000
       87   -0.068837  11010011011000
      106   -0.063424  11110000111000
      122    0.056588  11010010111000
      141   -0.066311  11110001100100
      386   -0.060305  11110001010010
      456   -0.057741  11110001001010
      701   -0.128823  11110001100001
      736    0.052931  11110001010001

 State #    3  Energy =     -55.563376022  S =  0.500

      Det      Coef    Occupancy (Ignoring core)
      ---      ----    --------- --------- -----
       36    0.465179  11110001101000
       52   -0.055149  11010011101000
       71    0.810862  11110001011000
       73   -0.050932  11011001011000
       78   -0.053882  10110101011000
       86    0.053571  11100011011000
       87   -0.100347  11010011011000
      246   -0.096345  11110001001100
      316    0.079677  11110000011100
      456    0.070743  11110001001010
      736    0.069332  11110001010001
      806   -0.139614  11110001001001
      822   -0.063297  11010011001001

 DENSITY MATRIX OVER ACTIVE MO-S

             1           2           3           4           5

    1    1.9682392
    2   -0.0206704   1.6232691
    3   -0.0424737  -0.0171683   1.6007304
    4   -0.0107451  -0.0128913  -0.0248048   1.6351970
    5    0.1239001   0.0612851   0.1270538   0.0640458   0.0540123
    6   -0.0143860  -0.1466861  -0.0391312  -0.0642163  -0.0166192
    7    0.0247571   0.0486293   0.2121276   0.1368219   0.0335067

             6           7

    6    0.0429000
    7   -0.0210836   0.0756520

 FORMING THE "STANDARD FOCK OPERATOR" IN DIRECT AO INTEGRAL MODE...
 ONLY THE    1 CORE AND   21 VIRTUAL ORBITALS WILL BE CANONICALIZED

          ----------------------
          MCSCF NATURAL ORBITALS
          ----------------------

                      1          2          3          4          5
                  -15.9691     1.9801     1.6527     1.6424     1.6373
                     A          A          A          A          A   
    1  N  1  S    1.000989   0.009748  -0.007037  -0.001089   0.004512
    2  N  1  S   -0.002065   0.431775  -0.156070  -0.036436   0.124434
    3  N  1  S   -0.006523   0.345121  -0.253612  -0.051865   0.189768
    4  N  1  X   -0.000111  -0.036694   0.046128   0.339451   0.347273
    5  N  1  Y   -0.000150  -0.065421   0.121652  -0.313493   0.400244
    6  N  1  Z    0.000980   0.081272   0.582754   0.021836  -0.014752
    7  N  1  X    0.000058  -0.005772   0.051635   0.150433   0.194218
    8  N  1  Y    0.000106  -0.012418   0.113302  -0.147679   0.232080
    9  N  1  Z   -0.000552   0.015047   0.393424   0.002716   0.041692
   10  N  1 XX    0.000002   0.001555  -0.010486  -0.005545   0.008906
   11  N  1 YY    0.000014  -0.000590  -0.011896   0.004470  -0.007823
   12  N  1 ZZ   -0.000017  -0.000965   0.022382   0.001075  -0.001083
   13  N  1 XY   -0.000026  -0.003108  -0.001220   0.001715  -0.018404
   14  N  1 XZ   -0.000089  -0.001617  -0.003059   0.012427   0.014267
   15  N  1 YZ   -0.000153  -0.003743  -0.003923  -0.012770   0.017111
   16  H  2  S   -0.001195   0.147674   0.093437  -0.334747   0.031108
   17  H  2  S    0.000462   0.001380   0.032746  -0.066330   0.037461
   18  H  2  X   -0.000543   0.022811   0.011086  -0.035296   0.008934
   19  H  2  Y    0.000327  -0.016619  -0.003275   0.019167   0.020288
   20  H  2  Z    0.000206  -0.002768   0.021086   0.007784  -0.001949
   21  H  3  S   -0.001747   0.225018   0.147468   0.089271  -0.345517
   22  H  3  S    0.000317   0.010111   0.037733   0.021835  -0.114891
   23  H  3  X   -0.000385   0.014676   0.012023   0.025215  -0.002065
   24  H  3  Y   -0.000739   0.027906   0.022148  -0.008215  -0.016663
   25  H  3  Z    0.000617  -0.021566   0.015431  -0.005577   0.025708
   26  H  4  S   -0.001141   0.146603   0.072213   0.295806   0.163696
   27  H  4  S    0.000409   0.001032   0.028823   0.051217   0.070778
   28  H  4  X    0.000507  -0.024375  -0.006169  -0.035992  -0.000947
   29  H  4  Y   -0.000307   0.012162   0.006812   0.013446   0.024890
   30  H  4  Z    0.000213  -0.003287   0.021710  -0.005269  -0.004434

                      6          7          8
                    0.0399     0.0248     0.0228
                     A          A          A   
    1  N  1  S   -0.138322  -0.123766  -0.032676
    2  N  1  S   -0.474872  -0.462051  -0.110713
    3  N  1  S    0.038596  -0.217210  -0.026550
    4  N  1  X   -0.294252   0.126214   0.797484
    5  N  1  Y   -0.436379   0.500704  -0.401959
    6  N  1  Z   -0.162047  -0.623204  -0.107236
    7  N  1  X    0.051506   0.028267   0.069257
    8  N  1  Y    0.076351   0.096121  -0.025225
    9  N  1  Z    0.092633   0.056536   0.023762
   10  N  1 XX    0.040653  -0.005255   0.049226
   11  N  1 YY   -0.032078   0.009486  -0.046214
   12  N  1 ZZ   -0.008575  -0.004232  -0.003013
   13  N  1 XY   -0.079911  -0.009116   0.026469
   14  N  1 XZ   -0.003100  -0.019595  -0.050155
   15  N  1 YZ   -0.010546  -0.054203   0.016108
   16  H  2  S    0.489411   0.121195   0.567314
   17  H  2  S    0.131322  -0.008530   0.153360
   18  H  2  X    0.054732   0.012754   0.041136
   19  H  2  Y   -0.003815  -0.017186  -0.040212
   20  H  2  Z    0.000510   0.018737   0.029842
   21  H  3  S   -0.346770   0.736781   0.097279
   22  H  3  S   -0.165215   0.171985   0.027619
   23  H  3  X    0.005446   0.034818  -0.046216
   24  H  3  Y    0.001238   0.036499   0.035607
   25  H  3  Z    0.025505  -0.003213  -0.000406
   26  H  4  S    0.532137   0.260757  -0.456268
   27  H  4  S    0.155283   0.028811  -0.142455
   28  H  4  X   -0.032700  -0.036159   0.042378
   29  H  4  Y    0.049492   0.002691  -0.011179
   30  H  4  Z    0.002143   0.029414  -0.020024

          ------------------------
          MCSCF OPTIMIZED ORBITALS
          ------------------------

                      1          2          3          4          5
                  -15.9691     0.0000     0.0000     0.0000     0.0000
                     A          A          A          A          A   
    1  N  1  S    1.000989  -0.002817  -0.007866  -0.017819  -0.018712
    2  N  1  S   -0.002065   0.393070  -0.001648   0.001396  -0.205840
    3  N  1  S   -0.006523   0.350070   0.067810   0.142674  -0.258895
    4  N  1  X   -0.000111  -0.016718   0.402065   0.049131   0.012406
    5  N  1  Y   -0.000150  -0.027215  -0.010529   0.419942   0.030448
    6  N  1  Z    0.000980   0.050295  -0.010840  -0.021617   0.576270
    7  N  1  X    0.000058   0.013383   0.235404   0.071004   0.052949
    8  N  1  Y    0.000106   0.020166   0.031755   0.284798   0.099419
    9  N  1  Z   -0.000552   0.030810   0.027507   0.063470   0.396325
   10  N  1 XX    0.000002   0.004592   0.001171   0.017858  -0.006820
   11  N  1 YY    0.000014  -0.003133  -0.000580  -0.016214  -0.014721
   12  N  1 ZZ   -0.000017  -0.001459  -0.000591  -0.001644   0.021541
   13  N  1 XY   -0.000026  -0.009190  -0.017979  -0.026194  -0.008027
   14  N  1 XZ   -0.000089  -0.001991   0.021564   0.001260  -0.003126
   15  N  1 YZ   -0.000153  -0.004767  -0.001509   0.020934  -0.005160
   16  H  2  S   -0.001195   0.192275  -0.249199   0.315808   0.121833
   17  H  2  S    0.000462   0.014044  -0.029400   0.097263   0.041234
   18  H  2  X   -0.000543   0.028009  -0.021672   0.036831   0.013991
   19  H  2  Y    0.000327  -0.016368   0.030439   0.003331  -0.003283
   20  H  2  Z    0.000206  -0.001781   0.002875  -0.003987   0.021086
   21  H  3  S   -0.001747   0.206930  -0.183932  -0.394171   0.114174
   22  H  3  S    0.000317  -0.001254  -0.068411  -0.127908   0.023663
   23  H  3  X   -0.000385   0.015494   0.021391  -0.019158   0.012745
   24  H  3  Y   -0.000739   0.028566  -0.020217  -0.008142   0.021502
   25  H  3  Z    0.000617  -0.017666   0.014007   0.029850   0.016635
   26  H  4  S   -0.001141   0.191180   0.399227  -0.003230   0.122820
   27  H  4  S    0.000409   0.015027   0.104993   0.042631   0.042239
   28  H  4  X    0.000507  -0.026645  -0.033347   0.020219  -0.009914
   29  H  4  Y   -0.000307   0.016746   0.029870   0.017407   0.010914
   30  H  4  Z    0.000213  -0.002068  -0.005426   0.000285   0.021097

                      6          7          8          9         10
                    0.0000     0.0000     0.0000     0.1695     0.2162
                     A          A          A          A          A   
    1  N  1  S    0.183040   0.007884   0.037168  -0.134616   0.007224
    2  N  1  S    0.685128   0.025951   0.109077  -0.211165   0.007989
    3  N  1  S    0.182507  -0.062763  -0.140449   1.262161  -0.083037
    4  N  1  X   -0.019777   0.901580   0.007305   0.024364  -0.171982
    5  N  1  Y   -0.052865  -0.124982   0.826867   0.051800   0.098953
    6  N  1  Z    0.637081  -0.085903  -0.156816  -0.217382   0.013739
    7  N  1  X   -0.044181   0.072638  -0.025121  -0.097417   0.737163
    8  N  1  Y   -0.087923  -0.026766   0.059253  -0.220714  -0.453116
    9  N  1  Z   -0.078223   0.012965   0.001134   0.450593  -0.014476
   10  N  1 XX   -0.025199   0.028815  -0.049727   0.034006  -0.028414
   11  N  1 YY    0.015649  -0.029714   0.043129   0.002418   0.022133
   12  N  1 ZZ    0.009550   0.000899   0.006598  -0.036424   0.006281
   13  N  1 XY    0.046963   0.051945   0.038215  -0.049087  -0.001020
   14  N  1 XZ    0.025371  -0.045220   0.010495  -0.034874   0.067311
   15  N  1 YZ    0.048674   0.012645  -0.027839  -0.073443  -0.042685
   16  H  2  S   -0.432458   0.333782  -0.455566   0.371677  -0.506515
   17  H  2  S   -0.082772   0.089525  -0.143621  -0.752658   1.595409
   18  H  2  X   -0.043745   0.017468  -0.042358  -0.050245   0.084680
   19  H  2  Y    0.022031  -0.034794   0.008969   0.034027  -0.025841
   20  H  2  Z   -0.019004   0.030415   0.000606   0.009477  -0.059509
   21  H  3  S   -0.422592   0.292899   0.602378   0.253935   0.044176
   22  H  3  S   -0.056983   0.102224   0.193756  -0.812796  -0.126388
   23  H  3  X   -0.023842  -0.038244   0.033463  -0.020114   0.023692
   24  H  3  Y   -0.033775   0.035580   0.007483  -0.082008  -0.014893
   25  H  3  Z   -0.009827  -0.008189  -0.014715   0.083652   0.004229
   26  H  4  S   -0.425900  -0.553651  -0.037442   0.419958   0.427104
   27  H  4  S   -0.084224  -0.175731  -0.029574  -0.856769  -1.324944
   28  H  4  X    0.040560   0.044263  -0.012952   0.038112   0.048686
   29  H  4  Y   -0.025594  -0.025622  -0.025885  -0.039806  -0.055424
   30  H  4  Z   -0.021511  -0.015339   0.024967   0.025298   0.057744

                     11         12         13         14         15
                    0.2507     0.5343     0.6421     0.6957     0.8262
                     A          A          A          A          A   
    1  N  1  S    0.028657  -0.089983   0.088430  -0.076144   0.049696
    2  N  1  S    0.069950  -0.165614   0.330491  -0.206322   0.114707
    3  N  1  S   -0.142601   0.276397   0.186504   0.139044  -0.176017
    4  N  1  X   -0.019713  -0.356131   0.018674  -0.315477  -0.342676
    5  N  1  Y   -0.001208  -0.598783   0.178744   0.146838   0.181767
    6  N  1  Z    0.029722  -0.394789  -0.597150   0.167203  -0.043274
    7  N  1  X    0.246713   0.545786  -0.158582   1.200798   1.128925
    8  N  1  Y    0.265932   0.960255  -0.885256  -0.486059  -0.665279
    9  N  1  Z   -0.187754   0.322287   1.141181  -0.281681   0.072769
   10  N  1 XX    0.052118  -0.007657  -0.001533   0.083446  -0.144064
   11  N  1 YY   -0.028801  -0.014311  -0.031454  -0.070626   0.151266
   12  N  1 ZZ   -0.023317   0.021968   0.032987  -0.012820  -0.007202
   13  N  1 XY   -0.076473  -0.000911   0.044548   0.044748  -0.087849
   14  N  1 XZ    0.041961   0.005849   0.004471  -0.106573  -0.085187
   15  N  1 YZ    0.066134   0.009526   0.052062   0.029818   0.062602
   16  H  2  S    0.328797  -0.242080  -0.267964   0.415637   0.584482
   17  H  2  S   -0.997040  -0.288916   0.479791   0.236337   0.354707
   18  H  2  X    0.000204   0.018516   0.007571   0.082330   0.239892
   19  H  2  Y   -0.000037   0.020392  -0.083433  -0.288217   0.252381
   20  H  2  Z   -0.005644   0.046185   0.092573   0.181297   0.095210
   21  H  3  S   -0.666901   0.179112  -0.758712   0.206570  -0.035678
   22  H  3  S    2.239902   0.547193  -0.519031   0.076917   0.017750
   23  H  3  X    0.042958   0.030493  -0.148112  -0.370483   0.230768
   24  H  3  Y    0.074165   0.078142  -0.007622   0.193169  -0.159946
   25  H  3  Z   -0.066461  -0.035188   0.065444   0.001685  -0.037504
   26  H  4  S    0.419946  -0.227397  -0.363543  -0.234350  -0.598879
   27  H  4  S   -1.323362  -0.304093   0.295132  -0.505019  -0.253818
   28  H  4  X    0.021494   0.012414   0.115958   0.309430  -0.126915
   29  H  4  Y    0.001269   0.037914   0.031016   0.062895  -0.328245
   30  H  4  Z   -0.007122   0.052751  -0.001452  -0.205161  -0.111345

                     16         17         18         19         20
                    1.0218     1.0553     1.0861     1.2815     1.3348
                     A          A          A          A          A   
    1  N  1  S   -0.672445  -0.252930  -0.090088   0.042993  -0.264141
    2  N  1  S   -1.431646  -0.536656  -0.191872   0.095451  -0.574623
    3  N  1  S    2.672400   1.093339   0.392773  -0.052195   0.911812
    4  N  1  X    0.035840   0.138897  -0.294566  -0.005241  -0.011856
    5  N  1  Y    0.105120  -0.085789   0.165592  -0.039364  -0.029563
    6  N  1  Z    0.132697   0.014251   0.010234   0.032224  -0.088683
    7  N  1  X   -0.309984  -0.547086   0.875978  -0.250807  -0.052917
    8  N  1  Y   -0.628597   0.142240  -0.618985  -0.418907  -0.007579
    9  N  1  Z    0.241003   0.511240   0.230886   0.069902   0.579072
   10  N  1 XX   -0.113923  -0.001960   0.134976  -0.026371   0.055235
   11  N  1 YY   -0.064435   0.210076  -0.041566  -0.082722   0.017793
   12  N  1 ZZ    0.178358  -0.208116  -0.093410   0.109093  -0.073028
   13  N  1 XY    0.011400   0.082286   0.119322  -0.120187  -0.042588
   14  N  1 XZ    0.057461   0.028488   0.160043   0.035903   0.014178
   15  N  1 YZ    0.098300   0.132043  -0.020467   0.047817   0.015928
   16  H  2  S   -0.320384  -0.399297   0.459053  -0.081959  -0.290403
   17  H  2  S   -0.279095  -0.244361   0.158123   0.106597   0.008062
   18  H  2  X   -0.045757   0.073897  -0.244578   0.368602  -0.161137
   19  H  2  Y    0.099525   0.274710  -0.049153   0.500315  -0.326160
   20  H  2  Z    0.231815   0.014565  -0.452999  -0.268534  -0.558789
   21  H  3  S   -0.609873  -0.224703  -0.104788   0.007557  -0.277298
   22  H  3  S   -0.458781  -0.172551  -0.072033  -0.153034  -0.215289
   23  H  3  X    0.061582  -0.315114   0.038662  -0.044366   0.030231
   24  H  3  Y   -0.011771  -0.426418  -0.293726  -0.019600   0.009465
   25  H  3  Z    0.263776  -0.442547  -0.166046   0.468488   0.219513
   26  H  4  S   -0.374885   0.124430  -0.587095  -0.081359  -0.261695
   27  H  4  S   -0.256729  -0.028570  -0.220283   0.116897   0.048919
   28  H  4  X    0.053920   0.178560   0.072256   0.228332  -0.225139
   29  H  4  Y   -0.041151  -0.042388   0.349662   0.502606  -0.306640
   30  H  4  Z    0.256287  -0.267019   0.309413  -0.270147  -0.593736

                     21         22         23         24         25
                    1.5776     1.7016     1.8648     1.9203     2.1216
                     A          A          A          A          A   
    1  N  1  S    0.035635  -0.032736  -0.171940  -0.149292  -0.025256
    2  N  1  S    0.185209  -0.087361  -0.399396  -0.338617  -0.046097
    3  N  1  S    0.664792  -0.065785   0.077051   0.098702   0.094057
    4  N  1  X   -0.061358   0.196770  -0.078915   0.356210   0.011825
    5  N  1  Y   -0.101984  -0.068819   0.407610   0.064699   0.021930
    6  N  1  Z    0.082310  -0.028515  -0.215642  -0.165859  -0.024273
    7  N  1  X    0.196750   0.841403  -0.115637  -0.037406   0.114880
    8  N  1  Y   -0.044254  -0.532991  -0.124398  -0.157303   0.115269
    9  N  1  Z    0.215950  -0.002394   0.095666   0.097691   0.290078
   10  N  1 XX   -0.119056   0.018651  -0.023651  -0.040434  -0.495635
   11  N  1 YY    0.004674   0.021451   0.093409   0.090003  -0.339269
   12  N  1 ZZ    0.114382  -0.040101  -0.069759  -0.049569   0.834904
   13  N  1 XY    0.115167  -0.017713   0.029183   0.035527  -0.548133
   14  N  1 XZ    0.033863  -0.166981   0.010241  -0.227469  -0.141802
   15  N  1 YZ    0.081160   0.055682  -0.260053  -0.076317  -0.162653
   16  H  2  S    0.131359   0.275703  -0.035728  -0.024770  -0.035304
   17  H  2  S   -0.372930   0.412089  -0.326761   0.117957  -0.030139
   18  H  2  X   -0.611109   0.564038  -0.216790   0.345404  -0.170874
   19  H  2  Y    0.397001   0.024546   0.535227  -0.257487  -0.125080
   20  H  2  Z   -0.215905  -0.593823  -0.041332  -0.206340  -0.205316
   21  H  3  S   -0.106454  -0.036544  -0.167922  -0.100276  -0.031580
   22  H  3  S    0.248160  -0.024027   0.395576   0.333722   0.034701
   23  H  3  X   -0.032390  -0.466065  -0.078806   0.817440  -0.281075
   24  H  3  Y    0.090732   0.303244   0.822075   0.190872  -0.277921
   25  H  3  Z    0.193864  -0.047480  -0.428860  -0.335471  -0.564601
   26  H  4  S    0.016374  -0.273314  -0.057615  -0.084582  -0.068794
   27  H  4  S   -0.496683  -0.293257   0.086931  -0.353145  -0.015232
   28  H  4  X    0.641979   0.027956  -0.290402   0.721786   0.059750
   29  H  4  Y   -0.481758  -0.413467   0.240616   0.118384   0.047408
   30  H  4  Z   -0.023145   0.614473  -0.217529  -0.062802  -0.092377

                     26         27         28         29
                    2.1455     2.4310     2.6366     3.0788
                     A          A          A          A   
    1  N  1  S    0.029755   0.009335  -0.251367   0.170265
    2  N  1  S    0.060638   0.010985  -0.333584   0.257796
    3  N  1  S   -0.072016  -0.138139   2.447950  -0.912868
    4  N  1  X   -0.036996   0.211944  -0.142371  -0.078947
    5  N  1  Y   -0.014276  -0.117263  -0.268555  -0.215969
    6  N  1  Z    0.026635  -0.010565   0.298245   0.056580
    7  N  1  X    0.022340   1.108777  -0.398378  -0.075857
    8  N  1  Y   -0.021586  -0.596800  -0.836294  -0.284935
    9  N  1  Z   -0.128078  -0.056640   0.838426   0.018794
   10  N  1 XX   -0.655992  -0.207828   0.177968  -0.895479
   11  N  1 YY    0.946143   0.207891   0.169566   0.294201
   12  N  1 ZZ   -0.290150  -0.000064  -0.347533   0.601278
   13  N  1 XY   -0.348237  -0.132417  -0.152967   1.196945
   14  N  1 XZ   -0.086469   1.017091  -0.513349  -0.189611
   15  N  1 YZ    0.195346  -0.509754  -1.043123  -0.379498
   16  H  2  S    0.037985   0.718614  -0.537429   0.742608
   17  H  2  S   -0.032098   0.361942  -0.059600   0.243960
   18  H  2  X   -0.289935   0.577870  -0.261922   0.707400
   19  H  2  Y   -0.298278  -0.340902   0.252939  -0.353532
   20  H  2  Z   -0.037827   0.074684   0.124296  -0.318282
   21  H  3  S    0.030332   0.059527  -1.449152  -0.660449
   22  H  3  S   -0.033389   0.030471  -0.577509  -0.166162
   23  H  3  X   -0.203503  -0.248211  -0.378384  -0.274566
   24  H  3  Y    0.206063   0.181931  -0.766284  -0.488773
   25  H  3  Z    0.241775  -0.008116   0.653538   0.450490
   26  H  4  S    0.026121  -0.635423  -0.577925   0.655343
   27  H  4  S    0.069907  -0.347528  -0.073312   0.213838
   28  H  4  X    0.042251   0.504738   0.355741  -0.622645
   29  H  4  Y    0.372582  -0.371913  -0.152458   0.424787
   30  H  4  Z    0.176687  -0.021226   0.142515  -0.305428
 .....DONE WITH MCSCF ITERATIONS.....
 CPU     0: STEP CPU TIME=    11.76 TOTAL CPU TIME=         12.9 (      0.2 MIN)
 TOTAL WALL CLOCK TIME=         12.9 SECONDS, CPU UTILIZATION IS    99.85%

     ----------------------------------------------------------------
     PROPERTY VALUES FOR THE MCSCF SELF-CONSISTENT FIELD WAVEFUNCTION
     ----------------------------------------------------------------

          -----------------
          ENERGY COMPONENTS
          -----------------

         WAVEFUNCTION NORMALIZATION =       1.0000000000

                ONE ELECTRON ENERGY =     -93.0262287149
                TWO ELECTRON ENERGY =      26.6991620268
           NUCLEAR REPULSION ENERGY =      10.6324427965
                                      ------------------
                       TOTAL ENERGY =     -55.6946238915

 ELECTRON-ELECTRON POTENTIAL ENERGY =      26.6991620268
  NUCLEUS-ELECTRON POTENTIAL ENERGY =    -148.5646058835
   NUCLEUS-NUCLEUS POTENTIAL ENERGY =      10.6324427965
                                      ------------------
             TOTAL POTENTIAL ENERGY =    -111.2330010602
               TOTAL KINETIC ENERGY =      55.5383771686
                 VIRIAL RATIO (V/T) =       2.0028133109

          ---------------------------------------
          MULLIKEN AND LOWDIN POPULATION ANALYSES
          ---------------------------------------

     ATOMIC MULLIKEN POPULATION IN EACH MOLECULAR ORBITAL

                      1          2          3          4          5

                  2.000000   1.980133   1.652655   1.642357   1.637309

    1             2.000423   1.388118   1.527466   0.904743   1.194017
    2            -0.000082   0.142183   0.029784   0.394094   0.012195
    3            -0.000270   0.309103   0.075556   0.035941   0.328622
    4            -0.000071   0.140729   0.019849   0.307578   0.102475

                      6          7          8

                  0.039910   0.024789   0.022847

    1             0.015010   0.013319   0.012880
    2             0.009805   0.000259   0.005900
    3             0.003337   0.009705   0.000318
    4             0.011758   0.001506   0.003749
 WARNING! MCSCF POPULATIONS SHOWN ABOVE ARE FOR THE NATURAL ORBITALS.
 IGNORE THE ABOVE DATA FOR MCSCF FUNCTIONS WHICH ARE NOT OF -FORS- TYPE.
 THE FOLLOWING POPULATIONS ARE CORRECT FOR ANY MCSCF WAVEFUNCTION.

               ----- POPULATIONS IN EACH AO -----
                             MULLIKEN      LOWDIN
              1  N  1  S      2.00209     1.90740
              2  N  1  S      0.81588     0.58176
              3  N  1  S      0.74857     0.43661
              4  N  1  X      0.64518     0.57547
              5  N  1  Y      0.71441     0.65611
              6  N  1  Z      0.84887     0.80166
              7  N  1  X      0.34512     0.43783
              8  N  1  Y      0.38728     0.46771
              9  N  1  Z      0.53141     0.57516
             10  N  1 XX      0.00089     0.18068
             11  N  1 YY      0.00193     0.16139
             12  N  1 ZZ      0.00499     0.14799
             13  N  1 XY      0.00393     0.00952
             14  N  1 XZ      0.00544     0.00687
             15  N  1 YZ      0.00000     0.01142
             16  H  2  S      0.49120     0.38946
             17  H  2  S      0.05311     0.15814
             18  H  2  X      0.02579     0.04327
             19  H  2  Y      0.01489     0.02663
             20  H  2  Z      0.00915     0.02170
             21  H  3  S      0.63706     0.49462
             22  H  3  S      0.06313     0.15667
             23  H  3  X      0.01675     0.03324
             24  H  3  Y      0.02350     0.04402
             25  H  3  Z      0.02187     0.04555
             26  H  4  S      0.48145     0.38042
             27  H  4  S      0.05745     0.15860
             28  H  4  X      0.02526     0.04163
             29  H  4  Y      0.01424     0.02713
             30  H  4  Z      0.00917     0.02134

          ----- MULLIKEN ATOMIC OVERLAP POPULATIONS -----
          (OFF-DIAGONAL ELEMENTS NEED TO BE MULTIPLIED BY 2)

             1           2           3           4

    1    6.2859274
    2    0.2603091   0.3456226
    3    0.2592634  -0.0064048   0.5169718
    4    0.2504766  -0.0053875  -0.0075198   0.3500041

          TOTAL MULLIKEN AND LOWDIN ATOMIC POPULATIONS
       ATOM         MULL.POP.    CHARGE          LOW.POP.     CHARGE
    1 N             7.055976   -0.055976         6.957585    0.042415
    2 H             0.594139    0.405861         0.639192    0.360808
    3 H             0.762311    0.237689         0.774097    0.225903
    4 H             0.587574    0.412426         0.629126    0.370874

          MULLIKEN SPHERICAL HARMONIC POPULATIONS
       ATOM           S       P       D      F      G      H      I    TOTAL
    1 N             3.57    3.47    0.02   0.00   0.00   0.00   0.00    7.06
    2 H             0.54    0.05    0.00   0.00   0.00   0.00   0.00    0.59
    3 H             0.70    0.06    0.00   0.00   0.00   0.00   0.00    0.76
    4 H             0.54    0.05    0.00   0.00   0.00   0.00   0.00    0.59

          ---------------------
          ELECTROSTATIC MOMENTS
          ---------------------

 POINT   1           X           Y           Z (BOHR)    CHARGE
                -0.000003   -0.000006   -0.177185        1.00 (A.U.)
         DX          DY          DZ         /D/  (DEBYE)
    -0.533038   -1.078521    2.079912    2.402784
 ...... END OF PROPERTY EVALUATION ......
 CPU     0: STEP CPU TIME=     0.00 TOTAL CPU TIME=         12.9 (      0.2 MIN)
 TOTAL WALL CLOCK TIME=         12.9 SECONDS, CPU UTILIZATION IS    99.85%

     -------------------------------------------------
     GMC-PT/GMC-QDPT or general MCSCF input parameters
     -------------------------------------------------
 # of frozen core orbs. =         0 ->         0
 # of doubly occ. orbs. =         1
 # of active      orbs. =         7
 # of virtual     orbs. =        21
 # of active electrons  =         7
 # of states in CI      =         3
 Highest state in CI    =         3
 kstate =  1 1 1
 avecoe =  0.333 0.333 0.333
 State symmetry           = A           
 Assigned symmetry number = 1

 <<<Act. MO sym.: 1111111

 <<<Division of 1-ext.:  0
 <<<Division of 2-ext.:  0

     ------------------------
     Orbital canonicalization
     ------------------------

 MOs are canonicalized for core, virtual, and invariant-active orbital spaces.
 This is a part of the GMC-QDPT calculation.
 SCHWARZ INEQUALITY OVERHEAD:       465 INTEGRALS, T=        0.00
 DIRECT TRANSFORMATION SKIPS AO INTEGRAL STORAGE ON DISK.

 Averaged energy =     -55.694623892

 State #    1  Energy =     -55.833775831  S =  0.500
 State #    2  Energy =     -55.686719822  S =  0.500
 State #    3  Energy =     -55.563376022  S =  0.500

 Orbital energies for filled orbital space
  -15.969087
 Orbital energies for active orbital space
   -1.465181  -0.920083  -0.814640  -0.695273   0.061580
    0.315856   0.300778
 Orbital energies for external orbital space
    0.169481   0.216167   0.250716   0.534285   0.642150
    0.695747   0.826198   1.021781   1.055271   1.086122
    1.281542   1.334761   1.577569   1.701600   1.864761
    1.920286   2.121557   2.145550   2.431022   2.636601
    3.078775

 Zero values mean non-canonical orbitals.
 ... done with orbital canonicalization ...
 CPU     0: STEP CPU TIME=     0.67 TOTAL CPU TIME=         13.6 (      0.2 MIN)
 TOTAL WALL CLOCK TIME=         13.6 SECONDS, CPU UTILIZATION IS    99.85%

     --------------------------------------------
     PARTIAL TWO ELECTRON INTEGRAL TRANSFORMATION
     --------------------------------------------

 NUMBER OF CORE MOLECULAR ORBITALS     =    0
 NUMBER OF OCCUPIED MOLECULAR ORBITALS =    8
 TOTAL NUMBER OF MOLECULAR ORBITALS    =   29
 TOTAL NUMBER OF ATOMIC ORBITALS       =   30
 THRESHOLD FOR KEEPING TRANSFORMED 2E- INTEGRALS = 1.000E-09
 AO INTEGRALS WILL BE CALCULATED IN DIRECT MODE...
 DIRECT TRANSFORMATION SKIPS AO INTEGRAL STORAGE ON DISK.
 SCHWARZ INEQUALITY OVERHEAD:       465 INTEGRALS, T=        0.00

 PLAN A: REQUIREMENTS FOR FULLY IN-MEMORY TRANSFORMATION:
 # OF WORDS AVAILABLE =            100000000
 # OF WORDS NEEDED    =               221798

 PARALLEL ONLY WORKS WITH THE SEGMENTED ALGORITHM.
 ADJUSTING MEMORY TO USE SEGMENTED ALGORITHM.


 PLAN B: REQUIREMENTS FOR THE SEGMENTED TRANSFORMATION:
       MINIMUM=         124148 WORDS FOR 1 MOLECULAR ORBITAL PER PASS
       MAXIMUM=         221798 WORDS FOR ALL MOLECULAR ORBITALS IN 1 PASS
              (          13950 EXTRA WORDS INCLUDES 1 EXTRA ORBITAL/PASS)
 THIS RUN USES=         221798 WORDS,
 DISTRIBUTING   1 PASSES EACH CONTAINING     8 ORBITALS OVER   1 PROCESSORS.

 CHOOSING SEGMENTED PARTIAL TRANSFORMATION...
 DIRECT TRANSFORMATION SKIPS AO INTEGRAL STORAGE ON DISK.
 PASS #   1 TOOK        0.05 SECONDS.
 TOTAL NUMBER OF TRANSFORMED 2E- INTEGRALS KEPT =        29226
 ... END OF INTEGRAL TRANSFORMATION ...
 CPU     0: STEP CPU TIME=     0.05 TOTAL CPU TIME=         13.6 (      0.2 MIN)
 TOTAL WALL CLOCK TIME=         13.6 SECONDS, CPU UTILIZATION IS    99.93%

     --------     ------------------------------------------
     GMC-QDPT     Program written by H.Nakano (Kyushu Univ.)
     --------     ------------------------------------------

 *** Reference space

 Reference type: ORMAS (= Occupation restricted multiple active space)
 # of orbitals          =  7
 # of minimum electrons =  7
 # of maximum electrons =  7
 State symmetry    =    1 (input)
 2*Sz              =    1 (input)
 Spin multiplicity =    2 (input)
 Dimension of reference space =      1225  (from      3432 walks)

 Dimension of reference space =      1225  (from      1225 walks)

 <<<Ionized spaces for Ref-CI:
      0:         1225 /   -1-0:         1960 /  0-1-0:         2891

 ***                    ***
 *** Reference space CI ***
 ***                    ***

 Converged after   30 iterations

 Reference wavefunctions:

 State #    1  Energy =     -55.833775831  S =  0.500

      Det      Coef    Occupancy (Ignoring core)
      ---      ----    --------- --------- -----
        1   -0.970375  11110001110000
       36   -0.075142  11110001101000
      179   -0.061309  10111001010100

 State #    2  Energy =     -55.686719822  S =  0.500

      Det      Coef    Occupancy (Ignoring core)
      ---      ----    --------- --------- -----
        1   -0.079333  11110001110000
       36    0.972574  11110001101000
      108   -0.051255  11011000111000
      249    0.064808  10111001001100

 State #    3  Energy =     -55.563376022  S =  0.500

      Det      Coef    Occupancy (Ignoring core)
      ---      ----    --------- --------- -----
        4    0.050623  10111001110000
       71   -0.973784  11110001011000
       72    0.051245  11101001011000
      109   -0.054162  10111000111000
      177    0.054048  11101001010100

 Davidson method: CPU/Wall time =           0.42 /           0.43 sec.

 Oscillator strength (invalid if E(1)/=E(GS)):
 -----------------------------------------
   State                        f
 -----------------------------------------
     2     F(REF-CI)=        0.0046089015
     3     F(REF-CI)=        0.0045679565
 -----------------------------------------

 Dipole moment matrix elements, x, y, z, in A.U.

 Dimension of ionized spaces for PT:
 (N-2) space:         1715 /  (N-1) space:         2842 /  N space:         2891
 (N+1) space:         2842 /  (N+2) space:         1715

 <<<Ionized spaces for internal:
         0:         1225 /      -1-0:         1960 /     0-1-0:         2891
  -1-0-1-0:         2842 / 0-1-0-1-0:         3381

 Diagonal elements of averaged one-particle density matrix:
       2       3       4       5       6       7       8
  0.9925  0.9835  0.9835  0.9891  0.0236  0.0137  0.0141
  0.9873  0.6586  0.6573  0.6602  0.0162  0.0101  0.0104

 Orbital energies:
 -------- Doubly-occupied orbitals (highest several orbs.) -------
             1
 -1.596909D+01
 -------- Active orbitals ----------------------------------------
             2            3            4            5            6
 -1.465181D+00-9.200829D-01-8.146399D-01-6.952729D-01 6.157966D-02
             7            8
  3.158562D-01 3.007778D-01
 -------- External orbitals (lowest several orbs.) ---------------
             9           10           11           12           13
  1.694808D-01 2.161668D-01 2.507158D-01 5.342855D-01 6.421498D-01
            14           15           16           17           18
  6.957475D-01 8.261980D-01 1.021781D+00 1.055271D+00 1.086122D+00

 *** Quasi-degeneracy checking

 === Det (|Ci| > 1.0D-01 and dE < 5.0D-03)

 # of small denominators (single excitations)
 State       dEmin  dE < 5.0D-03  dE < 5.0D-04  dE < 5.0D-05  dE < 5.0D-06
 ----- ----------- ------------- ------------- ------------- -------------
     1    5.00D-03             0             0             0             0
     2    5.00D-03             0             0             0             0
     3    5.00D-03             0             0             0             0

 # of small denominators (double excitations)
 State       dEmin  dE < 5.0D-03  dE < 5.0D-04  dE < 5.0D-05  dE < 5.0D-06
 ----- ----------- ------------- ------------- ------------- -------------
     1    5.00D-03             0             0             0             0
     2    5.00D-03             0             0             0             0
     3    5.00D-03             0             0             0             0

 *** Zeroth-Order Setup (Granovsky's zeroth-order vectors)
 Zeroth-order effective Hamiltonian
  (= Sum_i e(i)*<I|a+(i)a(i)|J> ):
                   1            2            3
     1 -6.982865D+00
     2 -1.693645D-02-6.878640D+00
     3  1.080484D-04-2.872319D-03-6.771770D+00

 Zeroth-order vectors:
 State #    1
       MC st            1           2           3
       Coeff    9.877D-01   1.565D-01   1.604D-03
 State #    2
       MC st            2           1           3
       Coeff   -9.873D-01   1.565D-01  -2.736D-02
 State #    3
       MC st            3           2           1
       Coeff    9.996D-01  -2.727D-02   2.699D-03

 *** GMC-QDPT computation

 (Integral reading:  CPU/Wall time =           0.00 /           0.00 sec.)

 One-external:
   0 -ionized terms: CPU/Wall time =           0.03 /           0.03 sec.
 (-1)-ionized terms: CPU/Wall time =           0.08 /           0.09 sec.
 (+1)-ionized terms: CPU/Wall time =           0.03 /           0.02 sec.
 (+1)-ionized terms: CPU/Wall time =           0.00 /           0.01 sec.
 (+2)-ionized terms: CPU/Wall time =           0.01 /           0.00 sec.

 Internal:
 # of macro loops for internal contribution =         1 (input)
 Loop:    1
 Dimension of internal CISD space     =         0  (after screening)
 Space construction: CPU/Wall time =           0.01 /           0.01 sec.
 Internal terms:     CPU/Wall time =           0.00 /           0.00 sec.

 Two-external:
   0 -ionized terms: CPU/Wall time =           0.06 /           0.06 sec.
 (-1)-ionized terms: CPU/Wall time =           1.00 /           0.99 sec.
 (-2)-ionized terms: CPU/Wall time =           0.17 /           0.17 sec.

 Total time:         CPU/Wall time =           1.39 /           1.38 sec.

 ***                  ***
 *** GMC-QDPT Results ***
 ***                  ***

 Diagonal elements of effective Hamiltonian:
 Heff(  1) =   -55.92999199
 Heff(  2) =   -55.79790071
 Heff(  3) =   -55.67418534

 Off-diagonal elements of effective Hamiltonian:
                   1            2
     2 -2.008115D-02
     3  1.454066D-05-3.303197D-03

 ******** GMC-QDPT energies ********
 ----------------------------------------------------------------------------
   State                        1st order                           2nd order
 ----------------------------------------------------------------------------
     1     E(REF-CI)=      -55.8337758307   E(GMC-QDPT2)=      -55.9329782085
     2     E(REF-CI)=      -55.6867198218   E(GMC-QDPT2)=      -55.7950038222
     3     E(REF-CI)=      -55.5633760221   E(GMC-QDPT2)=      -55.6740960072
 ----------------------------------------------------------------------------

 Excitation energies (invalid if E(1)/=E(GS)):
 ----------------------------------------------------------------------------
   State                        1st order                           2nd order
 ----------------------------------------------------------------------------

     TZ Sorted GMC-PT ENERGIES:
         1      -55.9329782085
         2      -55.7950038222
         3      -55.6740960072
     2     E(REF-CI)=        4.0015999 eV   E(GMC-QDPT2)=        3.7544762 eV
     3     E(REF-CI)=        7.3579574 eV   E(GMC-QDPT2)=        7.0445471 eV
 ----------------------------------------------------------------------------

 Main characters of perturbed GMC-QDPT states:

 State #    1  Energy =     -55.932978208  S =  0.500

      Det      Coef    Occupancy (Ignoring core)
      ---      ----    --------- --------- -----
        1   -0.971086  11110001110000
        2   -0.050226  11101001110000
       36   -0.065875  11110001101000
      179   -0.061391  10111001010100

 State #    2  Energy =     -55.795003822  S =  0.500

      Det      Coef    Occupancy (Ignoring core)
      ---      ----    --------- --------- -----
        1   -0.070077  11110001110000
       36    0.973251  11110001101000
      108   -0.051222  11011000111000
      249    0.064831  10111001001100

 State #    3  Energy =     -55.674096007  S =  0.500

      Det      Coef    Occupancy (Ignoring core)
      ---      ----    --------- --------- -----
        4    0.050622  10111001110000
       71   -0.973788  11110001011000
       72    0.051245  11101001011000
      109   -0.054162  10111000111000
      177    0.054047  11101001010100

 <<<Max |V/de| = 2.690D-02  Thresh = 1.000D+00

 Oscillator strength (invalid if E(1)/=E(GS)):
 ----------------------------------------------------------------------------
   State                        1st order                           2nd order
 ----------------------------------------------------------------------------
     2     F(REF-CI)=        0.0046089015     F(GMC-PT2)=        0.0044107819
     3     F(REF-CI)=        0.0045679565     F(GMC-PT2)=        0.0044996744
 ----------------------------------------------------------------------------

 Dipole moment matrix elements, x, y, z, in A.U.
States    1    1       -0.1792951652       -0.3599915890        0.6148103620
States    1    2       -0.0388996013       -0.0434801170       -0.2110651145
States    1    3       -0.1334038254        0.0892341588        0.0176757695
States    2    1       -0.0388996013       -0.0434801170       -0.2110651145
States    2    2       -0.2446646818       -0.3732356715        0.3978025474
States    2    3       -0.2089646773        0.1076542917        0.0009857506
States    3    1       -0.1334038254        0.0892341588        0.0176757695
States    3    2       -0.2089646773        0.1076542917        0.0009857506
States    3    3       -0.2033185152       -0.5066771852        0.3447085390

 Oscillator strength (valid only when positive): 
 ----------------------------------------------------------------------------
  States                        1st order                           2nd order
 ----------------------------------------------------------------------------
  1  1     F(REF-CI)=        0.0000000000     F(GMC-PT2)=        0.0000000000
  1  2     F(REF-CI)=       -0.0046089015     F(GMC-PT2)=       -0.0044107819
  1  3     F(REF-CI)=       -0.0045679565     F(GMC-PT2)=       -0.0044996744
  2  1     F(REF-CI)=        0.0046089015     F(GMC-PT2)=        0.0044107819
  2  2     F(REF-CI)=        0.0000000000     F(GMC-PT2)=        0.0000000000
  2  3     F(REF-CI)=       -0.0046029104     F(GMC-PT2)=       -0.0044539742
  3  1     F(REF-CI)=        0.0045679565     F(GMC-PT2)=        0.0044996744
  3  2     F(REF-CI)=        0.0046029104     F(GMC-PT2)=        0.0044539742
  3  3     F(REF-CI)=        0.0000000000     F(GMC-PT2)=        0.0000000000
 CPU     0: STEP CPU TIME=     1.89 TOTAL CPU TIME=         15.5 (      0.3 MIN)
 TOTAL WALL CLOCK TIME=         15.5 SECONDS, CPU UTILIZATION IS    99.94%

     !!! DIABATIZATION FOR REF CI STATES !!!

 *******************************************************
          $DMO GROUP FOUND IN THE INPUT.
        DIABATIZATION OF ADIABATIC STATES BEGINS.
     PROGRAMMED BY TAO ZENG (CARLETON UNIVERSITY).
               Email: toby.zeng@carleton.ca
     See T. Zeng, J. Chem. Phys. 2017, 146, 144103
 *******************************************************

 *************************************************************************
     STEP 1: TRANSFORMATION OF ADIABATIC STATES TO THE DMO REPRESENTATION
         See Atchity and Ruedenberg, J. Chem. Phys. 1999, 111, 2910
 *************************************************************************

Read in Diabatic Molecualr Orbitals:

                      1          2          3          4          5

    1  N  1  S    0.008609   0.000000   0.000000  -0.013219   0.279491
    2  N  1  S    0.442914  -0.000000   0.000000  -0.184329   0.867803
    3  N  1  S    0.276913   0.000000  -0.000000  -0.288315   0.144236
    4  N  1  X   -0.000000   0.493155  -0.024636  -0.000000  -0.000000
    5  N  1  Y    0.000000   0.024636   0.493155  -0.000000   0.000000
    6  N  1  Z    0.090197   0.000000   0.000000   0.593421   0.705309
    7  N  1  X   -0.000000   0.210628  -0.010522   0.000000   0.000000
    8  N  1  Y    0.000000   0.010522   0.210628  -0.000000  -0.000000
    9  N  1  Z   -0.004381   0.000000   0.000000   0.381592  -0.106092
   10  N  1 XX   -0.000457   0.010719  -0.000535  -0.012387   0.006153
   11  N  1 YY   -0.000457  -0.010719   0.000535  -0.012387   0.006153
   12  N  1 ZZ    0.000914  -0.000000   0.000000   0.024773  -0.012306
   13  N  1 XY    0.000000  -0.000618  -0.012377  -0.000000   0.000000
   14  N  1 XZ   -0.000000   0.026529  -0.001325  -0.000000   0.000000
   15  N  1 YZ    0.000000   0.001325   0.026529  -0.000000   0.000000
   16  H  2  S    0.194462  -0.176074   0.343485   0.112865  -0.523343
   17  H  2  S    0.003574  -0.023812   0.046452   0.024014  -0.054445
   18  H  2  X    0.018760   0.009101   0.022834   0.009336  -0.039151
   19  H  2  Y   -0.032493   0.022287  -0.020044  -0.016171   0.067811
   20  H  2  Z   -0.009251   0.008464  -0.016511   0.018769  -0.010566
   21  H  3  S    0.194462  -0.209430  -0.324227   0.112865  -0.523343
   22  H  3  S    0.003574  -0.028322  -0.043847   0.024014  -0.054445
   23  H  3  X    0.018760   0.006781  -0.023627   0.009336  -0.039151
   24  H  3  Y    0.032493  -0.024174  -0.017723   0.016171  -0.067811
   25  H  3  Z   -0.009251   0.010067   0.015585   0.018769  -0.010566
   26  H  4  S    0.194462   0.385503  -0.019258   0.112865  -0.523343
   27  H  4  S    0.003574   0.052134  -0.002604   0.024014  -0.054445
   28  H  4  X   -0.037519  -0.032295   0.001613  -0.018672   0.078302
   29  H  4  Y    0.000000   0.001067   0.021353  -0.000000   0.000000
   30  H  4  Z   -0.009251  -0.018530   0.000926   0.018769  -0.010566

                      6          7

    1  N  1  S    0.000000  -0.000000
    2  N  1  S    0.000000  -0.000000
    3  N  1  S   -0.000000   0.000000
    4  N  1  X   -0.930415  -0.002083
    5  N  1  Y   -0.002083   0.930415
    6  N  1  Z   -0.000000   0.000000
    7  N  1  X   -0.046866  -0.000105
    8  N  1  Y   -0.000105   0.046866
    9  N  1  Z   -0.000000   0.000000
   10  N  1 XX    0.001538   0.000003
   11  N  1 YY   -0.001538  -0.000003
   12  N  1 ZZ   -0.000000   0.000000
   13  N  1 XY   -0.000004   0.001776
   14  N  1 XZ    0.039985   0.000090
   15  N  1 YZ    0.000090  -0.039985
   16  H  2  S   -0.362630  -0.631354
   17  H  2  S   -0.065964  -0.114846
   18  H  2  X    0.002763  -0.037520
   19  H  2  Y    0.037435   0.040736
   20  H  2  Z    0.001882   0.003276
   21  H  3  S   -0.365454   0.629724
   22  H  3  S   -0.066477   0.114549
   23  H  3  X    0.002595   0.037532
   24  H  3  Y   -0.037617   0.040567
   25  H  3  Z    0.001896  -0.003268
   26  H  4  S    0.728084   0.001630
   27  H  4  S    0.132441   0.000297
   28  H  4  X   -0.062317  -0.000140
   29  H  4  Y    0.000055  -0.024345
   30  H  4  Z   -0.003778  -0.000008

NUMBER OF SUB ACTIVE SPACES:   1
ROTATE ACTIVE MOS TO DMOS IN EACH SUB-SPACE

SPACE  1:

OVERLAP BETWEEN ORTHONORMAL AND PRE-ORTHONORMAL REF. DMOS

             1           2           3           4           5

    1    0.9587431  -0.0284077  -0.0442164  -0.0128632   0.0153584
    2   -0.0284077   0.9693017  -0.0656054  -0.0292044   0.0316209
    3   -0.0442164  -0.0656054   0.9272973  -0.0492779   0.0614564
    4   -0.0128632  -0.0292044  -0.0492779   0.9932955  -0.0187751
    5    0.0153584   0.0316209   0.0614564  -0.0187751   1.1709791
    6   -0.0032864   0.0080431  -0.0485138  -0.0227654  -0.0437782
    7    0.0049395   0.0556755   0.0293834   0.0487742   0.0542730

             6           7

    1   -0.0032864   0.0049395
    2    0.0080431   0.0556755
    3   -0.0485138   0.0293834
    4   -0.0227654   0.0487742
    5   -0.0437782   0.0542730
    6    1.0884149  -0.0140326
    7   -0.0140326   1.1060392
REFERENCE DMOS AFTER ORTHONORMALIZATION:

                      1          2          3          4          5

    1  N  1  S    0.004098  -0.008551  -0.016034  -0.009046   0.240365
    2  N  1  S    0.446039  -0.016938  -0.035359  -0.166116   0.737184
    3  N  1  S    0.282510  -0.005099  -0.009931  -0.285389   0.115237
    4  N  1  X    0.011768   0.517503  -0.030776  -0.004982  -0.043173
    5  N  1  Y    0.020721   0.014410   0.512507  -0.015265  -0.065249
    6  N  1  Z    0.093032   0.004185   0.000375   0.614065   0.614865
    7  N  1  X    0.006752   0.219185   0.003312   0.006108  -0.007215
    8  N  1  Y    0.011599   0.025455   0.230398   0.010564  -0.014018
    9  N  1  Z    0.003879   0.017208   0.028297   0.385344  -0.085549
   10  N  1 XX   -0.000436   0.010473  -0.000751  -0.012075   0.004879
   11  N  1 YY   -0.001161  -0.011795  -0.001457  -0.012881   0.005362
   12  N  1 ZZ    0.001597   0.001322   0.002208   0.024956  -0.010241
   13  N  1 XY   -0.000717  -0.001745  -0.013688  -0.000842   0.000645
   14  N  1 XZ    0.001076   0.027366   0.002571   0.001848   0.000561
   15  N  1 YZ    0.001821   0.005733   0.030526   0.003567   0.000048
   16  H  2  S    0.230123  -0.092440   0.413015   0.145941  -0.453080
   17  H  2  S    0.007351  -0.011771   0.054371   0.029494  -0.046077
   18  H  2  X    0.022356   0.015592   0.030933   0.012789  -0.033881
   19  H  2  Y   -0.035883   0.015400  -0.026318  -0.017405   0.058759
   20  H  2  Z   -0.009802   0.007987  -0.016252   0.017938  -0.008056
   21  H  3  S    0.182294  -0.250755  -0.363643   0.043747  -0.464340
   22  H  3  S    0.000422  -0.036421  -0.052593   0.012806  -0.049925
   23  H  3  X    0.019127   0.005275  -0.022692   0.006297  -0.034163
   24  H  3  Y    0.033100  -0.024904  -0.017938   0.011139  -0.059790
   25  H  3  Z   -0.007928   0.012619   0.019306   0.020215  -0.009651
   26  H  4  S    0.230754   0.423739   0.091092   0.140299  -0.439427
   27  H  4  S    0.007457   0.056147   0.012263   0.028495  -0.043761
   28  H  4  X   -0.042307  -0.037628  -0.011345  -0.020986   0.066665
   29  H  4  Y    0.001404   0.004183   0.024312   0.002489  -0.000271
   30  H  4  Z   -0.009814  -0.018560   0.000533   0.017992  -0.008281

                      6          7

    1  N  1  S    0.008705  -0.010447
    2  N  1  S    0.025702  -0.028722
    3  N  1  S   -0.000806   0.006179
    4  N  1  X   -0.862297  -0.035771
    5  N  1  Y    0.028656   0.831019
    6  N  1  Z    0.037101  -0.057416
    7  N  1  X   -0.044824  -0.011730
    8  N  1  Y    0.010132   0.035269
    9  N  1  Z    0.005580  -0.014360
   10  N  1 XX    0.001242  -0.000193
   11  N  1 YY   -0.001436   0.000921
   12  N  1 ZZ    0.000194  -0.000728
   13  N  1 XY   -0.000568   0.002058
   14  N  1 XZ    0.036701  -0.001013
   15  N  1 YZ    0.001000  -0.037407
   16  H  2  S   -0.335862  -0.566636
   17  H  2  S   -0.060657  -0.104529
   18  H  2  X    0.002330  -0.034501
   19  H  2  Y    0.035452   0.035248
   20  H  2  Z    0.001001   0.002653
   21  H  3  S   -0.359507   0.607114
   22  H  3  S   -0.063500   0.107875
   23  H  3  X    0.000608   0.035592
   24  H  3  Y   -0.036730   0.040237
   25  H  3  Z    0.002463  -0.004454
   26  H  4  S    0.655830   0.000390
   27  H  4  S    0.120666  -0.000496
   28  H  4  X   -0.055378  -0.000790
   29  H  4  Y    0.000852  -0.022959
   30  H  4  Z   -0.003290   0.000527

 -------------------------------------------
       MAXIMIZING MORMO OVERLAP TERM        
 -------------------------------------------
   SWEEP    VALUE       PROGRESS
     0     4.27860
     1     6.87561     2.59701488
     2     6.92326     0.04764209
     3     6.92326     0.00000604
     4     6.92326     0.00000000
     5     6.92326     0.00000000
     6     6.92326     0.00000000
 THE ROTATION IS DONE
ACTIVE ORBITALS AFTER MORMO:

                      1          2          3          4          5

    1  N  1  S    0.000421  -0.019706  -0.031941  -0.014158   0.180321
    2  N  1  S    0.405508  -0.052227  -0.082101  -0.197552   0.674240
    3  N  1  S    0.356706   0.061630   0.087299  -0.256392   0.195960
    4  N  1  X   -0.005370   0.480889  -0.059642  -0.027500  -0.020295
    5  N  1  Y   -0.006058  -0.016883   0.451945  -0.052201  -0.024562
    6  N  1  Z    0.075729  -0.018746  -0.037441   0.607810   0.617481
    7  N  1  X    0.021926   0.251690   0.041555   0.039726  -0.033338
    8  N  1  Y    0.034314   0.066927   0.291844   0.073603  -0.065725
    9  N  1  Z    0.040330   0.052026   0.086880   0.385784  -0.083805
   10  N  1 XX    0.004577   0.009618   0.015568  -0.006055  -0.023427
   11  N  1 YY   -0.003711  -0.008888  -0.014712  -0.015316   0.014745
   12  N  1 ZZ   -0.000866  -0.000729  -0.000857   0.021372   0.008682
   13  N  1 XY   -0.009709  -0.020811  -0.030022  -0.008305   0.042920
   14  N  1 XZ   -0.000859   0.015744  -0.000164  -0.002459   0.026951
   15  N  1 YZ   -0.002765   0.001867   0.015136  -0.003088   0.050518
   16  H  2  S    0.191923  -0.132528   0.340155   0.114718  -0.421447
   17  H  2  S    0.016395   0.004169   0.097895   0.040671  -0.076622
   18  H  2  X    0.028308  -0.011135   0.039730   0.012893  -0.042118
   19  H  2  Y   -0.014999   0.026261   0.000913  -0.003035   0.024323
   20  H  2  Z   -0.001946   0.006481  -0.003477   0.019671  -0.020300
   21  H  3  S    0.177104  -0.226457  -0.337542   0.075095  -0.481975
   22  H  3  S   -0.009285  -0.083237  -0.113328   0.014982  -0.074725
   23  H  3  X    0.014777   0.014318  -0.015932   0.010875  -0.025109
   24  H  3  Y    0.027289  -0.016969  -0.005008   0.019377  -0.037160
   25  H  3  Z   -0.015853   0.019157   0.030381   0.015540  -0.006403
   26  H  4  S    0.191331   0.363966   0.018645   0.111700  -0.408707
   27  H  4  S    0.018026   0.099891   0.049102   0.040278  -0.074577
   28  H  4  X   -0.025602  -0.027007   0.017860  -0.008683   0.041326
   29  H  4  Y    0.017724   0.031944   0.016552   0.010354  -0.022994
   30  H  4  Z   -0.002225  -0.006513   0.005745   0.019085  -0.022075

                      6          7

    1  N  1  S   -0.013570   0.037092
    2  N  1  S   -0.040683   0.098310
    3  N  1  S    0.077700  -0.150566
    4  N  1  X   -0.860560  -0.034968
    5  N  1  Y    0.030915   0.819387
    6  N  1  Z    0.066740  -0.101906
    7  N  1  X   -0.053780  -0.012703
    8  N  1  Y    0.007049   0.061242
    9  N  1  Z   -0.025613   0.026574
   10  N  1 XX   -0.024569  -0.052735
   11  N  1 YY    0.026875   0.044657
   12  N  1 ZZ   -0.002306   0.008079
   13  N  1 XY   -0.055422   0.033331
   14  N  1 XZ    0.045355   0.015519
   15  N  1 YZ   -0.012304  -0.028996
   16  H  2  S   -0.327567  -0.501434
   17  H  2  S   -0.084477  -0.152262
   18  H  2  X   -0.017301  -0.045565
   19  H  2  Y    0.035869   0.013783
   20  H  2  Z   -0.030027  -0.000225
   21  H  3  S   -0.329478   0.573771
   22  H  3  S   -0.115933   0.183668
   23  H  3  X    0.038137   0.038698
   24  H  3  Y   -0.037186   0.004378
   25  H  3  Z    0.008514  -0.012646
   26  H  4  S    0.591654   0.036745
   27  H  4  S    0.183700  -0.007528
   28  H  4  X   -0.047364  -0.019256
   29  H  4  Y    0.029377  -0.021654
   30  H  4  Z    0.012338   0.026760

Actually Used Diabatic Molecualr Orbitals:

                      1          2          3          4          5

    1  N  1  S    0.000421  -0.019706  -0.031941  -0.014158   0.180321
[...]

 --- DIABATIC COUPLINGS (OFF DIAGONAL ELEMENTS)---  HATREE            EV
 STATE #  1 &  2'S GMC-PT-LEVEL COUPLING  =       0.026930718       0.732822161
 STATE #  1 &  3'S GMC-PT-LEVEL COUPLING  =       0.055104788       1.499477658
 STATE #  2 &  3'S GMC-PT-LEVEL COUPLING  =      -0.071989489      -1.958933779

 ---------------------------------------
     - ROTATION TO DIABATIC STATES -    
 ---------------------------------------
 ROWS=ADIABATIC, COLUMNS=DIABATIC STATES

             1           2           3

    1    0.8576347  -0.2603213  -0.4435038
    2   -0.5127993  -0.4978509  -0.6994150
    3    0.0387261  -0.8272710   0.5604668

 ---------------------------------------
          - DIABATIC STATES -           
 ---------------------------------------

 State #    1  Energy =     -55.896307790

      Det      Coef        Coefp    Occupancy (Ignoring core)
      ---      ----        ----    --------- --------- -----
        1    0.901577   -0.901577  222+000
        3    0.138659    0.138659  22-++00
       17    0.133575    0.133575  22-+00+
      141   -0.133218   -0.133218  22++-00
       16    0.115527   -0.115527  222000+
      701   -0.102523   -0.102523  22++00-
       18    0.100593   -0.100593  2-2+00+
      736   -0.097822    0.097822  2+2+00-
      351    0.082409    0.082409  22++0-0
        7   -0.082133   -0.082133  22-+0+0
        4    0.080298   -0.080298  2-2++00
      176   -0.076839    0.076839  2+2+-00
      393   -0.072695   -0.072695  202+020
      717   -0.071011   -0.071011  220+002
        8   -0.063116    0.063116  2-2+0+0
        6   -0.061539    0.061539  22200+0
        5    0.057142    0.057142  -22++00
      211   -0.039571   -0.039571  +22+-00
      402    0.037882   -0.037882  2+-+0-+
      215   -0.036658   -0.036658  022+200
      708    0.035559   -0.035559  2-++0+-
      390    0.035049   -0.035049  -+2++-0
      218    0.033827   -0.033827  +-2+-+0
       76    0.031644    0.031644  2+2-0+0
      386    0.031472   -0.031472  2+2+0-0
       51   -0.031052    0.031052  22+-00+
       19    0.030825    0.030825  -22+00+
        2    0.030480   -0.030480  2220+00
      212    0.030245    0.030245  +220200
      705   -0.029699   -0.029699  -2+++0-
     1051   -0.029695   -0.029695  2+++0--
       20   -0.028801   -0.028801  22-0+0+
      227   -0.028662   -0.028662  +2-+-0+
      738   -0.027910   -0.027910  2+-++0-
      179   -0.027658   -0.027658  202+200
      158   -0.027285   -0.027285  2-++-0+
      122    0.026903    0.026903  +2-200+
      751   -0.025049    0.025049  2+20002
       29   -0.024710   -0.024710  2--+0++
      702    0.024480    0.024480  22+0+0-
      387   -0.024433    0.024433  2+20+-0
      773    0.024024   -0.024024  +2-++0-
      716   -0.023544   -0.023544  22+0002
      113   -0.023449    0.023449  +-220+0
      424   -0.023380   -0.023380  +-2++-0
      192    0.022992   -0.022992  2+-+-0+
      184   -0.021984   -0.021984  -+2+-+0
      704    0.021731   -0.021731  2-+++0-
        9   -0.020904   -0.020904  -22+0+0
      706    0.020666    0.020666  22+00+-

 State #    2  Energy =     -55.721607400

      Det      Coef        Coefp    Occupancy (Ignoring core)
      ---      ----        ----    --------- --------- -----
       71   -0.895134    0.895134  2+22000
      246   -0.153269   -0.153269  2++2-00
       73    0.151285   -0.151285  2+-2+00
      736   -0.134250    0.134250  2+2+00-
       86    0.130131    0.130131  2+2-00+
       77   -0.107606    0.107606  2+-20+0
      806   -0.102920   -0.102920  2++200-
      456    0.093750    0.093750  2++20-0
       87    0.089722   -0.089722  2+-200+
       88   -0.084195    0.084195  202200+
      822    0.076639   -0.076639  2+02002
      386    0.062038   -0.062038  2+2+0-0
       76   -0.056331   -0.056331  2+2-0+0
      106   -0.055431   -0.055431  +222000
       74   -0.053495    0.053495  2022+00
      316    0.052389    0.052389  ++22-00
      813    0.045849   -0.045849  20+20+-
       36    0.043669    0.043669  22+2000
       75   -0.039733   -0.039733  -+22+00
       99   -0.039271    0.039271  20-20++
       90    0.038953    0.038953  2+--+0+
      320    0.037804    0.037804  0+22200
      122    0.036606    0.036606  +2-200+
      911    0.035610    0.035610  2+++-0-
      108    0.034844    0.034844  +2-2+00
      177    0.034070   -0.034070  2+20200
      317    0.033560   -0.033560  ++2-200
      810   -0.033417   -0.033417  -++2+0-
      332   -0.033304    0.033304  ++-2-0+
      323   -0.033283    0.033283  +022-+0
      180   -0.033093    0.033093  -+2+200
        6    0.031507   -0.031507  22200+0
      807   -0.030500    0.030500  2++-+0-
      821    0.030209   -0.030209  2++-002
      752   -0.029405   -0.029405  2+-+002
      192   -0.028749    0.028749  2+-+-0+
      111    0.028385   -0.028385  +22-0+0
      263   -0.027809   -0.027809  20+2-0+
      183   -0.026953    0.026953  202+-+0
      112   -0.026646   -0.026646  +2-20+0
      753    0.025903    0.025903  202+002
      878    0.024777    0.024777  ++-2+0-
      526   -0.024485   -0.024485  ++220-0
      876    0.024299    0.024299  ++2200-
      264    0.024213   -0.024213  -++2-0+
      281   -0.023742    0.023742  +2+2-00
       38   -0.023280    0.023280  2202+00
      742    0.022645    0.022645  2+-+0+-
      841   -0.020528    0.020528  +2+200-
      391    0.020182   -0.020182  2+20020
      471    0.020109    0.020109  2++-0-+

 State #    3  Energy =     -55.784162847

      Det      Coef        Coefp    Occupancy (Ignoring core)
      ---      ----        ----    --------- --------- -----
       36   -0.891967   -0.891967  22+2000
       38   -0.143148    0.143148  2202+00
       51    0.139729   -0.139729  22+-00+
      701   -0.131319   -0.131319  22++00-
       53   -0.127069   -0.127069  2-+200+
       39   -0.119654   -0.119654  2-+2+00
      806    0.103333    0.103333  2++200-
      106   -0.100441   -0.100441  +222000
       52   -0.091017    0.091017  220200+
       41   -0.086674    0.086674  22+-0+0
      351    0.078702    0.078702  22++0-0
      246    0.078274    0.078274  2++2-00
       42    0.073103   -0.073103  22020+0
      463    0.072940   -0.072940  20+2020
       40   -0.052433    0.052433  -2+2+00
      123    0.047623   -0.047623  +-2200+
      472   -0.044644   -0.044644  2+020-+
       71   -0.041954    0.041954  2+22000
       73    0.041380   -0.041380  2+-2+00
       55   -0.040341   -0.040341  220-+0+
       64    0.038662   -0.038662  2-020++
      288   -0.037828   -0.037828  +-+2-+0
      460   -0.037495   -0.037495  -++2+-0
      285    0.036501   -0.036501  02+2200
      109    0.036063   -0.036063  +-22+00
      145   -0.033883   -0.033883  -2++200
      142    0.033760    0.033760  22+0200
       54   -0.033411    0.033411  -2+200+
      282    0.033179    0.033179  +2+-200
      297    0.032619   -0.032619  +202-0+
      718    0.031003   -0.031003  2-++002
      281    0.030994   -0.030994  +2+2-00
       86    0.030354    0.030354  2+2-00+
      157    0.030157   -0.030157  220+-0+
      249    0.029079   -0.029079  20+2200
      717    0.029035    0.029035  220+002
      876   -0.027811   -0.027811  ++2200-
      457   -0.026659    0.026659  2++-+-0
       43    0.025448    0.025448  2-+20+0
      821   -0.025436    0.025436  2++-002
      148   -0.025320   -0.025320  2-++-+0
      494    0.025248   -0.025248  +-+2+-0
       16   -0.025116    0.025116  222000+
      808    0.024691   -0.024691  2+02+0-
      122    0.024363    0.024363  +2-200+
      367    0.024173   -0.024173  220+0-+
       87    0.023736   -0.023736  2+-200+
       46    0.022916   -0.022916  2-+-++0
      254    0.022733   -0.022733  -++2-+0
       56   -0.021963    0.021963  2-+-+0+
      108    0.021439    0.021439  +2-2+00
      112   -0.021101   -0.021101  +2-20+0
      859    0.020472   -0.020472  02+2002

 ---------------------------------------
      - DIABATIC STATES IN CMO -        
 ---------------------------------------

 State #    1  Energy =     -55.896307790

      Det      Coef        Coefp    Occupancy (Ignoring core)
      ---      ----        ----    --------- --------- -----
        1    0.796984   -0.796984  222+000
       36   -0.554901   -0.554901  22+2000
      143   -0.050891   -0.050891  220+200
      142    0.049397    0.049397  22+0200
      179   -0.048385   -0.048385  202+200
       71    0.045715   -0.045715  2+22000
      249    0.035217   -0.035217  20+2200
      158   -0.035050   -0.035050  2-++-0+
      106   -0.034567   -0.034567  +222000
      147   -0.032963    0.032963  220+-+0
      753   -0.032022   -0.032022  202+002
       18   -0.031762    0.031762  2-2+00+
      717   -0.031736   -0.031736  220+002
      393   -0.030675   -0.030675  202+020
      357   -0.030587   -0.030587  220+020
      145   -0.030215   -0.030215  -2++200
      157    0.029585   -0.029585  220+-0+
      148   -0.029447   -0.029447  2-++-+0
        7   -0.028919   -0.028919  22-+0+0
        8   -0.027660    0.027660  2-2+0+0
        2    0.025846   -0.025846  2220+00
       17    0.025762    0.025762  22-+00+
      212    0.025138    0.025138  +220200
      403    0.024852   -0.024852  202+0-+
      743   -0.024604   -0.024604  202+0+-
      108    0.023604    0.023604  +2-2+00
      353    0.023541    0.023541  220++-0
      367   -0.022717    0.022717  220+0-+
      707    0.022544    0.022544  220+0+-
      463    0.022175   -0.022175  20+2020
      823    0.021890   -0.021890  20+2002
      112   -0.021309   -0.021309  +2-20+0
      122    0.020860    0.020860  +2-200+
      789   -0.020820   -0.020820  022+002
      429   -0.020480   -0.020480  022+020
      703   -0.020274   -0.020274  220++0-

 State #    2  Energy =     -55.721607400

      Det      Coef        Coefp    Occupancy (Ignoring core)
      ---      ----        ----    --------- --------- -----
       71   -0.797011    0.797011  2+22000
       36   -0.481868   -0.481868  22+2000
        1   -0.289434    0.289434  222+000
      109   -0.048714    0.048714  +-22+00
      822    0.045660   -0.045660  2+02002
       72   -0.045042   -0.045042  2+2-+00
      177    0.044454   -0.044454  2+20200
        4    0.044158   -0.044158  2-2++00
      248    0.037505   -0.037505  2+02200
      808    0.036474   -0.036474  2+02+0-
      823    0.035550   -0.035550  20+2002
      812   -0.032109    0.032109  2+020+-
       75    0.029632    0.029632  -+22+00
      249    0.029333   -0.029333  20+2200
      462    0.026715   -0.026715  2+02020
      111    0.026601   -0.026601  +22-0+0
      317    0.026358   -0.026358  ++2-200
      180   -0.026161    0.026161  -+2+200
      262   -0.024549   -0.024549  2+02-0+
        2   -0.024542    0.024542  2220+00
      247   -0.023381    0.023381  2++-200
      178    0.023244    0.023244  2+-+200
      807   -0.023046    0.023046  2++-+0-
      813    0.022459   -0.022459  20+20+-
      252    0.022346    0.022346  2+02-+0
       99   -0.021661    0.021661  20-20++
      320    0.021575    0.021575  0+22200
      183   -0.021535    0.021535  202+-+0
      814   -0.021523   -0.021523  -++20+-
      112   -0.021511   -0.021511  +2-20+0
       52    0.021186   -0.021186  220200+
      534    0.020950    0.020950  0+22020
       39    0.020766    0.020766  2-+2+00
      894    0.020683    0.020683  0+22002

 State #    3  Energy =     -55.784162847

      Det      Coef        Coefp    Occupancy (Ignoring core)
      ---      ----        ----    --------- --------- -----
       36   -0.641679   -0.641679  22+2000
       71    0.557880   -0.557880  2+22000
        1   -0.478506    0.478506  222+000
        2   -0.048863    0.048863  2220+00
      249    0.045993   -0.045993  20+2200
      108    0.042133    0.042133  +2-2+00
      462   -0.035945    0.035945  2+02020
      463    0.034252   -0.034252  20+2020
      179    0.033616    0.033616  202+200
      473   -0.030974   -0.030974  20+20-+
      177   -0.030730    0.030730  2+20200
      248   -0.030308    0.030308  2+02200
      122    0.030207    0.030207  +2-200+
       74    0.028559   -0.028559  2022+00
      458    0.028517   -0.028517  2+02+-0
        4   -0.025201    0.025201  2-2++00
       72    0.024880    0.024880  2+2-+00
       37    0.024861   -0.024861  22+-+00
      357    0.024844    0.024844  220+020
      717    0.024793    0.024793  220+002
      109    0.024733   -0.024733  +-22+00
      457   -0.024628    0.024628  2++-+-0
      121   -0.024419    0.024419  +22-00+
      472   -0.022836   -0.022836  2+020-+
       40   -0.021600    0.021600  -2+2+00
       38   -0.020983    0.020983  2202+00
      753    0.020771    0.020771  202+002
      281   -0.020533    0.020533  +2+2-00
        3   -0.020175   -0.020175  22-++00
       64    0.020147   -0.020147  2-020++

 ---------------------------------------
    -DIABATIC STATES IN PROTOTYPES-     
 ---------------------------------------

     STATE:    1
 Group Ref#    Coefficients
     1    1    0.923316
     2    2   -0.007269
     3    3   -0.009767

WEIGHT OF LISTED PROTOTYPES:   85.27%

     STATE:    2
 Group Ref#    Coefficients
     1    1   -0.007405
     2    2    0.906372
     3    3    0.005439

WEIGHT OF LISTED PROTOTYPES:   82.16%

     STATE:    3
 Group Ref#    Coefficients
     1    1   -0.009898
     2    2    0.005410
     3    3    0.911123

WEIGHT OF LISTED PROTOTYPES:   83.03%

     DIRECT MAX. DIABATIZATION FINISHED    
 CPU     0: STEP CPU TIME=     0.24 TOTAL CPU TIME=         15.8 (      0.3 MIN)
 TOTAL WALL CLOCK TIME=         15.8 SECONDS, CPU UTILIZATION IS    99.87%

DIABATS FOR SPIN-ORBIT CALCULATION ARE READY

TRANSITION DIPOLES BETWEEN ADIABATS (in A.U.):

STATE PAIR      X         Y         Z
    1    1 -0.179295 -0.359992  0.614810
    2    1 -0.038900 -0.043480 -0.211065
    2    2 -0.244665 -0.373236  0.397803
    3    1 -0.133404  0.089234  0.017676
    3    2 -0.208965  0.107654  0.000986
    3    3 -0.203319 -0.506677  0.344709


TRANSITION DIPOLES BETWEEN DIABATS (in A.U.):

STATE PAIR      X         Y         Z
    1    1 -0.162867 -0.323799  0.744125
    2    1  0.006903 -0.006544  0.002908
    2    2 -0.451603 -0.347826  0.329890
    3    1 -0.005597  0.015772  0.002827
    3    2 -0.119384  0.097859 -0.031158
    3    3 -0.012808 -0.568279  0.283306

TRANSITION DIPOLES BETWEEN DIRECT MAX. DIABATS (in A.U.):

STATE PAIR      X         Y         Z
    1    1 -0.162867 -0.323798  0.744126
    2    1  0.006873 -0.006538  0.002876
    2    2 -0.451607 -0.347822  0.329889
    3    1 -0.005595  0.015762  0.002792
    3    2 -0.119378  0.097855 -0.031159
    3    3 -0.012804 -0.568285  0.283307
 No $TRANST Group Found.
 Quit without doing spin-orbit coupling
 ..... DONE WITH MP2 ENERGY .....
 CPU     0: STEP CPU TIME=     0.01 TOTAL CPU TIME=         15.8 (      0.3 MIN)
 TOTAL WALL CLOCK TIME=         15.8 SECONDS, CPU UTILIZATION IS    99.94%
            100000000  WORDS OF DYNAMIC MEMORY USED
 EXECUTION OF GAMESS TERMINATED NORMALLY Wed Nov 16 18:18:46 2022
 DDI: 715512 bytes (0.7 MB / 0 MWords) used by master data server.

 ----------------------------------------
 CPU timing information for all processes
 ========================================
 0: 15.443 + 0.331 = 15.775
 ----------------------------------------
Note: The following floating-point exceptions are signalling: IEEE_DENORMAL
 ddikick.x: exited gracefully.
unset echo
----- accounting info -----
Files used on the master node io002 were:
-rw-r--r-- 1 bsonghao nooijen   20693 Nov 16 18:18 /scratch/bsonghao/nh3_diabatization_2d_at_mode_7_8_dist-0.8_-0.4.F05
-rw-r--r-- 1 bsonghao nooijen  363520 Nov 16 18:18 /scratch/bsonghao/nh3_diabatization_2d_at_mode_7_8_dist-0.8_-0.4.F09
-rw-r--r-- 1 bsonghao nooijen 1995920 Nov 16 18:18 /scratch/bsonghao/nh3_diabatization_2d_at_mode_7_8_dist-0.8_-0.4.F10
-rw-r--r-- 1 bsonghao nooijen  131264 Nov 16 18:18 /scratch/bsonghao/nh3_diabatization_2d_at_mode_7_8_dist-0.8_-0.4.F13
-rw-r--r-- 1 bsonghao nooijen  180312 Nov 16 18:18 /scratch/bsonghao/nh3_diabatization_2d_at_mode_7_8_dist-0.8_-0.4.F15
-rw-r--r-- 1 bsonghao nooijen       0 Nov 16 18:18 /scratch/bsonghao/nh3_diabatization_2d_at_mode_7_8_dist-0.8_-0.4.F16
-rw-r--r-- 1 bsonghao nooijen    9808 Nov 16 18:18 /scratch/bsonghao/nh3_diabatization_2d_at_mode_7_8_dist-0.8_-0.4.F70
-rw-r--r-- 1 bsonghao nooijen    9808 Nov 16 18:18 /scratch/bsonghao/nh3_diabatization_2d_at_mode_7_8_dist-0.8_-0.4.F71
-rw-r--r-- 1 bsonghao nooijen   19608 Nov 16 18:18 /scratch/bsonghao/nh3_diabatization_2d_at_mode_7_8_dist-0.8_-0.4.F72
-rw-r--r-- 1 bsonghao nooijen   19608 Nov 16 18:18 /scratch/bsonghao/nh3_diabatization_2d_at_mode_7_8_dist-0.8_-0.4.F73
-rw-r--r-- 1 bsonghao nooijen 1920824 Nov 16 18:18 /scratch/bsonghao/nh3_diabatization_2d_at_mode_7_8_dist-0.8_-0.4.F74
-rw-r--r-- 1 bsonghao nooijen       0 Nov 16 18:18 /scratch/bsonghao/nh3_diabatization_2d_at_mode_7_8_dist-0.8_-0.4.F75
-rw-r--r-- 1 bsonghao nooijen   58848 Nov 16 18:18 /scratch/bsonghao/nh3_diabatization_2d_at_mode_7_8_dist-0.8_-0.4.F76
-rw-r--r-- 1 bsonghao nooijen       0 Nov 16 18:18 /scratch/bsonghao/nh3_diabatization_2d_at_mode_7_8_dist-0.8_-0.4.F77
-rw-r--r-- 1 bsonghao nooijen    1864 Nov 16 18:18 /scratch/bsonghao/nh3_diabatization_2d_at_mode_7_8_dist-0.8_-0.4.F78
-rw-r--r-- 1 bsonghao nooijen   39208 Nov 16 18:18 /scratch/bsonghao/nh3_diabatization_2d_at_mode_7_8_dist-0.8_-0.4.F79
-rw-r--r-- 1 bsonghao nooijen     104 Nov 16 18:18 /scratch/bsonghao/nh3_diabatization_2d_at_mode_7_8_dist-0.8_-0.4.F80
-rw-r--r-- 1 bsonghao nooijen   13472 Nov 16 18:18 /scratch/bsonghao/nh3_diabatization_2d_at_mode_7_8_dist-0.8_-0.4.F81
-rw-r--r-- 1 bsonghao nooijen      16 Nov 16 18:18 /scratch/bsonghao/nh3_diabatization_2d_at_mode_7_8_dist-0.8_-0.4.F82
-rw-r--r-- 1 bsonghao nooijen   19216 Nov 16 18:18 /scratch/bsonghao/nh3_diabatization_2d_at_mode_7_8_dist-0.8_-0.4.F83
-rw-r--r-- 1 bsonghao nooijen   29712 Nov 16 18:18 /scratch/bsonghao/nh3_diabatization_2d_at_mode_7_8_dist-0.8_-0.4.F84
-rw-r--r-- 1 bsonghao nooijen  401576 Nov 16 18:18 /scratch/bsonghao/nh3_diabatization_2d_at_mode_7_8_dist-0.8_-0.4.F85
-rw-r--r-- 1 bsonghao nooijen  903672 Nov 16 18:18 /scratch/bsonghao/nh3_diabatization_2d_at_mode_7_8_dist-0.8_-0.4.F86
-rw-r--r-- 1 bsonghao nooijen     656 Nov 16 18:18 /scratch/bsonghao/nh3_diabatization_2d_at_mode_7_8_dist-0.8_-0.4.F87
-rw-r--r-- 1 bsonghao nooijen   44208 Nov 16 18:18 /scratch/bsonghao/nh3_diabatization_2d_at_mode_7_8_dist-0.8_-0.4.F88
-rw-r--r-- 1 bsonghao nooijen     240 Nov 16 18:18 /scratch/bsonghao/nh3_diabatization_2d_at_mode_7_8_dist-0.8_-0.4.F89
-rw-r--r-- 1 bsonghao nooijen       0 Nov 16 18:18 /scratch/bsonghao/nh3_diabatization_2d_at_mode_7_8_dist-0.8_-0.4.F90
-rw-r--r-- 1 bsonghao nooijen   13760 Nov 16 18:18 /scratch/bsonghao/nh3_diabatization_2d_at_mode_7_8_dist-0.8_-0.4.F91
-rw-r--r-- 1 bsonghao nooijen   22776 Nov 16 18:18 /scratch/bsonghao/nh3_diabatization_2d_at_mode_7_8_dist-0.8_-0.4.F92
-rw-r--r-- 1 bsonghao nooijen   23168 Nov 16 18:18 /scratch/bsonghao/nh3_diabatization_2d_at_mode_7_8_dist-0.8_-0.4.F93
-rw-r--r-- 1 bsonghao nooijen   22776 Nov 16 18:18 /scratch/bsonghao/nh3_diabatization_2d_at_mode_7_8_dist-0.8_-0.4.F94
-rw-r--r-- 1 bsonghao nooijen   13760 Nov 16 18:18 /scratch/bsonghao/nh3_diabatization_2d_at_mode_7_8_dist-0.8_-0.4.F95
-rw-r--r-- 1 bsonghao nooijen   29440 Nov 16 18:18 /scratch/bsonghao/nh3_diabatization_2d_at_mode_7_8_dist-0.8_-0.4.F96
-rw-r--r-- 1 bsonghao nooijen    1184 Nov 16 18:18 /scratch/bsonghao/nh3_diabatization_2d_at_mode_7_8_dist-0.8_-0.4.F97
-rw-r--r-- 1 bsonghao nooijen    9808 Nov 16 18:18 /scratch/bsonghao/nh3_diabatization_2d_at_mode_7_8_dist-0.8_-0.4.F98
-rw-r--r-- 1 bsonghao nooijen   30264 Nov 16 18:18 /scratch/bsonghao/nh3_diabatization_2d_at_mode_7_8_dist-0.8_-0.4.F99
ls: No match.
ls: No match.
ls: No match.
Wed 16 Nov 2022 06:18:49 PM EST
0.275u 0.057s 0:19.14 1.6%	0+0k 48+224io 0pf+0w
