----- GAMESS execution script 'rungms' -----
This job is running on host io002
under operating system Linux at Wed 16 Nov 2022 08:24:56 PM EST
Available scratch disk space (Kbyte units) at beginning of the job is
Filesystem       1K-blocks       Used   Available Use% Mounted on
/dev/sdc1      15378471580 3278917120 11318349060  23% /scratch
GAMESS temporary binary files will be written to /scratch/bsonghao
GAMESS supplementary output files will be written to /home/bsonghao/.gamess_ascii_files/267638
Copying input file nh3_diabatization_2d_at_mode_7_8_dist0.8_-0.1.inp to your run's scratch directory...
cp nh3_diabatization_2d_at_mode_7_8_dist0.8_-0.1.inp /scratch/bsonghao/nh3_diabatization_2d_at_mode_7_8_dist0.8_-0.1.F05
unset echo
/home/bjb2chen/gamess/ddikick.x /home/bjb2chen/gamess/gamess.00.x nh3_diabatization_2d_at_mode_7_8_dist0.8_-0.1 -ddi 1 1 io002 -scr /scratch/bsonghao

 Distributed Data Interface kickoff program.
 Initiating 1 compute processes on 1 nodes to run the following command:
 /home/bjb2chen/gamess/gamess.00.x nh3_diabatization_2d_at_mode_7_8_dist0.8_-0.1 

          ******************************************************
          *         GAMESS VERSION = 02 AUG 2018 (R2)         *
          *             FROM IOWA STATE UNIVERSITY             *
          * M.W.SCHMIDT, K.K.BALDRIDGE, J.A.BOATZ, S.T.ELBERT, *
          *   M.S.GORDON, J.H.JENSEN, S.KOSEKI, N.MATSUNAGA,   *
          *          K.A.NGUYEN, S.J.SU, T.L.WINDUS,           *
          *       TOGETHER WITH M.DUPUIS, J.A.MONTGOMERY       *
          *         J.COMPUT.CHEM.  14, 1347-1363(1993)        *
          **************** 64 BIT LINUX VERSION ****************

  SINCE 1993, STUDENTS AND POSTDOCS WORKING AT IOWA STATE UNIVERSITY
  AND ALSO IN THEIR VARIOUS JOBS AFTER LEAVING ISU HAVE MADE IMPORTANT
  CONTRIBUTIONS TO THE CODE:
     IVANA ADAMOVIC, CHRISTINE AIKENS, YURI ALEXEEV, POOJA ARORA,
     ANDREY ASADCHEV, ROB BELL, PRADIPTA BANDYOPADHYAY, JONATHAN BENTZ,
     BRETT BODE, KURT BRORSEN, CALEB CARLIN, GALINA CHABAN, WEI CHEN,
     CHEOL HO CHOI, PAUL DAY, ALBERT DEFUSCO, NUWAN DESILVA, TIM DUDLEY,
     DMITRI FEDOROV, ALEX FINDLATER, GRAHAM FLETCHER, MARK FREITAG,
     KURT GLAESEMANN, ANASTASIA GUININA,
     DAN KEMP, GRANT MERRILL, NORIYUKI MINEZAWA, JONATHAN MULLIN,
     TAKESHI NAGATA, SEAN NEDD, HEATHER NETZLOFF, BOSILJKA NJEGIC, RYAN OLSON,
     MIKE PAK, BUU PHAM,
     SPENCER PRUITT, LUKE ROSKOP, JIM SHOEMAKER, LYUDMILA SLIPCHENKO,
     TONY SMITH, SAROM SOK LEANG, JIE SONG, TETSUYA TAKETSUGU, SIMON WEBB,
     PENG XU, SOOHAENG YOO, FEDERICO ZAHARIEV

  ADDITIONAL CODE HAS BEEN PROVIDED BY COLLABORATORS IN OTHER GROUPS:
     IOWA STATE UNIVERSITY:
          JOE IVANIC, AARON WEST, LAIMUTIS BYTAUTAS, KLAUS RUEDENBERG
     UNIVERSITY OF TOKYO: KIMIHIKO HIRAO, TAKAHITO NAKAJIMA,
          TAKAO TSUNEDA, MUNEAKI KAMIYA, SUSUMU YANAGISAWA,
          KIYOSHI YAGI, MAHITO CHIBA, SEIKEN TOKURA, NAOAKI KAWAKAMI
     UNIVERSITY OF AARHUS: FRANK JENSEN
     UNIVERSITY OF IOWA: VISVALDAS KAIRYS, HUI LI
     NATIONAL INST. OF STANDARDS AND TECHNOLOGY: WALT STEVENS, DAVID GARMER
     UNIVERSITY OF PISA: BENEDETTA MENNUCCI, JACOPO TOMASI
     UNIVERSITY OF MEMPHIS: HENRY KURTZ, PRAKASHAN KORAMBATH
     UNIVERSITY OF ALBERTA: TOBY ZENG, MARIUSZ KLOBUKOWSKI
     UNIVERSITY OF NEW ENGLAND: MARK SPACKMAN
     MIE UNIVERSITY: HIROAKI UMEDA
     NAT. INST. OF ADVANCED INDUSTRIAL SCIENCE AND TECHNOLOGY: KAZUO KITAURA
     MICHIGAN STATE UNIVERSITY:
          KAROL KOWALSKI, MARTA WLOCH, JEFFREY GOUR, JESSE LUTZ,
          WEI LI, JUN SHEN, J. EMILIANO DEUSTUA, PIOTR PIECUCH
     UNIVERSITY OF MINNESOTA:
          YINAN SHU
     UNIVERSITY OF SILESIA: MONIKA MUSIAL, STANISLAW KUCHARSKI
     FACULTES UNIVERSITAIRES NOTRE-DAME DE LA PAIX:
          OLIVIER QUINET, BENOIT CHAMPAGNE
     UNIVERSITY OF CALIFORNIA - SANTA BARBARA: BERNARD KIRTMAN
     INSTITUTE FOR MOLECULAR SCIENCE:
          KAZUYA ISHIMURA, MICHIO KATOUDA, AND SHIGERU NAGASE
     UNIVERSITY OF NOTRE DAME: ANNA POMOGAEVA, DAN CHIPMAN
     KYUSHU UNIVERSITY:
          HARUYUKI NAKANO,
          FENG LONG GU, JACEK KORCHOWIEC, MARCIN MAKOWSKI, AND YURIKO AOKI,
          HIROTOSHI MORI AND EISAKU MIYOSHI
     PENNSYLVANIA STATE UNIVERSITY:
          TZVETELIN IORDANOV, CHET SWALINA, JONATHAN SKONE,
          SHARON HAMMES-SCHIFFER
     WASEDA UNIVERSITY:
          MASATO KOBAYASHI, TOMOKO AKAMA, TSUGUKI TOUMA,
          TAKESHI YOSHIKAWA, YASUHIRO IKABATA, JUNJI SEINO,
          YUYA NAKAJIMA, HIROMI NAKAI
     NANJING UNIVERSITY: SHUHUA LI
     UNIVERSITY OF NEBRASKA:
          PEIFENG SU, DEJUN SI, NANDUN THELLAMUREGE, YALI WANG, HUI LI
     UNIVERSITY OF ZURICH: ROBERTO PEVERATI, KIM BALDRIDGE
     N. COPERNICUS UNIVERSITY AND JACKSON STATE UNIVERSITY:
          MARIA BARYSZ
     UNIVERSITY OF COPENHAGEN: Jimmy Kromann, CASPER STEINMANN
     TOKYO INSTITUTE OF TECHNOLOGY: HIROYA NAKATA
     NAGOYA UNIVERSITY: YOSHIO NISHIMOTO, STEPHAN IRLE
     MOSCOW STATE UNIVERSITY: VLADIMIR MIRONOV

 EXECUTION OF GAMESS BEGUN Wed Nov 16 20:24:56 2022

            ECHO OF THE FIRST FEW INPUT CARDS -
 INPUT CARD> $system kdiag=3 mwords=100 memddi=1000 parall=.t. $end                         
 INPUT CARD> $contrl runtyp=energy ispher=1 $end                                            
 INPUT CARD> $contrl icut=9 itol=20 inttyp=rysquad qmttol=1.0d-05 nosym=1 $end              
 INPUT CARD> $scf    npunch=2 conv=1.0d-06 dirscf=.t.      $end                             
 INPUT CARD> $contrl scftyp=mcscf  mult=2 maxit=200 icharg=1 mplevl=2 $end                  
 INPUT CARD> $guess  guess=moread norb=29 purify=.t. $end                                   
 INPUT CARD> $basis  gbasis=ccd $end                                                        
 INPUT CARD> $mcscf  cistep=gmcci fullnr=.t. finci=mos                                      
 INPUT CARD>         acurcy=1.d-6 maxit=100 $end                                            
 INPUT CARD> $trans  dirtrf=.t. $end                                                        
 INPUT CARD> $mrmp   mrpt=gmcpt rdvecs=.f. $end                                             
 INPUT CARD> $gmcpt  nmofzc=0 nmodoc=1 nmoact=7 nelact=7 stsym(1)=A                         
 INPUT CARD>         reftyp=ormas nspace=1 mstart(1)=2 mine(1)=7 maxe(1)=7                  
 INPUT CARD>         kstate(1)=1,1,1                                                        
 INPUT CARD>         wstate(1)=1,1,1                                                        
 INPUT CARD>         iwgt=0 thrwgt=-1.0 krot=.f. kszdoe=.f. knospn=.f.                      
 INPUT CARD>         thrde=-1.0 edshft=0.02 $end                                            
 INPUT CARD> $data                                                                          
 INPUT CARD> NH3+ 3 states calculation at NH3 structure.                                    
 INPUT CARD> c1                                                                             
 INPUT CARD>N 7.0 0.006228917999999998 -0.04983122400000001 -0.1693806302                   
 INPUT CARD>H 1.0 -0.21053877899999995 0.8220648408000001 0.45254456910000007               
 INPUT CARD>H 1.0 -0.821941313 -0.7134490818000001 0.0867727711                             
 INPUT CARD>H 1.0 0.945927582 0.5838059499999999 0.23006251710000003                        
 INPUT CARD>$end                                                                            
 INPUT CARD>--- OPTIMIZED RHF      MO-S --- GENERATED AT Mon Nov 14 16:47:08 2022           
 INPUT CARD>E=      -56.3825050291, E(NUC)=   11.8429239490                                 
 INPUT CARD> $VEC                                                                           
 INPUT CARD> 1  1-1.00134066E+00-2.25158504E-03 3.44925845E-03 0.00000000E+00 0.00000000E+00
 INPUT CARD> 1  2-2.13170927E-03 0.00000000E+00 0.00000000E+00 6.57129898E-04-6.87950443E-05
 INPUT CARD> 1  3-6.87950443E-05 1.37590089E-04 0.00000000E+00 0.00000000E+00 0.00000000E+00
 INPUT CARD> 1  4 3.25502815E-04-4.84772356E-04 3.62525460E-04-6.27912517E-04-3.45956485E-04
 INPUT CARD> 1  5 3.25502815E-04-4.84772356E-04 3.62525460E-04 6.27912517E-04-3.45956485E-04
 INPUT CARD> 1  6 3.25502815E-04-4.84772356E-04-7.25050921E-04 0.00000000E+00-3.45956485E-04
 INPUT CARD> 2  1 1.31286642E-02-4.05911371E-01-2.82090992E-01 0.00000000E+00 0.00000000E+00
 INPUT CARD> 2  2-7.71489043E-02 0.00000000E+00 0.00000000E+00 9.73717494E-03 6.62450916E-04
 INPUT CARD> 2  3 6.62450916E-04-1.32490183E-03 0.00000000E+00 0.00000000E+00 0.00000000E+00
 INPUT CARD> 2  4-1.96090317E-01-1.96656153E-02-1.74855877E-02 3.02859263E-02 8.68214399E-03
 INPUT CARD> 2  5-1.96090317E-01-1.96656153E-02-1.74855877E-02-3.02859263E-02 8.68214399E-03
 INPUT CARD> 2  6-1.96090317E-01-1.96656153E-02 3.49711754E-02 0.00000000E+00 8.68214399E-03
 INPUT CARD> 3  1 0.00000000E+00 0.00000000E+00 0.00000000E+00 4.48608762E-01 0.00000000E+00
 INPUT CARD> 3  2 0.00000000E+00 2.18692520E-01 0.00000000E+00 0.00000000E+00 1.30198027E-02
 INPUT CARD> 3  3-1.30198027E-02 0.00000000E+00 0.00000000E+00 2.71832968E-02 0.00000000E+00
 INPUT CARD> 3  4-1.85332726E-01-7.03958951E-02 8.47929477E-03 1.95242443E-02 8.32835058E-03
 INPUT CARD> 3  5-1.85332726E-01-7.03958951E-02 8.47929477E-03-1.95242443E-02 8.32835058E-03
 INPUT CARD> 3  6 3.70665453E-01 1.40791790E-01-2.53376884E-02 0.00000000E+00-1.66567012E-02
 INPUT CARD> 4  1 0.00000000E+00 0.00000000E+00 0.00000000E+00 0.00000000E+00 4.48608762E-01
 INPUT CARD> 4  2 0.00000000E+00 0.00000000E+00 2.18692520E-01 0.00000000E+00 0.00000000E+00
 INPUT CARD> 4  3 0.00000000E+00 0.00000000E+00-1.50339731E-02 0.00000000E+00 2.71832968E-02
 INPUT CARD> 4  4 3.21005698E-01 1.21929267E-01 1.95242443E-02-1.40653607E-02-1.44251263E-02
  100000000 WORDS OF MEMORY AVAILABLE

     BASIS OPTIONS
     -------------
     GBASIS=CCD          IGAUSS=       0      POLAR=NONE    
     NDFUNC=       0     NFFUNC=       0     DIFFSP=       F
     NPFUNC=       0      DIFFS=       F     BASNAM=        


     RUN TITLE
     ---------
  NH3+ 3 states calculation at NH3 structure.                                    

 THE POINT GROUP OF THE MOLECULE IS C1      
 THE ORDER OF THE PRINCIPAL AXIS IS     0

 ATOM      ATOMIC                      COORDINATES (BOHR)
           CHARGE         X                   Y                   Z
 N           7.0     0.0117709482       -0.0941673590       -0.3200829787
 H           1.0    -0.3978606021        1.5534772933        0.8551852328
 H           1.0    -1.5532438596       -1.3482232708        0.1639767606
 H           1.0     1.7875439342        1.1032332755        0.4347551174

          INTERNUCLEAR DISTANCES (ANGS.)
          ------------------------------

                1 N          2 H          3 H          4 H     

   1 N       0.0000000    1.0926948 *  1.0917276 *  1.2017007 *
   2 H       1.0926948 *  0.0000000    1.6927507 *  1.2015324 *
   3 H       1.0917276 *  1.6927507 *  0.0000000    2.1974447 *
   4 H       1.2017007 *  1.2015324 *  2.1974447 *  0.0000000  

  * ... LESS THAN  3.000


     ATOMIC BASIS SET
     ----------------
 THE CONTRACTED PRIMITIVE FUNCTIONS HAVE BEEN UNNORMALIZED
 THE CONTRACTED BASIS FUNCTIONS ARE NOW NORMALIZED TO UNITY

  SHELL TYPE  PRIMITIVE        EXPONENT          CONTRACTION COEFFICIENT(S)

 N         

      1   S       1          9046.0000000    0.000699617413
      1   S       2          1357.0000000    0.005386054630
      1   S       3           309.3000000    0.027391021189
      1   S       4            87.7300000    0.103150591982
      1   S       5            28.5600000    0.278570663317
      1   S       6            10.2100000    0.448294849454
      1   S       7             3.8380000    0.278085928395
      1   S       8             0.7466000    0.015431561233

      2   S       9          9046.0000000   -0.000304990096
      2   S      10          1357.0000000   -0.002408026379
      2   S      11           309.3000000   -0.011944448725
      2   S      12            87.7300000   -0.048925992909
      2   S      13            28.5600000   -0.134472724725
      2   S      14            10.2100000   -0.315112577700
      2   S      15             3.8380000   -0.242857832550
      2   S      16             0.7466000    1.094382206854

      3   S      17             0.2248000    1.000000000000

      4   P      18            13.5500000    0.058905676772
      4   P      19             2.9170000    0.320461106714
      4   P      20             0.7973000    0.753042061792

      5   P      21             0.2185000    1.000000000000

      6   D      22             0.8170000    1.000000000000

 H         

      7   S      23            13.0100000    0.033498726390
      7   S      24             1.9620000    0.234800801174
      7   S      25             0.4446000    0.813682957883

      8   S      26             0.1220000    1.000000000000

      9   P      27             0.7270000    1.000000000000

 H         

     10   S      28            13.0100000    0.033498726390
     10   S      29             1.9620000    0.234800801174
     10   S      30             0.4446000    0.813682957883

     11   S      31             0.1220000    1.000000000000

     12   P      32             0.7270000    1.000000000000

 H         

     13   S      33            13.0100000    0.033498726390
     13   S      34             1.9620000    0.234800801174
     13   S      35             0.4446000    0.813682957883

     14   S      36             0.1220000    1.000000000000

     15   P      37             0.7270000    1.000000000000

 TOTAL NUMBER OF BASIS SET SHELLS             =   15
 NUMBER OF CARTESIAN GAUSSIAN BASIS FUNCTIONS =   30
 NOTE: THIS RUN WILL RESTRICT THE MO VARIATION SPACE TO SPHERICAL HARMONICS.
 THE NUMBER OF ORBITALS KEPT IN THE VARIATIONAL SPACE WILL BE PRINTED LATER.
 NUMBER OF ELECTRONS                          =    9
 CHARGE OF MOLECULE                           =    1
 SPIN MULTIPLICITY                            =    2
 NUMBER OF OCCUPIED ORBITALS (ALPHA)          =    5
 NUMBER OF OCCUPIED ORBITALS (BETA )          =    4
 TOTAL NUMBER OF ATOMS                        =    4
 THE NUCLEAR REPULSION ENERGY IS       10.8593591285

     $CONTRL OPTIONS
     ---------------
 SCFTYP=MCSCF        RUNTYP=ENERGY       EXETYP=RUN     
 MPLEVL=       2     CITYP =NONE         CCTYP =NONE         VBTYP =NONE    
 DFTTYP=NONE         TDDFT =NONE    
 MULT  =       2     ICHARG=       1     NZVAR =       0     COORD =UNIQUE  
 PP    =NONE         RELWFN=NONE         LOCAL =NONE         NUMGRD=       F
 ISPHER=       1     NOSYM =       1     MAXIT =     200     UNITS =ANGS    
 PLTORB=       F     MOLPLT=       F     AIMPAC=       F     FRIEND=        
 NPRINT=       7     IREST =       0     GEOM  =INPUT   
 NORMF =       0     NORMP =       0     ITOL  =      20     ICUT  =       9
 INTTYP=RYSQUAD      GRDTYP=BEST         QMTTOL= 1.0E-05

     $SYSTEM OPTIONS
     ---------------
  REPLICATED MEMORY=   100000000 WORDS (ON EVERY NODE).
 DISTRIBUTED MEMDDI=        1000 MILLION WORDS IN AGGREGATE,
 MEMDDI DISTRIBUTED OVER   1 PROCESSORS IS  1000000000 WORDS/PROCESSOR.
 TOTAL MEMORY REQUESTED ON EACH PROCESSOR=  1100000000 WORDS.
 TIMLIM=      525600.00 MINUTES, OR     365.0 DAYS.
 PARALL= T  BALTYP=  DLB     KDIAG=    3  COREFL= F
 MXSEQ2=     300 MXSEQ3=     150  mem10=         0

          ----------------
          PROPERTIES INPUT
          ----------------

     MOMENTS            FIELD           POTENTIAL          DENSITY
 IEMOM =       1   IEFLD =       0   IEPOT =       0   IEDEN =       0
 WHERE =COMASS     WHERE =NUCLEI     WHERE =NUCLEI     WHERE =NUCLEI  
 OUTPUT=BOTH       OUTPUT=BOTH       OUTPUT=BOTH       OUTPUT=BOTH    
 IEMINT=       0   IEFINT=       0                     IEDINT=       0
                                                       MORB  =       0

     -------------------------------
     INTEGRAL TRANSFORMATION OPTIONS
     -------------------------------
     NWORD  =            0
     CUTOFF = 1.0E-09     MPTRAN =       0
     DIRTRF =       T     AOINTS =DUP     

          ----------------------
          MCSCF INPUT PARAMETERS
          ----------------------
 CONVERGER SELECTION: FOCAS = F  SOSCF = F  FULLNR = T  QUD = F  JACOBI = F
 SECULAR EQUATION METHOD CISTEP = GMCCI   
 --- GENERAL INPUT OPTIONS:
 MAXIT =     100  MICIT =       1  ACURCY= 1.000E-06
 DAMP  =   0.000  CANONC=       T  ENGTOL= 1.000E-10
 EKT   =       F  NPUNCH=       2  NWORD =         0
 REGENERATE CI AFTER CONVERGENCE = NONE    
 DIABATIZATION AFTER CONVERGENCE =        F
 --- INPUT FOR FULLNR CONVERGER:
 METHOD=DM2       FORS  =       F  DROPC =       T
 LINSER=       F  FCORE =       F  NORB  =      30

          ----------------------
          INTEGRAL INPUT OPTIONS
          ----------------------
 NOPK  =       1 NORDER=       0 SCHWRZ=       T

 ------------------------------------------
 MULTIREFERENCE PERTURBATION THEORY CONTROL
 ------------------------------------------
 MRPT=GMCPT    READ CONVERGED MCSCF VECTORS= F


     ------------------------------------------
     THE POINT GROUP IS C1 , NAXIS= 1, ORDER= 1
     ------------------------------------------

 -- VARIATIONAL SPACE WILL BE RESTRICTED TO PURE SPHERICAL HARMONICS ONLY --
 AFTER EXCLUDING CONTAMINANT COMBINATIONS FROM THE CARTESIAN GAUSSIAN BASIS
 SET, THE NUMBER OF SPHERICAL HARMONICS KEPT IN THE VARIATION SPACE IS   29

     DIMENSIONS OF THE SYMMETRY SUBSPACES ARE
 A   =   29

 ..... DONE SETTING UP THE RUN .....
 CPU     0: STEP CPU TIME=     0.03 TOTAL CPU TIME=          0.0 (      0.0 MIN)
 TOTAL WALL CLOCK TIME=          0.0 SECONDS, CPU UTILIZATION IS    75.00%

          ********************
          1 ELECTRON INTEGRALS
          ********************
 TIME TO DO   DIPOLE INTEGRALS=      0.00
 ...... END OF ONE-ELECTRON INTEGRALS ......
 CPU     0: STEP CPU TIME=     0.00 TOTAL CPU TIME=          0.0 (      0.0 MIN)
 TOTAL WALL CLOCK TIME=          0.1 SECONDS, CPU UTILIZATION IS    60.00%

          -------------
          GUESS OPTIONS
          -------------
          GUESS =MOREAD            NORB  =      29          NORDER=       0
          MIX   =       F          PRTMO =       F          PUNMO =       F
          TOLZ  = 1.0E-08          TOLE  = 1.0E-05
          SYMDEN=       F          PURIFY=       T

 INITIAL GUESS ORBITALS GENERATED BY MOREAD   ROUTINE.

 STATISTICS FOR GENERATION OF SYMMETRY ORBITAL -Q- MATRIX
 NUMBER OF CARTESIAN ATOMIC ORBITALS=         30
 NUMBER OF SPHERICAL CONTAMINANTS DROPPED=     1
 NUMBER OF LINEARLY DEPENDENT MOS DROPPED=     0
 TOTAL NUMBER OF MOS IN VARIATION SPACE=      29
 ORBITAL PURIFICATION WILL OCCUR

 SYMMETRIES FOR INITIAL GUESS ORBITALS FOLLOW.   BOTH SET(S).
     5 ORBITALS ARE OCCUPIED (    1 CORE ORBITALS).
     1=A        2=A        3=A        4=A        5=A        6=A        7=A   
     8=A        9=A       10=A       11=A       12=A       13=A       14=A   
    15=A       16=A       17=A       18=A       19=A       20=A       21=A   
    22=A       23=A       24=A       25=A       26=A       27=A       28=A   
    29=A   
 ...... END OF INITIAL ORBITAL SELECTION ......
 CPU     0: STEP CPU TIME=     0.01 TOTAL CPU TIME=          0.0 (      0.0 MIN)
 TOTAL WALL CLOCK TIME=          0.1 SECONDS, CPU UTILIZATION IS    80.00%

                    ----------------------
                    AO INTEGRAL TECHNOLOGY
                    ----------------------
     S,P,L SHELL ROTATED AXIS INTEGRALS, REPROGRAMMED BY
        KAZUYA ISHIMURA (IMS) AND JOSE SIERRA (SYNSTAR).
     S,P,D,L SHELL ROTATED AXIS INTEGRALS PROGRAMMED BY
        KAZUYA ISHIMURA (INSTITUTE FOR MOLECULAR SCIENCE).
     S,P,D,F,G SHELL TO TOTAL QUARTET ANGULAR MOMENTUM SUM 5,
        ERIC PROGRAM BY GRAHAM FLETCHER (ELORET AND NASA ADVANCED
        SUPERCOMPUTING DIVISION, AMES RESEARCH CENTER).
     S,P,D,F,G,L SHELL GENERAL RYS QUADRATURE PROGRAMMED BY
        MICHEL DUPUIS (PACIFIC NORTHWEST NATIONAL LABORATORY).

          --------------------
          2 ELECTRON INTEGRALS
          --------------------

 DIRECT SCF METHOD SKIPS INTEGRAL STORAGE ON DISK.
 DIRECT TRANSFORMATION SKIPS AO INTEGRAL STORAGE ON DISK.
  ...... END OF TWO-ELECTRON INTEGRALS .....
 STEP CPU TIME =     0.02 TOTAL CPU TIME =          0.1 (      0.0 MIN)
 TOTAL WALL CLOCK TIME=          0.1 SECONDS, CPU UTILIZATION IS    75.00%
 DDI: Creating Array [0] - 900 x 36 = 32400 words.
 DDI: Creating Array [1] - 21 x 288 = 6048 words.
 DDI: Creating Array [2] - 36 x 36 = 1296 words.
 DDI: Creating Array [3] - 465 x 36 = 16740 words.

          -----------------
          MCSCF CALCULATION
          -----------------

 ----- NUCLEAR ENERGY ----- =        10.8593591285

     -------------------------------------------------
     GMC-PT/GMC-QDPT or general MCSCF input parameters
     -------------------------------------------------
 # of frozen core orbs. =         0 ->         0
 # of doubly occ. orbs. =         1
 # of active      orbs. =         7
 # of virtual     orbs. =        21
 # of active electrons  =         7
 # of states in CI      =         3
 Highest state in CI    =         3
 kstate =  1 1 1
 avecoe =  0.333 0.333 0.333
 State symmetry           = A           
 Assigned symmetry number = 1

 <<<Act. MO sym.: 1111111

 <<<Division of 1-ext.:  0
 <<<Division of 2-ext.:  0

 *** Reference space

 Reference type: ORMAS (= Occupation restricted multiple active space)
 # of orbitals          =  7
 # of minimum electrons =  7
 # of maximum electrons =  7
 State symmetry    =    1 (input)
 2*Sz              =    1 (input)
 Spin multiplicity =    2 (input)
 Dimension of reference space =      1225  (from      3432 walks)

 Dimension of reference space =      1225  (from      1225 walks)

 <<<Ionized spaces for Ref-CI:
      0:         1225 /   -1-0:         1960 /  0-1-0:         2891

 EVALUATING EXCHANGE INTEGRALS FOR DIRECT INTEGRAL TRANSFORMATION
 SCHWARZ INEQUALITY OVERHEAD:       465 INTEGRALS, T=        0.00

     --------------------------------------------
     PARTIAL TWO ELECTRON INTEGRAL TRANSFORMATION
     --------------------------------------------

 NUMBER OF CORE MOLECULAR ORBITALS     =    1
 NUMBER OF OCCUPIED MOLECULAR ORBITALS =    8
 TOTAL NUMBER OF MOLECULAR ORBITALS    =   29
 TOTAL NUMBER OF ATOMIC ORBITALS       =   30
 THRESHOLD FOR KEEPING TRANSFORMED 2E- INTEGRALS = 1.000E-09

 -------------------------------     ------------------------------
 DISTRIBUTED DATA TRANSFORMATION     PROGRAM WRITTEN BY G. FLETCHER
 -------------------------------     ------------------------------

 THE DISTRIBUTED MEMORY REQUIRED FOR THIS STEP IS MEMDDI=         1 MWORDS
 CREATING DISTRIBUTED STORAGE FOR [VIR OCC|VIR OCC] INTEGRALS
 CREATING DISTRIBUTED STORAGE FOR [VIR OCC|OCC OCC] INTEGRALS
 CREATING DISTRIBUTED STORAGE FOR [OCC OCC|OCC OCC] INTEGRALS
 CREATING DISTRIBUTED STORAGE FOR [VIR VIR|OCC OCC] INTEGRALS
 FOR    1 PROCESSORS, THE REPLICATED MEMORY NEEDED IS       73700 WORDS.
 SCHWARZ INEQUALITY OVERHEAD:       465 INTEGRALS, T=        0.00

      DIRECT 4-INDEX TRANSFORMATION 
      SCHWARZ INEQUALITY TEST SKIPPED          0 INTEGRAL BLOCKS
 ----- FROZEN CORE ENERGY =       -47.5506353810
 ... END OF INTEGRAL TRANSFORMATION ...
 CPU     0: STEP CPU TIME=     0.23 TOTAL CPU TIME=          0.3 (      0.0 MIN)
 TOTAL WALL CLOCK TIME=          0.3 SECONDS, CPU UTILIZATION IS    96.67%

     --------------------------------     -----------------------------
     MCHF NEWTON-RAPHSON OPTIMIZATION     CODE WRITTEN BY MICHEL DUPUIS
     --------------------------------     -----------------------------
     PARALLEL VERSION WRITTEN BY G. FLETCHER (ELORET)
     NASA ADVANCED SUPERCOMPUTING DIVISION, AMES RESEARCH CENTER

 NUMBER OF INDEPENDENT ORBITAL ROTATION PARAMETERS =   175
 ..... DONE SOLVING NEWTON-RAPHSON EQUATIONS .....
 CPU     0: STEP CPU TIME=     0.89 TOTAL CPU TIME=          1.2 (      0.0 MIN)
 TOTAL WALL CLOCK TIME=          1.2 SECONDS, CPU UTILIZATION IS    99.16%
 ..... DONE WITH NTN-RPH ORBITAL ROTATIONS ..... 
 CPU     0: STEP CPU TIME=     0.00 TOTAL CPU TIME=          1.2 (      0.0 MIN)
 TOTAL WALL CLOCK TIME=          1.2 SECONDS, CPU UTILIZATION IS    99.16%
 MAXIMUM MEMORY USED BY NTN-RPH CODE WAS     57645 WORDS.

 ITER     TOTAL ENERGY      DEL(E)  LAGRANGIAN ASYMMETRY   SQCDF  MICIT   DAMP
   1      -55.572748755 -0.572748755  0.103620   12    5 9.307E-02  1   0.0000
   2      -55.639935086 -0.067186332  0.019758   12    5 4.601E-01  1   0.0000
   3      -55.677188388 -0.037253302  0.014569   11    6 2.307E-01  1   0.0165
   4      -55.694518263 -0.017329875  0.005076   11    6 4.641E-02  1   0.0064
   5      -55.696955110 -0.002436847  0.001194   23    5 1.375E-03  1   0.0000
   6      -55.697044884 -0.000089773  0.000543   23    5 1.379E-04  1   0.0000
   7      -55.697056563 -0.000011680  0.000256   23    5 3.160E-05  1   0.0000
   8      -55.697059206 -0.000002643  0.000127   23    5 8.410E-06  1   0.0000
   9      -55.697059885 -0.000000678  0.000065   23    5 2.399E-06  1   0.0000
  10      -55.697060071 -0.000000186  0.000034   23    5 7.170E-07  1   0.0000
  11      -55.697060125 -0.000000054  0.000018   23    5 2.223E-07  1   0.0000
  12      -55.697060141 -0.000000016  0.000010   23    5 7.117E-08  1   0.0000
  13      -55.697060146 -0.000000005  0.000005   23    5 2.343E-08  1   0.0000
  14      -55.697060147 -0.000000002  0.000003   23    5 7.955E-09  1   0.0000
  15      -55.697060148 -0.000000001  0.000002   23    5 2.743E-09  1   0.0000
  16      -55.697060148 -0.000000000  0.000001   23    5 9.665E-10  1   0.0000

          --------------------
          LAGRANGIAN CONVERGED
          --------------------

 FINAL MCSCF ENERGY IS      -55.6970601481 AFTER  16 ITERATIONS

 -MCCI- BASED ON OPTIMIZED ORBITALS
 ----------------------------------

 PLEASE NOTE: IF THE ACTIVE ORBITALS ARE CANONICALIZED BELOW,
 THE FOLLOWING CI EXPANSION COEFFICIENTS AND THE DENSITY DO NOT
 CORRESPOND TO THE PRINTED ORBITALS.  THE PRINTED EXPANSIONS MATCH
 THE ORBITALS USED DURING THE LAST ITERATION.  IF YOU WISH TO SEE
 CI EXPANSIONS BASED ON THE CANONICAL (OR NATURAL) ORBITALS, YOU
 MUST RUN A CI CALCULATION WITH THAT ORBITAL CHOICE READ IN $VEC.

 Averaged energy =     -55.697060148

 State #    1  Energy =     -55.834399407  S =  0.500

      Det      Coef    Occupancy (Ignoring core)
      ---      ----    --------- --------- -----
        1   -0.865065  11110001110000
        5    0.074977  01111001110000
        8    0.129447  10110101110000
       16   -0.051329  11100011110000
       17   -0.146231  11010011110000
       36   -0.318351  11110001101000
       51   -0.050823  11100011101000
       71   -0.168377  11110001011000
      211   -0.053827  11110000110100
      386   -0.100915  11110001010010
      393   -0.052590  10110101010010
      701    0.095408  11110001100001
      717   -0.063331  11010011100001

 State #    2  Energy =     -55.716644988  S =  0.500

      Det      Coef    Occupancy (Ignoring core)
      ---      ----    --------- --------- -----
        1    0.333804  11110001110000
        8   -0.057133  10110101110000
       36   -0.601384  11110001101000
       38   -0.068328  11011001101000
       43    0.075926  10110101101000
       52   -0.079226  11010011101000
       71   -0.644413  11110001011000
       73   -0.060780  11011001011000
       75    0.051748  01111001011000
       78    0.073892  10110101011000
       87   -0.086983  11010011011000
      456   -0.054948  11110001001010
      701   -0.087294  11110001100001
      806   -0.065519  11110001001001

 State #    3  Energy =     -55.540136049  S =  0.500

      Det      Coef    Occupancy (Ignoring core)
      ---      ----    --------- --------- -----
        1   -0.110511  11110001110000
       36    0.653326  11110001101000
       39    0.052705  10111001101000
       43   -0.061441  10110101101000
       52    0.063516  11010011101000
       71   -0.678744  11110001011000
       87   -0.067536  11010011011000
      246   -0.063658  11110001001100
      281    0.056434  11110000101100
      316   -0.064156  11110000011100
      456    0.071574  11110001001010
      806   -0.107548  11110001001001
      822    0.051727  11010011001001

 DENSITY MATRIX OVER ACTIVE MO-S

             1           2           3           4           5

    1    1.9707824
    2   -0.0139880   1.6229453
    3    0.0305502   0.0134262   1.6178952
    4   -0.0040444  -0.0077343   0.0108581   1.6462764
    5    0.1155121   0.0383714  -0.0962343   0.0202271   0.0439257
    6   -0.0170419  -0.1538990   0.0100898  -0.0327915  -0.0109818
    7    0.0103902   0.0424431  -0.1845096   0.0934700   0.0174976

             6           7

    6    0.0410303
    7   -0.0134062   0.0571446

 FORMING THE "STANDARD FOCK OPERATOR" IN DIRECT AO INTEGRAL MODE...
 ONLY THE    1 CORE AND   21 VIRTUAL ORBITALS WILL BE CANONICALIZED

          ----------------------
          MCSCF NATURAL ORBITALS
          ----------------------

                      1          2          3          4          5
                  -15.9771     1.9798     1.6535     1.6470     1.6361
                     A          A          A          A          A   
    1  N  1  S    1.001026   0.009412  -0.007813  -0.003677   0.003377
    2  N  1  S   -0.002011   0.432858  -0.140912  -0.125725   0.068779
    3  N  1  S   -0.006388   0.338351  -0.234367  -0.172775   0.107575
    4  N  1  X   -0.000191  -0.024767  -0.068885   0.201810   0.461909
    5  N  1  Y    0.000028   0.053436  -0.212265   0.361498  -0.285901
    6  N  1  Z    0.001077   0.082277   0.553861   0.180415   0.019955
    7  N  1  X    0.000004   0.000199  -0.011096   0.065514   0.262560
    8  N  1  Y   -0.000077   0.010511  -0.138979   0.137716  -0.176102
    9  N  1  Z   -0.000567   0.016158   0.377288   0.095336   0.045476
   10  N  1 XX    0.000014   0.000038  -0.008890  -0.009483   0.006059
   11  N  1 YY    0.000104   0.000620  -0.012363   0.001570  -0.006814
   12  N  1 ZZ   -0.000118  -0.000658   0.021253   0.007913   0.000756
   13  N  1 XY    0.000236   0.004306   0.002824  -0.006370   0.014312
   14  N  1 XZ   -0.000079   0.000381  -0.005636   0.006649   0.019106
   15  N  1 YZ    0.000121   0.003798  -0.002259   0.018071  -0.012280
   16  H  2  S   -0.001700   0.216162   0.078057   0.263863  -0.272218
   17  H  2  S    0.000288   0.009971   0.026819   0.050126  -0.108157
   18  H  2  X   -0.000231   0.009704   0.004787   0.024662   0.009068
   19  H  2  Y    0.000798  -0.031493  -0.018527  -0.012118   0.017995
   20  H  2  Z    0.000551  -0.018887   0.019914  -0.009500   0.020798
   21  H  3  S   -0.001586   0.159381   0.203061  -0.300353  -0.057287
   22  H  3  S    0.000607   0.000136   0.044301  -0.040387   0.009032
   23  H  3  X   -0.000662   0.022031   0.019963  -0.029981   0.004173
   24  H  3  Y   -0.000566   0.022372   0.011736  -0.017012  -0.022863
   25  H  3  Z    0.000253  -0.002251   0.016692   0.014858   0.001674
   26  H  4  S   -0.001219   0.155188   0.013606   0.240607   0.258220
   27  H  4  S    0.000321  -0.000927   0.019449   0.031968   0.104031
   28  H  4  X    0.000537  -0.023645   0.000162  -0.032078  -0.012991
   29  H  4  Y    0.000327  -0.013233  -0.003616  -0.005439  -0.027919
   30  H  4  Z    0.000294  -0.005363   0.023155  -0.000458  -0.006467

                      6          7          8
                    0.0371     0.0263     0.0203
                     A          A          A   
    1  N  1  S   -0.130517  -0.097669  -0.110231
    2  N  1  S   -0.455446  -0.382664  -0.341387
    3  N  1  S   -0.019228  -0.225035  -0.013595
    4  N  1  X   -0.450537   0.090762   0.726200
    5  N  1  Y    0.323480  -0.594206   0.461325
    6  N  1  Z   -0.240075  -0.551366  -0.204932
    7  N  1  X    0.062997  -0.040059   0.059045
    8  N  1  Y   -0.069038  -0.101082   0.039743
    9  N  1  Z    0.063902   0.015303   0.079698
   10  N  1 XX    0.025005  -0.024548   0.044428
   11  N  1 YY   -0.018756   0.024238  -0.029833
   12  N  1 ZZ   -0.006249   0.000310  -0.014595
   13  N  1 XY    0.079272   0.007848  -0.002666
   14  N  1 XZ    0.008671  -0.000852  -0.047516
   15  N  1 YZ    0.014473   0.048699  -0.007091
   16  H  2  S   -0.293951   0.765771   0.094649
   17  H  2  S   -0.161979   0.181445   0.044240
   18  H  2  X    0.022362   0.043648  -0.032275
   19  H  2  Y    0.006711  -0.036264  -0.033064
   20  H  2  Z    0.025858  -0.004032  -0.002679
   21  H  3  S    0.380482   0.058325   0.731252
   22  H  3  S    0.072970  -0.022316   0.155050
   23  H  3  X    0.038401   0.009602   0.053640
   24  H  3  Y    0.010789   0.013945   0.052019
   25  H  3  Z   -0.001558   0.005770   0.030910
   26  H  4  S    0.651118   0.198578  -0.335872
   27  H  4  S    0.204826  -0.010019  -0.118315
   28  H  4  X   -0.043552  -0.036182   0.029250
   29  H  4  Y   -0.050363   0.015563   0.004366
   30  H  4  Z    0.006329   0.031935  -0.009078

          ------------------------
          MCSCF OPTIMIZED ORBITALS
          ------------------------

                      1          2          3          4          5
                  -15.9771     0.0000     0.0000     0.0000     0.0000
                     A          A          A          A          A   
    1  N  1  S    1.001026  -0.001645  -0.001012   0.016384  -0.014004
    2  N  1  S   -0.002011   0.396981  -0.004848  -0.009781  -0.192604
    3  N  1  S   -0.006388   0.335660   0.039715  -0.114621  -0.271938
    4  N  1  X   -0.000191  -0.014358   0.417412  -0.074906  -0.004031
    5  N  1  Y    0.000028   0.017774  -0.000019   0.413640  -0.043307
    6  N  1  Z    0.001077   0.050164  -0.009779   0.015988   0.582351
    7  N  1  X    0.000004   0.014756   0.254290  -0.102016   0.022647
    8  N  1  Y   -0.000077  -0.013438  -0.051930   0.242536  -0.088508
    9  N  1  Z   -0.000567   0.025831   0.008214  -0.057969   0.391461
   10  N  1 XX    0.000014   0.001336   0.001560  -0.014851  -0.008706
   11  N  1 YY    0.000104  -0.000318  -0.002236   0.012939  -0.013399
   12  N  1 ZZ   -0.000118  -0.001018   0.000676   0.001912   0.022105
   13  N  1 XY    0.000236   0.009284   0.014438  -0.021534   0.004770
   14  N  1 XZ   -0.000079   0.000897   0.023918  -0.001693  -0.002807
   15  N  1 YZ    0.000121   0.004870   0.000785   0.022094   0.002811
   16  H  2  S   -0.001700   0.209147  -0.147050   0.400274   0.116454
   17  H  2  S    0.000288   0.002623  -0.086756   0.112836   0.025905
   18  H  2  X   -0.000231   0.011688   0.022354   0.014747   0.012312
   19  H  2  Y    0.000798  -0.031724   0.016158  -0.016459  -0.019867
   20  H  2  Z    0.000551  -0.015961   0.010911  -0.028037   0.017572
   21  H  3  S   -0.001586   0.198594  -0.262544  -0.332099   0.116589
   22  H  3  S    0.000607   0.007273  -0.025792  -0.066695   0.034999
   23  H  3  X   -0.000662   0.026400  -0.017015  -0.036746   0.011178
   24  H  3  Y   -0.000566   0.023476  -0.033064  -0.006369   0.005559
   25  H  3  Z    0.000253  -0.001864   0.003619   0.004587   0.020867
   26  H  4  S   -0.001219   0.194106   0.402426   0.010234   0.122245
   27  H  4  S    0.000321   0.011654   0.122381  -0.052209   0.040925
   28  H  4  X    0.000537  -0.026162  -0.031721  -0.017868  -0.011552
   29  H  4  Y    0.000327  -0.016274  -0.029268   0.016808  -0.008869
   30  H  4  Z    0.000294  -0.003897  -0.009469  -0.002235   0.020731

                      6          7          8          9         10
                    0.0000     0.0000     0.0000     0.1393     0.2059
                     A          A          A          A          A   
    1  N  1  S    0.182738  -0.032867  -0.062910  -0.109934   0.029975
    2  N  1  S    0.682943  -0.081585  -0.174043  -0.164627   0.032648
    3  N  1  S    0.208260  -0.023075   0.129579   1.143001  -0.382744
    4  N  1  X    0.008760   0.904305  -0.011157   0.009058  -0.149193
    5  N  1  Y    0.087074   0.143066   0.854127  -0.051158  -0.089919
    6  N  1  Z    0.625864  -0.089995   0.091163  -0.161537   0.048532
    7  N  1  X   -0.011494   0.037084   0.071441   0.003510   0.617353
    8  N  1  Y    0.087221   0.050829   0.078999   0.242880   0.527641
    9  N  1  Z   -0.062746   0.043630   0.035450   0.366982  -0.050133
   10  N  1 XX   -0.008876   0.021155   0.050799   0.003519  -0.038202
   11  N  1 YY    0.000935  -0.012835  -0.038906   0.032507   0.008118
   12  N  1 ZZ    0.007941  -0.008320  -0.011892  -0.036025   0.030084
   13  N  1 XY   -0.050833  -0.042610   0.038000   0.063293  -0.052386
   14  N  1 XZ    0.009938  -0.042388  -0.017197  -0.005529   0.061122
   15  N  1 YZ   -0.044039  -0.008506  -0.024415   0.072499   0.057512
   16  H  2  S   -0.434404   0.309017  -0.595795   0.330402   0.166933
   17  H  2  S   -0.058580   0.135927  -0.182487  -0.900277  -0.516060
   18  H  2  X   -0.036180  -0.032051  -0.030211   0.051448   0.005011
   19  H  2  Y    0.031827  -0.034354   0.011527   0.098810   0.008226
   20  H  2  Z   -0.010612  -0.015212   0.012469   0.065653   0.028247
   21  H  3  S   -0.459558   0.395288   0.493284   0.285858  -0.555387
   22  H  3  S   -0.068363   0.086961   0.122112  -0.521562   1.908220
   23  H  3  X   -0.042461   0.024373   0.037225  -0.035883   0.101992
   24  H  3  Y   -0.031029   0.036513   0.021341  -0.061192   0.067417
   25  H  3  Z   -0.012380   0.028142   0.008954  -0.021077  -0.064836
   26  H  4  S   -0.422244  -0.570028   0.084502   0.443360   0.230363
   27  H  4  S   -0.074736  -0.198202   0.062393  -0.900379  -0.751832
   28  H  4  X    0.043439   0.040808   0.011075   0.010218   0.022924
   29  H  4  Y    0.014785   0.029351  -0.035104   0.065244   0.036865
   30  H  4  Z   -0.025063  -0.008082  -0.022719   0.042296   0.059584

                     11         12         13         14         15
                    0.2541     0.5304     0.5954     0.7121     0.8362
                     A          A          A          A          A   
    1  N  1  S    0.021368   0.096476  -0.010075  -0.076324  -0.420567
    2  N  1  S    0.050569   0.149989   0.097802  -0.179852  -0.960181
    3  N  1  S   -0.122570  -0.494500   0.530773   0.179533   1.519276
    4  N  1  X   -0.055981   0.338245   0.168194  -0.461250   0.025286
    5  N  1  Y   -0.022446  -0.514769  -0.286636  -0.189425  -0.040296
    6  N  1  Z    0.022039   0.487910  -0.528095   0.009137   0.273169
    7  N  1  X    0.453771  -0.426988  -0.363366   1.558024  -0.122249
    8  N  1  Y   -0.125492   0.910224   1.036702   0.950075  -0.056156
    9  N  1  Z   -0.131143  -0.545305   1.050495   0.111430  -0.262380
   10  N  1 XX    0.056604  -0.001840   0.024009  -0.027323   0.133072
   11  N  1 YY   -0.042869   0.024245  -0.048240   0.059704  -0.138531
   12  N  1 ZZ   -0.013735  -0.022405   0.024231  -0.032381   0.005459
   13  N  1 XY    0.059784   0.006082  -0.045531  -0.004761  -0.060819
   14  N  1 XZ    0.046224  -0.004891  -0.002550  -0.107047  -0.040148
   15  N  1 YZ   -0.046877   0.003417  -0.012430  -0.049565   0.046867
   16  H  2  S   -0.635681  -0.097967  -0.695374  -0.002212   0.125703
   17  H  2  S    2.165220  -0.496815  -0.754892  -0.005762  -0.190149
   18  H  2  X    0.055477   0.029208  -0.133194  -0.155931  -0.327110
   19  H  2  Y   -0.066590   0.087094   0.070300   0.115737  -0.107927
   20  H  2  Z   -0.047160  -0.005911   0.114489  -0.063290   0.167975
   21  H  3  S    0.151361   0.371196  -0.268776   0.648607  -0.169713
   22  H  3  S   -0.338226   0.313389   0.372551   0.472324  -0.415714
   23  H  3  X    0.000907   0.029174  -0.032352   0.185171  -0.206396
   24  H  3  Y    0.032971   0.022129   0.104999   0.064810   0.167180
   25  H  3  Z   -0.001228  -0.036295   0.076347   0.167321   0.078836
   26  H  4  S    0.559939   0.234156  -0.191922  -0.584109   0.170269
   27  H  4  S   -1.874367   0.365067   0.317856  -0.578188  -0.288409
   28  H  4  X    0.070969  -0.037744   0.143838   0.173964   0.271217
   29  H  4  Y   -0.007823   0.051577  -0.054759   0.163033  -0.246240
   30  H  4  Z   -0.005477  -0.088137   0.015028  -0.192542   0.013046

                     16         17         18         19         20
                    1.0386     1.0539     1.1753     1.3079     1.3828
                     A          A          A          A          A   
    1  N  1  S   -0.262575  -0.470357  -0.131996  -0.199559  -0.299027
    2  N  1  S   -0.549950  -0.991560  -0.282491  -0.431108  -0.642571
    3  N  1  S    1.031260   2.000510   0.550205   0.693070   1.043588
    4  N  1  X   -0.104083   0.178183  -0.198947  -0.032081  -0.002491
    5  N  1  Y   -0.118376   0.036742  -0.134488   0.000046   0.016436
    6  N  1  Z    0.082161   0.052347   0.032436  -0.030919  -0.066732
    7  N  1  X    0.325397  -0.839055   0.552875   0.062701  -0.255295
    8  N  1  Y    0.644101  -0.115223   0.740959  -0.442097   0.260083
    9  N  1  Z   -0.138626   0.373667   0.310402   0.292313   0.579786
   10  N  1 XX   -0.146946  -0.144811   0.048902   0.144842  -0.031307
   11  N  1 YY   -0.116494   0.171014   0.036400   0.001429   0.018126
   12  N  1 ZZ    0.263440  -0.026203  -0.085302  -0.146271   0.013181
   13  N  1 XY    0.078028  -0.030378  -0.081874  -0.092578   0.140421
   14  N  1 XZ    0.001898   0.087904   0.246921  -0.014263   0.074721
   15  N  1 YZ   -0.031410  -0.157309  -0.061290   0.028508  -0.041734
   16  H  2  S   -0.354468  -0.420135  -0.231773  -0.128661  -0.341418
   17  H  2  S   -0.172572  -0.308685  -0.149409  -0.007967  -0.285180
   18  H  2  X    0.353192   0.007139   0.058423   0.210109   0.047138
   19  H  2  Y   -0.145009   0.276794   0.356311   0.223898  -0.026704
   20  H  2  Z    0.437256  -0.285928  -0.166233  -0.318287   0.382040
   21  H  3  S    0.149416  -0.611701   0.330000  -0.247164  -0.332052
   22  H  3  S    0.010893  -0.478922   0.131182  -0.140656  -0.049773
   23  H  3  X   -0.011556   0.183853  -0.106226  -0.490198   0.133370
   24  H  3  Y    0.042248  -0.373489  -0.145284   0.588211  -0.117182
   25  H  3  Z    0.207480   0.247685  -0.452668  -0.032701  -0.570930
   26  H  4  S   -0.485999   0.100777  -0.550617  -0.138743  -0.314020
   27  H  4  S   -0.125163  -0.015101  -0.106748  -0.012842   0.160442
   28  H  4  X   -0.185692   0.048988  -0.005528  -0.263491  -0.147608
   29  H  4  Y    0.109256   0.223820  -0.447642   0.357093   0.074646
   30  H  4  Z    0.384614   0.034929   0.370514  -0.131346  -0.661600

                     21         22         23         24         25
                    1.5953     1.7363     1.8231     2.0134     2.0703
                     A          A          A          A          A   
    1  N  1  S   -0.076684   0.173503  -0.037044  -0.089899  -0.055539
    2  N  1  S   -0.095607   0.462177  -0.084563  -0.185699  -0.124909
    3  N  1  S    0.748783   0.390418  -0.137563   0.128376   0.004579
    4  N  1  X   -0.007646  -0.048972   0.340811   0.210747   0.114361
    5  N  1  Y   -0.075676   0.343991   0.383652   0.011197  -0.008739
    6  N  1  Z    0.022481   0.239060   0.059296  -0.065793  -0.047436
    7  N  1  X    0.668429  -0.182518   0.391863   0.067367  -0.151445
    8  N  1  Y    0.429845  -0.238768   0.321716  -0.010077   0.163940
    9  N  1  Z    0.338444   0.078332  -0.027333   0.203318  -0.162329
   10  N  1 XX   -0.062642  -0.012544   0.071107  -0.563973   0.243878
   11  N  1 YY    0.081715  -0.129469   0.030456   0.097762   0.435627
   12  N  1 ZZ   -0.019073   0.142013  -0.101563   0.466210  -0.679505
   13  N  1 XY   -0.110450  -0.071412   0.070784   0.318602  -0.423637
   14  N  1 XZ   -0.062486   0.181095  -0.217130  -0.079564  -0.023705
   15  N  1 YZ   -0.019247  -0.226897  -0.135371   0.108302  -0.106055
   16  H  2  S   -0.336006   0.180838  -0.006626   0.106821   0.088597
   17  H  2  S    0.219594  -0.252146  -0.300953   0.294726   0.182841
   18  H  2  X   -0.201674   0.180096  -0.223231   0.515590   0.797534
   19  H  2  Y   -0.344028   0.717774   0.264872  -0.029154  -0.355220
   20  H  2  Z    0.001459   0.502048   0.176675  -0.420652   0.315809
   21  H  3  S    0.253778  -0.132567   0.140122   0.010561   0.042711
   22  H  3  S   -0.102178  -0.121354   0.545048   0.012849   0.025222
   23  H  3  X   -0.388246  -0.323201   0.686160  -0.048489   0.199275
   24  H  3  Y   -0.294986  -0.093846   0.571536   0.344243   0.068186
   25  H  3  Z   -0.513774   0.074054  -0.426952  -0.238191   0.083090
   26  H  4  S   -0.220432   0.101347  -0.055953  -0.216399  -0.120809
   27  H  4  S   -0.566102  -0.149306  -0.134314  -0.324104  -0.179580
   28  H  4  X    0.356046   0.447463   0.077414   0.799330   0.502445
   29  H  4  Y    0.682694   0.235161   0.244049  -0.240290  -0.199481
   30  H  4  Z    0.306425  -0.138140   0.531250  -0.134179  -0.071147

                     26         27         28         29
                    2.2463     2.4610     2.6348     3.0658
                     A          A          A          A   
    1  N  1  S    0.113076   0.013174  -0.187994  -0.115750
    2  N  1  S    0.213150  -0.024668  -0.221954  -0.131119
    3  N  1  S   -0.475098  -0.793238   2.091114   1.176399
    4  N  1  X   -0.067938   0.289818  -0.064159  -0.062694
    5  N  1  Y    0.002946   0.108089   0.292854  -0.319409
    6  N  1  Z    0.025670  -0.106085   0.278972   0.025928
    7  N  1  X    0.176091   1.071582   0.049087  -0.151160
    8  N  1  Y   -0.234618   0.416991   0.974697  -0.470368
    9  N  1  Z   -0.322589  -0.252645   0.670833   0.065690
   10  N  1 XX   -0.614249   0.146110  -0.119387   0.829281
   11  N  1 YY    0.860743  -0.257940   0.491816  -0.220753
   12  N  1 ZZ   -0.246494   0.111830  -0.372429  -0.608528
   13  N  1 XY    0.253165  -0.092858   0.261846   1.261551
   14  N  1 XZ    0.315694   1.063218  -0.013880   0.106014
   15  N  1 YZ   -0.352952   0.253973   1.136586  -0.359757
   16  H  2  S    0.163008   0.361758  -1.316064   0.599846
   17  H  2  S    0.010359   0.225588  -0.539814   0.140053
   18  H  2  X   -0.505188  -0.124355  -0.235505   0.224480
   19  H  2  Y   -0.237358  -0.408936   0.847612  -0.468720
   20  H  2  Z    0.298815  -0.181102   0.627585  -0.361294
   21  H  3  S    0.073537   0.918219  -0.236650  -1.101867
   22  H  3  S    0.007211   0.410086   0.021367  -0.324762
   23  H  3  X   -0.399590   0.634811  -0.077897  -0.699167
   24  H  3  Y    0.415260   0.519658  -0.173209  -0.590199
   25  H  3  Z    0.174405   0.128915   0.186717   0.367032
   26  H  4  S    0.218162  -0.477537  -0.615037  -0.651366
   27  H  4  S    0.114034  -0.350372  -0.115013  -0.174013
   28  H  4  X   -0.254194   0.381926   0.316586   0.660487
   29  H  4  Y   -0.122238   0.458484   0.230674   0.350967
   30  H  4  Z    0.073583   0.026751   0.204972   0.336482
 .....DONE WITH MCSCF ITERATIONS.....
 CPU     0: STEP CPU TIME=    11.19 TOTAL CPU TIME=         12.4 (      0.2 MIN)
 TOTAL WALL CLOCK TIME=         12.4 SECONDS, CPU UTILIZATION IS    99.92%

     ----------------------------------------------------------------
     PROPERTY VALUES FOR THE MCSCF SELF-CONSISTENT FIELD WAVEFUNCTION
     ----------------------------------------------------------------

          -----------------
          ENERGY COMPONENTS
          -----------------

         WAVEFUNCTION NORMALIZATION =       1.0000000000

                ONE ELECTRON ENERGY =     -93.3530200590
                TWO ELECTRON ENERGY =      26.7966007824
           NUCLEAR REPULSION ENERGY =      10.8593591285
                                      ------------------
                       TOTAL ENERGY =     -55.6970601481

 ELECTRON-ELECTRON POTENTIAL ENERGY =      26.7966007824
  NUCLEUS-ELECTRON POTENTIAL ENERGY =    -148.9651075773
   NUCLEUS-NUCLEUS POTENTIAL ENERGY =      10.8593591285
                                      ------------------
             TOTAL POTENTIAL ENERGY =    -111.3091476664
               TOTAL KINETIC ENERGY =      55.6120875184
                 VIRIAL RATIO (V/T) =       2.0015279525

          ---------------------------------------
          MULLIKEN AND LOWDIN POPULATION ANALYSES
          ---------------------------------------

     ATOMIC MULLIKEN POPULATION IN EACH MOLECULAR ORBITAL

                      1          2          3          4          5

                  2.000000   1.979826   1.653453   1.647012   1.636080

    1             2.000521   1.373647   1.494662   0.907166   1.190550
    2            -0.000248   0.290033   0.027456   0.218040   0.201311
    3            -0.000183   0.160000   0.124357   0.319668   0.018368
    4            -0.000090   0.156145   0.006978   0.202139   0.225851

                      6          7          8

                  0.037090   0.026253   0.020286

    1             0.015047   0.013991   0.011061
    2             0.002035   0.011244   0.000204
    3             0.004878  -0.000021   0.007507
    4             0.015130   0.001038   0.001514
 WARNING! MCSCF POPULATIONS SHOWN ABOVE ARE FOR THE NATURAL ORBITALS.
 IGNORE THE ABOVE DATA FOR MCSCF FUNCTIONS WHICH ARE NOT OF -FORS- TYPE.
 THE FOLLOWING POPULATIONS ARE CORRECT FOR ANY MCSCF WAVEFUNCTION.

               ----- POPULATIONS IN EACH AO -----
                             MULLIKEN      LOWDIN
              1  N  1  S      2.00216     1.90590
              2  N  1  S      0.81741     0.58063
              3  N  1  S      0.72546     0.42458
              4  N  1  X      0.68309     0.61516
              5  N  1  Y      0.68723     0.62152
              6  N  1  Z      0.84677     0.79891
              7  N  1  X      0.36587     0.45107
              8  N  1  Y      0.33451     0.43255
              9  N  1  Z      0.52778     0.56803
             10  N  1 XX      0.00063     0.17468
             11  N  1 YY      0.00172     0.16646
             12  N  1 ZZ      0.00435     0.14576
             13  N  1 XY      0.00375     0.00958
             14  N  1 XZ      0.00591     0.00561
             15  N  1 YZ      0.00000     0.01275
             16  H  2  S      0.62840     0.48314
             17  H  2  S      0.06170     0.15376
             18  H  2  X      0.01475     0.03877
             19  H  2  Y      0.02520     0.04301
             20  H  2  Z      0.02001     0.04157
             21  H  3  S      0.54400     0.42710
             22  H  3  S      0.03636     0.15188
             23  H  3  X      0.02436     0.04469
             24  H  3  Y      0.01996     0.03578
             25  H  3  Z      0.00989     0.02612
             26  H  4  S      0.49916     0.38575
             27  H  4  S      0.06012     0.15561
             28  H  4  X      0.02454     0.04652
             29  H  4  Y      0.01449     0.02917
             30  H  4  Z      0.01039     0.02395

          ----- MULLIKEN ATOMIC OVERLAP POPULATIONS -----
          (OFF-DIAGONAL ELEMENTS NEED TO BE MULTIPLIED BY 2)

             1           2           3           4

    1    6.2197504
    2    0.2583601   0.5048118
    3    0.2907773  -0.0043359   0.3533637
    4    0.2377581  -0.0087610  -0.0052310   0.3849388

          TOTAL MULLIKEN AND LOWDIN ATOMIC POPULATIONS
       ATOM         MULL.POP.    CHARGE          LOW.POP.     CHARGE
    1 N             7.006646   -0.006646         6.913178    0.086822
    2 H             0.750075    0.249925         0.760254    0.239746
    3 H             0.634574    0.365426         0.685566    0.314434
    4 H             0.608705    0.391295         0.641002    0.358998

          MULLIKEN SPHERICAL HARMONIC POPULATIONS
       ATOM           S       P       D      F      G      H      I    TOTAL
    1 N             3.55    3.45    0.02   0.00   0.00   0.00   0.00    7.01
    2 H             0.69    0.06    0.00   0.00   0.00   0.00   0.00    0.75
    3 H             0.58    0.05    0.00   0.00   0.00   0.00   0.00    0.63
    4 H             0.56    0.05    0.00   0.00   0.00   0.00   0.00    0.61

          ---------------------
          ELECTROSTATIC MOMENTS
          ---------------------

 POINT   1           X           Y           Z (BOHR)    CHARGE
                -0.000001    0.000006   -0.177185        1.00 (A.U.)
         DX          DY          DZ         /D/  (DEBYE)
    -0.118107    1.032804    2.133794    2.373543
 ...... END OF PROPERTY EVALUATION ......
 CPU     0: STEP CPU TIME=     0.00 TOTAL CPU TIME=         12.4 (      0.2 MIN)
 TOTAL WALL CLOCK TIME=         12.4 SECONDS, CPU UTILIZATION IS    99.84%

     -------------------------------------------------
     GMC-PT/GMC-QDPT or general MCSCF input parameters
     -------------------------------------------------
 # of frozen core orbs. =         0 ->         0
 # of doubly occ. orbs. =         1
 # of active      orbs. =         7
 # of virtual     orbs. =        21
 # of active electrons  =         7
 # of states in CI      =         3
 Highest state in CI    =         3
 kstate =  1 1 1
 avecoe =  0.333 0.333 0.333
 State symmetry           = A           
 Assigned symmetry number = 1

 <<<Act. MO sym.: 1111111

 <<<Division of 1-ext.:  0
 <<<Division of 2-ext.:  0

     ------------------------
     Orbital canonicalization
     ------------------------

 MOs are canonicalized for core, virtual, and invariant-active orbital spaces.
 This is a part of the GMC-QDPT calculation.
 SCHWARZ INEQUALITY OVERHEAD:       465 INTEGRALS, T=        0.00
 DIRECT TRANSFORMATION SKIPS AO INTEGRAL STORAGE ON DISK.

 Averaged energy =     -55.697060148

 State #    1  Energy =     -55.834399407  S =  0.500
 State #    2  Energy =     -55.716644988  S =  0.500
 State #    3  Energy =     -55.540136049  S =  0.500

 Orbital energies for filled orbital space
  -15.977112
 Orbital energies for active orbital space
   -1.481170  -0.970899  -0.798610  -0.711000   0.095334
    0.372144   0.263360
 Orbital energies for external orbital space
    0.139299   0.205891   0.254080   0.530388   0.595446
    0.712093   0.836162   1.038597   1.053869   1.175324
    1.307920   1.382841   1.595276   1.736340   1.823064
    2.013418   2.070259   2.246321   2.460977   2.634833
    3.065802

 Zero values mean non-canonical orbitals.
 ... done with orbital canonicalization ...
 CPU     0: STEP CPU TIME=     0.64 TOTAL CPU TIME=         13.0 (      0.2 MIN)
 TOTAL WALL CLOCK TIME=         13.0 SECONDS, CPU UTILIZATION IS    99.85%

     --------------------------------------------
     PARTIAL TWO ELECTRON INTEGRAL TRANSFORMATION
     --------------------------------------------

 NUMBER OF CORE MOLECULAR ORBITALS     =    0
 NUMBER OF OCCUPIED MOLECULAR ORBITALS =    8
 TOTAL NUMBER OF MOLECULAR ORBITALS    =   29
 TOTAL NUMBER OF ATOMIC ORBITALS       =   30
 THRESHOLD FOR KEEPING TRANSFORMED 2E- INTEGRALS = 1.000E-09
 AO INTEGRALS WILL BE CALCULATED IN DIRECT MODE...
 DIRECT TRANSFORMATION SKIPS AO INTEGRAL STORAGE ON DISK.
 SCHWARZ INEQUALITY OVERHEAD:       465 INTEGRALS, T=        0.00

 PLAN A: REQUIREMENTS FOR FULLY IN-MEMORY TRANSFORMATION:
 # OF WORDS AVAILABLE =            100000000
 # OF WORDS NEEDED    =               221798

 PARALLEL ONLY WORKS WITH THE SEGMENTED ALGORITHM.
 ADJUSTING MEMORY TO USE SEGMENTED ALGORITHM.


 PLAN B: REQUIREMENTS FOR THE SEGMENTED TRANSFORMATION:
       MINIMUM=         124148 WORDS FOR 1 MOLECULAR ORBITAL PER PASS
       MAXIMUM=         221798 WORDS FOR ALL MOLECULAR ORBITALS IN 1 PASS
              (          13950 EXTRA WORDS INCLUDES 1 EXTRA ORBITAL/PASS)
 THIS RUN USES=         221798 WORDS,
 DISTRIBUTING   1 PASSES EACH CONTAINING     8 ORBITALS OVER   1 PROCESSORS.

 CHOOSING SEGMENTED PARTIAL TRANSFORMATION...
 DIRECT TRANSFORMATION SKIPS AO INTEGRAL STORAGE ON DISK.
 PASS #   1 TOOK        0.05 SECONDS.
 TOTAL NUMBER OF TRANSFORMED 2E- INTEGRALS KEPT =        29226
 ... END OF INTEGRAL TRANSFORMATION ...
 CPU     0: STEP CPU TIME=     0.05 TOTAL CPU TIME=         13.1 (      0.2 MIN)
 TOTAL WALL CLOCK TIME=         13.1 SECONDS, CPU UTILIZATION IS    99.92%

     --------     ------------------------------------------
     GMC-QDPT     Program written by H.Nakano (Kyushu Univ.)
     --------     ------------------------------------------

 *** Reference space

 Reference type: ORMAS (= Occupation restricted multiple active space)
 # of orbitals          =  7
 # of minimum electrons =  7
 # of maximum electrons =  7
 State symmetry    =    1 (input)
 2*Sz              =    1 (input)
 Spin multiplicity =    2 (input)
 Dimension of reference space =      1225  (from      3432 walks)

 Dimension of reference space =      1225  (from      1225 walks)

 <<<Ionized spaces for Ref-CI:
      0:         1225 /   -1-0:         1960 /  0-1-0:         2891

 ***                    ***
 *** Reference space CI ***
 ***                    ***

 Converged after   36 iterations

 Reference wavefunctions:

 State #    1  Energy =     -55.834399407  S =  0.500

      Det      Coef    Occupancy (Ignoring core)
      ---      ----    --------- --------- -----
        1    0.968421  11110001110000
       36   -0.110250  11110001101000
      393    0.050758  10110101010010
      717    0.061361  11010011100001

 State #    2  Energy =     -55.716644988  S =  0.500

      Det      Coef    Occupancy (Ignoring core)
      ---      ----    --------- --------- -----
        1    0.115106  11110001110000
       36    0.971617  11110001101000
      463    0.052336  10110101001010

 State #    3  Energy =     -55.540136049  S =  0.500

      Det      Coef    Occupancy (Ignoring core)
      ---      ----    --------- --------- -----
       71    0.972551  11110001011000
      177   -0.050841  11101001010100
      822   -0.063393  11010011001001

 Davidson method: CPU/Wall time =           0.47 /           0.47 sec.

 Oscillator strength (invalid if E(1)/=E(GS)):
 -----------------------------------------
   State                        f
 -----------------------------------------
     2     F(REF-CI)=        0.0025758683
     3     F(REF-CI)=        0.0055124689
 -----------------------------------------

 Dipole moment matrix elements, x, y, z, in A.U.

 Dimension of ionized spaces for PT:
 (N-2) space:         1715 /  (N-1) space:         2842 /  N space:         2891
 (N+1) space:         2842 /  (N+2) space:         1715

 <<<Ionized spaces for internal:
         0:         1225 /      -1-0:         1960 /     0-1-0:         2891
  -1-0-1-0:         2842 / 0-1-0-1-0:         3381

 Diagonal elements of averaged one-particle density matrix:
       2       3       4       5       6       7       8
  0.9925  0.9855  0.9836  0.9894  0.0218  0.0120  0.0152
  0.9871  0.6613  0.6563  0.6603  0.0151  0.0085  0.0114

 Orbital energies:
 -------- Doubly-occupied orbitals (highest several orbs.) -------
             1
 -1.597711D+01
 -------- Active orbitals ----------------------------------------
             2            3            4            5            6
 -1.481170D+00-9.708988D-01-7.986097D-01-7.109999D-01 9.533367D-02
             7            8
  3.721441D-01 2.633604D-01
 -------- External orbitals (lowest several orbs.) ---------------
             9           10           11           12           13
  1.392988D-01 2.058914D-01 2.540802D-01 5.303880D-01 5.954457D-01
            14           15           16           17           18
  7.120930D-01 8.361624D-01 1.038597D+00 1.053869D+00 1.175324D+00

 *** Quasi-degeneracy checking

 === Det (|Ci| > 1.0D-01 and dE < 5.0D-03)

 # of small denominators (single excitations)
 State       dEmin  dE < 5.0D-03  dE < 5.0D-04  dE < 5.0D-05  dE < 5.0D-06
 ----- ----------- ------------- ------------- ------------- -------------
     1    5.00D-03             0             0             0             0
     2    5.00D-03             0             0             0             0
     3    5.00D-03             0             0             0             0

 # of small denominators (double excitations)
 State       dEmin  dE < 5.0D-03  dE < 5.0D-04  dE < 5.0D-05  dE < 5.0D-06
 ----- ----------- ------------- ------------- ------------- -------------
     1    5.00D-03             0             0             0             0
     2    5.00D-03             0             0             0             0
     3    5.00D-03             0             0             0             0

 *** Zeroth-Order Setup (Granovsky's zeroth-order vectors)
 Zeroth-order effective Hamiltonian
  (= Sum_i e(i)*<I|a+(i)a(i)|J> ):
                   1            2            3
     1 -7.102209D+00
     2 -1.731979D-02-7.033399D+00
     3 -1.204088D-04-8.049865D-03-6.850634D+00

 Zeroth-order vectors:
 State #    1
       MC st            1           2           3
       Coeff    9.727D-01   2.318D-01   7.757D-03
 State #    2
       MC st            2           1           3
       Coeff   -9.718D-01   2.320D-01  -4.355D-02
 State #    3
       MC st            3           2           1
       Coeff    9.990D-01  -4.416D-02   2.558D-03

 *** GMC-QDPT computation

 (Integral reading:  CPU/Wall time =           0.00 /           0.01 sec.)

 One-external:
   0 -ionized terms: CPU/Wall time =           0.03 /           0.03 sec.
 (-1)-ionized terms: CPU/Wall time =           0.09 /           0.09 sec.
 (+1)-ionized terms: CPU/Wall time =           0.02 /           0.02 sec.
 (+1)-ionized terms: CPU/Wall time =           0.01 /           0.01 sec.
 (+2)-ionized terms: CPU/Wall time =           0.00 /           0.00 sec.

 Internal:
 # of macro loops for internal contribution =         1 (input)
 Loop:    1
 Dimension of internal CISD space     =         0  (after screening)
 Space construction: CPU/Wall time =           0.02 /           0.02 sec.
 Internal terms:     CPU/Wall time =           0.00 /           0.00 sec.

 Two-external:
   0 -ionized terms: CPU/Wall time =           0.06 /           0.06 sec.
 (-1)-ionized terms: CPU/Wall time =           1.00 /           1.00 sec.
 (-2)-ionized terms: CPU/Wall time =           0.17 /           0.17 sec.

 Total time:         CPU/Wall time =           1.40 /           1.40 sec.

 ***                  ***
 *** GMC-QDPT Results ***
 ***                  ***

 Diagonal elements of effective Hamiltonian:
 Heff(  1) =   -55.92815289
 Heff(  2) =   -55.82925816
 Heff(  3) =   -55.65158173

 Off-diagonal elements of effective Hamiltonian:
                   1            2
     2 -2.369095D-02
     3  1.728458D-03-7.298660D-03

 ******** GMC-QDPT energies ********
 ----------------------------------------------------------------------------
   State                        1st order                           2nd order
 ----------------------------------------------------------------------------
     1     E(REF-CI)=      -55.8343994066   E(GMC-QDPT2)=      -55.9335353104
     2     E(REF-CI)=      -55.7166449881   E(GMC-QDPT2)=      -55.8242016431
     3     E(REF-CI)=      -55.5401360495   E(GMC-QDPT2)=      -55.6512558346
 ----------------------------------------------------------------------------

 Excitation energies (invalid if E(1)/=E(GS)):
 ----------------------------------------------------------------------------
   State                        1st order                           2nd order
 ----------------------------------------------------------------------------

     TZ Sorted GMC-PT ENERGIES:
         1      -55.9335353104
         2      -55.8242016431
         3      -55.6512558346
     2     E(REF-CI)=        3.2042626 eV   E(GMC-QDPT2)=        2.9751222 eV
     3     E(REF-CI)=        8.0073179 eV   E(GMC-QDPT2)=        7.6812197 eV
 ----------------------------------------------------------------------------

 Main characters of perturbed GMC-QDPT states:

 State #    1  Energy =     -55.933535310  S =  0.500

      Det      Coef    Occupancy (Ignoring core)
      ---      ----    --------- --------- -----
        1    0.969588  11110001110000
       36   -0.099803  11110001101000
      393    0.050778  10110101010010
      717    0.061496  11010011100001

 State #    2  Energy =     -55.824201643  S =  0.500

      Det      Coef    Occupancy (Ignoring core)
      ---      ----    --------- --------- -----
        1    0.104634  11110001110000
       36    0.972774  11110001101000
      463    0.052383  10110101001010

 State #    3  Energy =     -55.651255835  S =  0.500

      Det      Coef    Occupancy (Ignoring core)
      ---      ----    --------- --------- -----
       71    0.972558  11110001011000
      177   -0.050818  11101001010100
      822   -0.063362  11010011001001

 <<<Max |V/de| = 2.809D-02  Thresh = 1.000D+00

 Oscillator strength (invalid if E(1)/=E(GS)):
 ----------------------------------------------------------------------------
   State                        1st order                           2nd order
 ----------------------------------------------------------------------------
     2     F(REF-CI)=        0.0025758683     F(GMC-PT2)=        0.0024800944
     3     F(REF-CI)=        0.0055124689     F(GMC-PT2)=        0.0054123377
 ----------------------------------------------------------------------------

 Dipole moment matrix elements, x, y, z, in A.U.
States    1    1       -0.0253466930        0.3645425961        0.6400372718
States    1    2       -0.0345999281       -0.0143455459       -0.1806173635
States    1    3       -0.1060717801       -0.1102686073        0.0731446456
States    2    1       -0.0345999281       -0.0143455459       -0.1806173635
States    2    2       -0.2282664246        0.3251179599        0.3635046536
States    2    3       -0.1382242033       -0.0148636351        0.0008854158
States    3    1       -0.1060717801       -0.1102686073        0.0731446456
States    3    2       -0.1382242033       -0.0148636351        0.0008854158
States    3    3        0.0789725988        0.6042534449        0.2900992503

 Oscillator strength (valid only when positive): 
 ----------------------------------------------------------------------------
  States                        1st order                           2nd order
 ----------------------------------------------------------------------------
  1  1     F(REF-CI)=        0.0000000000     F(GMC-PT2)=        0.0000000000
  1  2     F(REF-CI)=       -0.0025758683     F(GMC-PT2)=       -0.0024800944
  1  3     F(REF-CI)=       -0.0055124689     F(GMC-PT2)=       -0.0054123377
  2  1     F(REF-CI)=        0.0025758683     F(GMC-PT2)=        0.0024800944
  2  2     F(REF-CI)=        0.0000000000     F(GMC-PT2)=        0.0000000000
  2  3     F(REF-CI)=       -0.0023220865     F(GMC-PT2)=       -0.0022284231
  3  1     F(REF-CI)=        0.0055124689     F(GMC-PT2)=        0.0054123377
  3  2     F(REF-CI)=        0.0023220865     F(GMC-PT2)=        0.0022284231
  3  3     F(REF-CI)=        0.0000000000     F(GMC-PT2)=        0.0000000000
 CPU     0: STEP CPU TIME=     1.94 TOTAL CPU TIME=         15.0 (      0.2 MIN)
 TOTAL WALL CLOCK TIME=         15.0 SECONDS, CPU UTILIZATION IS    99.93%

     !!! DIABATIZATION FOR REF CI STATES !!!

 *******************************************************
          $DMO GROUP FOUND IN THE INPUT.
        DIABATIZATION OF ADIABATIC STATES BEGINS.
     PROGRAMMED BY TAO ZENG (CARLETON UNIVERSITY).
               Email: toby.zeng@carleton.ca
     See T. Zeng, J. Chem. Phys. 2017, 146, 144103
 *******************************************************

 *************************************************************************
     STEP 1: TRANSFORMATION OF ADIABATIC STATES TO THE DMO REPRESENTATION
         See Atchity and Ruedenberg, J. Chem. Phys. 1999, 111, 2910
 *************************************************************************

Read in Diabatic Molecualr Orbitals:

                      1          2          3          4          5

    1  N  1  S    0.008609   0.000000   0.000000  -0.013219   0.279491
    2  N  1  S    0.442914  -0.000000   0.000000  -0.184329   0.867803
    3  N  1  S    0.276913   0.000000  -0.000000  -0.288315   0.144236
    4  N  1  X   -0.000000   0.493155  -0.024636  -0.000000  -0.000000
    5  N  1  Y    0.000000   0.024636   0.493155  -0.000000   0.000000
    6  N  1  Z    0.090197   0.000000   0.000000   0.593421   0.705309
    7  N  1  X   -0.000000   0.210628  -0.010522   0.000000   0.000000
    8  N  1  Y    0.000000   0.010522   0.210628  -0.000000  -0.000000
    9  N  1  Z   -0.004381   0.000000   0.000000   0.381592  -0.106092
   10  N  1 XX   -0.000457   0.010719  -0.000535  -0.012387   0.006153
   11  N  1 YY   -0.000457  -0.010719   0.000535  -0.012387   0.006153
   12  N  1 ZZ    0.000914  -0.000000   0.000000   0.024773  -0.012306
   13  N  1 XY    0.000000  -0.000618  -0.012377  -0.000000   0.000000
   14  N  1 XZ   -0.000000   0.026529  -0.001325  -0.000000   0.000000
   15  N  1 YZ    0.000000   0.001325   0.026529  -0.000000   0.000000
   16  H  2  S    0.194462  -0.176074   0.343485   0.112865  -0.523343
   17  H  2  S    0.003574  -0.023812   0.046452   0.024014  -0.054445
   18  H  2  X    0.018760   0.009101   0.022834   0.009336  -0.039151
   19  H  2  Y   -0.032493   0.022287  -0.020044  -0.016171   0.067811
   20  H  2  Z   -0.009251   0.008464  -0.016511   0.018769  -0.010566
   21  H  3  S    0.194462  -0.209430  -0.324227   0.112865  -0.523343
   22  H  3  S    0.003574  -0.028322  -0.043847   0.024014  -0.054445
   23  H  3  X    0.018760   0.006781  -0.023627   0.009336  -0.039151
   24  H  3  Y    0.032493  -0.024174  -0.017723   0.016171  -0.067811
   25  H  3  Z   -0.009251   0.010067   0.015585   0.018769  -0.010566
   26  H  4  S    0.194462   0.385503  -0.019258   0.112865  -0.523343
   27  H  4  S    0.003574   0.052134  -0.002604   0.024014  -0.054445
   28  H  4  X   -0.037519  -0.032295   0.001613  -0.018672   0.078302
   29  H  4  Y    0.000000   0.001067   0.021353  -0.000000   0.000000
   30  H  4  Z   -0.009251  -0.018530   0.000926   0.018769  -0.010566

                      6          7

    1  N  1  S    0.000000  -0.000000
    2  N  1  S    0.000000  -0.000000
    3  N  1  S   -0.000000   0.000000
    4  N  1  X   -0.930415  -0.002083
    5  N  1  Y   -0.002083   0.930415
    6  N  1  Z   -0.000000   0.000000
    7  N  1  X   -0.046866  -0.000105
    8  N  1  Y   -0.000105   0.046866
    9  N  1  Z   -0.000000   0.000000
   10  N  1 XX    0.001538   0.000003
   11  N  1 YY   -0.001538  -0.000003
   12  N  1 ZZ   -0.000000   0.000000
   13  N  1 XY   -0.000004   0.001776
   14  N  1 XZ    0.039985   0.000090
   15  N  1 YZ    0.000090  -0.039985
   16  H  2  S   -0.362630  -0.631354
   17  H  2  S   -0.065964  -0.114846
   18  H  2  X    0.002763  -0.037520
   19  H  2  Y    0.037435   0.040736
   20  H  2  Z    0.001882   0.003276
   21  H  3  S   -0.365454   0.629724
   22  H  3  S   -0.066477   0.114549
   23  H  3  X    0.002595   0.037532
   24  H  3  Y   -0.037617   0.040567
   25  H  3  Z    0.001896  -0.003268
   26  H  4  S    0.728084   0.001630
   27  H  4  S    0.132441   0.000297
   28  H  4  X   -0.062317  -0.000140
   29  H  4  Y    0.000055  -0.024345
   30  H  4  Z   -0.003778  -0.000008

NUMBER OF SUB ACTIVE SPACES:   1
ROTATE ACTIVE MOS TO DMOS IN EACH SUB-SPACE

SPACE  1:

OVERLAP BETWEEN ORTHONORMAL AND PRE-ORTHONORMAL REF. DMOS

             1           2           3           4           5

    1    0.9686145  -0.0163420   0.0370963  -0.0105103   0.0057931
    2   -0.0163420   0.9540188   0.0806213  -0.0093864  -0.0051513
    3    0.0370963   0.0806213   0.9512230   0.0495624  -0.0771347
    4   -0.0105103  -0.0093864   0.0495624   0.9934013  -0.0140697
    5    0.0057931  -0.0051513  -0.0771347  -0.0140697   1.1612827
    6   -0.0030122  -0.0201564   0.0568849   0.0007510  -0.0694541
    7   -0.0015905  -0.0809492   0.0104896  -0.0562043  -0.0022281

             6           7

    1   -0.0030122  -0.0015905
    2   -0.0201564  -0.0809492
    3    0.0568849   0.0104896
    4    0.0007510  -0.0562043
    5   -0.0694541  -0.0022281
    6    1.0612679   0.0131658
    7    0.0131658   1.0818400
REFERENCE DMOS AFTER ORTHONORMALIZATION:

                      1          2          3          4          5

    1  N  1  S    0.006633  -0.000017   0.019097  -0.010787   0.242669
    2  N  1  S    0.449278   0.006294   0.048914  -0.173026   0.749077
    3  N  1  S    0.281547   0.000471   0.013381  -0.287029   0.120686
    4  N  1  X    0.007122   0.504320  -0.022007   0.008529  -0.051091
    5  N  1  Y   -0.017188   0.055247   0.508617   0.024184   0.033864
    6  N  1  Z    0.096030   0.013736   0.010718   0.608583   0.617448
    7  N  1  X    0.004851   0.223986  -0.028605   0.004578  -0.003161
    8  N  1  Y   -0.008814  -0.004880   0.224053  -0.008818   0.014170
    9  N  1  Z    0.001404   0.007356  -0.027910   0.385523  -0.088756
   10  N  1 XX   -0.000418   0.011244  -0.000557  -0.012255   0.005288
   11  N  1 YY   -0.000953  -0.011746   0.002785  -0.012742   0.005192
   12  N  1 ZZ    0.001371   0.000503  -0.002228   0.024996  -0.010479
   13  N  1 XY    0.000537   0.000655  -0.013254   0.000766  -0.000829
   14  N  1 XZ    0.000848   0.029336  -0.006117   0.000699   0.002045
   15  N  1 YZ   -0.001303  -0.004343   0.029113  -0.003617   0.001746
   16  H  2  S    0.183176  -0.273557   0.367480   0.054537  -0.452089
   17  H  2  S    0.001044  -0.040127   0.052811   0.014426  -0.047630
   18  H  2  X    0.018884   0.005135   0.020257   0.006241  -0.032431
   19  H  2  Y   -0.032611   0.028813  -0.019590  -0.012355   0.059713
   20  H  2  Z   -0.008305   0.011040  -0.020014   0.020051  -0.009947
   21  H  3  S    0.217040  -0.143565  -0.370223   0.159490  -0.495829
   22  H  3  S    0.005871  -0.017766  -0.048098   0.031834  -0.053496
   23  H  3  X    0.021187   0.013148  -0.030827   0.012850  -0.035486
   24  H  3  Y    0.034569  -0.020650  -0.022329   0.018836  -0.062179
   25  H  3  Z   -0.009706   0.009184   0.014394   0.017960  -0.007800
   26  H  4  S    0.219730   0.436285  -0.146792   0.122839  -0.417648
   27  H  4  S    0.006375   0.059509  -0.020102   0.025406  -0.040235
   28  H  4  X   -0.040762  -0.037223   0.016120  -0.019610   0.064937
   29  H  4  Y   -0.001016  -0.002859   0.023280  -0.002483   0.001412
   30  H  4  Z   -0.009707  -0.019737   0.001614   0.018369  -0.009087

                      6          7

    1  N  1  S    0.014889  -0.000419
    2  N  1  S    0.048010  -0.007373
    3  N  1  S    0.008371  -0.014446
    4  N  1  X   -0.869856   0.046958
    5  N  1  Y   -0.036707   0.860980
    6  N  1  Z    0.039522   0.033473
    7  N  1  X   -0.038788   0.017651
    8  N  1  Y   -0.011795   0.040485
    9  N  1  Z   -0.004699   0.020726
   10  N  1 XX    0.002044   0.000199
   11  N  1 YY   -0.001456  -0.001544
   12  N  1 ZZ   -0.000587   0.001345
   13  N  1 XY    0.000643   0.001850
   14  N  1 XZ    0.038674   0.001908
   15  N  1 YZ   -0.000977  -0.037742
   16  H  2  S   -0.388241  -0.600729
   17  H  2  S   -0.067531  -0.108198
   18  H  2  X   -0.000033  -0.034208
   19  H  2  Y    0.040212   0.038944
   20  H  2  Z    0.002304   0.005029
   21  H  3  S   -0.366466   0.586977
   22  H  3  S   -0.065238   0.107367
   23  H  3  X    0.001622   0.036581
   24  H  3  Y   -0.039091   0.037547
   25  H  3  Z    0.000659  -0.001578
   26  H  4  S    0.674997   0.033206
   27  H  4  S    0.124312   0.004655
   28  H  4  X   -0.056101  -0.003333
   29  H  4  Y   -0.000873  -0.023060
   30  H  4  Z   -0.004650  -0.000522

 -------------------------------------------
       MAXIMIZING MORMO OVERLAP TERM        
 -------------------------------------------
   SWEEP    VALUE       PROGRESS
     0     4.08217
     1     6.91677     2.83460300
     2     6.93917     0.02239556
     3     6.93917     0.00000180
     4     6.93917     0.00000000
     5     6.93917     0.00000000
 THE ROTATION IS DONE
FLIPPING SIGN FOR ORBITAL   7
ACTIVE ORBITALS AFTER MORMO:

                      1          2          3          4          5

    1  N  1  S    0.004318  -0.008826   0.030626  -0.012517   0.184393
    2  N  1  S    0.418446  -0.028988   0.073263  -0.191456   0.678845
    3  N  1  S    0.341972   0.052079  -0.057397  -0.266526   0.206935
    4  N  1  X   -0.008920   0.464059   0.013018  -0.010117  -0.040172
    5  N  1  Y   -0.002376   0.076812   0.468559   0.048171   0.004906
    6  N  1  Z    0.080611   0.003408   0.043784   0.604780   0.606577
    7  N  1  X    0.021538   0.266651  -0.086186   0.018331  -0.009033
    8  N  1  Y   -0.022848  -0.052564   0.258517  -0.064785   0.059510
    9  N  1  Z    0.032264   0.019414  -0.081321   0.386782  -0.070088
   10  N  1 XX    0.001071   0.008603  -0.011123  -0.005804  -0.010455
   11  N  1 YY   -0.000748  -0.007745   0.010914  -0.015586   0.002251
   12  N  1 ZZ   -0.000323  -0.000858   0.000209   0.021390   0.008204
   13  N  1 XY    0.008546   0.016681  -0.027505   0.004394  -0.047738
   14  N  1 XZ    0.001853   0.019812  -0.003433  -0.004464   0.013125
   15  N  1 YZ    0.002721  -0.003758   0.015580   0.000719  -0.044625
   16  H  2  S    0.180766  -0.218331   0.342516   0.080000  -0.475245
   17  H  2  S   -0.003894  -0.104160   0.102772   0.018183  -0.070444
   18  H  2  X    0.010667   0.016195   0.007658   0.009031  -0.035066
   19  H  2  Y   -0.029989   0.016833  -0.014361  -0.018767   0.036346
   20  H  2  Z   -0.014778   0.013050  -0.030599   0.016576  -0.007187
   21  H  3  S    0.189156  -0.176488  -0.334712   0.124284  -0.474743
   22  H  3  S    0.006638  -0.005138  -0.063925   0.039103  -0.072121
   23  H  3  X    0.025959  -0.010452  -0.037632   0.010629  -0.042578
   24  H  3  Y    0.021987  -0.028852  -0.006647   0.006180  -0.033995
   25  H  3  Z   -0.002232   0.005874   0.004609   0.021442  -0.015171
   26  H  4  S    0.187885   0.372375  -0.057279   0.104673  -0.400979
   27  H  4  S    0.013789   0.119767  -0.068744   0.037492  -0.061502
   28  H  4  X   -0.024765  -0.026609  -0.011106  -0.009301   0.043366
   29  H  4  Y   -0.016823  -0.031752   0.017585  -0.009332   0.013586
   30  H  4  Z   -0.004265  -0.012069  -0.008201   0.018173  -0.023519

                      6          7

    1  N  1  S    0.018538  -0.057996
    2  N  1  S    0.030294  -0.135864
    3  N  1  S    0.020548   0.157468
    4  N  1  X   -0.883152   0.027593
    5  N  1  Y   -0.028682   0.838005
    6  N  1  Z    0.065549   0.060808
    7  N  1  X   -0.025105   0.048684
    8  N  1  Y   -0.030315   0.084810
    9  N  1  Z   -0.042474   0.009269
   10  N  1 XX   -0.016407   0.052880
   11  N  1 YY    0.009691  -0.038857
   12  N  1 ZZ    0.006717  -0.014023
   13  N  1 XY    0.047501   0.031023
   14  N  1 XZ    0.040727  -0.022722
   15  N  1 YZ    0.009812  -0.027853
   16  H  2  S   -0.321407  -0.587447
   17  H  2  S   -0.145603  -0.168007
   18  H  2  X    0.032545  -0.038069
   19  H  2  Y    0.033172   0.009823
   20  H  2  Z    0.015111   0.009400
   21  H  3  S   -0.356695   0.544066
   22  H  3  S   -0.076845   0.129407
   23  H  3  X   -0.021889   0.040497
   24  H  3  Y   -0.034480   0.026916
   25  H  3  Z   -0.025945   0.008637
   26  H  4  S    0.612142  -0.036511
   27  H  4  S    0.207582   0.027158
   28  H  4  X   -0.044172   0.021339
   29  H  4  Y   -0.033346  -0.028476
   30  H  4  Z    0.006234  -0.024411

Actually Used Diabatic Molecualr Orbitals:

                      1          2          3          4          5

    1  N  1  S    0.004318  -0.008826   0.030626  -0.012517   0.184393
    2  N  1  S    0.418446  -0.028988   0.073263  -0.191456   0.678845
    3  N  1  S    0.341972   0.052079  -0.057397  -0.266526   0.206935
    4  N  1  X   -0.008920   0.464059   0.013018  -0.010117  -0.040172
    5  N  1  Y   -0.002376   0.076812   0.468559   0.048171   0.004906
    6  N  1  Z    0.080611   0.003408   0.043784   0.604780   0.606577
    7  N  1  X    0.021538   0.266651  -0.086186   0.018331  -0.009033
    8  N  1  Y   -0.022848  -0.052564   0.258517  -0.064785   0.059510
    9  N  1  Z    0.032264   0.019414  -0.081321   0.386782  -0.070088
[...]

 -------------------------------------------
 - DM DIABT PT HAMILTONIAN MATRIX ELEMENTS -
 -------------------------------------------
                                            
 --- DIABATIC ENERGIES (DIAGONAL ELEMENT) ---       HARTREE            EV
 STATE #  1'S GMC-PT-LEVEL DIABATIC ENERGY=     -55.907739102       0.000000000
 STATE #  2'S GMC-PT-LEVEL DIABATIC ENERGY=     -55.757099999       4.099098767
 STATE #  3'S GMC-PT-LEVEL DIABATIC ENERGY=     -55.744153687       4.451385872

 --- DIABATIC COUPLINGS (OFF DIAGONAL ELEMENTS)---  HATREE            EV
 STATE #  1 &  2'S GMC-PT-LEVEL COUPLING  =       0.004395648       0.119611661
 STATE #  1 &  3'S GMC-PT-LEVEL COUPLING  =      -0.057749112      -1.571433372
 STATE #  2 &  3'S GMC-PT-LEVEL COUPLING  =       0.092915896       2.528370302

 ---------------------------------------
     - ROTATION TO DIABATIC STATES -    
 ---------------------------------------
 ROWS=ADIABATIC, COLUMNS=DIABATIC STATES

             1           2           3

    1   -0.8960581   0.2241304  -0.3832042
    2    0.4153469   0.7280218  -0.5454092
    3   -0.1567383   0.6478810   0.7454417

 ---------------------------------------
          - DIABATIC STATES -           
 ---------------------------------------

 State #    1  Energy =     -55.907739102

      Det      Coef        Coefp    Occupancy (Ignoring core)
      ---      ----        ----    --------- --------- -----
        1    0.912177   -0.912177  222+000
        3   -0.144419   -0.144419  22-++00
      141    0.139069    0.139069  22++-00
       18   -0.116157    0.116157  2-2+00+
      736    0.113792   -0.113792  2+2+00-
       16   -0.103228    0.103228  222000+
        8   -0.093594    0.093594  2-2+0+0
       17    0.092156    0.092156  22-+00+
        7    0.087647    0.087647  22-+0+0
      351   -0.082535   -0.082535  22++0-0
      717   -0.072115   -0.072115  220+002
      393   -0.071993   -0.071993  202+020
      701   -0.064948   -0.064948  22++00-
      386    0.061832   -0.061832  2+2+0-0
        5    0.038616    0.038616  -22++00
      215   -0.038163   -0.038163  022+200
      402    0.036309   -0.036309  2+-+0-+
      708    0.035930   -0.035930  2-++0+-
      390    0.034686   -0.034686  -+2++-0
      218    0.034607   -0.034607  +-2+-+0
      179   -0.033310   -0.033310  202+200
      705   -0.032372   -0.032372  -2+++0-
       76    0.031762    0.031762  2+2-0+0
      227   -0.031636   -0.031636  +2-+-0+
      212    0.031022    0.031022  +220200
      738   -0.030804   -0.030804  2+-++0-
      158   -0.029739   -0.029739  2-++-0+
     1051   -0.029563   -0.029563  2+++0--
       20   -0.027696   -0.027696  22-0+0+
       51   -0.027208    0.027208  22+-00+
      122    0.026282    0.026282  +2-200+
      387   -0.025772    0.025772  2+20+-0
       29   -0.025581   -0.025581  2--+0++
      702    0.025500    0.025500  22+0+0-
      773    0.025470   -0.025470  +2-++0-
      113   -0.024790    0.024790  +-220+0
      424   -0.024049   -0.024049  +-2++-0
      751   -0.023731    0.023731  2+20002
      184   -0.023721   -0.023721  -+2+-+0
        6   -0.023244    0.023244  22200+0
      211   -0.022950   -0.022950  +22+-00
       23    0.022079    0.022079  2--++0+
      159    0.022028   -0.022028  -2++-0+
      911    0.021436    0.021436  2+++-0-
        9   -0.020912   -0.020912  -22+0+0

 State #    2  Energy =     -55.757099999

      Det      Coef        Coefp    Occupancy (Ignoring core)
      ---      ----        ----    --------- --------- -----
       71   -0.914093    0.914093  2+22000
      246    0.157146    0.157146  2++2-00
       73   -0.147934    0.147934  2+-2+00
      736    0.120438   -0.120438  2+2+00-
       86   -0.114938   -0.114938  2+2-00+
       88    0.108922   -0.108922  202200+
       77    0.099714   -0.099714  2+-20+0
      456   -0.088693   -0.088693  2++20-0
      822    0.075777   -0.075777  2+02002
      806   -0.052375   -0.052375  2++200-
       87    0.050305   -0.050305  2+-200+
       36    0.043889    0.043889  22+2000
      813    0.043664   -0.043664  20+20+-
       99   -0.039391    0.039391  20-20++
      320    0.039317    0.039317  0+22200
      316    0.036389    0.036389  ++22-00
       90    0.035491    0.035491  2+--+0+
      810   -0.035085   -0.035085  -++2+0-
       78    0.034488   -0.034488  20220+0
      177    0.034294   -0.034294  2+20200
      317    0.033900   -0.033900  ++2-200
      323   -0.033809    0.033809  +022-+0
      111    0.033594   -0.033594  +22-0+0
      180   -0.033542    0.033542  -+2+200
      332   -0.032652    0.032652  ++-2-0+
       72   -0.032502   -0.032502  2+2-+00
      911    0.032249    0.032249  2+++-0-
      263   -0.032047   -0.032047  20+2-0+
      106   -0.031546   -0.031546  +222000
       38   -0.031492    0.031492  2202+00
      183   -0.030043    0.030043  202+-+0
      807   -0.029923    0.029923  2++-+0-
      192   -0.029087    0.029087  2+-+-0+
      108   -0.029033   -0.029033  +2-2+00
      526   -0.027618   -0.027618  ++220-0
        6    0.026051   -0.026051  22200+0
      753    0.025872    0.025872  202+002
      878    0.025852    0.025852  ++-2+0-
       93    0.025164   -0.025164  20-2+0+
       75   -0.025010   -0.025010  -+22+00
      264    0.024497   -0.024497  -++2-0+
      391    0.024380   -0.024380  2+20020
      742    0.022775    0.022775  2+-+0+-
      752    0.022063    0.022063  2+-+002
      122    0.021801    0.021801  +2-200+
      252   -0.021792   -0.021792  2+02-+0
      821   -0.020099    0.020099  2++-002
       51    0.020038   -0.020038  22+-00+

 State #    3  Energy =     -55.744153687

      Det      Coef        Coefp    Occupancy (Ignoring core)
      ---      ----        ----    --------- --------- -----
       36   -0.907575   -0.907575  22+2000
       38    0.154472   -0.154472  2202+00
       53    0.140974    0.140974  2-+200+
      806   -0.129145   -0.129145  2++200-
       51   -0.127574    0.127574  22+-00+
      701    0.118903    0.118903  22++00-
      106    0.087050    0.087050  +222000
       42   -0.076660    0.076660  22020+0
      463    0.074427   -0.074427  20+2020
       43    0.059438    0.059438  2-+20+0
       39   -0.057655   -0.057655  2-+2+00
      456   -0.054602   -0.054602  2++20-0
       52   -0.046889    0.046889  220200+
       71   -0.044021    0.044021  2+22000
       41   -0.043930    0.043930  22+-0+0
      472   -0.043588   -0.043588  2+020-+
      123    0.043414   -0.043414  +-2200+
       64    0.038306   -0.038306  2-020++
      285    0.038048   -0.038048  02+2200
      288   -0.037992   -0.037992  +-+2-+0
       55   -0.037513   -0.037513  220-+0+
      460   -0.037045   -0.037045  -++2+-0
      249    0.035995   -0.035995  20+2200
      297    0.035067   -0.035067  +202-0+
      145   -0.034920   -0.034920  -2++200
      282    0.034836    0.034836  +2+-200
      142    0.033891    0.033891  22+0200
      351    0.033689    0.033689  22++0-0
       40   -0.032438    0.032438  -2+2+00
      109   -0.032266    0.032266  +-22+00
       73    0.031625   -0.031625  2+-2+00
      808    0.030574   -0.030574  2+02+0-
      457   -0.029971    0.029971  2++-+-0
      157    0.029727   -0.029727  220+-0+
      718    0.029700   -0.029700  2-++002
      876   -0.028475   -0.028475  ++2200-
      148   -0.028464   -0.028464  2-++-+0
      821   -0.027988    0.027988  2++-002
      112   -0.027927   -0.027927  +2-20+0
       44    0.026584   -0.026584  -2+20+0
      246    0.026030    0.026030  2++2-00
      494    0.025785   -0.025785  +-+2+-0
       58   -0.024686    0.024686  2-02+0+
      254    0.024628   -0.024628  -++2-+0
       16   -0.024137    0.024137  222000+
      121   -0.023847    0.023847  +22-00+
      113    0.022434   -0.022434  +-220+0
      122   -0.021770   -0.021770  +2-200+
      253    0.021497    0.021497  20+2-+0
      843   -0.020991   -0.020991  +202+0-
      859    0.020803   -0.020803  02+2002
      717   -0.020678   -0.020678  220+002
      281    0.020185   -0.020185  +2+2-00

 ---------------------------------------
      - DIABATIC STATES IN CMO -        
 ---------------------------------------

 State #    1  Energy =     -55.907739102

      Det      Coef        Coefp    Occupancy (Ignoring core)
      ---      ----        ----    --------- --------- -----
        1    0.826928   -0.826928  222+000
       36    0.489134    0.489134  22+2000
       71    0.157346   -0.157346  2+22000
      143   -0.051372   -0.051372  220+200
      717   -0.050086   -0.050086  220+002
      142   -0.049348   -0.049348  22+0200
      393   -0.045599   -0.045599  202+020
      106   -0.036578   -0.036578  +222000
      179   -0.035564   -0.035564  202+200
      157    0.033510   -0.033510  220+-0+
      145    0.033208    0.033208  -2++200
       17   -0.030846   -0.030846  22-+00+
        8   -0.030714    0.030714  2-2+0+0
        2    0.030619   -0.030619  2220+00
      463   -0.029380    0.029380  20+2020
      718   -0.027582    0.027582  2-++002
      212    0.027430    0.027430  +220200
      148    0.027269    0.027269  2-++-+0
      752    0.026869    0.026869  2+-+002
       18   -0.026219    0.026219  2-2+00+
      249   -0.025372    0.025372  20+2200
      158    0.025141    0.025141  2-++-0+
      753   -0.024862   -0.024862  202+002
      122   -0.023657   -0.023657  +2-200+
      789   -0.023369   -0.023369  022+002
      703   -0.023126   -0.023126  220++0-
       38   -0.023060    0.023060  2202+00
      387   -0.022955    0.022955  2+20+-0
      123   -0.022676    0.022676  +-2200+
      215   -0.022618   -0.022618  022+200
      218    0.021762   -0.021762  +-2+-+0
      390    0.021498   -0.021498  -+2++-0
       51    0.021491   -0.021491  22+-00+
      108   -0.021253   -0.021253  +2-2+00
        7    0.021214    0.021214  22-+0+0
      719   -0.020969   -0.020969  -2++002
      144    0.020135   -0.020135  2-++200

 State #    2  Energy =     -55.757099999

      Det      Coef        Coefp    Occupancy (Ignoring core)
      ---      ----        ----    --------- --------- -----
       36    0.703747    0.703747  22+2000
       71   -0.609387    0.609387  2+22000
        1   -0.300023    0.300023  222+000
      822    0.063784   -0.063784  2+02002
      109   -0.044881    0.044881  +-22+00
      823   -0.042557    0.042557  20+2002
        4    0.036054   -0.036054  2-2++00
      808    0.035222   -0.035222  2+02+0-
       72   -0.034041   -0.034041  2+2-+00
      111    0.030638   -0.030638  +22-0+0
      177    0.030405   -0.030405  2+20200
      142   -0.028913   -0.028913  22+0200
      249   -0.026058    0.026058  20+2200
       75    0.025322    0.025322  -+22+00
      463   -0.025165    0.025165  20+2020
       42    0.025101   -0.025101  22020+0
      824   -0.025011   -0.025011  -++2002
      807    0.024845   -0.024845  2++-+0-
      813   -0.023385    0.023385  20+20+-
      282   -0.023044   -0.023044  +2+-200
      717    0.022912    0.022912  220+002
      393    0.021838    0.021838  202+020
       78   -0.021391    0.021391  20220+0
       39   -0.021388   -0.021388  2-+2+00
      317    0.020234   -0.020234  ++2-200
      859   -0.020155    0.020155  02+2002

 State #    3  Energy =     -55.744153687

      Det      Coef        Coefp    Occupancy (Ignoring core)
      ---      ----        ----    --------- --------- -----
       71   -0.741958    0.741958  2+22000
       36   -0.471703   -0.471703  22+2000
        1    0.421103   -0.421103  222+000
      248    0.043512   -0.043512  2+02200
        2    0.042933   -0.042933  2220+00
      177    0.041942   -0.041942  2+20200
      122    0.041419    0.041419  +2-200+
      108    0.040564    0.040564  +2-2+00
      463    0.040080   -0.040080  20+2020
      249    0.036569   -0.036569  20+2200
       37    0.033996   -0.033996  22+-+00
      822    0.030810   -0.030810  2+02002
      178   -0.029981   -0.029981  2+-+200
      717   -0.029960   -0.029960  220+002
        3   -0.029863   -0.029863  22-++00
      179   -0.029606   -0.029606  202+200
      247    0.028633   -0.028633  2++-200
      180   -0.028420    0.028420  -+2+200
       74   -0.027988    0.027988  2022+00
      462    0.027051   -0.027051  2+02020
       77   -0.026163    0.026163  2+-20+0
      317    0.024803   -0.024803  ++2-200
      107   -0.024376    0.024376  +22-+00
      262   -0.024208   -0.024208  2+02-0+
      121    0.023873   -0.023873  +22-00+
       54   -0.023384    0.023384  -2+200+
      894    0.023204    0.023204  0+22002
        4    0.022770   -0.022770  2-2++00
       43    0.022474    0.022474  2-+20+0
      457   -0.022255    0.022255  2++-+-0
      472    0.021433    0.021433  2+020-+
      320    0.021373    0.021373  0+22200
       38    0.021162   -0.021162  2202+00
       40   -0.021045    0.021045  -2+2+00
      250    0.020267    0.020267  -++2200

 ---------------------------------------
    -DIABATIC STATES IN PROTOTYPES-     
 ---------------------------------------

     STATE:    1
 Group Ref#    Coefficients
     1    1    0.933362
     2    2   -0.009508
     3    3    0.003077

WEIGHT OF LISTED PROTOTYPES:   87.13%

     STATE:    2
 Group Ref#    Coefficients
     1    1   -0.009559
     2    2    0.928336
     3    3   -0.005135

WEIGHT OF LISTED PROTOTYPES:   86.19%

     STATE:    3
 Group Ref#    Coefficients
     1    1    0.003105
     2    2   -0.005154
     3    3    0.924959

WEIGHT OF LISTED PROTOTYPES:   85.56%

     DIRECT MAX. DIABATIZATION FINISHED    
 CPU     0: STEP CPU TIME=     0.25 TOTAL CPU TIME=         15.2 (      0.3 MIN)
 TOTAL WALL CLOCK TIME=         15.3 SECONDS, CPU UTILIZATION IS    99.93%

DIABATS FOR SPIN-ORBIT CALCULATION ARE READY

TRANSITION DIPOLES BETWEEN ADIABATS (in A.U.):

STATE PAIR      X         Y         Z
    1    1 -0.025347  0.364543  0.640037
    2    1 -0.034600 -0.014346 -0.180617
    2    2 -0.228266  0.325118  0.363505
    3    1 -0.106072 -0.110269  0.073145
    3    2 -0.138224 -0.014864  0.000885
    3    3  0.078973  0.604253  0.290099


TRANSITION DIPOLES BETWEEN DIABATS (in A.U.):

STATE PAIR      X         Y         Z
    1    1 -0.043832  0.345269  0.738608
    2    1 -0.008713  0.037345  0.008045
    2    2 -0.261602  0.393537  0.309719
    3    1  0.032244  0.037355 -0.000115
    3    2  0.127276  0.143318  0.007495
    3    3  0.130794  0.555108  0.245315

TRANSITION DIPOLES BETWEEN DIRECT MAX. DIABATS (in A.U.):

STATE PAIR      X         Y         Z
    1    1 -0.043834  0.345270  0.738608
    2    1 -0.008720  0.037345  0.008033
    2    2 -0.261599  0.393538  0.309719
    3    1  0.032245  0.037355 -0.000107
    3    2  0.127279  0.143319  0.007494
    3    3  0.130792  0.555106  0.245314
 No $TRANST Group Found.
 Quit without doing spin-orbit coupling
 ..... DONE WITH MP2 ENERGY .....
 CPU     0: STEP CPU TIME=     0.00 TOTAL CPU TIME=         15.2 (      0.3 MIN)
 TOTAL WALL CLOCK TIME=         15.3 SECONDS, CPU UTILIZATION IS    99.93%
            100000000  WORDS OF DYNAMIC MEMORY USED
 EXECUTION OF GAMESS TERMINATED NORMALLY Wed Nov 16 20:25:11 2022
 DDI: 715512 bytes (0.7 MB / 0 MWords) used by master data server.

 ----------------------------------------
 CPU timing information for all processes
 ========================================
 0: 14.854 + 0.408 = 15.262
 ----------------------------------------
Note: The following floating-point exceptions are signalling: IEEE_DENORMAL
 ddikick.x: exited gracefully.
unset echo
----- accounting info -----
Files used on the master node io002 were:
-rw-r--r-- 1 bsonghao nooijen   20737 Nov 16 20:24 /scratch/bsonghao/nh3_diabatization_2d_at_mode_7_8_dist0.8_-0.1.F05
-rw-r--r-- 1 bsonghao nooijen  363520 Nov 16 20:25 /scratch/bsonghao/nh3_diabatization_2d_at_mode_7_8_dist0.8_-0.1.F09
-rw-r--r-- 1 bsonghao nooijen 1995920 Nov 16 20:25 /scratch/bsonghao/nh3_diabatization_2d_at_mode_7_8_dist0.8_-0.1.F10
-rw-r--r-- 1 bsonghao nooijen  131264 Nov 16 20:25 /scratch/bsonghao/nh3_diabatization_2d_at_mode_7_8_dist0.8_-0.1.F13
-rw-r--r-- 1 bsonghao nooijen  180312 Nov 16 20:25 /scratch/bsonghao/nh3_diabatization_2d_at_mode_7_8_dist0.8_-0.1.F15
-rw-r--r-- 1 bsonghao nooijen       0 Nov 16 20:24 /scratch/bsonghao/nh3_diabatization_2d_at_mode_7_8_dist0.8_-0.1.F16
-rw-r--r-- 1 bsonghao nooijen    9808 Nov 16 20:25 /scratch/bsonghao/nh3_diabatization_2d_at_mode_7_8_dist0.8_-0.1.F70
-rw-r--r-- 1 bsonghao nooijen    9808 Nov 16 20:25 /scratch/bsonghao/nh3_diabatization_2d_at_mode_7_8_dist0.8_-0.1.F71
-rw-r--r-- 1 bsonghao nooijen   19608 Nov 16 20:25 /scratch/bsonghao/nh3_diabatization_2d_at_mode_7_8_dist0.8_-0.1.F72
-rw-r--r-- 1 bsonghao nooijen   19608 Nov 16 20:25 /scratch/bsonghao/nh3_diabatization_2d_at_mode_7_8_dist0.8_-0.1.F73
-rw-r--r-- 1 bsonghao nooijen 1920824 Nov 16 20:25 /scratch/bsonghao/nh3_diabatization_2d_at_mode_7_8_dist0.8_-0.1.F74
-rw-r--r-- 1 bsonghao nooijen       0 Nov 16 20:24 /scratch/bsonghao/nh3_diabatization_2d_at_mode_7_8_dist0.8_-0.1.F75
-rw-r--r-- 1 bsonghao nooijen   58848 Nov 16 20:25 /scratch/bsonghao/nh3_diabatization_2d_at_mode_7_8_dist0.8_-0.1.F76
-rw-r--r-- 1 bsonghao nooijen       0 Nov 16 20:24 /scratch/bsonghao/nh3_diabatization_2d_at_mode_7_8_dist0.8_-0.1.F77
-rw-r--r-- 1 bsonghao nooijen    1864 Nov 16 20:25 /scratch/bsonghao/nh3_diabatization_2d_at_mode_7_8_dist0.8_-0.1.F78
-rw-r--r-- 1 bsonghao nooijen   39208 Nov 16 20:25 /scratch/bsonghao/nh3_diabatization_2d_at_mode_7_8_dist0.8_-0.1.F79
-rw-r--r-- 1 bsonghao nooijen     104 Nov 16 20:25 /scratch/bsonghao/nh3_diabatization_2d_at_mode_7_8_dist0.8_-0.1.F80
-rw-r--r-- 1 bsonghao nooijen   13472 Nov 16 20:25 /scratch/bsonghao/nh3_diabatization_2d_at_mode_7_8_dist0.8_-0.1.F81
-rw-r--r-- 1 bsonghao nooijen      16 Nov 16 20:25 /scratch/bsonghao/nh3_diabatization_2d_at_mode_7_8_dist0.8_-0.1.F82
-rw-r--r-- 1 bsonghao nooijen   19216 Nov 16 20:25 /scratch/bsonghao/nh3_diabatization_2d_at_mode_7_8_dist0.8_-0.1.F83
-rw-r--r-- 1 bsonghao nooijen   29712 Nov 16 20:25 /scratch/bsonghao/nh3_diabatization_2d_at_mode_7_8_dist0.8_-0.1.F84
-rw-r--r-- 1 bsonghao nooijen  401576 Nov 16 20:25 /scratch/bsonghao/nh3_diabatization_2d_at_mode_7_8_dist0.8_-0.1.F85
-rw-r--r-- 1 bsonghao nooijen  903672 Nov 16 20:25 /scratch/bsonghao/nh3_diabatization_2d_at_mode_7_8_dist0.8_-0.1.F86
-rw-r--r-- 1 bsonghao nooijen     656 Nov 16 20:25 /scratch/bsonghao/nh3_diabatization_2d_at_mode_7_8_dist0.8_-0.1.F87
-rw-r--r-- 1 bsonghao nooijen   42800 Nov 16 20:25 /scratch/bsonghao/nh3_diabatization_2d_at_mode_7_8_dist0.8_-0.1.F88
-rw-r--r-- 1 bsonghao nooijen     240 Nov 16 20:25 /scratch/bsonghao/nh3_diabatization_2d_at_mode_7_8_dist0.8_-0.1.F89
-rw-r--r-- 1 bsonghao nooijen       0 Nov 16 20:24 /scratch/bsonghao/nh3_diabatization_2d_at_mode_7_8_dist0.8_-0.1.F90
-rw-r--r-- 1 bsonghao nooijen   13760 Nov 16 20:25 /scratch/bsonghao/nh3_diabatization_2d_at_mode_7_8_dist0.8_-0.1.F91
-rw-r--r-- 1 bsonghao nooijen   22776 Nov 16 20:25 /scratch/bsonghao/nh3_diabatization_2d_at_mode_7_8_dist0.8_-0.1.F92
-rw-r--r-- 1 bsonghao nooijen   23168 Nov 16 20:25 /scratch/bsonghao/nh3_diabatization_2d_at_mode_7_8_dist0.8_-0.1.F93
-rw-r--r-- 1 bsonghao nooijen   22776 Nov 16 20:25 /scratch/bsonghao/nh3_diabatization_2d_at_mode_7_8_dist0.8_-0.1.F94
-rw-r--r-- 1 bsonghao nooijen   13760 Nov 16 20:25 /scratch/bsonghao/nh3_diabatization_2d_at_mode_7_8_dist0.8_-0.1.F95
-rw-r--r-- 1 bsonghao nooijen   29440 Nov 16 20:25 /scratch/bsonghao/nh3_diabatization_2d_at_mode_7_8_dist0.8_-0.1.F96
-rw-r--r-- 1 bsonghao nooijen    1184 Nov 16 20:25 /scratch/bsonghao/nh3_diabatization_2d_at_mode_7_8_dist0.8_-0.1.F97
-rw-r--r-- 1 bsonghao nooijen    9808 Nov 16 20:25 /scratch/bsonghao/nh3_diabatization_2d_at_mode_7_8_dist0.8_-0.1.F98
-rw-r--r-- 1 bsonghao nooijen   30264 Nov 16 20:25 /scratch/bsonghao/nh3_diabatization_2d_at_mode_7_8_dist0.8_-0.1.F99
ls: No match.
ls: No match.
ls: No match.
Wed 16 Nov 2022 08:25:14 PM EST
0.286u 0.045s 0:18.63 1.7%	0+0k 48+224io 0pf+0w
