----- GAMESS execution script 'rungms' -----
This job is running on host io002
under operating system Linux at Wed 16 Nov 2022 08:01:12 PM EST
Available scratch disk space (Kbyte units) at beginning of the job is
Filesystem       1K-blocks       Used   Available Use% Mounted on
/dev/sdc1      15378471580 3278917120 11318349060  23% /scratch
GAMESS temporary binary files will be written to /scratch/bsonghao
GAMESS supplementary output files will be written to /home/bsonghao/.gamess_ascii_files/267638
Copying input file nh3_diabatization_2d_at_mode_7_8_dist0.5_0.0.inp to your run's scratch directory...
cp nh3_diabatization_2d_at_mode_7_8_dist0.5_0.0.inp /scratch/bsonghao/nh3_diabatization_2d_at_mode_7_8_dist0.5_0.0.F05
unset echo
/home/bjb2chen/gamess/ddikick.x /home/bjb2chen/gamess/gamess.00.x nh3_diabatization_2d_at_mode_7_8_dist0.5_0.0 -ddi 1 1 io002 -scr /scratch/bsonghao

 Distributed Data Interface kickoff program.
 Initiating 1 compute processes on 1 nodes to run the following command:
 /home/bjb2chen/gamess/gamess.00.x nh3_diabatization_2d_at_mode_7_8_dist0.5_0.0 

          ******************************************************
          *         GAMESS VERSION = 02 AUG 2018 (R2)         *
          *             FROM IOWA STATE UNIVERSITY             *
          * M.W.SCHMIDT, K.K.BALDRIDGE, J.A.BOATZ, S.T.ELBERT, *
          *   M.S.GORDON, J.H.JENSEN, S.KOSEKI, N.MATSUNAGA,   *
          *          K.A.NGUYEN, S.J.SU, T.L.WINDUS,           *
          *       TOGETHER WITH M.DUPUIS, J.A.MONTGOMERY       *
          *         J.COMPUT.CHEM.  14, 1347-1363(1993)        *
          **************** 64 BIT LINUX VERSION ****************

  SINCE 1993, STUDENTS AND POSTDOCS WORKING AT IOWA STATE UNIVERSITY
  AND ALSO IN THEIR VARIOUS JOBS AFTER LEAVING ISU HAVE MADE IMPORTANT
  CONTRIBUTIONS TO THE CODE:
     IVANA ADAMOVIC, CHRISTINE AIKENS, YURI ALEXEEV, POOJA ARORA,
     ANDREY ASADCHEV, ROB BELL, PRADIPTA BANDYOPADHYAY, JONATHAN BENTZ,
     BRETT BODE, KURT BRORSEN, CALEB CARLIN, GALINA CHABAN, WEI CHEN,
     CHEOL HO CHOI, PAUL DAY, ALBERT DEFUSCO, NUWAN DESILVA, TIM DUDLEY,
     DMITRI FEDOROV, ALEX FINDLATER, GRAHAM FLETCHER, MARK FREITAG,
     KURT GLAESEMANN, ANASTASIA GUININA,
     DAN KEMP, GRANT MERRILL, NORIYUKI MINEZAWA, JONATHAN MULLIN,
     TAKESHI NAGATA, SEAN NEDD, HEATHER NETZLOFF, BOSILJKA NJEGIC, RYAN OLSON,
     MIKE PAK, BUU PHAM,
     SPENCER PRUITT, LUKE ROSKOP, JIM SHOEMAKER, LYUDMILA SLIPCHENKO,
     TONY SMITH, SAROM SOK LEANG, JIE SONG, TETSUYA TAKETSUGU, SIMON WEBB,
     PENG XU, SOOHAENG YOO, FEDERICO ZAHARIEV

  ADDITIONAL CODE HAS BEEN PROVIDED BY COLLABORATORS IN OTHER GROUPS:
     IOWA STATE UNIVERSITY:
          JOE IVANIC, AARON WEST, LAIMUTIS BYTAUTAS, KLAUS RUEDENBERG
     UNIVERSITY OF TOKYO: KIMIHIKO HIRAO, TAKAHITO NAKAJIMA,
          TAKAO TSUNEDA, MUNEAKI KAMIYA, SUSUMU YANAGISAWA,
          KIYOSHI YAGI, MAHITO CHIBA, SEIKEN TOKURA, NAOAKI KAWAKAMI
     UNIVERSITY OF AARHUS: FRANK JENSEN
     UNIVERSITY OF IOWA: VISVALDAS KAIRYS, HUI LI
     NATIONAL INST. OF STANDARDS AND TECHNOLOGY: WALT STEVENS, DAVID GARMER
     UNIVERSITY OF PISA: BENEDETTA MENNUCCI, JACOPO TOMASI
     UNIVERSITY OF MEMPHIS: HENRY KURTZ, PRAKASHAN KORAMBATH
     UNIVERSITY OF ALBERTA: TOBY ZENG, MARIUSZ KLOBUKOWSKI
     UNIVERSITY OF NEW ENGLAND: MARK SPACKMAN
     MIE UNIVERSITY: HIROAKI UMEDA
     NAT. INST. OF ADVANCED INDUSTRIAL SCIENCE AND TECHNOLOGY: KAZUO KITAURA
     MICHIGAN STATE UNIVERSITY:
          KAROL KOWALSKI, MARTA WLOCH, JEFFREY GOUR, JESSE LUTZ,
          WEI LI, JUN SHEN, J. EMILIANO DEUSTUA, PIOTR PIECUCH
     UNIVERSITY OF MINNESOTA:
          YINAN SHU
     UNIVERSITY OF SILESIA: MONIKA MUSIAL, STANISLAW KUCHARSKI
     FACULTES UNIVERSITAIRES NOTRE-DAME DE LA PAIX:
          OLIVIER QUINET, BENOIT CHAMPAGNE
     UNIVERSITY OF CALIFORNIA - SANTA BARBARA: BERNARD KIRTMAN
     INSTITUTE FOR MOLECULAR SCIENCE:
          KAZUYA ISHIMURA, MICHIO KATOUDA, AND SHIGERU NAGASE
     UNIVERSITY OF NOTRE DAME: ANNA POMOGAEVA, DAN CHIPMAN
     KYUSHU UNIVERSITY:
          HARUYUKI NAKANO,
          FENG LONG GU, JACEK KORCHOWIEC, MARCIN MAKOWSKI, AND YURIKO AOKI,
          HIROTOSHI MORI AND EISAKU MIYOSHI
     PENNSYLVANIA STATE UNIVERSITY:
          TZVETELIN IORDANOV, CHET SWALINA, JONATHAN SKONE,
          SHARON HAMMES-SCHIFFER
     WASEDA UNIVERSITY:
          MASATO KOBAYASHI, TOMOKO AKAMA, TSUGUKI TOUMA,
          TAKESHI YOSHIKAWA, YASUHIRO IKABATA, JUNJI SEINO,
          YUYA NAKAJIMA, HIROMI NAKAI
     NANJING UNIVERSITY: SHUHUA LI
     UNIVERSITY OF NEBRASKA:
          PEIFENG SU, DEJUN SI, NANDUN THELLAMUREGE, YALI WANG, HUI LI
     UNIVERSITY OF ZURICH: ROBERTO PEVERATI, KIM BALDRIDGE
     N. COPERNICUS UNIVERSITY AND JACKSON STATE UNIVERSITY:
          MARIA BARYSZ
     UNIVERSITY OF COPENHAGEN: Jimmy Kromann, CASPER STEINMANN
     TOKYO INSTITUTE OF TECHNOLOGY: HIROYA NAKATA
     NAGOYA UNIVERSITY: YOSHIO NISHIMOTO, STEPHAN IRLE
     MOSCOW STATE UNIVERSITY: VLADIMIR MIRONOV

 EXECUTION OF GAMESS BEGUN Wed Nov 16 20:01:12 2022

            ECHO OF THE FIRST FEW INPUT CARDS -
 INPUT CARD> $system kdiag=3 mwords=100 memddi=1000 parall=.t. $end                         
 INPUT CARD> $contrl runtyp=energy ispher=1 $end                                            
 INPUT CARD> $contrl icut=9 itol=20 inttyp=rysquad qmttol=1.0d-05 nosym=1 $end              
 INPUT CARD> $scf    npunch=2 conv=1.0d-06 dirscf=.t.      $end                             
 INPUT CARD> $contrl scftyp=mcscf  mult=2 maxit=200 icharg=1 mplevl=2 $end                  
 INPUT CARD> $guess  guess=moread norb=29 purify=.t. $end                                   
 INPUT CARD> $basis  gbasis=ccd $end                                                        
 INPUT CARD> $mcscf  cistep=gmcci fullnr=.t. finci=mos                                      
 INPUT CARD>         acurcy=1.d-6 maxit=100 $end                                            
 INPUT CARD> $trans  dirtrf=.t. $end                                                        
 INPUT CARD> $mrmp   mrpt=gmcpt rdvecs=.f. $end                                             
 INPUT CARD> $gmcpt  nmofzc=0 nmodoc=1 nmoact=7 nelact=7 stsym(1)=A                         
 INPUT CARD>         reftyp=ormas nspace=1 mstart(1)=2 mine(1)=7 maxe(1)=7                  
 INPUT CARD>         kstate(1)=1,1,1                                                        
 INPUT CARD>         wstate(1)=1,1,1                                                        
 INPUT CARD>         iwgt=0 thrwgt=-1.0 krot=.f. kszdoe=.f. knospn=.f.                      
 INPUT CARD>         thrde=-1.0 edshft=0.02 $end                                            
 INPUT CARD> $data                                                                          
 INPUT CARD> NH3+ 3 states calculation at NH3 structure.                                    
 INPUT CARD> c1                                                                             
 INPUT CARD>N 7.0 0.0 -0.031144515 -0.1693806842                                            
 INPUT CARD>H 1.0 -0.274263485 0.8399120278000001 0.37076391810000003                       
 INPUT CARD>H 1.0 -0.65639007 -0.7720271778000001 0.14215654310000003                       
 INPUT CARD>H 1.0 0.93065354 0.36487872 0.2564602231                                        
 INPUT CARD>$end                                                                            
 INPUT CARD>--- OPTIMIZED RHF      MO-S --- GENERATED AT Mon Nov 14 16:47:08 2022           
 INPUT CARD>E=      -56.3825050291, E(NUC)=   11.8429239490                                 
 INPUT CARD> $VEC                                                                           
 INPUT CARD> 1  1-1.00134066E+00-2.25158504E-03 3.44925845E-03 0.00000000E+00 0.00000000E+00
 INPUT CARD> 1  2-2.13170927E-03 0.00000000E+00 0.00000000E+00 6.57129898E-04-6.87950443E-05
 INPUT CARD> 1  3-6.87950443E-05 1.37590089E-04 0.00000000E+00 0.00000000E+00 0.00000000E+00
 INPUT CARD> 1  4 3.25502815E-04-4.84772356E-04 3.62525460E-04-6.27912517E-04-3.45956485E-04
 INPUT CARD> 1  5 3.25502815E-04-4.84772356E-04 3.62525460E-04 6.27912517E-04-3.45956485E-04
 INPUT CARD> 1  6 3.25502815E-04-4.84772356E-04-7.25050921E-04 0.00000000E+00-3.45956485E-04
 INPUT CARD> 2  1 1.31286642E-02-4.05911371E-01-2.82090992E-01 0.00000000E+00 0.00000000E+00
 INPUT CARD> 2  2-7.71489043E-02 0.00000000E+00 0.00000000E+00 9.73717494E-03 6.62450916E-04
 INPUT CARD> 2  3 6.62450916E-04-1.32490183E-03 0.00000000E+00 0.00000000E+00 0.00000000E+00
 INPUT CARD> 2  4-1.96090317E-01-1.96656153E-02-1.74855877E-02 3.02859263E-02 8.68214399E-03
 INPUT CARD> 2  5-1.96090317E-01-1.96656153E-02-1.74855877E-02-3.02859263E-02 8.68214399E-03
 INPUT CARD> 2  6-1.96090317E-01-1.96656153E-02 3.49711754E-02 0.00000000E+00 8.68214399E-03
 INPUT CARD> 3  1 0.00000000E+00 0.00000000E+00 0.00000000E+00 4.48608762E-01 0.00000000E+00
 INPUT CARD> 3  2 0.00000000E+00 2.18692520E-01 0.00000000E+00 0.00000000E+00 1.30198027E-02
 INPUT CARD> 3  3-1.30198027E-02 0.00000000E+00 0.00000000E+00 2.71832968E-02 0.00000000E+00
 INPUT CARD> 3  4-1.85332726E-01-7.03958951E-02 8.47929477E-03 1.95242443E-02 8.32835058E-03
 INPUT CARD> 3  5-1.85332726E-01-7.03958951E-02 8.47929477E-03-1.95242443E-02 8.32835058E-03
 INPUT CARD> 3  6 3.70665453E-01 1.40791790E-01-2.53376884E-02 0.00000000E+00-1.66567012E-02
 INPUT CARD> 4  1 0.00000000E+00 0.00000000E+00 0.00000000E+00 0.00000000E+00 4.48608762E-01
 INPUT CARD> 4  2 0.00000000E+00 0.00000000E+00 2.18692520E-01 0.00000000E+00 0.00000000E+00
 INPUT CARD> 4  3 0.00000000E+00 0.00000000E+00-1.50339731E-02 0.00000000E+00 2.71832968E-02
 INPUT CARD> 4  4 3.21005698E-01 1.21929267E-01 1.95242443E-02-1.40653607E-02-1.44251263E-02
  100000000 WORDS OF MEMORY AVAILABLE

     BASIS OPTIONS
     -------------
     GBASIS=CCD          IGAUSS=       0      POLAR=NONE    
     NDFUNC=       0     NFFUNC=       0     DIFFSP=       F
     NPFUNC=       0      DIFFS=       F     BASNAM=        


     RUN TITLE
     ---------
  NH3+ 3 states calculation at NH3 structure.                                    

 THE POINT GROUP OF THE MOLECULE IS C1      
 THE ORDER OF THE PRINCIPAL AXIS IS     0

 ATOM      ATOMIC                      COORDINATES (BOHR)
           CHARGE         X                   Y                   Z
 N           7.0     0.0000000000       -0.0588545994       -0.3200830808
 H           1.0    -0.5182828351        1.5872035863        0.7006422113
 H           1.0    -1.2403973734       -1.4589198211        0.2686369138
 H           1.0     1.7586801801        0.6895207996        0.4846395484

          INTERNUCLEAR DISTANCES (ANGS.)
          ------------------------------

                1 N          2 H          3 H          4 H     

   1 N       0.0000000    1.0609977 *  1.0376948 *  1.0974019 *
   2 H       1.0609977 *  0.0000000    1.6723128 *  1.3002104 *
   3 H       1.0376948 *  1.6723128 *  0.0000000    1.9555889 *
   4 H       1.0974019 *  1.3002104 *  1.9555889 *  0.0000000  

  * ... LESS THAN  3.000


     ATOMIC BASIS SET
     ----------------
 THE CONTRACTED PRIMITIVE FUNCTIONS HAVE BEEN UNNORMALIZED
 THE CONTRACTED BASIS FUNCTIONS ARE NOW NORMALIZED TO UNITY

  SHELL TYPE  PRIMITIVE        EXPONENT          CONTRACTION COEFFICIENT(S)

 N         

      1   S       1          9046.0000000    0.000699617413
      1   S       2          1357.0000000    0.005386054630
      1   S       3           309.3000000    0.027391021189
      1   S       4            87.7300000    0.103150591982
      1   S       5            28.5600000    0.278570663317
      1   S       6            10.2100000    0.448294849454
      1   S       7             3.8380000    0.278085928395
      1   S       8             0.7466000    0.015431561233

      2   S       9          9046.0000000   -0.000304990096
      2   S      10          1357.0000000   -0.002408026379
      2   S      11           309.3000000   -0.011944448725
      2   S      12            87.7300000   -0.048925992909
      2   S      13            28.5600000   -0.134472724725
      2   S      14            10.2100000   -0.315112577700
      2   S      15             3.8380000   -0.242857832550
      2   S      16             0.7466000    1.094382206854

      3   S      17             0.2248000    1.000000000000

      4   P      18            13.5500000    0.058905676772
      4   P      19             2.9170000    0.320461106714
      4   P      20             0.7973000    0.753042061792

      5   P      21             0.2185000    1.000000000000

      6   D      22             0.8170000    1.000000000000

 H         

      7   S      23            13.0100000    0.033498726390
      7   S      24             1.9620000    0.234800801174
      7   S      25             0.4446000    0.813682957883

      8   S      26             0.1220000    1.000000000000

      9   P      27             0.7270000    1.000000000000

 H         

     10   S      28            13.0100000    0.033498726390
     10   S      29             1.9620000    0.234800801174
     10   S      30             0.4446000    0.813682957883

     11   S      31             0.1220000    1.000000000000

     12   P      32             0.7270000    1.000000000000

 H         

     13   S      33            13.0100000    0.033498726390
     13   S      34             1.9620000    0.234800801174
     13   S      35             0.4446000    0.813682957883

     14   S      36             0.1220000    1.000000000000

     15   P      37             0.7270000    1.000000000000

 TOTAL NUMBER OF BASIS SET SHELLS             =   15
 NUMBER OF CARTESIAN GAUSSIAN BASIS FUNCTIONS =   30
 NOTE: THIS RUN WILL RESTRICT THE MO VARIATION SPACE TO SPHERICAL HARMONICS.
 THE NUMBER OF ORBITALS KEPT IN THE VARIATIONAL SPACE WILL BE PRINTED LATER.
 NUMBER OF ELECTRONS                          =    9
 CHARGE OF MOLECULE                           =    1
 SPIN MULTIPLICITY                            =    2
 NUMBER OF OCCUPIED ORBITALS (ALPHA)          =    5
 NUMBER OF OCCUPIED ORBITALS (BETA )          =    4
 TOTAL NUMBER OF ATOMS                        =    4
 THE NUCLEAR REPULSION ENERGY IS       11.4304524131

     $CONTRL OPTIONS
     ---------------
 SCFTYP=MCSCF        RUNTYP=ENERGY       EXETYP=RUN     
 MPLEVL=       2     CITYP =NONE         CCTYP =NONE         VBTYP =NONE    
 DFTTYP=NONE         TDDFT =NONE    
 MULT  =       2     ICHARG=       1     NZVAR =       0     COORD =UNIQUE  
 PP    =NONE         RELWFN=NONE         LOCAL =NONE         NUMGRD=       F
 ISPHER=       1     NOSYM =       1     MAXIT =     200     UNITS =ANGS    
 PLTORB=       F     MOLPLT=       F     AIMPAC=       F     FRIEND=        
 NPRINT=       7     IREST =       0     GEOM  =INPUT   
 NORMF =       0     NORMP =       0     ITOL  =      20     ICUT  =       9
 INTTYP=RYSQUAD      GRDTYP=BEST         QMTTOL= 1.0E-05

     $SYSTEM OPTIONS
     ---------------
  REPLICATED MEMORY=   100000000 WORDS (ON EVERY NODE).
 DISTRIBUTED MEMDDI=        1000 MILLION WORDS IN AGGREGATE,
 MEMDDI DISTRIBUTED OVER   1 PROCESSORS IS  1000000000 WORDS/PROCESSOR.
 TOTAL MEMORY REQUESTED ON EACH PROCESSOR=  1100000000 WORDS.
 TIMLIM=      525600.00 MINUTES, OR     365.0 DAYS.
 PARALL= T  BALTYP=  DLB     KDIAG=    3  COREFL= F
 MXSEQ2=     300 MXSEQ3=     150  mem10=         0

          ----------------
          PROPERTIES INPUT
          ----------------

     MOMENTS            FIELD           POTENTIAL          DENSITY
 IEMOM =       1   IEFLD =       0   IEPOT =       0   IEDEN =       0
 WHERE =COMASS     WHERE =NUCLEI     WHERE =NUCLEI     WHERE =NUCLEI  
 OUTPUT=BOTH       OUTPUT=BOTH       OUTPUT=BOTH       OUTPUT=BOTH    
 IEMINT=       0   IEFINT=       0                     IEDINT=       0
                                                       MORB  =       0

     -------------------------------
     INTEGRAL TRANSFORMATION OPTIONS
     -------------------------------
     NWORD  =            0
     CUTOFF = 1.0E-09     MPTRAN =       0
     DIRTRF =       T     AOINTS =DUP     

          ----------------------
          MCSCF INPUT PARAMETERS
          ----------------------
 CONVERGER SELECTION: FOCAS = F  SOSCF = F  FULLNR = T  QUD = F  JACOBI = F
 SECULAR EQUATION METHOD CISTEP = GMCCI   
 --- GENERAL INPUT OPTIONS:
 MAXIT =     100  MICIT =       1  ACURCY= 1.000E-06
 DAMP  =   0.000  CANONC=       T  ENGTOL= 1.000E-10
 EKT   =       F  NPUNCH=       2  NWORD =         0
 REGENERATE CI AFTER CONVERGENCE = NONE    
 DIABATIZATION AFTER CONVERGENCE =        F
 --- INPUT FOR FULLNR CONVERGER:
 METHOD=DM2       FORS  =       F  DROPC =       T
 LINSER=       F  FCORE =       F  NORB  =      30

          ----------------------
          INTEGRAL INPUT OPTIONS
          ----------------------
 NOPK  =       1 NORDER=       0 SCHWRZ=       T

 ------------------------------------------
 MULTIREFERENCE PERTURBATION THEORY CONTROL
 ------------------------------------------
 MRPT=GMCPT    READ CONVERGED MCSCF VECTORS= F


     ------------------------------------------
     THE POINT GROUP IS C1 , NAXIS= 1, ORDER= 1
     ------------------------------------------

 -- VARIATIONAL SPACE WILL BE RESTRICTED TO PURE SPHERICAL HARMONICS ONLY --
 AFTER EXCLUDING CONTAMINANT COMBINATIONS FROM THE CARTESIAN GAUSSIAN BASIS
 SET, THE NUMBER OF SPHERICAL HARMONICS KEPT IN THE VARIATION SPACE IS   29

     DIMENSIONS OF THE SYMMETRY SUBSPACES ARE
 A   =   29

 ..... DONE SETTING UP THE RUN .....
 CPU     0: STEP CPU TIME=     0.04 TOTAL CPU TIME=          0.0 (      0.0 MIN)
 TOTAL WALL CLOCK TIME=          0.0 SECONDS, CPU UTILIZATION IS   100.00%

          ********************
          1 ELECTRON INTEGRALS
          ********************
 TIME TO DO   DIPOLE INTEGRALS=      0.00
 ...... END OF ONE-ELECTRON INTEGRALS ......
 CPU     0: STEP CPU TIME=     0.00 TOTAL CPU TIME=          0.0 (      0.0 MIN)
 TOTAL WALL CLOCK TIME=          0.1 SECONDS, CPU UTILIZATION IS    80.00%

          -------------
          GUESS OPTIONS
          -------------
          GUESS =MOREAD            NORB  =      29          NORDER=       0
          MIX   =       F          PRTMO =       F          PUNMO =       F
          TOLZ  = 1.0E-08          TOLE  = 1.0E-05
          SYMDEN=       F          PURIFY=       T

 INITIAL GUESS ORBITALS GENERATED BY MOREAD   ROUTINE.

 STATISTICS FOR GENERATION OF SYMMETRY ORBITAL -Q- MATRIX
 NUMBER OF CARTESIAN ATOMIC ORBITALS=         30
 NUMBER OF SPHERICAL CONTAMINANTS DROPPED=     1
 NUMBER OF LINEARLY DEPENDENT MOS DROPPED=     0
 TOTAL NUMBER OF MOS IN VARIATION SPACE=      29
 ORBITAL PURIFICATION WILL OCCUR

 SYMMETRIES FOR INITIAL GUESS ORBITALS FOLLOW.   BOTH SET(S).
     5 ORBITALS ARE OCCUPIED (    1 CORE ORBITALS).
     1=A        2=A        3=A        4=A        5=A        6=A        7=A   
     8=A        9=A       10=A       11=A       12=A       13=A       14=A   
    15=A       16=A       17=A       18=A       19=A       20=A       21=A   
    22=A       23=A       24=A       25=A       26=A       27=A       28=A   
    29=A   
 ...... END OF INITIAL ORBITAL SELECTION ......
 CPU     0: STEP CPU TIME=     0.01 TOTAL CPU TIME=          0.1 (      0.0 MIN)
 TOTAL WALL CLOCK TIME=          0.1 SECONDS, CPU UTILIZATION IS   100.00%

                    ----------------------
                    AO INTEGRAL TECHNOLOGY
                    ----------------------
     S,P,L SHELL ROTATED AXIS INTEGRALS, REPROGRAMMED BY
        KAZUYA ISHIMURA (IMS) AND JOSE SIERRA (SYNSTAR).
     S,P,D,L SHELL ROTATED AXIS INTEGRALS PROGRAMMED BY
        KAZUYA ISHIMURA (INSTITUTE FOR MOLECULAR SCIENCE).
     S,P,D,F,G SHELL TO TOTAL QUARTET ANGULAR MOMENTUM SUM 5,
        ERIC PROGRAM BY GRAHAM FLETCHER (ELORET AND NASA ADVANCED
        SUPERCOMPUTING DIVISION, AMES RESEARCH CENTER).
     S,P,D,F,G,L SHELL GENERAL RYS QUADRATURE PROGRAMMED BY
        MICHEL DUPUIS (PACIFIC NORTHWEST NATIONAL LABORATORY).

          --------------------
          2 ELECTRON INTEGRALS
          --------------------

 DIRECT SCF METHOD SKIPS INTEGRAL STORAGE ON DISK.
 DIRECT TRANSFORMATION SKIPS AO INTEGRAL STORAGE ON DISK.
  ...... END OF TWO-ELECTRON INTEGRALS .....
 STEP CPU TIME =     0.02 TOTAL CPU TIME =          0.1 (      0.0 MIN)
 TOTAL WALL CLOCK TIME=          0.1 SECONDS, CPU UTILIZATION IS   100.00%
 DDI: Creating Array [0] - 900 x 36 = 32400 words.
 DDI: Creating Array [1] - 21 x 288 = 6048 words.
 DDI: Creating Array [2] - 36 x 36 = 1296 words.
 DDI: Creating Array [3] - 465 x 36 = 16740 words.

          -----------------
          MCSCF CALCULATION
          -----------------

 ----- NUCLEAR ENERGY ----- =        11.4304524131

     -------------------------------------------------
     GMC-PT/GMC-QDPT or general MCSCF input parameters
     -------------------------------------------------
 # of frozen core orbs. =         0 ->         0
 # of doubly occ. orbs. =         1
 # of active      orbs. =         7
 # of virtual     orbs. =        21
 # of active electrons  =         7
 # of states in CI      =         3
 Highest state in CI    =         3
 kstate =  1 1 1
 avecoe =  0.333 0.333 0.333
 State symmetry           = A           
 Assigned symmetry number = 1

 <<<Act. MO sym.: 1111111

 <<<Division of 1-ext.:  0
 <<<Division of 2-ext.:  0

 *** Reference space

 Reference type: ORMAS (= Occupation restricted multiple active space)
 # of orbitals          =  7
 # of minimum electrons =  7
 # of maximum electrons =  7
 State symmetry    =    1 (input)
 2*Sz              =    1 (input)
 Spin multiplicity =    2 (input)
 Dimension of reference space =      1225  (from      3432 walks)

 Dimension of reference space =      1225  (from      1225 walks)

 <<<Ionized spaces for Ref-CI:
      0:         1225 /   -1-0:         1960 /  0-1-0:         2891

 EVALUATING EXCHANGE INTEGRALS FOR DIRECT INTEGRAL TRANSFORMATION
 SCHWARZ INEQUALITY OVERHEAD:       465 INTEGRALS, T=        0.00

     --------------------------------------------
     PARTIAL TWO ELECTRON INTEGRAL TRANSFORMATION
     --------------------------------------------

 NUMBER OF CORE MOLECULAR ORBITALS     =    1
 NUMBER OF OCCUPIED MOLECULAR ORBITALS =    8
 TOTAL NUMBER OF MOLECULAR ORBITALS    =   29
 TOTAL NUMBER OF ATOMIC ORBITALS       =   30
 THRESHOLD FOR KEEPING TRANSFORMED 2E- INTEGRALS = 1.000E-09

 -------------------------------     ------------------------------
 DISTRIBUTED DATA TRANSFORMATION     PROGRAM WRITTEN BY G. FLETCHER
 -------------------------------     ------------------------------

 THE DISTRIBUTED MEMORY REQUIRED FOR THIS STEP IS MEMDDI=         1 MWORDS
 CREATING DISTRIBUTED STORAGE FOR [VIR OCC|VIR OCC] INTEGRALS
 CREATING DISTRIBUTED STORAGE FOR [VIR OCC|OCC OCC] INTEGRALS
 CREATING DISTRIBUTED STORAGE FOR [OCC OCC|OCC OCC] INTEGRALS
 CREATING DISTRIBUTED STORAGE FOR [VIR VIR|OCC OCC] INTEGRALS
 FOR    1 PROCESSORS, THE REPLICATED MEMORY NEEDED IS       73700 WORDS.
 SCHWARZ INEQUALITY OVERHEAD:       465 INTEGRALS, T=        0.00

      DIRECT 4-INDEX TRANSFORMATION 
      SCHWARZ INEQUALITY TEST SKIPPED          0 INTEGRAL BLOCKS
 ----- FROZEN CORE ENERGY =       -47.7138860126
 ... END OF INTEGRAL TRANSFORMATION ...
 CPU     0: STEP CPU TIME=     0.22 TOTAL CPU TIME=          0.3 (      0.0 MIN)
 TOTAL WALL CLOCK TIME=          0.3 SECONDS, CPU UTILIZATION IS   100.00%

     --------------------------------     -----------------------------
     MCHF NEWTON-RAPHSON OPTIMIZATION     CODE WRITTEN BY MICHEL DUPUIS
     --------------------------------     -----------------------------
     PARALLEL VERSION WRITTEN BY G. FLETCHER (ELORET)
     NASA ADVANCED SUPERCOMPUTING DIVISION, AMES RESEARCH CENTER

 NUMBER OF INDEPENDENT ORBITAL ROTATION PARAMETERS =   175
 ..... DONE SOLVING NEWTON-RAPHSON EQUATIONS .....
 CPU     0: STEP CPU TIME=     0.75 TOTAL CPU TIME=          1.0 (      0.0 MIN)
 TOTAL WALL CLOCK TIME=          1.1 SECONDS, CPU UTILIZATION IS    99.05%
 ..... DONE WITH NTN-RPH ORBITAL ROTATIONS ..... 
 CPU     0: STEP CPU TIME=     0.00 TOTAL CPU TIME=          1.0 (      0.0 MIN)
 TOTAL WALL CLOCK TIME=          1.1 SECONDS, CPU UTILIZATION IS    99.05%
 MAXIMUM MEMORY USED BY NTN-RPH CODE WAS     57645 WORDS.

 ITER     TOTAL ENERGY      DEL(E)  LAGRANGIAN ASYMMETRY   SQCDF  MICIT   DAMP
   1      -55.643592943 -0.643592943  0.120272   12    5 1.378E-01  1   0.0000
   2      -55.687644733 -0.044051790  0.021858   12    5 4.533E-01  1   0.0000
   3      -55.721643041 -0.033998308  0.012749   11    6 2.199E-01  1   0.0235
   4      -55.736205115 -0.014562074  0.004357   11    6 4.063E-02  1   0.0047
   5      -55.738037915 -0.001832800  0.000711   12    5 1.105E-03  1   0.0000
   6      -55.738089354 -0.000051439  0.000261   23    5 8.851E-05  1   0.0000
   7      -55.738094443 -0.000005090  0.000115   23    5 1.422E-05  1   0.0000
   8      -55.738095320 -0.000000877  0.000055   23    5 2.789E-06  1   0.0000
   9      -55.738095499 -0.000000179  0.000028   23    5 6.403E-07  1   0.0000
  10      -55.738095541 -0.000000042  0.000015   23    5 1.695E-07  1   0.0000
  11      -55.738095552 -0.000000011  0.000008   23    5 5.007E-08  1   0.0000
  12      -55.738095555 -0.000000003  0.000004   23    5 1.594E-08  1   0.0000
  13      -55.738095556 -0.000000001  0.000002   23    5 5.329E-09  1   0.0000
  14      -55.738095557 -0.000000000  0.000001   23    5 1.835E-09  1   0.0000
  15      -55.738095557 -0.000000000  0.000001   23    5 6.404E-10  1   0.0000

          --------------------
          LAGRANGIAN CONVERGED
          --------------------

 FINAL MCSCF ENERGY IS      -55.7380955569 AFTER  15 ITERATIONS

 -MCCI- BASED ON OPTIMIZED ORBITALS
 ----------------------------------

 PLEASE NOTE: IF THE ACTIVE ORBITALS ARE CANONICALIZED BELOW,
 THE FOLLOWING CI EXPANSION COEFFICIENTS AND THE DENSITY DO NOT
 CORRESPOND TO THE PRINTED ORBITALS.  THE PRINTED EXPANSIONS MATCH
 THE ORBITALS USED DURING THE LAST ITERATION.  IF YOU WISH TO SEE
 CI EXPANSIONS BASED ON THE CANONICAL (OR NATURAL) ORBITALS, YOU
 MUST RUN A CI CALCULATION WITH THAT ORBITAL CHOICE READ IN $VEC.

 Averaged energy =     -55.738095557

 State #    1  Energy =     -55.877062469  S =  0.500

      Det      Coef    Occupancy (Ignoring core)
      ---      ----    --------- --------- -----
        1   -0.933796  11110001110000
        5    0.065425  01111001110000
        8    0.128028  10110101110000
       17   -0.131985  11010011110000
       36   -0.168462  11110001101000
       71   -0.063023  11110001011000
      211   -0.050095  11110000110100
      386   -0.101321  11110001010010
      393   -0.057817  10110101010010
      701    0.099372  11110001100001
      717   -0.062041  11010011100001

 State #    2  Energy =     -55.740020374  S =  0.500

      Det      Coef    Occupancy (Ignoring core)
      ---      ----    --------- --------- -----
        1   -0.156485  11110001110000
       36    0.643485  11110001101000
       43   -0.065475  10110101101000
       52    0.057114  11010011101000
       71    0.701397  11110001011000
       78   -0.059598  10110101011000
       87    0.072406  11010011011000
      456    0.068734  11110001001010
      806    0.072648  11110001001001

 State #    3  Energy =     -55.597203827  S =  0.500

      Det      Coef    Occupancy (Ignoring core)
      ---      ----    --------- --------- -----
        1    0.078956  11110001110000
       36   -0.699344  11110001101000
       43    0.061695  10110101101000
       71    0.662769  11110001011000
       87    0.058190  11010011011000
      281   -0.052420  11110000101100
      316    0.050785  11110000011100
      456   -0.063382  11110001001010
      806    0.072165  11110001001001

 DENSITY MATRIX OVER ACTIVE MO-S

             1           2           3           4           5

    1    1.9768778
    2   -0.0047076   1.6332749
    3    0.0140738   0.0019143   1.6334604
    4    0.0017322  -0.0015820   0.0023505   1.6544241
    5    0.1013806   0.0100790  -0.0273350   0.0297456   0.0281830
    6   -0.0072692  -0.1423198  -0.0174663  -0.0088431  -0.0032531
    7   -0.0027837  -0.0016458  -0.1496141   0.0330091   0.0040802

             6           7

    6    0.0353651
    7   -0.0027873   0.0384148

 FORMING THE "STANDARD FOCK OPERATOR" IN DIRECT AO INTEGRAL MODE...
 ONLY THE    1 CORE AND   21 VIRTUAL ORBITALS WILL BE CANONICALIZED

          ----------------------
          MCSCF NATURAL ORBITALS
          ----------------------

                      1          2          3          4          5
                  -15.9851     1.9827     1.6560     1.6500     1.6431
                     A          A          A          A          A   
    1  N  1  S    1.001209   0.008725  -0.010082  -0.002220   0.002099
    2  N  1  S   -0.001849   0.436744  -0.165482  -0.084036   0.045310
    3  N  1  S   -0.006300   0.307769  -0.264983  -0.114258   0.068386
    4  N  1  X   -0.000104  -0.008571  -0.050007   0.267025   0.430348
    5  N  1  Y   -0.000058   0.033354  -0.148616   0.369349  -0.307783
    6  N  1  Z    0.001147   0.092564   0.576304   0.130060  -0.011501
    7  N  1  X   -0.000028   0.002361  -0.011162   0.089641   0.223947
    8  N  1  Y    0.000020  -0.000116  -0.090858   0.129059  -0.165192
    9  N  1  Z   -0.000489   0.011413   0.380031   0.067488   0.012225
   10  N  1 XX    0.000065  -0.000954  -0.011280  -0.003796   0.008619
   11  N  1 YY    0.000136   0.000374  -0.011849  -0.002244  -0.007953
   12  N  1 ZZ   -0.000201   0.000579   0.023129   0.006040  -0.000666
   13  N  1 XY    0.000377   0.002641   0.002026  -0.006448   0.011456
   14  N  1 XZ   -0.000042   0.000689  -0.003304   0.011327   0.019741
   15  N  1 YZ    0.000119   0.002332  -0.003070   0.018567  -0.015007
   16  H  2  S   -0.001860   0.206595   0.072989   0.204207  -0.326338
   17  H  2  S    0.000301   0.007220   0.020441   0.027231  -0.083027
   18  H  2  X   -0.000287   0.010401   0.005120   0.024358   0.001513
   19  H  2  Y    0.000843  -0.032803  -0.016476  -0.008386   0.025892
   20  H  2  Z    0.000502  -0.014736   0.020736  -0.006230   0.019096
   21  H  3  S   -0.002008   0.174647   0.183014  -0.337960   0.005738
   22  H  3  S    0.000619  -0.000572   0.035138  -0.037925   0.008706
   23  H  3  X   -0.000668   0.021378   0.014984  -0.023279   0.013357
   24  H  3  Y   -0.000831   0.028001   0.015678  -0.024504  -0.015023
   25  H  3  Z    0.000377  -0.004000   0.016189   0.018045  -0.000924
   26  H  4  S   -0.001717   0.176923   0.054401   0.262585   0.269884
   27  H  4  S    0.000409  -0.000112   0.023210   0.035008   0.071920
   28  H  4  X    0.000838  -0.030334  -0.009235  -0.031007  -0.017282
   29  H  4  Y    0.000283  -0.011173  -0.004826   0.002801  -0.023010
   30  H  4  Z    0.000426  -0.007915   0.022139  -0.006715  -0.011895

                      6          7          8
                    0.0283     0.0214     0.0185
                     A          A          A   
    1  N  1  S   -0.092061  -0.180652  -0.124820
    2  N  1  S   -0.299362  -0.614142  -0.374803
    3  N  1  S   -0.000527  -0.189996   0.001677
    4  N  1  X   -0.579723  -0.027138   0.674920
    5  N  1  Y    0.488031  -0.470497   0.563874
    6  N  1  Z   -0.133607  -0.616819  -0.196344
    7  N  1  X    0.017678  -0.018359   0.059357
    8  N  1  Y   -0.016842  -0.083491   0.049178
    9  N  1  Z    0.033468   0.064900   0.055488
   10  N  1 XX    0.020813  -0.020937   0.025962
   11  N  1 YY   -0.018774   0.016132  -0.019408
   12  N  1 ZZ   -0.002039   0.004804  -0.006554
   13  N  1 XY    0.049196   0.032805  -0.003206
   14  N  1 XZ    0.016591   0.006932  -0.040387
   15  N  1 YZ   -0.004532   0.048896  -0.021624
   16  H  2  S   -0.496911   0.698944   0.036909
   17  H  2  S   -0.149046   0.112610   0.007353
   18  H  2  X    0.002757   0.048596  -0.026543
   19  H  2  Y    0.027434  -0.059790  -0.028640
   20  H  2  Z    0.020232   0.006268  -0.003162
   21  H  3  S    0.292730   0.179504   0.818684
   22  H  3  S    0.045713  -0.002993   0.143934
   23  H  3  X    0.028330   0.019190   0.052202
   24  H  3  Y    0.013498   0.028378   0.067789
   25  H  3  Z   -0.002947   0.006157   0.018419
   26  H  4  S    0.645560   0.413068  -0.326560
   27  H  4  S    0.153160   0.045797  -0.091007
   28  H  4  X   -0.052668  -0.059090   0.025568
   29  H  4  Y   -0.037452   0.004929  -0.006645
   30  H  4  Z   -0.006138   0.024436  -0.005729

          ------------------------
          MCSCF OPTIMIZED ORBITALS
          ------------------------

                      1          2          3          4          5
                  -15.9851     0.0000     0.0000     0.0000     0.0000
                     A          A          A          A          A   
    1  N  1  S    1.001209  -0.002895   0.002628   0.008694  -0.015401
    2  N  1  S   -0.001849   0.400905   0.001872  -0.014695  -0.193658
    3  N  1  S   -0.006300   0.304319   0.011844  -0.069972  -0.284230
    4  N  1  X   -0.000104  -0.004986   0.425531  -0.064789  -0.002839
    5  N  1  Y   -0.000058   0.009140  -0.009504   0.419286  -0.034968
    6  N  1  Z    0.001147   0.052313  -0.003751   0.001623   0.581218
    7  N  1  X   -0.000028   0.007374   0.227195  -0.074749   0.005285
    8  N  1  Y    0.000020  -0.011699  -0.043582   0.213075  -0.054359
    9  N  1  Z   -0.000489   0.012799   0.001643  -0.034573   0.386780
   10  N  1 XX    0.000065  -0.000811   0.005131  -0.009600  -0.011413
   11  N  1 YY    0.000136   0.000400  -0.005735   0.008449  -0.012395
   12  N  1 ZZ   -0.000201   0.000411   0.000604   0.001151   0.023809
   13  N  1 XY    0.000377   0.005552   0.008086  -0.014327   0.001558
   14  N  1 XZ   -0.000042   0.001157   0.026352  -0.001290  -0.001153
   15  N  1 YZ    0.000119   0.003352   0.001601   0.026933   0.001735
   16  H  2  S   -0.001860   0.214725  -0.165759   0.396938   0.123018
   17  H  2  S    0.000301   0.006485  -0.058777   0.080184   0.025863
   18  H  2  X   -0.000287   0.011797   0.017615   0.019599   0.010800
   19  H  2  Y    0.000843  -0.034310   0.020376  -0.021822  -0.019130
   20  H  2  Z    0.000502  -0.013417   0.010060  -0.022062   0.018540
   21  H  3  S   -0.002008   0.206241  -0.261223  -0.354453   0.119448
   22  H  3  S    0.000619   0.003012  -0.027556  -0.053213   0.027978
   23  H  3  X   -0.000668   0.024346  -0.007486  -0.032636   0.010485
   24  H  3  Y   -0.000831   0.030453  -0.032277  -0.015669   0.011594
   25  H  3  Z    0.000377  -0.004073   0.006949   0.009984   0.020130
   26  H  4  S   -0.001717   0.205376   0.424081   0.017229   0.122858
   27  H  4  S    0.000409   0.004986   0.089685  -0.025416   0.031619
   28  H  4  X    0.000838  -0.033420  -0.036145  -0.011810  -0.017400
   29  H  4  Y    0.000283  -0.012458  -0.017174   0.019844  -0.004481
   30  H  4  Z    0.000426  -0.007235  -0.015796  -0.000898   0.020145

                      6          7          8          9         10
                    0.0000     0.0000     0.0000     0.1429     0.1997
                     A          A          A          A          A   
    1  N  1  S    0.229640  -0.029764  -0.054120  -0.134078   0.004830
    2  N  1  S    0.780488  -0.072106  -0.147309  -0.202738  -0.001989
    3  N  1  S    0.182096   0.008664   0.084285   1.370527  -0.148069
    4  N  1  X    0.003859   0.930467  -0.017810   0.006969  -0.107478
    5  N  1  Y    0.084044   0.140540   0.909852  -0.039120  -0.084242
    6  N  1  Z    0.670316  -0.038820   0.056669  -0.196709  -0.005307
    7  N  1  X   -0.004291   0.054326   0.047258   0.010818   0.500996
    8  N  1  Y    0.059446   0.049827   0.073921   0.181305   0.601053
    9  N  1  Z   -0.077802   0.020697   0.015059   0.446789   0.039820
   10  N  1 XX    0.004047   0.007642   0.037923   0.012265  -0.004903
   11  N  1 YY   -0.002857  -0.003933  -0.030274   0.032350  -0.014605
   12  N  1 ZZ   -0.001190  -0.003709  -0.007650  -0.044615   0.019508
   13  N  1 XY   -0.043534  -0.034778   0.016794   0.066644  -0.059817
   14  N  1 XZ    0.001235  -0.039701  -0.014397  -0.001297   0.062354
   15  N  1 YZ   -0.035984  -0.015103  -0.034621   0.055218   0.085472
   16  H  2  S   -0.474640   0.313231  -0.602776   0.247129   0.239155
   17  H  2  S   -0.056726   0.093230  -0.143352  -0.789956  -0.845802
   18  H  2  X   -0.035680  -0.022148  -0.033014   0.027333  -0.017463
   19  H  2  Y    0.052158  -0.036130   0.027851   0.099879   0.022102
   20  H  2  Z   -0.011013  -0.014986   0.007187   0.058245   0.051414
   21  H  3  S   -0.490954   0.409338   0.554194   0.316571  -0.531416
   22  H  3  S   -0.055111   0.078591   0.109399  -0.747804   1.908840
   23  H  3  X   -0.040471   0.020353   0.037707  -0.054067   0.078136
   24  H  3  Y   -0.048933   0.039568   0.033608  -0.079737   0.079146
   25  H  3  Z   -0.010268   0.016653   0.006160  -0.012452  -0.077544
   26  H  4  S   -0.460195  -0.643257   0.084199   0.349802   0.202033
   27  H  4  S   -0.059924  -0.162499   0.032607  -0.923620  -0.779966
   28  H  4  X    0.059834   0.052252   0.002941   0.055966   0.036649
   29  H  4  Y    0.008406   0.017435  -0.030297   0.071040   0.015508
   30  H  4  Z   -0.018291  -0.002691  -0.018886   0.037279   0.071473

                     11         12         13         14         15
                    0.2225     0.5356     0.5840     0.6466     0.8059
                     A          A          A          A          A   
    1  N  1  S    0.022713   0.077635  -0.004932   0.032121  -0.351501
    2  N  1  S    0.046036   0.082405  -0.110643   0.132573  -0.804097
    3  N  1  S   -0.148417  -0.632249  -0.436502   0.077695   1.379430
    4  N  1  X   -0.038255   0.249619  -0.406053  -0.328016  -0.047450
    5  N  1  Y   -0.027369  -0.468553   0.200170  -0.260916  -0.041134
    6  N  1  Z    0.033868   0.481510   0.416255  -0.267383   0.262536
    7  N  1  X    0.467882  -0.385349   1.148115   1.323181   0.198143
    8  N  1  Y   -0.137087   1.096015  -0.589411   1.372558   0.114610
    9  N  1  Z   -0.103995  -0.668180  -0.790479   0.584189  -0.132273
   10  N  1 XX    0.064940  -0.011523  -0.024654  -0.027500   0.123415
   11  N  1 YY   -0.060523   0.031767   0.055447   0.018770  -0.073324
   12  N  1 ZZ   -0.004418  -0.020244  -0.030792   0.008731  -0.050092
   13  N  1 XY    0.053803   0.003197   0.043467  -0.009948  -0.072328
   14  N  1 XZ    0.063963  -0.009565   0.002294  -0.037664  -0.069528
   15  N  1 YZ   -0.036343   0.024294   0.006853  -0.047425  -0.014742
   16  H  2  S   -0.575789  -0.044688   0.646776  -0.436032   0.093901
   17  H  2  S    1.957164  -0.670303   0.707389  -0.174714  -0.202856
   18  H  2  X    0.035121   0.054558   0.114249  -0.089726  -0.441765
   19  H  2  Y   -0.075637   0.103355  -0.042497   0.096746  -0.013374
   20  H  2  Z   -0.041615   0.023019  -0.098666  -0.035929   0.010361
   21  H  3  S    0.054719   0.522309   0.451221   0.488006  -0.043717
   22  H  3  S   -0.050885   0.474024  -0.035606   0.778415  -0.259761
   23  H  3  X   -0.016784   0.048229   0.089696   0.169824  -0.114913
   24  H  3  Y    0.041117   0.053812  -0.059083   0.113862   0.103505
   25  H  3  Z   -0.010874  -0.065550  -0.046952   0.120930   0.185921
   26  H  4  S    0.548406   0.289323  -0.068384  -0.731931   0.034310
   27  H  4  S   -1.812277   0.421397  -0.658652  -0.454632  -0.365715
   28  H  4  X    0.067544  -0.058838  -0.011267   0.179275   0.336642
   29  H  4  Y    0.007881   0.056232   0.148852   0.095248  -0.261275
   30  H  4  Z    0.023484  -0.084289   0.001532  -0.076502  -0.124577

                     16         17         18         19         20
                    0.9847     1.0474     1.2656     1.3897     1.4772
                     A          A          A          A          A   
    1  N  1  S   -0.465679  -0.213229   0.043946  -0.337128  -0.404548
    2  N  1  S   -0.984134  -0.447937   0.090398  -0.711712  -0.836445
    3  N  1  S    1.960894   1.035085  -0.161474   1.225667   1.572369
    4  N  1  X   -0.016284   0.076264  -0.220837  -0.010248  -0.067584
    5  N  1  Y   -0.077406  -0.021013  -0.093102   0.006027   0.016291
    6  N  1  Z    0.133085   0.051387   0.019353  -0.027764  -0.023111
    7  N  1  X    0.034310  -0.438507   0.786391  -0.151422  -0.000225
    8  N  1  Y    0.381113   0.147446   0.635770  -0.577798   0.612605
    9  N  1  Z   -0.067208   0.295908   0.001420   0.472888   0.751949
   10  N  1 XX   -0.145284  -0.100275   0.048546   0.130126   0.015922
   11  N  1 YY   -0.089265   0.177123  -0.059402   0.056391   0.064935
   12  N  1 ZZ    0.234549  -0.076848   0.010856  -0.186517  -0.080858
   13  N  1 XY    0.060264  -0.089205  -0.042284  -0.038845   0.071049
   14  N  1 XZ    0.012537   0.207527   0.093569  -0.001404   0.080466
   15  N  1 YZ   -0.032451  -0.161467  -0.018503   0.014218  -0.069009
   16  H  2  S   -0.435410  -0.275362  -0.013164  -0.169021  -0.591985
   17  H  2  S   -0.272828  -0.220031  -0.038952  -0.041925  -0.328753
   18  H  2  X    0.216541  -0.016863   0.099675   0.328751  -0.070018
   19  H  2  Y   -0.081372   0.350977   0.179839   0.352310  -0.024943
   20  H  2  Z    0.352062  -0.451420   0.021001  -0.424129   0.336842
   21  H  3  S   -0.163481  -0.239244   0.500235  -0.544413  -0.255873
   22  H  3  S   -0.244810  -0.201514   0.248358  -0.254953  -0.022633
   23  H  3  X    0.013270   0.310996  -0.418867  -0.394965   0.163641
   24  H  3  Y   -0.000116  -0.396994   0.113832   0.454319  -0.265963
   25  H  3  Z    0.276613   0.032632  -0.366039   0.029570  -0.749884
   26  H  4  S   -0.379537  -0.000186  -0.447063  -0.223349  -0.536718
   27  H  4  S   -0.228099  -0.002755  -0.126567  -0.019394  -0.010572
   28  H  4  X   -0.123171   0.052384  -0.121590  -0.164164  -0.040346
   29  H  4  Y    0.129857  -0.115548  -0.609325   0.292187   0.001502
   30  H  4  Z    0.368570   0.236737   0.414426  -0.282136  -0.455096

                     21         22         23         24         25
                    1.6185     1.8746     1.9112     1.9572     2.0929
                     A          A          A          A          A   
    1  N  1  S   -0.136789   0.012427   0.074247  -0.136610  -0.041183
    2  N  1  S   -0.275231   0.031812   0.262549  -0.325701  -0.070841
    3  N  1  S    0.535679  -0.210523   1.179715  -0.306684   0.345396
    4  N  1  X    0.137234   0.319941   0.143294   0.292953  -0.072514
    5  N  1  Y   -0.204467   0.507675   0.164207  -0.055823  -0.120109
    6  N  1  Z   -0.028950   0.056832   0.254761  -0.164647   0.015749
    7  N  1  X    0.699691   0.250785   0.021604  -0.180201   0.008458
    8  N  1  Y    0.287598   0.059796  -0.044356   0.147879  -0.154463
    9  N  1  Z    0.240426  -0.052825   0.447894  -0.073581   0.394563
   10  N  1 XX    0.017216  -0.124501  -0.153957  -0.204846  -0.581541
   11  N  1 YY    0.108122   0.016642   0.033016   0.233111  -0.217331
   12  N  1 ZZ   -0.125338   0.107860   0.120941  -0.028264   0.798872
   13  N  1 XY   -0.064032   0.257903  -0.161987   0.087895   0.515014
   14  N  1 XZ   -0.178512  -0.136491   0.080656  -0.152673   0.063762
   15  N  1 YZ    0.084905  -0.124989  -0.178044   0.144342   0.291132
   16  H  2  S   -0.313771   0.100591  -0.209286   0.052127  -0.085670
   17  H  2  S    0.253713  -0.274343  -0.006825   0.337914   0.064552
   18  H  2  X   -0.361796  -0.361896   0.325603   0.690796  -0.287734
   19  H  2  Y   -0.513626   0.430920   0.371170  -0.518441   0.140542
   20  H  2  Z   -0.380322   0.118354   0.291360  -0.222953  -0.543470
   21  H  3  S    0.153204   0.065424  -0.252093   0.066900  -0.190749
   22  H  3  S    0.008998   0.459617  -0.215943   0.136377  -0.184653
   23  H  3  X   -0.290065   0.425507  -0.516065   0.339192  -0.306550
   24  H  3  Y   -0.037925   0.707261  -0.241200   0.343781  -0.166762
   25  H  3  Z   -0.390921  -0.395131  -0.215096  -0.104672  -0.086432
   26  H  4  S   -0.293383   0.016388  -0.246713   0.022250  -0.090360
   27  H  4  S   -0.407173  -0.100849  -0.490209  -0.200259   0.017083
   28  H  4  X    0.074785   0.116202   0.960099   0.564133   0.082866
   29  H  4  Y    0.457650   0.135303   0.387301  -0.571119  -0.074533
   30  H  4  Z    0.514180   0.426417   0.029274  -0.055193  -0.331308

                     26         27         28         29
                    2.3034     2.6077     2.6605     3.0007
                     A          A          A          A   
    1  N  1  S    0.077302  -0.075892  -0.076109  -0.003193
    2  N  1  S    0.120059   0.001972  -0.135565   0.066517
    3  N  1  S   -0.719709   2.183173   0.170600   0.863247
    4  N  1  X   -0.006525  -0.189829   0.424154   0.114321
    5  N  1  Y   -0.053931   0.175214   0.326573  -0.438238
    6  N  1  Z   -0.065843   0.322567   0.007813   0.073978
    7  N  1  X    0.376087  -0.281554   1.101625   0.159935
    8  N  1  Y   -0.227237   0.625188   0.909261  -0.692123
    9  N  1  Z   -0.373797   0.553852   0.117338   0.029981
   10  N  1 XX   -0.582534  -0.138353   0.442092   0.804274
   11  N  1 YY    0.751282   0.764903  -0.458859  -0.333005
   12  N  1 ZZ   -0.168748  -0.626550   0.016767  -0.471269
   13  N  1 XY    0.093084   0.416784  -0.164112   1.243160
   14  N  1 XZ    0.672816  -0.227854   0.948281   0.271500
   15  N  1 YZ   -0.311041   0.809938   0.765427  -0.536087
   16  H  2  S    0.344960  -1.259367  -0.199641   0.858740
   17  H  2  S    0.200012  -0.493216  -0.028109   0.284143
   18  H  2  X   -0.350203  -0.315992  -0.122342   0.215335
   19  H  2  Y   -0.483186   0.786758  -0.021029  -0.665870
   20  H  2  Z    0.203405   0.587645  -0.007389  -0.398475
   21  H  3  S    0.204624  -0.665712   1.028776  -1.034000
   22  H  3  S    0.057716  -0.158405   0.436024  -0.301178
   23  H  3  X   -0.384081  -0.295995   0.611118  -0.457189
   24  H  3  Y    0.498875  -0.417984   0.536247  -0.644814
   25  H  3  Z    0.228175   0.389760  -0.042363   0.400281
   26  H  4  S    0.117960  -0.464982  -1.023003  -0.794783
   27  H  4  S   -0.005585  -0.017002  -0.419440  -0.242480
   28  H  4  X   -0.094254   0.225961   0.688126   0.705918
   29  H  4  Y   -0.019910  -0.122322   0.384159   0.226526
   30  H  4  Z   -0.140626   0.227659   0.219803   0.436885
 .....DONE WITH MCSCF ITERATIONS.....
 CPU     0: STEP CPU TIME=    10.30 TOTAL CPU TIME=         11.3 (      0.2 MIN)
 TOTAL WALL CLOCK TIME=         11.4 SECONDS, CPU UTILIZATION IS    99.91%

     ----------------------------------------------------------------
     PROPERTY VALUES FOR THE MCSCF SELF-CONSISTENT FIELD WAVEFUNCTION
     ----------------------------------------------------------------

          -----------------
          ENERGY COMPONENTS
          -----------------

         WAVEFUNCTION NORMALIZATION =       1.0000000000

                ONE ELECTRON ENERGY =     -94.3323103409
                TWO ELECTRON ENERGY =      27.1637623709
           NUCLEAR REPULSION ENERGY =      11.4304524131
                                      ------------------
                       TOTAL ENERGY =     -55.7380955569

 ELECTRON-ELECTRON POTENTIAL ENERGY =      27.1637623709
  NUCLEUS-ELECTRON POTENTIAL ENERGY =    -150.1390144055
   NUCLEUS-NUCLEUS POTENTIAL ENERGY =      11.4304524131
                                      ------------------
             TOTAL POTENTIAL ENERGY =    -111.5447996215
               TOTAL KINETIC ENERGY =      55.8067040646
                 VIRIAL RATIO (V/T) =       1.9987706046

          ---------------------------------------
          MULLIKEN AND LOWDIN POPULATION ANALYSES
          ---------------------------------------

     ATOMIC MULLIKEN POPULATION IN EACH MOLECULAR ORBITAL

                      1          2          3          4          5

                  2.000000   1.982732   1.655985   1.649993   1.643104

    1             2.000843   1.332050   1.522338   0.908035   1.107059
    2            -0.000299   0.265683   0.024279   0.135659   0.301816
    3            -0.000319   0.188115   0.095324   0.379633   0.008245
    4            -0.000225   0.196883   0.014043   0.226666   0.225984

                      6          7          8

                  0.028267   0.021411   0.018508

    1             0.013108   0.011470   0.009853
    2             0.004574   0.006874   0.000027
    3             0.001803   0.000390   0.007508
    4             0.008782   0.002677   0.001120
 WARNING! MCSCF POPULATIONS SHOWN ABOVE ARE FOR THE NATURAL ORBITALS.
 IGNORE THE ABOVE DATA FOR MCSCF FUNCTIONS WHICH ARE NOT OF -FORS- TYPE.
 THE FOLLOWING POPULATIONS ARE CORRECT FOR ANY MCSCF WAVEFUNCTION.

               ----- POPULATIONS IN EACH AO -----
                             MULLIKEN      LOWDIN
              1  N  1  S      2.00251     1.89893
              2  N  1  S      0.82276     0.57667
              3  N  1  S      0.66197     0.40057
              4  N  1  X      0.69215     0.62059
              5  N  1  Y      0.68619     0.61334
              6  N  1  Z      0.87463     0.81981
              7  N  1  X      0.32617     0.41729
              8  N  1  Y      0.29851     0.40252
              9  N  1  Z      0.52234     0.55921
             10  N  1 XX      0.00054     0.16863
             11  N  1 YY      0.00185     0.16825
             12  N  1 ZZ      0.00352     0.14252
             13  N  1 XY      0.00514     0.01116
             14  N  1 XZ      0.00648     0.00887
             15  N  1 YZ      0.00000     0.01309
             16  H  2  S      0.62948     0.48586
             17  H  2  S      0.05000     0.14467
             18  H  2  X      0.01275     0.03076
             19  H  2  Y      0.02834     0.04782
             20  H  2  Z      0.01804     0.04152
             21  H  3  S      0.59470     0.46215
             22  H  3  S      0.02892     0.14429
             23  H  3  X      0.02012     0.03955
             24  H  3  Y      0.02501     0.04375
             25  H  3  Z      0.01194     0.03304
             26  H  4  S      0.57653     0.44583
             27  H  4  S      0.04413     0.14707
             28  H  4  X      0.02984     0.05165
             29  H  4  Y      0.01206     0.02798
             30  H  4  Z      0.01338     0.03259

          ----- MULLIKEN ATOMIC OVERLAP POPULATIONS -----
          (OFF-DIAGONAL ELEMENTS NEED TO BE MULTIPLIED BY 2)

             1           2           3           4

    1    6.0181052
    2    0.2912915   0.4621582
    3    0.3129987  -0.0051805   0.3788366
    4    0.2823615  -0.0096549  -0.0059564   0.4091803

          TOTAL MULLIKEN AND LOWDIN ATOMIC POPULATIONS
       ATOM         MULL.POP.    CHARGE          LOW.POP.     CHARGE
    1 N             6.904757    0.095243         6.821452    0.178548
    2 H             0.738614    0.261386         0.750639    0.249361
    3 H             0.680698    0.319302         0.722783    0.277217
    4 H             0.675930    0.324070         0.705127    0.294873

          MULLIKEN SPHERICAL HARMONIC POPULATIONS
       ATOM           S       P       D      F      G      H      I    TOTAL
    1 N             3.49    3.40    0.02   0.00   0.00   0.00   0.00    6.90
    2 H             0.68    0.06    0.00   0.00   0.00   0.00   0.00    0.74
    3 H             0.62    0.06    0.00   0.00   0.00   0.00   0.00    0.68
    4 H             0.62    0.06    0.00   0.00   0.00   0.00   0.00    0.68

          ---------------------
          ELECTROSTATIC MOMENTS
          ---------------------

 POINT   1           X           Y           Z (BOHR)    CHARGE
                -0.000000    0.000003   -0.177185        1.00 (A.U.)
         DX          DY          DZ         /D/  (DEBYE)
     0.008463    0.563742    2.154500    2.227049
 ...... END OF PROPERTY EVALUATION ......
 CPU     0: STEP CPU TIME=     0.00 TOTAL CPU TIME=         11.3 (      0.2 MIN)
 TOTAL WALL CLOCK TIME=         11.4 SECONDS, CPU UTILIZATION IS    99.91%

     -------------------------------------------------
     GMC-PT/GMC-QDPT or general MCSCF input parameters
     -------------------------------------------------
 # of frozen core orbs. =         0 ->         0
 # of doubly occ. orbs. =         1
 # of active      orbs. =         7
 # of virtual     orbs. =        21
 # of active electrons  =         7
 # of states in CI      =         3
 Highest state in CI    =         3
 kstate =  1 1 1
 avecoe =  0.333 0.333 0.333
 State symmetry           = A           
 Assigned symmetry number = 1

 <<<Act. MO sym.: 1111111

 <<<Division of 1-ext.:  0
 <<<Division of 2-ext.:  0

     ------------------------
     Orbital canonicalization
     ------------------------

 MOs are canonicalized for core, virtual, and invariant-active orbital spaces.
 This is a part of the GMC-QDPT calculation.
 SCHWARZ INEQUALITY OVERHEAD:       465 INTEGRALS, T=        0.00
 DIRECT TRANSFORMATION SKIPS AO INTEGRAL STORAGE ON DISK.

 Averaged energy =     -55.738095557

 State #    1  Energy =     -55.877062469  S =  0.500
 State #    2  Energy =     -55.740020374  S =  0.500
 State #    3  Energy =     -55.597203827  S =  0.500

 Orbital energies for filled orbital space
  -15.985123
 Orbital energies for active orbital space
   -1.517459  -0.844561  -0.993078  -0.745135   0.345566
    0.415900   0.224669
 Orbital energies for external orbital space
    0.142900   0.199682   0.222507   0.535595   0.584019
    0.646646   0.805879   0.984746   1.047368   1.265644
    1.389749   1.477159   1.618483   1.874616   1.911159
    1.957203   2.092937   2.303432   2.607704   2.660522
    3.000716

 Zero values mean non-canonical orbitals.
 ... done with orbital canonicalization ...
 CPU     0: STEP CPU TIME=     0.68 TOTAL CPU TIME=         12.0 (      0.2 MIN)
 TOTAL WALL CLOCK TIME=         12.0 SECONDS, CPU UTILIZATION IS    99.92%

     --------------------------------------------
     PARTIAL TWO ELECTRON INTEGRAL TRANSFORMATION
     --------------------------------------------

 NUMBER OF CORE MOLECULAR ORBITALS     =    0
 NUMBER OF OCCUPIED MOLECULAR ORBITALS =    8
 TOTAL NUMBER OF MOLECULAR ORBITALS    =   29
 TOTAL NUMBER OF ATOMIC ORBITALS       =   30
 THRESHOLD FOR KEEPING TRANSFORMED 2E- INTEGRALS = 1.000E-09
 AO INTEGRALS WILL BE CALCULATED IN DIRECT MODE...
 DIRECT TRANSFORMATION SKIPS AO INTEGRAL STORAGE ON DISK.
 SCHWARZ INEQUALITY OVERHEAD:       465 INTEGRALS, T=        0.00

 PLAN A: REQUIREMENTS FOR FULLY IN-MEMORY TRANSFORMATION:
 # OF WORDS AVAILABLE =            100000000
 # OF WORDS NEEDED    =               221798

 PARALLEL ONLY WORKS WITH THE SEGMENTED ALGORITHM.
 ADJUSTING MEMORY TO USE SEGMENTED ALGORITHM.


 PLAN B: REQUIREMENTS FOR THE SEGMENTED TRANSFORMATION:
       MINIMUM=         124148 WORDS FOR 1 MOLECULAR ORBITAL PER PASS
       MAXIMUM=         221798 WORDS FOR ALL MOLECULAR ORBITALS IN 1 PASS
              (          13950 EXTRA WORDS INCLUDES 1 EXTRA ORBITAL/PASS)
 THIS RUN USES=         221798 WORDS,
 DISTRIBUTING   1 PASSES EACH CONTAINING     8 ORBITALS OVER   1 PROCESSORS.

 CHOOSING SEGMENTED PARTIAL TRANSFORMATION...
 DIRECT TRANSFORMATION SKIPS AO INTEGRAL STORAGE ON DISK.
 PASS #   1 TOOK        0.04 SECONDS.
 TOTAL NUMBER OF TRANSFORMED 2E- INTEGRALS KEPT =        29226
 ... END OF INTEGRAL TRANSFORMATION ...
 CPU     0: STEP CPU TIME=     0.04 TOTAL CPU TIME=         12.1 (      0.2 MIN)
 TOTAL WALL CLOCK TIME=         12.1 SECONDS, CPU UTILIZATION IS    99.92%

     --------     ------------------------------------------
     GMC-QDPT     Program written by H.Nakano (Kyushu Univ.)
     --------     ------------------------------------------

 *** Reference space

 Reference type: ORMAS (= Occupation restricted multiple active space)
 # of orbitals          =  7
 # of minimum electrons =  7
 # of maximum electrons =  7
 State symmetry    =    1 (input)
 2*Sz              =    1 (input)
 Spin multiplicity =    2 (input)
 Dimension of reference space =      1225  (from      3432 walks)

 Dimension of reference space =      1225  (from      1225 walks)

 <<<Ionized spaces for Ref-CI:
      0:         1225 /   -1-0:         1960 /  0-1-0:         2891

 ***                    ***
 *** Reference space CI ***
 ***                    ***

 Converged after   41 iterations

 Reference wavefunctions:

 State #    1  Energy =     -55.877062469  S =  0.500

      Det      Coef    Occupancy (Ignoring core)
      ---      ----    --------- --------- -----
        1   -0.976428  11110001110000
       71    0.054434  11110001011000
      357   -0.059543  11010101100010
      753   -0.069145  10110011010001

 State #    2  Energy =     -55.740020374  S =  0.500

      Det      Coef    Occupancy (Ignoring core)
      ---      ----    --------- --------- -----
        1    0.057166  11110001110000
       71    0.981479  11110001011000
      462   -0.059799  11010101001010

 State #    3  Energy =     -55.597203827  S =  0.500

      Det      Coef    Occupancy (Ignoring core)
      ---      ----    --------- --------- -----
       36   -0.979020  11110001101000
      823   -0.069801  10110011001001

 Davidson method: CPU/Wall time =           0.51 /           0.51 sec.

 Oscillator strength (invalid if E(1)/=E(GS)):
 -----------------------------------------
   State                        f
 -----------------------------------------
     2     F(REF-CI)=        0.0010237748
     3     F(REF-CI)=        0.0024838827
 -----------------------------------------

 Dipole moment matrix elements, x, y, z, in A.U.

 Dimension of ionized spaces for PT:
 (N-2) space:         1715 /  (N-1) space:         2842 /  N space:         2891
 (N+1) space:         2842 /  (N+2) space:         1715

 <<<Ionized spaces for internal:
         0:         1225 /      -1-0:         1960 /     0-1-0:         2891
  -1-0-1-0:         2842 / 0-1-0-1-0:         3381

 Diagonal elements of averaged one-particle density matrix:
       2       3       4       5       6       7       8
  0.9936  0.9860  0.9883  0.9924  0.0121  0.0109  0.0165
  0.9890  0.6574  0.6616  0.6630  0.0096  0.0078  0.0117

 Orbital energies:
 -------- Doubly-occupied orbitals (highest several orbs.) -------
             1
 -1.598512D+01
 -------- Active orbitals ----------------------------------------
             2            3            4            5            6
 -1.517459D+00-8.445608D-01-9.930783D-01-7.451353D-01 3.455659D-01
             7            8
  4.158996D-01 2.246694D-01
 -------- External orbitals (lowest several orbs.) ---------------
             9           10           11           12           13
  1.429003D-01 1.996820D-01 2.225074D-01 5.355947D-01 5.840191D-01
            14           15           16           17           18
  6.466458D-01 8.058792D-01 9.847459D-01 1.047368D+00 1.265644D+00

 *** Quasi-degeneracy checking

 === Det (|Ci| > 1.0D-01 and dE < 5.0D-03)

 # of small denominators (single excitations)
 State       dEmin  dE < 5.0D-03  dE < 5.0D-04  dE < 5.0D-05  dE < 5.0D-06
 ----- ----------- ------------- ------------- ------------- -------------
     1    5.00D-03             0             0             0             0
     2    5.00D-03             0             0             0             0
     3    5.00D-03             0             0             0             0

 # of small denominators (double excitations)
 State       dEmin  dE < 5.0D-03  dE < 5.0D-04  dE < 5.0D-05  dE < 5.0D-06
 ----- ----------- ------------- ------------- ------------- -------------
     1    5.00D-03             0             0             0             0
     2    5.00D-03             0             0             0             0
     3    5.00D-03             0             0             0             0

 *** Zeroth-Order Setup (Granovsky's zeroth-order vectors)
 Zeroth-order effective Hamiltonian
  (= Sum_i e(i)*<I|a+(i)a(i)|J> ):
                   1            2            3
     1 -7.351202D+00
     2  9.815524D-03-7.273937D+00
     3 -1.899261D-03-2.905828D-03-7.115597D+00

 Zeroth-order vectors:
 State #    1
       MC st            1           2           3
       Coeff    9.923D-01  -1.238D-01   6.438D-03
 State #    2
       MC st            2           1           3
       Coeff   -9.921D-01  -1.237D-01  -1.984D-02
 State #    3
       MC st            3           2           1
       Coeff    9.998D-01  -1.889D-02  -8.844D-03

 *** GMC-QDPT computation

 (Integral reading:  CPU/Wall time =           0.00 /           0.00 sec.)

 One-external:
   0 -ionized terms: CPU/Wall time =           0.03 /           0.03 sec.
 (-1)-ionized terms: CPU/Wall time =           0.09 /           0.09 sec.
 (+1)-ionized terms: CPU/Wall time =           0.02 /           0.03 sec.
 (+1)-ionized terms: CPU/Wall time =           0.01 /           0.00 sec.
 (+2)-ionized terms: CPU/Wall time =           0.00 /           0.00 sec.

 Internal:
 # of macro loops for internal contribution =         1 (input)
 Loop:    1
 Dimension of internal CISD space     =         0  (after screening)
 Space construction: CPU/Wall time =           0.02 /           0.02 sec.
 Internal terms:     CPU/Wall time =           0.00 /           0.00 sec.

 Two-external:
   0 -ionized terms: CPU/Wall time =           0.06 /           0.06 sec.
 (-1)-ionized terms: CPU/Wall time =           0.99 /           1.00 sec.
 (-2)-ionized terms: CPU/Wall time =           0.17 /           0.16 sec.

 Total time:         CPU/Wall time =           1.39 /           1.39 sec.

 ***                  ***
 *** GMC-QDPT Results ***
 ***                  ***

 Diagonal elements of effective Hamiltonian:
 Heff(  1) =   -55.97341797
 Heff(  2) =   -55.85007675
 Heff(  3) =   -55.70846889

 Off-diagonal elements of effective Hamiltonian:
                   1            2
     2  1.494014D-02
     3  1.693292D-03-2.770218D-03

 ******** GMC-QDPT energies ********
 ----------------------------------------------------------------------------
   State                        1st order                           2nd order
 ----------------------------------------------------------------------------
     1     E(REF-CI)=      -55.8770624694   E(GMC-QDPT2)=      -55.9752169908
     2     E(REF-CI)=      -55.7400203743   E(GMC-QDPT2)=      -55.8483393464
     3     E(REF-CI)=      -55.5972038270   E(GMC-QDPT2)=      -55.7084072702
 ----------------------------------------------------------------------------

 Excitation energies (invalid if E(1)/=E(GS)):
 ----------------------------------------------------------------------------
   State                        1st order                           2nd order
 ----------------------------------------------------------------------------

     TZ Sorted GMC-PT ENERGIES:
         1      -55.9752169908
         2      -55.8483393464
         3      -55.7084072702
     2     E(REF-CI)=        3.7291073 eV   E(GMC-QDPT2)=        3.4525183 eV
     3     E(REF-CI)=        7.6153455 eV   E(GMC-QDPT2)=        7.2602660 eV
 ----------------------------------------------------------------------------

 Main characters of perturbed GMC-QDPT states:

 State #    1  Energy =     -55.975216991  S =  0.500

      Det      Coef    Occupancy (Ignoring core)
      ---      ----    --------- --------- -----
        1   -0.976705  11110001110000
      357   -0.059536  11010101100010
      753   -0.069069  10110011010001

 State #    2  Energy =     -55.848339346  S =  0.500

      Det      Coef    Occupancy (Ignoring core)
      ---      ----    --------- --------- -----
        1    0.052246  11110001110000
       71    0.981750  11110001011000
      462   -0.059810  11010101001010

 State #    3  Energy =     -55.708407270  S =  0.500

      Det      Coef    Occupancy (Ignoring core)
      ---      ----    --------- --------- -----
       36   -0.979029  11110001101000
      823   -0.069808  10110011001001

 <<<Max |V/de| = 2.419D-02  Thresh = 1.000D+00

 Oscillator strength (invalid if E(1)/=E(GS)):
 ----------------------------------------------------------------------------
   State                        1st order                           2nd order
 ----------------------------------------------------------------------------
     2     F(REF-CI)=        0.0010237748     F(GMC-PT2)=        0.0009887926
     3     F(REF-CI)=        0.0024838827     F(GMC-PT2)=        0.0024181298
 ----------------------------------------------------------------------------

 Dipole moment matrix elements, x, y, z, in A.U.
States    1    1        0.0158113139        0.2564017697        0.7308777842
States    1    2       -0.0139663735        0.0332063615        0.1019421070
States    1    3        0.0724690775        0.0708262531       -0.0576763529
States    2    1       -0.0139663735        0.0332063615        0.1019421070
States    2    2       -0.1279962599        0.1208438819        0.2797098670
States    2    3       -0.1945872747       -0.0068795114        0.0018127844
States    3    1        0.0724690775        0.0708262531       -0.0576763529
States    3    2       -0.1945872747       -0.0068795114        0.0018127844
States    3    3        0.1022212705        0.5280277634        0.2586431783

 Oscillator strength (valid only when positive): 
 ----------------------------------------------------------------------------
  States                        1st order                           2nd order
 ----------------------------------------------------------------------------
  1  1     F(REF-CI)=        0.0000000000     F(GMC-PT2)=        0.0000000000
  1  2     F(REF-CI)=       -0.0010237748     F(GMC-PT2)=       -0.0009887926
  1  3     F(REF-CI)=       -0.0024838827     F(GMC-PT2)=       -0.0024181298
  2  1     F(REF-CI)=        0.0010237748     F(GMC-PT2)=        0.0009887926
  2  2     F(REF-CI)=        0.0000000000     F(GMC-PT2)=        0.0000000000
  2  3     F(REF-CI)=       -0.0036310045     F(GMC-PT2)=       -0.0035369998
  3  1     F(REF-CI)=        0.0024838827     F(GMC-PT2)=        0.0024181298
  3  2     F(REF-CI)=        0.0036310045     F(GMC-PT2)=        0.0035369998
  3  3     F(REF-CI)=        0.0000000000     F(GMC-PT2)=        0.0000000000
 CPU     0: STEP CPU TIME=     1.97 TOTAL CPU TIME=         14.0 (      0.2 MIN)
 TOTAL WALL CLOCK TIME=         14.0 SECONDS, CPU UTILIZATION IS    99.93%

     !!! DIABATIZATION FOR REF CI STATES !!!

 *******************************************************
          $DMO GROUP FOUND IN THE INPUT.
        DIABATIZATION OF ADIABATIC STATES BEGINS.
     PROGRAMMED BY TAO ZENG (CARLETON UNIVERSITY).
               Email: toby.zeng@carleton.ca
     See T. Zeng, J. Chem. Phys. 2017, 146, 144103
 *******************************************************

 *************************************************************************
     STEP 1: TRANSFORMATION OF ADIABATIC STATES TO THE DMO REPRESENTATION
         See Atchity and Ruedenberg, J. Chem. Phys. 1999, 111, 2910
 *************************************************************************

Read in Diabatic Molecualr Orbitals:

                      1          2          3          4          5

    1  N  1  S    0.008609   0.000000   0.000000  -0.013219   0.279491
    2  N  1  S    0.442914  -0.000000   0.000000  -0.184329   0.867803
    3  N  1  S    0.276913   0.000000  -0.000000  -0.288315   0.144236
    4  N  1  X   -0.000000   0.493155  -0.024636  -0.000000  -0.000000
    5  N  1  Y    0.000000   0.024636   0.493155  -0.000000   0.000000
    6  N  1  Z    0.090197   0.000000   0.000000   0.593421   0.705309
    7  N  1  X   -0.000000   0.210628  -0.010522   0.000000   0.000000
    8  N  1  Y    0.000000   0.010522   0.210628  -0.000000  -0.000000
    9  N  1  Z   -0.004381   0.000000   0.000000   0.381592  -0.106092
   10  N  1 XX   -0.000457   0.010719  -0.000535  -0.012387   0.006153
   11  N  1 YY   -0.000457  -0.010719   0.000535  -0.012387   0.006153
   12  N  1 ZZ    0.000914  -0.000000   0.000000   0.024773  -0.012306
   13  N  1 XY    0.000000  -0.000618  -0.012377  -0.000000   0.000000
   14  N  1 XZ   -0.000000   0.026529  -0.001325  -0.000000   0.000000
   15  N  1 YZ    0.000000   0.001325   0.026529  -0.000000   0.000000
   16  H  2  S    0.194462  -0.176074   0.343485   0.112865  -0.523343
   17  H  2  S    0.003574  -0.023812   0.046452   0.024014  -0.054445
   18  H  2  X    0.018760   0.009101   0.022834   0.009336  -0.039151
   19  H  2  Y   -0.032493   0.022287  -0.020044  -0.016171   0.067811
   20  H  2  Z   -0.009251   0.008464  -0.016511   0.018769  -0.010566
   21  H  3  S    0.194462  -0.209430  -0.324227   0.112865  -0.523343
   22  H  3  S    0.003574  -0.028322  -0.043847   0.024014  -0.054445
   23  H  3  X    0.018760   0.006781  -0.023627   0.009336  -0.039151
   24  H  3  Y    0.032493  -0.024174  -0.017723   0.016171  -0.067811
   25  H  3  Z   -0.009251   0.010067   0.015585   0.018769  -0.010566
   26  H  4  S    0.194462   0.385503  -0.019258   0.112865  -0.523343
   27  H  4  S    0.003574   0.052134  -0.002604   0.024014  -0.054445
   28  H  4  X   -0.037519  -0.032295   0.001613  -0.018672   0.078302
   29  H  4  Y    0.000000   0.001067   0.021353  -0.000000   0.000000
   30  H  4  Z   -0.009251  -0.018530   0.000926   0.018769  -0.010566

                      6          7

    1  N  1  S    0.000000  -0.000000
    2  N  1  S    0.000000  -0.000000
    3  N  1  S   -0.000000   0.000000
    4  N  1  X   -0.930415  -0.002083
    5  N  1  Y   -0.002083   0.930415
    6  N  1  Z   -0.000000   0.000000
    7  N  1  X   -0.046866  -0.000105
    8  N  1  Y   -0.000105   0.046866
    9  N  1  Z   -0.000000   0.000000
   10  N  1 XX    0.001538   0.000003
   11  N  1 YY   -0.001538  -0.000003
   12  N  1 ZZ   -0.000000   0.000000
   13  N  1 XY   -0.000004   0.001776
   14  N  1 XZ    0.039985   0.000090
   15  N  1 YZ    0.000090  -0.039985
   16  H  2  S   -0.362630  -0.631354
   17  H  2  S   -0.065964  -0.114846
   18  H  2  X    0.002763  -0.037520
   19  H  2  Y    0.037435   0.040736
   20  H  2  Z    0.001882   0.003276
   21  H  3  S   -0.365454   0.629724
   22  H  3  S   -0.066477   0.114549
   23  H  3  X    0.002595   0.037532
   24  H  3  Y   -0.037617   0.040567
   25  H  3  Z    0.001896  -0.003268
   26  H  4  S    0.728084   0.001630
   27  H  4  S    0.132441   0.000297
   28  H  4  X   -0.062317  -0.000140
   29  H  4  Y    0.000055  -0.024345
   30  H  4  Z   -0.003778  -0.000008

NUMBER OF SUB ACTIVE SPACES:   1
ROTATE ACTIVE MOS TO DMOS IN EACH SUB-SPACE

SPACE  1:

OVERLAP BETWEEN ORTHONORMAL AND PRE-ORTHONORMAL REF. DMOS

             1           2           3           4           5

    1    0.9878000  -0.0052116   0.0225959  -0.0042616   0.0005493
    2   -0.0052116   0.9775923   0.0580490  -0.0011167  -0.0078646
    3    0.0225959   0.0580490   0.9805981   0.0325267  -0.0599693
    4   -0.0042616  -0.0011167   0.0325267   0.9969516  -0.0056797
    5    0.0005493  -0.0078646  -0.0599693  -0.0056797   1.0754785
    6   -0.0011351  -0.0128614   0.0459681   0.0039321  -0.0356621
    7    0.0031325  -0.0534310   0.0016692  -0.0382248   0.0057371

             6           7

    1   -0.0011351   0.0031325
    2   -0.0128614  -0.0534310
    3    0.0459681   0.0016692
    4    0.0039321  -0.0382248
    5   -0.0356621   0.0057371
    6    1.0253728   0.0192635
    7    0.0192635   1.0325641
REFERENCE DMOS AFTER ORTHONORMALIZATION:

                      1          2          3          4          5

    1  N  1  S    0.008180   0.001195   0.015717  -0.012361   0.260984
    2  N  1  S    0.446262   0.005759   0.043569  -0.180391   0.809177
    3  N  1  S    0.278815   0.000981   0.010976  -0.288098   0.133327
    4  N  1  X    0.001812   0.495457  -0.014134   0.005993  -0.027271
    5  N  1  Y   -0.014087   0.044409   0.501701   0.018564   0.022248
    6  N  1  Z    0.093142   0.006739   0.017006   0.599469   0.660483
    7  N  1  X    0.001563   0.216849  -0.021760   0.001580  -0.001086
    8  N  1  Y   -0.005127   0.000311   0.216172  -0.005243   0.011452
    9  N  1  Z   -0.002346   0.001500  -0.018560   0.383388  -0.097866
   10  N  1 XX   -0.000447   0.011053  -0.000516  -0.012370   0.005771
   11  N  1 YY   -0.000624  -0.011135   0.002050  -0.012509   0.005645
   12  N  1 ZZ    0.001070   0.000082  -0.001534   0.024878  -0.011417
   13  N  1 XY    0.000290   0.000223  -0.012728   0.000478  -0.000698
   14  N  1 XZ    0.000300   0.027998  -0.004799   0.000071   0.001246
   15  N  1 YZ   -0.000529  -0.002403   0.027475  -0.002385   0.001698
   16  H  2  S    0.189756  -0.241912   0.347158   0.077705  -0.477960
   17  H  2  S    0.002696  -0.034572   0.049029   0.018188  -0.049667
   18  H  2  X    0.018728   0.006010   0.020119   0.007223  -0.034975
   19  H  2  Y   -0.032496   0.026904  -0.018856  -0.013998   0.063229
   20  H  2  Z   -0.008808   0.009928  -0.018633   0.019510  -0.010633
   21  H  3  S    0.202429  -0.167869  -0.345744   0.147300  -0.522106
   22  H  3  S    0.004260  -0.021426  -0.044995   0.029812  -0.055964
   23  H  3  X    0.019642   0.010486  -0.028026   0.011588  -0.037976
   24  H  3  Y    0.033188  -0.022185  -0.020389   0.018310  -0.065782
   25  H  3  Z   -0.009555   0.009247   0.014381   0.018197  -0.008812
   26  H  4  S    0.203130   0.408687  -0.113797   0.113430  -0.466230
   27  H  4  S    0.004544   0.055740  -0.015754   0.023983  -0.046709
   28  H  4  X   -0.038628  -0.034299   0.012322  -0.018765   0.071210
   29  H  4  Y   -0.000446  -0.001517   0.022072  -0.001625   0.001323
   30  H  4  Z   -0.009414  -0.019206   0.001278   0.018678  -0.009936

                      6          7

    1  N  1  S    0.008482  -0.002054
    2  N  1  S    0.027688  -0.012817
    3  N  1  S    0.005802  -0.012327
    4  N  1  X   -0.902281   0.040844
    5  N  1  Y   -0.040261   0.903917
    6  N  1  Z    0.019756   0.018192
    7  N  1  X   -0.042278   0.012003
    8  N  1  Y   -0.010222   0.045003
    9  N  1  Z   -0.004306   0.014932
   10  N  1 XX    0.001908   0.000052
   11  N  1 YY   -0.001468  -0.001048
   12  N  1 ZZ   -0.000440   0.000996
   13  N  1 XY    0.000511   0.001763
   14  N  1 XZ    0.039591   0.000799
   15  N  1 YZ   -0.000375  -0.038982
   16  H  2  S   -0.377458  -0.612524
   17  H  2  S   -0.066674  -0.110907
   18  H  2  X    0.001315  -0.035677
   19  H  2  Y    0.039168   0.039372
   20  H  2  Z    0.002256   0.004483
   21  H  3  S   -0.373097   0.616437
   22  H  3  S   -0.067255   0.112557
   23  H  3  X    0.001871   0.037481
   24  H  3  Y   -0.039120   0.039845
   25  H  3  Z    0.000971  -0.001976
   26  H  4  S    0.703570   0.015958
   27  H  4  S    0.128822   0.001927
   28  H  4  X   -0.059218  -0.001798
   29  H  4  Y   -0.000457  -0.023749
   30  H  4  Z   -0.004408  -0.000147

 -------------------------------------------
       MAXIMIZING MORMO OVERLAP TERM        
 -------------------------------------------
   SWEEP    VALUE       PROGRESS
     0     4.55682
     1     6.90229     2.34547033
     2     6.97614     0.07385133
     3     6.97617     0.00002879
     4     6.97617     0.00000000
     5     6.97617     0.00000000
 THE ROTATION IS DONE
FLIPPING SIGN FOR ORBITAL   7
ACTIVE ORBITALS AFTER MORMO:

                      1          2          3          4          5

    1  N  1  S    0.007269  -0.000789   0.021903  -0.012268   0.231630
    2  N  1  S    0.434159  -0.006367   0.049003  -0.185942   0.772250
    3  N  1  S    0.310035   0.020351  -0.032006  -0.279776   0.174048
    4  N  1  X   -0.004183   0.477559   0.002066  -0.001197  -0.023256
    5  N  1  Y   -0.006175   0.056285   0.485278   0.030206   0.007145
    6  N  1  Z    0.086508   0.004824   0.032569   0.599136   0.650843
    7  N  1  X    0.009504   0.234227  -0.065370   0.004539  -0.004801
    8  N  1  Y   -0.015837  -0.039033   0.224835  -0.040971   0.040616
    9  N  1  Z    0.013831   0.003778  -0.052891   0.383519  -0.084793
   10  N  1 XX   -0.000841   0.008540  -0.006042  -0.009580   0.002965
   11  N  1 YY    0.000198  -0.008335   0.006589  -0.013749  -0.001656
   12  N  1 ZZ    0.000644  -0.000205  -0.000547   0.023329  -0.001309
   13  N  1 XY    0.004029   0.007075  -0.018766   0.000528  -0.042250
   14  N  1 XZ    0.001603   0.022930  -0.004240  -0.002295   0.003048
   15  N  1 YZ    0.001505  -0.002748   0.020977  -0.000221  -0.035859
   16  H  2  S    0.188840  -0.204881   0.341150   0.093241  -0.494227
   17  H  2  S    0.002985  -0.065809   0.071531   0.020351  -0.059044
   18  H  2  X    0.010301   0.013021   0.013382   0.008477  -0.035553
   19  H  2  Y   -0.031690   0.021378  -0.018162  -0.017036   0.055136
   20  H  2  Z   -0.013125   0.010085  -0.024214   0.017832  -0.009048
   21  H  3  S    0.187200  -0.194840  -0.334221   0.125507  -0.511182
   22  H  3  S    0.000865  -0.014434  -0.046959   0.031048  -0.059034
   23  H  3  X    0.023033  -0.003391  -0.031973   0.010236  -0.041536
   24  H  3  Y    0.028222  -0.027732  -0.014977   0.011654  -0.051737
   25  H  3  Z   -0.004635   0.008023   0.009778   0.020610  -0.012035
   26  H  4  S    0.189241   0.384868  -0.051344   0.108053  -0.456893
   27  H  4  S    0.003966   0.082123  -0.038762   0.029398  -0.055533
   28  H  4  X   -0.031026  -0.031710  -0.003958  -0.015287   0.060669
   29  H  4  Y   -0.012478  -0.018553   0.019446  -0.004872   0.008530
   30  H  4  Z   -0.007700  -0.017382  -0.004709   0.018721  -0.017147

                      6          7

    1  N  1  S    0.019957  -0.046295
    2  N  1  S    0.039123  -0.105346
    3  N  1  S   -0.008913   0.112090
    4  N  1  X   -0.906565   0.030358
    5  N  1  Y   -0.032016   0.889469
    6  N  1  Z    0.028545   0.051643
    7  N  1  X   -0.042157   0.038000
    8  N  1  Y   -0.033058   0.071598
    9  N  1  Z   -0.019248  -0.004388
   10  N  1 XX   -0.004514   0.039132
   11  N  1 YY    0.001397  -0.029859
   12  N  1 ZZ    0.003117  -0.009273
   13  N  1 XY    0.036583   0.012183
   14  N  1 XZ    0.039339  -0.019374
   15  N  1 YZ    0.014379  -0.039003
   16  H  2  S   -0.339428  -0.608954
   17  H  2  S   -0.102495  -0.138538
   18  H  2  X    0.021898  -0.039162
   19  H  2  Y    0.036927   0.027405
   20  H  2  Z    0.014950   0.005055
   21  H  3  S   -0.379569   0.600467
   22  H  3  S   -0.071378   0.116648
   23  H  3  X   -0.018214   0.039645
   24  H  3  Y   -0.037710   0.037607
   25  H  3  Z   -0.014724   0.004753
   26  H  4  S    0.679884  -0.028677
   27  H  4  S    0.168746   0.009386
   28  H  4  X   -0.055578   0.014060
   29  H  4  Y   -0.019950  -0.027999
   30  H  4  Z    0.000474  -0.019459

Actually Used Diabatic Molecualr Orbitals:

                      1          2          3          4          5

    1  N  1  S    0.007269  -0.000789   0.021903  -0.012268   0.231630
    2  N  1  S    0.434159  -0.006367   0.049003  -0.185942   0.772250
    3  N  1  S    0.310035   0.020351  -0.032006  -0.279776   0.174048
    4  N  1  X   -0.004183   0.477559   0.002066  -0.001197  -0.023256
    5  N  1  Y   -0.006175   0.056285   0.485278   0.030206   0.007145
    6  N  1  Z    0.086508   0.004824   0.032569   0.599136   0.650843
    7  N  1  X    0.009504   0.234227  -0.065370   0.004539  -0.004801
    8  N  1  Y   -0.015837  -0.039033   0.224835  -0.040971   0.040616
    9  N  1  Z    0.013831   0.003778  -0.052891   0.383519  -0.084793
   10  N  1 XX   -0.000841   0.008540  -0.006042  -0.009580   0.002965
   11  N  1 YY    0.000198  -0.008335   0.006589  -0.013749  -0.001656
   12  N  1 ZZ    0.000644  -0.000205  -0.000547   0.023329  -0.001309
   13  N  1 XY    0.004029   0.007075  -0.018766   0.000528  -0.042250
   14  N  1 XZ    0.001603   0.022930  -0.004240  -0.002295   0.003048
   15  N  1 YZ    0.001505  -0.002748   0.020977  -0.000221  -0.035859
   16  H  2  S    0.188840  -0.204881   0.341150   0.093241  -0.494227
   17  H  2  S    0.002985  -0.065809   0.071531   0.020351  -0.059044
[...]
      320    0.024076    0.024076  0+22200
      809   -0.024016    0.024016  20+2+0-
      812    0.023986   -0.023986  2+020+-
       76    0.023626    0.023626  2+2-0+0
       87   -0.023430    0.023430  2+-200+
       51   -0.021515    0.021515  22+-00+
      822    0.021374   -0.021374  2+02002
       17    0.020789    0.020789  22-+00+
      177    0.020787   -0.020787  2+20200
      193    0.020346   -0.020346  202+-0+
      841    0.020090   -0.020090  +2+200-
       54    0.020027   -0.020027  -2+200+

 State #    3  Energy =     -55.772514665

      Det      Coef        Coefp    Occupancy (Ignoring core)
      ---      ----        ----    --------- --------- -----
       36   -0.754325   -0.754325  22+2000
       71    0.579693   -0.579693  2+22000
        1    0.238291   -0.238291  222+000
      823    0.058349   -0.058349  20+2002
      462   -0.043363    0.043363  2+02020
      123   -0.043002    0.043002  +-2200+
       74    0.028927   -0.028927  2022+00
      473    0.026941    0.026941  20+20-+
      107   -0.026848    0.026848  +22-+00
      822   -0.025448    0.025448  2+02002
      285    0.025197   -0.025197  02+2200
       52   -0.024712    0.024712  220200+
      111    0.024122   -0.024122  +22-0+0
      808   -0.022445    0.022445  2+02+0-
      249    0.022335   -0.022335  20+2200
       89    0.022106    0.022106  -+2200+
       16    0.021958   -0.021958  222000+
       41   -0.021954    0.021954  22+-0+0
      876    0.020896    0.020896  ++2200-
      716    0.020731    0.020731  22+0002
      142    0.020476    0.020476  22+0200
      158    0.020310    0.020310  2-++-0+
      824    0.020065    0.020065  -++2002
      320   -0.020042   -0.020042  0+22200

 ---------------------------------------
    -DIABATIC STATES IN PROTOTYPES-     
 ---------------------------------------

     STATE:    1
 Group Ref#    Coefficients
     1    1    0.976095
     2    2   -0.002577
     3    3    0.001257

WEIGHT OF LISTED PROTOTYPES:   95.28%

     STATE:    2
 Group Ref#    Coefficients
     1    1   -0.002577
     2    2    0.974333
     3    3   -0.002249

WEIGHT OF LISTED PROTOTYPES:   94.93%

     STATE:    3
 Group Ref#    Coefficients
     1    1    0.001257
     2    2   -0.002249
     3    3    0.974783

WEIGHT OF LISTED PROTOTYPES:   95.02%

 --------------------------------------------------
 IN DIRECT MAX. DIABATIZATION FOR GMC-QDPT

 DIRECT MAXIMIZATION (DM) WITHOUT TRUNCATING ADIABATS
 EXPANSIONS INTO THE REFERENCE CONFIGURATION SPACE
 --------------------------------------------------

 -------------------------------------------
 - DM DIABT PT HAMILTONIAN MATRIX ELEMENTS -
 -------------------------------------------
                                            
 --- DIABATIC ENERGIES (DIAGONAL ELEMENT) ---       HARTREE            EV
 STATE #  1'S GMC-PT-LEVEL DIABATIC ENERGY=     -55.966946130       0.000000000
 STATE #  2'S GMC-PT-LEVEL DIABATIC ENERGY=     -55.792502821       4.746844201
 STATE #  3'S GMC-PT-LEVEL DIABATIC ENERGY=     -55.772514657       5.290749865

 --- DIABATIC COUPLINGS (OFF DIAGONAL ELEMENTS)---  HATREE            EV
 STATE #  1 &  2'S GMC-PT-LEVEL COUPLING  =       0.000175535       0.004776552
 STATE #  1 &  3'S GMC-PT-LEVEL COUPLING  =      -0.038058927      -1.035636144
 STATE #  2 &  3'S GMC-PT-LEVEL COUPLING  =       0.070168465       1.909381189

 ---------------------------------------
     - ROTATION TO DIABATIC STATES -    
 ---------------------------------------
 ROWS=ADIABATIC, COLUMNS=DIABATIC STATES

             1           2           3

    1    0.9739729  -0.0820754   0.2112826
    2    0.1971145   0.7668962  -0.6107504
    3   -0.1119042   0.6365013   0.7631144

 ---------------------------------------
          - DIABATIC STATES -           
 ---------------------------------------

 State #    1  Energy =     -55.966946130

      Det      Coef        Coefp    Occupancy (Ignoring core)
      ---      ----        ----    --------- --------- -----
        1    0.957348   -0.957348  222+000
        3   -0.088361   -0.088361  22-++00
      141    0.085610    0.085610  22++-00
      393   -0.072955   -0.072955  202+020
      717   -0.072135   -0.072135  220+002
        8   -0.071077    0.071077  2-2+0+0
       18   -0.064390    0.064390  2-2+00+
      736    0.062631   -0.062631  2+2+00-
       17    0.061461    0.061461  22-+00+
       16   -0.059074    0.059074  222000+
        7    0.058505    0.058505  22-+0+0
      351   -0.053963   -0.053963  22++0-0
      386    0.041587   -0.041587  2+2+0-0
      708    0.037883   -0.037883  2-++0+-
      402    0.037754   -0.037754  2+-+0-+
      215   -0.036274   -0.036274  022+200
      218    0.034261   -0.034261  +-2+-+0
      390    0.033990   -0.033990  -+2++-0
      701   -0.033854   -0.033854  22++00-
      705   -0.032991   -0.032991  -2+++0-
      227   -0.032958   -0.032958  +2-+-0+
       76    0.029490    0.029490  2+2-0+0
      212    0.029135    0.029135  +220200
       51   -0.027608    0.027608  22+-00+
      179   -0.026555   -0.026555  202+200
      122    0.025961    0.025961  +2-200+
      113   -0.025681    0.025681  +-220+0
      773    0.024217   -0.024217  +2-++0-
      387   -0.023303    0.023303  2+20+-0
      424   -0.023040   -0.023040  +-2++-0
      702    0.022990    0.022990  22+0+0-
        2    0.022936   -0.022936  2220+00
      159    0.022722   -0.022722  -2++-0+
      184   -0.022633   -0.022633  -+2+-+0
     1051   -0.022231   -0.022231  2+++0--

 State #    2  Energy =     -55.792502821

      Det      Coef        Coefp    Occupancy (Ignoring core)
      ---      ----        ----    --------- --------- -----
       71   -0.960109    0.960109  2+22000
      246    0.098305    0.098305  2++2-00
       73   -0.090120    0.090120  2+-2+00
      822    0.072774   -0.072774  2+02002
      736    0.070890   -0.070890  2+2+00-
       86   -0.066806   -0.066806  2+2-00+
       77    0.062660   -0.062660  2+-20+0
      456   -0.058956   -0.058956  2++20-0
       88    0.057635   -0.057635  202200+
       36    0.045937    0.045937  22+2000
      813    0.042111   -0.042111  20+20+-
      111    0.037696   -0.037696  +22-0+0
      320    0.036409    0.036409  0+22200
      810   -0.034104   -0.034104  -++2+0-
      323   -0.033793    0.033793  +022-+0
      332   -0.032802    0.032802  ++-2-0+
      180   -0.030082    0.030082  -+2+200
      317    0.030020   -0.030020  ++2-200
       38   -0.029688    0.029688  2202+00
       99   -0.029433    0.029433  20-20++
      177    0.029090   -0.029090  2+20200
       74    0.027972   -0.027972  2022+00
      183   -0.026787    0.026787  202+-+0
        6    0.025276   -0.025276  22200+0
      807   -0.025150    0.025150  2++-+0-
      192   -0.025014    0.025014  2+-+-0+
      806   -0.024949   -0.024949  2++200-
      391    0.024491   -0.024491  2+20020
      113    0.024366   -0.024366  +-220+0
      878    0.023935    0.023935  ++-2+0-
      264    0.023244   -0.023244  -++2-0+
       51    0.022340   -0.022340  22+-00+
      122    0.022234    0.022234  +2-200+
      526   -0.020937   -0.020937  ++220-0
       90    0.020594    0.020594  2+--+0+
       87    0.020375   -0.020375  2+-200+

 State #    3  Energy =     -55.772514657

      Det      Coef        Coefp    Occupancy (Ignoring core)
      ---      ----        ----    --------- --------- -----
       36   -0.959968   -0.959968  22+2000
       38    0.091970   -0.091970  2202+00
       53    0.076957    0.076957  2-+200+
      463    0.073965   -0.073965  20+2020
      806   -0.072279   -0.072279  2++200-
       51   -0.072025    0.072025  22+-00+
      701    0.068997    0.068997  22++00-
      106    0.056382    0.056382  +222000
       42   -0.048823    0.048823  22020+0
       71   -0.046592    0.046592  2+22000
      472   -0.042962   -0.042962  2+020-+
      456   -0.038343   -0.038343  2++20-0
      285    0.036046   -0.036046  02+2200
      460   -0.035386   -0.035386  -++2+-0
      288   -0.035223   -0.035223  +-+2-+0
      121   -0.035196    0.035196  +22-00+
      297    0.033793   -0.033793  +202-0+
       43    0.032848    0.032848  2-+20+0
      123    0.031476   -0.031476  +-2200+
      282    0.030543    0.030543  +2+-200
      145   -0.030537   -0.030537  -2++200
       64    0.029484   -0.029484  2-020++
      142    0.028842    0.028842  22+0200
      249    0.028651   -0.028651  20+2200
      112   -0.027591   -0.027591  +2-20+0
       39   -0.027440   -0.027440  2-+2+00
       41   -0.026025    0.026025  22+-0+0
      457   -0.025899    0.025899  2++-+-0
      157    0.025872   -0.025872  220+-0+
       73    0.025631   -0.025631  2+-2+00
       16   -0.025304    0.025304  222000+
      148   -0.025116   -0.025116  2-++-+0
      494    0.023455   -0.023455  +-+2+-0
      254    0.022878   -0.022878  -++2-+0
       55   -0.021765   -0.021765  220-+0+
      843   -0.020748   -0.020748  +202+0-
      716    0.020708    0.020708  22+0002
      356    0.020044    0.020044  22+0020

 ---------------------------------------
      - DIABATIC STATES IN CMO -        
 ---------------------------------------

 State #    1  Energy =     -55.966946130

      Det      Coef        Coefp    Occupancy (Ignoring core)
      ---      ----        ----    --------- --------- -----
        1    0.940982   -0.940982  222+000
       71   -0.240347    0.240347  2+22000
       36    0.112022    0.112022  22+2000
      753   -0.070298   -0.070298  202+002
      357   -0.059242   -0.059242  220+020
        7   -0.038441   -0.038441  22-+0+0
      179   -0.038304   -0.038304  202+200
      742   -0.032250   -0.032250  2+-+0+-
      215   -0.030800   -0.030800  022+200
       18    0.030615   -0.030615  2-2+00+
      106   -0.029855   -0.029855  +222000
      717   -0.028739   -0.028739  220+002
        4   -0.027588    0.027588  2-2++00
      739    0.027169    0.027169  202++0-
      368   -0.026192   -0.026192  2-++0-+
       16    0.025199   -0.025199  222000+
      738    0.025033    0.025033  2+-++0-
      123    0.024799   -0.024799  +-2200+
      751    0.024581   -0.024581  2+20002
      754   -0.024481    0.024481  -+2+002
      740   -0.024072    0.024072  -+2++0-
       86   -0.023140   -0.023140  2+2-00+
      214   -0.023075   -0.023075  +-2+200
      788    0.022480    0.022480  +-2+002
       41    0.022427   -0.022427  22+-0+0
      193   -0.022336    0.022336  202+-0+
      112   -0.020806   -0.020806  +2-20+0
      158    0.020714    0.020714  2-++-0+
        3    0.020476    0.020476  22-++00

 State #    2  Energy =     -55.792502821

      Det      Coef        Coefp    Occupancy (Ignoring core)
      ---      ----        ----    --------- --------- -----
       71   -0.756721    0.756721  2+22000
       36   -0.614072   -0.614072  22+2000
        1   -0.120212    0.120212  222+000
      249    0.041138   -0.041138  20+2200
      122   -0.040117   -0.040117  +2-200+
      462    0.039296   -0.039296  2+02020
      263    0.039193    0.039193  20+2-0+
      823    0.037916   -0.037916  20+2002
      111    0.032993   -0.032993  +22-0+0
      248    0.028530   -0.028530  2+02200
      250   -0.026407   -0.026407  -++2200
      320    0.024076    0.024076  0+22200
      809   -0.024016    0.024016  20+2+0-
      812    0.023986   -0.023986  2+020+-
       76    0.023626    0.023626  2+2-0+0
       87   -0.023430    0.023430  2+-200+
       51   -0.021515    0.021515  22+-00+
      822    0.021374   -0.021374  2+02002
       17    0.020789    0.020789  22-+00+
      177    0.020787   -0.020787  2+20200
      193    0.020346   -0.020346  202+-0+
      841    0.020090   -0.020090  +2+200-
       54    0.020027   -0.020027  -2+200+

 State #    3  Energy =     -55.772514657

      Det      Coef        Coefp    Occupancy (Ignoring core)
      ---      ----        ----    --------- --------- -----
       36   -0.754325   -0.754325  22+2000
       71    0.579692   -0.579692  2+22000
        1    0.238291   -0.238291  222+000
      823    0.058349   -0.058349  20+2002
      462   -0.043363    0.043363  2+02020
      123   -0.043002    0.043002  +-2200+
       74    0.028927   -0.028927  2022+00
      473    0.026941    0.026941  20+20-+
      107   -0.026848    0.026848  +22-+00
      822   -0.025448    0.025448  2+02002
      285    0.025197   -0.025197  02+2200
       52   -0.024712    0.024712  220200+
      111    0.024122   -0.024122  +22-0+0
      808   -0.022445    0.022445  2+02+0-
      249    0.022335   -0.022335  20+2200
       89    0.022106    0.022106  -+2200+
       16    0.021958   -0.021958  222000+
       41   -0.021954    0.021954  22+-0+0
      876    0.020896    0.020896  ++2200-
      716    0.020731    0.020731  22+0002
      142    0.020476    0.020476  22+0200
      158    0.020310    0.020310  2-++-0+
      824    0.020065    0.020065  -++2002
      320   -0.020042   -0.020042  0+22200

 ---------------------------------------
    -DIABATIC STATES IN PROTOTYPES-     
 ---------------------------------------

     STATE:    1
 Group Ref#    Coefficients
     1    1    0.976095
     2    2   -0.002575
     3    3    0.001256

WEIGHT OF LISTED PROTOTYPES:   95.28%

     STATE:    2
 Group Ref#    Coefficients
     1    1   -0.002580
     2    2    0.974333
     3    3   -0.002250

WEIGHT OF LISTED PROTOTYPES:   94.93%

     STATE:    3
 Group Ref#    Coefficients
     1    1    0.001257
     2    2   -0.002249
     3    3    0.974783

WEIGHT OF LISTED PROTOTYPES:   95.02%

     DIRECT MAX. DIABATIZATION FINISHED    
 CPU     0: STEP CPU TIME=     0.24 TOTAL CPU TIME=         14.3 (      0.2 MIN)
 TOTAL WALL CLOCK TIME=         14.3 SECONDS, CPU UTILIZATION IS    99.86%

DIABATS FOR SPIN-ORBIT CALCULATION ARE READY

TRANSITION DIPOLES BETWEEN ADIABATS (in A.U.):

STATE PAIR      X         Y         Z
    1    1  0.015811  0.256402  0.730878
    2    1 -0.013966  0.033206  0.101942
    2    2 -0.127996  0.120844  0.279710
    3    1  0.072469  0.070826 -0.057676
    3    2 -0.194587 -0.006880  0.001813
    3    3  0.102221  0.528028  0.258643


TRANSITION DIPOLES BETWEEN DIABATS (in A.U.):

STATE PAIR      X         Y         Z
    1    1 -0.001269  0.252151  0.759070
    2    1 -0.000222  0.028712  0.003717
    2    2 -0.229540  0.268425  0.269177
    3    1  0.027240  0.024216 -0.002862
    3    2  0.073339  0.206210 -0.000216
    3    3  0.220846  0.384698  0.240984

TRANSITION DIPOLES BETWEEN DIRECT MAX. DIABATS (in A.U.):

STATE PAIR      X         Y         Z
    1    1 -0.001269  0.252151  0.759070
    2    1 -0.000222  0.028712  0.003716
    2    2 -0.229540  0.268425  0.269177
    3    1  0.027240  0.024216 -0.002861
    3    2  0.073338  0.206210 -0.000216
    3    3  0.220846  0.384698  0.240984
 No $TRANST Group Found.
 Quit without doing spin-orbit coupling
 ..... DONE WITH MP2 ENERGY .....
 CPU     0: STEP CPU TIME=     0.01 TOTAL CPU TIME=         14.3 (      0.2 MIN)
 TOTAL WALL CLOCK TIME=         14.3 SECONDS, CPU UTILIZATION IS    99.93%
            100000000  WORDS OF DYNAMIC MEMORY USED
 EXECUTION OF GAMESS TERMINATED NORMALLY Wed Nov 16 20:01:26 2022
 DDI: 715512 bytes (0.7 MB / 0 MWords) used by master data server.

 ----------------------------------------
 CPU timing information for all processes
 ========================================
 0: 13.983 + 0.308 = 14.291
 ----------------------------------------
Note: The following floating-point exceptions are signalling: IEEE_DENORMAL
 ddikick.x: exited gracefully.
unset echo
----- accounting info -----
Files used on the master node io002 were:
-rw-r--r-- 1 bsonghao nooijen   20694 Nov 16 20:01 /scratch/bsonghao/nh3_diabatization_2d_at_mode_7_8_dist0.5_0.0.F05
-rw-r--r-- 1 bsonghao nooijen  363520 Nov 16 20:01 /scratch/bsonghao/nh3_diabatization_2d_at_mode_7_8_dist0.5_0.0.F09
-rw-r--r-- 1 bsonghao nooijen 1995920 Nov 16 20:01 /scratch/bsonghao/nh3_diabatization_2d_at_mode_7_8_dist0.5_0.0.F10
-rw-r--r-- 1 bsonghao nooijen  131264 Nov 16 20:01 /scratch/bsonghao/nh3_diabatization_2d_at_mode_7_8_dist0.5_0.0.F13
-rw-r--r-- 1 bsonghao nooijen  180312 Nov 16 20:01 /scratch/bsonghao/nh3_diabatization_2d_at_mode_7_8_dist0.5_0.0.F15
-rw-r--r-- 1 bsonghao nooijen       0 Nov 16 20:01 /scratch/bsonghao/nh3_diabatization_2d_at_mode_7_8_dist0.5_0.0.F16
-rw-r--r-- 1 bsonghao nooijen    9808 Nov 16 20:01 /scratch/bsonghao/nh3_diabatization_2d_at_mode_7_8_dist0.5_0.0.F70
-rw-r--r-- 1 bsonghao nooijen    9808 Nov 16 20:01 /scratch/bsonghao/nh3_diabatization_2d_at_mode_7_8_dist0.5_0.0.F71
-rw-r--r-- 1 bsonghao nooijen   19608 Nov 16 20:01 /scratch/bsonghao/nh3_diabatization_2d_at_mode_7_8_dist0.5_0.0.F72
-rw-r--r-- 1 bsonghao nooijen   19608 Nov 16 20:01 /scratch/bsonghao/nh3_diabatization_2d_at_mode_7_8_dist0.5_0.0.F73
-rw-r--r-- 1 bsonghao nooijen 1920824 Nov 16 20:01 /scratch/bsonghao/nh3_diabatization_2d_at_mode_7_8_dist0.5_0.0.F74
-rw-r--r-- 1 bsonghao nooijen       0 Nov 16 20:01 /scratch/bsonghao/nh3_diabatization_2d_at_mode_7_8_dist0.5_0.0.F75
-rw-r--r-- 1 bsonghao nooijen   58848 Nov 16 20:01 /scratch/bsonghao/nh3_diabatization_2d_at_mode_7_8_dist0.5_0.0.F76
-rw-r--r-- 1 bsonghao nooijen       0 Nov 16 20:01 /scratch/bsonghao/nh3_diabatization_2d_at_mode_7_8_dist0.5_0.0.F77
-rw-r--r-- 1 bsonghao nooijen    1864 Nov 16 20:01 /scratch/bsonghao/nh3_diabatization_2d_at_mode_7_8_dist0.5_0.0.F78
-rw-r--r-- 1 bsonghao nooijen   39208 Nov 16 20:01 /scratch/bsonghao/nh3_diabatization_2d_at_mode_7_8_dist0.5_0.0.F79
-rw-r--r-- 1 bsonghao nooijen     104 Nov 16 20:01 /scratch/bsonghao/nh3_diabatization_2d_at_mode_7_8_dist0.5_0.0.F80
-rw-r--r-- 1 bsonghao nooijen   13472 Nov 16 20:01 /scratch/bsonghao/nh3_diabatization_2d_at_mode_7_8_dist0.5_0.0.F81
-rw-r--r-- 1 bsonghao nooijen      16 Nov 16 20:01 /scratch/bsonghao/nh3_diabatization_2d_at_mode_7_8_dist0.5_0.0.F82
-rw-r--r-- 1 bsonghao nooijen   19216 Nov 16 20:01 /scratch/bsonghao/nh3_diabatization_2d_at_mode_7_8_dist0.5_0.0.F83
-rw-r--r-- 1 bsonghao nooijen   29712 Nov 16 20:01 /scratch/bsonghao/nh3_diabatization_2d_at_mode_7_8_dist0.5_0.0.F84
-rw-r--r-- 1 bsonghao nooijen  401576 Nov 16 20:01 /scratch/bsonghao/nh3_diabatization_2d_at_mode_7_8_dist0.5_0.0.F85
-rw-r--r-- 1 bsonghao nooijen  903672 Nov 16 20:01 /scratch/bsonghao/nh3_diabatization_2d_at_mode_7_8_dist0.5_0.0.F86
-rw-r--r-- 1 bsonghao nooijen     656 Nov 16 20:01 /scratch/bsonghao/nh3_diabatization_2d_at_mode_7_8_dist0.5_0.0.F87
-rw-r--r-- 1 bsonghao nooijen   34576 Nov 16 20:01 /scratch/bsonghao/nh3_diabatization_2d_at_mode_7_8_dist0.5_0.0.F88
-rw-r--r-- 1 bsonghao nooijen     240 Nov 16 20:01 /scratch/bsonghao/nh3_diabatization_2d_at_mode_7_8_dist0.5_0.0.F89
-rw-r--r-- 1 bsonghao nooijen       0 Nov 16 20:01 /scratch/bsonghao/nh3_diabatization_2d_at_mode_7_8_dist0.5_0.0.F90
-rw-r--r-- 1 bsonghao nooijen   13760 Nov 16 20:01 /scratch/bsonghao/nh3_diabatization_2d_at_mode_7_8_dist0.5_0.0.F91
-rw-r--r-- 1 bsonghao nooijen   22776 Nov 16 20:01 /scratch/bsonghao/nh3_diabatization_2d_at_mode_7_8_dist0.5_0.0.F92
-rw-r--r-- 1 bsonghao nooijen   23168 Nov 16 20:01 /scratch/bsonghao/nh3_diabatization_2d_at_mode_7_8_dist0.5_0.0.F93
-rw-r--r-- 1 bsonghao nooijen   22776 Nov 16 20:01 /scratch/bsonghao/nh3_diabatization_2d_at_mode_7_8_dist0.5_0.0.F94
-rw-r--r-- 1 bsonghao nooijen   13760 Nov 16 20:01 /scratch/bsonghao/nh3_diabatization_2d_at_mode_7_8_dist0.5_0.0.F95
-rw-r--r-- 1 bsonghao nooijen   29440 Nov 16 20:01 /scratch/bsonghao/nh3_diabatization_2d_at_mode_7_8_dist0.5_0.0.F96
-rw-r--r-- 1 bsonghao nooijen    1184 Nov 16 20:01 /scratch/bsonghao/nh3_diabatization_2d_at_mode_7_8_dist0.5_0.0.F97
-rw-r--r-- 1 bsonghao nooijen    9808 Nov 16 20:01 /scratch/bsonghao/nh3_diabatization_2d_at_mode_7_8_dist0.5_0.0.F98
-rw-r--r-- 1 bsonghao nooijen   30264 Nov 16 20:01 /scratch/bsonghao/nh3_diabatization_2d_at_mode_7_8_dist0.5_0.0.F99
ls: No match.
ls: No match.
ls: No match.
Wed 16 Nov 2022 08:01:30 PM EST
0.267u 0.061s 0:17.66 1.8%	0+0k 48+224io 0pf+0w
