----- GAMESS execution script 'rungms' -----
This job is running on host io002
under operating system Linux at Wed 16 Nov 2022 07:22:23 PM EST
Available scratch disk space (Kbyte units) at beginning of the job is
Filesystem       1K-blocks       Used   Available Use% Mounted on
/dev/sdc1      15378471580 3278917120 11318349060  23% /scratch
GAMESS temporary binary files will be written to /scratch/bsonghao
GAMESS supplementary output files will be written to /home/bsonghao/.gamess_ascii_files/267638
Copying input file nh3_diabatization_2d_at_mode_7_8_dist0.0_-0.2.inp to your run's scratch directory...
cp nh3_diabatization_2d_at_mode_7_8_dist0.0_-0.2.inp /scratch/bsonghao/nh3_diabatization_2d_at_mode_7_8_dist0.0_-0.2.F05
unset echo
/home/bjb2chen/gamess/ddikick.x /home/bjb2chen/gamess/gamess.00.x nh3_diabatization_2d_at_mode_7_8_dist0.0_-0.2 -ddi 1 1 io002 -scr /scratch/bsonghao

 Distributed Data Interface kickoff program.
 Initiating 1 compute processes on 1 nodes to run the following command:
 /home/bjb2chen/gamess/gamess.00.x nh3_diabatization_2d_at_mode_7_8_dist0.0_-0.2 

          ******************************************************
          *         GAMESS VERSION = 02 AUG 2018 (R2)         *
          *             FROM IOWA STATE UNIVERSITY             *
          * M.W.SCHMIDT, K.K.BALDRIDGE, J.A.BOATZ, S.T.ELBERT, *
          *   M.S.GORDON, J.H.JENSEN, S.KOSEKI, N.MATSUNAGA,   *
          *          K.A.NGUYEN, S.J.SU, T.L.WINDUS,           *
          *       TOGETHER WITH M.DUPUIS, J.A.MONTGOMERY       *
          *         J.COMPUT.CHEM.  14, 1347-1363(1993)        *
          **************** 64 BIT LINUX VERSION ****************

  SINCE 1993, STUDENTS AND POSTDOCS WORKING AT IOWA STATE UNIVERSITY
  AND ALSO IN THEIR VARIOUS JOBS AFTER LEAVING ISU HAVE MADE IMPORTANT
  CONTRIBUTIONS TO THE CODE:
     IVANA ADAMOVIC, CHRISTINE AIKENS, YURI ALEXEEV, POOJA ARORA,
     ANDREY ASADCHEV, ROB BELL, PRADIPTA BANDYOPADHYAY, JONATHAN BENTZ,
     BRETT BODE, KURT BRORSEN, CALEB CARLIN, GALINA CHABAN, WEI CHEN,
     CHEOL HO CHOI, PAUL DAY, ALBERT DEFUSCO, NUWAN DESILVA, TIM DUDLEY,
     DMITRI FEDOROV, ALEX FINDLATER, GRAHAM FLETCHER, MARK FREITAG,
     KURT GLAESEMANN, ANASTASIA GUININA,
     DAN KEMP, GRANT MERRILL, NORIYUKI MINEZAWA, JONATHAN MULLIN,
     TAKESHI NAGATA, SEAN NEDD, HEATHER NETZLOFF, BOSILJKA NJEGIC, RYAN OLSON,
     MIKE PAK, BUU PHAM,
     SPENCER PRUITT, LUKE ROSKOP, JIM SHOEMAKER, LYUDMILA SLIPCHENKO,
     TONY SMITH, SAROM SOK LEANG, JIE SONG, TETSUYA TAKETSUGU, SIMON WEBB,
     PENG XU, SOOHAENG YOO, FEDERICO ZAHARIEV

  ADDITIONAL CODE HAS BEEN PROVIDED BY COLLABORATORS IN OTHER GROUPS:
     IOWA STATE UNIVERSITY:
          JOE IVANIC, AARON WEST, LAIMUTIS BYTAUTAS, KLAUS RUEDENBERG
     UNIVERSITY OF TOKYO: KIMIHIKO HIRAO, TAKAHITO NAKAJIMA,
          TAKAO TSUNEDA, MUNEAKI KAMIYA, SUSUMU YANAGISAWA,
          KIYOSHI YAGI, MAHITO CHIBA, SEIKEN TOKURA, NAOAKI KAWAKAMI
     UNIVERSITY OF AARHUS: FRANK JENSEN
     UNIVERSITY OF IOWA: VISVALDAS KAIRYS, HUI LI
     NATIONAL INST. OF STANDARDS AND TECHNOLOGY: WALT STEVENS, DAVID GARMER
     UNIVERSITY OF PISA: BENEDETTA MENNUCCI, JACOPO TOMASI
     UNIVERSITY OF MEMPHIS: HENRY KURTZ, PRAKASHAN KORAMBATH
     UNIVERSITY OF ALBERTA: TOBY ZENG, MARIUSZ KLOBUKOWSKI
     UNIVERSITY OF NEW ENGLAND: MARK SPACKMAN
     MIE UNIVERSITY: HIROAKI UMEDA
     NAT. INST. OF ADVANCED INDUSTRIAL SCIENCE AND TECHNOLOGY: KAZUO KITAURA
     MICHIGAN STATE UNIVERSITY:
          KAROL KOWALSKI, MARTA WLOCH, JEFFREY GOUR, JESSE LUTZ,
          WEI LI, JUN SHEN, J. EMILIANO DEUSTUA, PIOTR PIECUCH
     UNIVERSITY OF MINNESOTA:
          YINAN SHU
     UNIVERSITY OF SILESIA: MONIKA MUSIAL, STANISLAW KUCHARSKI
     FACULTES UNIVERSITAIRES NOTRE-DAME DE LA PAIX:
          OLIVIER QUINET, BENOIT CHAMPAGNE
     UNIVERSITY OF CALIFORNIA - SANTA BARBARA: BERNARD KIRTMAN
     INSTITUTE FOR MOLECULAR SCIENCE:
          KAZUYA ISHIMURA, MICHIO KATOUDA, AND SHIGERU NAGASE
     UNIVERSITY OF NOTRE DAME: ANNA POMOGAEVA, DAN CHIPMAN
     KYUSHU UNIVERSITY:
          HARUYUKI NAKANO,
          FENG LONG GU, JACEK KORCHOWIEC, MARCIN MAKOWSKI, AND YURIKO AOKI,
          HIROTOSHI MORI AND EISAKU MIYOSHI
     PENNSYLVANIA STATE UNIVERSITY:
          TZVETELIN IORDANOV, CHET SWALINA, JONATHAN SKONE,
          SHARON HAMMES-SCHIFFER
     WASEDA UNIVERSITY:
          MASATO KOBAYASHI, TOMOKO AKAMA, TSUGUKI TOUMA,
          TAKESHI YOSHIKAWA, YASUHIRO IKABATA, JUNJI SEINO,
          YUYA NAKAJIMA, HIROMI NAKAI
     NANJING UNIVERSITY: SHUHUA LI
     UNIVERSITY OF NEBRASKA:
          PEIFENG SU, DEJUN SI, NANDUN THELLAMUREGE, YALI WANG, HUI LI
     UNIVERSITY OF ZURICH: ROBERTO PEVERATI, KIM BALDRIDGE
     N. COPERNICUS UNIVERSITY AND JACKSON STATE UNIVERSITY:
          MARIA BARYSZ
     UNIVERSITY OF COPENHAGEN: Jimmy Kromann, CASPER STEINMANN
     TOKYO INSTITUTE OF TECHNOLOGY: HIROYA NAKATA
     NAGOYA UNIVERSITY: YOSHIO NISHIMOTO, STEPHAN IRLE
     MOSCOW STATE UNIVERSITY: VLADIMIR MIRONOV

 EXECUTION OF GAMESS BEGUN Wed Nov 16 19:22:23 2022

            ECHO OF THE FIRST FEW INPUT CARDS -
 INPUT CARD> $system kdiag=3 mwords=100 memddi=1000 parall=.t. $end                         
 INPUT CARD> $contrl runtyp=energy ispher=1 $end                                            
 INPUT CARD> $contrl icut=9 itol=20 inttyp=rysquad qmttol=1.0d-05 nosym=1 $end              
 INPUT CARD> $scf    npunch=2 conv=1.0d-06 dirscf=.t.      $end                             
 INPUT CARD> $contrl scftyp=mcscf  mult=2 maxit=200 icharg=1 mplevl=2 $end                  
 INPUT CARD> $guess  guess=moread norb=29 purify=.t. $end                                   
 INPUT CARD> $basis  gbasis=ccd $end                                                        
 INPUT CARD> $mcscf  cistep=gmcci fullnr=.t. finci=mos                                      
 INPUT CARD>         acurcy=1.d-6 maxit=100 $end                                            
 INPUT CARD> $trans  dirtrf=.t. $end                                                        
 INPUT CARD> $mrmp   mrpt=gmcpt rdvecs=.f. $end                                             
 INPUT CARD> $gmcpt  nmofzc=0 nmodoc=1 nmoact=7 nelact=7 stsym(1)=A                         
 INPUT CARD>         reftyp=ormas nspace=1 mstart(1)=2 mine(1)=7 maxe(1)=7                  
 INPUT CARD>         kstate(1)=1,1,1                                                        
 INPUT CARD>         wstate(1)=1,1,1                                                        
 INPUT CARD>         iwgt=0 thrwgt=-1.0 krot=.f. kszdoe=.f. knospn=.f.                      
 INPUT CARD>         thrde=-1.0 edshft=0.02 $end                                            
 INPUT CARD> $data                                                                          
 INPUT CARD> NH3+ 3 states calculation at NH3 structure.                                    
 INPUT CARD> c1                                                                             
 INPUT CARD>N 7.0 0.012457835999999996 0.0 -0.1693805762                                    
 INPUT CARD>H 1.0 -0.5671533 0.7295443298000001 0.28285710210000004                         
 INPUT CARD>H 1.0 -0.567153296 -0.7295443318000001 0.28285710610000003                      
 INPUT CARD>H 1.0 0.961201624 -3.9999999999999994e-09 0.20366482210000003                   
 INPUT CARD>$end                                                                            
 INPUT CARD>--- OPTIMIZED RHF      MO-S --- GENERATED AT Mon Nov 14 16:47:08 2022           
 INPUT CARD>E=      -56.3825050291, E(NUC)=   11.8429239490                                 
 INPUT CARD> $VEC                                                                           
 INPUT CARD> 1  1-1.00134066E+00-2.25158504E-03 3.44925845E-03 0.00000000E+00 0.00000000E+00
 INPUT CARD> 1  2-2.13170927E-03 0.00000000E+00 0.00000000E+00 6.57129898E-04-6.87950443E-05
 INPUT CARD> 1  3-6.87950443E-05 1.37590089E-04 0.00000000E+00 0.00000000E+00 0.00000000E+00
 INPUT CARD> 1  4 3.25502815E-04-4.84772356E-04 3.62525460E-04-6.27912517E-04-3.45956485E-04
 INPUT CARD> 1  5 3.25502815E-04-4.84772356E-04 3.62525460E-04 6.27912517E-04-3.45956485E-04
 INPUT CARD> 1  6 3.25502815E-04-4.84772356E-04-7.25050921E-04 0.00000000E+00-3.45956485E-04
 INPUT CARD> 2  1 1.31286642E-02-4.05911371E-01-2.82090992E-01 0.00000000E+00 0.00000000E+00
 INPUT CARD> 2  2-7.71489043E-02 0.00000000E+00 0.00000000E+00 9.73717494E-03 6.62450916E-04
 INPUT CARD> 2  3 6.62450916E-04-1.32490183E-03 0.00000000E+00 0.00000000E+00 0.00000000E+00
 INPUT CARD> 2  4-1.96090317E-01-1.96656153E-02-1.74855877E-02 3.02859263E-02 8.68214399E-03
 INPUT CARD> 2  5-1.96090317E-01-1.96656153E-02-1.74855877E-02-3.02859263E-02 8.68214399E-03
 INPUT CARD> 2  6-1.96090317E-01-1.96656153E-02 3.49711754E-02 0.00000000E+00 8.68214399E-03
 INPUT CARD> 3  1 0.00000000E+00 0.00000000E+00 0.00000000E+00 4.48608762E-01 0.00000000E+00
 INPUT CARD> 3  2 0.00000000E+00 2.18692520E-01 0.00000000E+00 0.00000000E+00 1.30198027E-02
 INPUT CARD> 3  3-1.30198027E-02 0.00000000E+00 0.00000000E+00 2.71832968E-02 0.00000000E+00
 INPUT CARD> 3  4-1.85332726E-01-7.03958951E-02 8.47929477E-03 1.95242443E-02 8.32835058E-03
 INPUT CARD> 3  5-1.85332726E-01-7.03958951E-02 8.47929477E-03-1.95242443E-02 8.32835058E-03
 INPUT CARD> 3  6 3.70665453E-01 1.40791790E-01-2.53376884E-02 0.00000000E+00-1.66567012E-02
 INPUT CARD> 4  1 0.00000000E+00 0.00000000E+00 0.00000000E+00 0.00000000E+00 4.48608762E-01
 INPUT CARD> 4  2 0.00000000E+00 0.00000000E+00 2.18692520E-01 0.00000000E+00 0.00000000E+00
 INPUT CARD> 4  3 0.00000000E+00 0.00000000E+00-1.50339731E-02 0.00000000E+00 2.71832968E-02
 INPUT CARD> 4  4 3.21005698E-01 1.21929267E-01 1.95242443E-02-1.40653607E-02-1.44251263E-02
  100000000 WORDS OF MEMORY AVAILABLE

     BASIS OPTIONS
     -------------
     GBASIS=CCD          IGAUSS=       0      POLAR=NONE    
     NDFUNC=       0     NFFUNC=       0     DIFFSP=       F
     NPFUNC=       0      DIFFS=       F     BASNAM=        


     RUN TITLE
     ---------
  NH3+ 3 states calculation at NH3 structure.                                    

 THE POINT GROUP OF THE MOLECULE IS C1      
 THE ORDER OF THE PRINCIPAL AXIS IS     0

 ATOM      ATOMIC                      COORDINATES (BOHR)
           CHARGE         X                   Y                   Z
 N           7.0     0.0235418964        0.0000000000       -0.3200828767
 H           1.0    -1.0717643300        1.3786388792        0.5345224167
 H           1.0    -1.0717643225       -1.3786388830        0.5345224242
 H           1.0     1.8164076883       -0.0000000076        0.3848707071

          INTERNUCLEAR DISTANCES (ANGS.)
          ------------------------------

                1 N          2 H          3 H          4 H     

   1 N       0.0000000    1.0357137 *  1.0357137 *  1.0194497 *
   2 H       1.0357137 *  0.0000000    1.4590887 *  1.6953982 *
   3 H       1.0357137 *  1.4590887 *  0.0000000    1.6953982 *
   4 H       1.0194497 *  1.6953982 *  1.6953982 *  0.0000000  

  * ... LESS THAN  3.000


     ATOMIC BASIS SET
     ----------------
 THE CONTRACTED PRIMITIVE FUNCTIONS HAVE BEEN UNNORMALIZED
 THE CONTRACTED BASIS FUNCTIONS ARE NOW NORMALIZED TO UNITY

  SHELL TYPE  PRIMITIVE        EXPONENT          CONTRACTION COEFFICIENT(S)

 N         

      1   S       1          9046.0000000    0.000699617413
      1   S       2          1357.0000000    0.005386054630
      1   S       3           309.3000000    0.027391021189
      1   S       4            87.7300000    0.103150591982
      1   S       5            28.5600000    0.278570663317
      1   S       6            10.2100000    0.448294849454
      1   S       7             3.8380000    0.278085928395
      1   S       8             0.7466000    0.015431561233

      2   S       9          9046.0000000   -0.000304990096
      2   S      10          1357.0000000   -0.002408026379
      2   S      11           309.3000000   -0.011944448725
      2   S      12            87.7300000   -0.048925992909
      2   S      13            28.5600000   -0.134472724725
      2   S      14            10.2100000   -0.315112577700
      2   S      15             3.8380000   -0.242857832550
      2   S      16             0.7466000    1.094382206854

      3   S      17             0.2248000    1.000000000000

      4   P      18            13.5500000    0.058905676772
      4   P      19             2.9170000    0.320461106714
      4   P      20             0.7973000    0.753042061792

      5   P      21             0.2185000    1.000000000000

      6   D      22             0.8170000    1.000000000000

 H         

      7   S      23            13.0100000    0.033498726390
      7   S      24             1.9620000    0.234800801174
      7   S      25             0.4446000    0.813682957883

      8   S      26             0.1220000    1.000000000000

      9   P      27             0.7270000    1.000000000000

 H         

     10   S      28            13.0100000    0.033498726390
     10   S      29             1.9620000    0.234800801174
     10   S      30             0.4446000    0.813682957883

     11   S      31             0.1220000    1.000000000000

     12   P      32             0.7270000    1.000000000000

 H         

     13   S      33            13.0100000    0.033498726390
     13   S      34             1.9620000    0.234800801174
     13   S      35             0.4446000    0.813682957883

     14   S      36             0.1220000    1.000000000000

     15   P      37             0.7270000    1.000000000000

 TOTAL NUMBER OF BASIS SET SHELLS             =   15
 NUMBER OF CARTESIAN GAUSSIAN BASIS FUNCTIONS =   30
 NOTE: THIS RUN WILL RESTRICT THE MO VARIATION SPACE TO SPHERICAL HARMONICS.
 THE NUMBER OF ORBITALS KEPT IN THE VARIATIONAL SPACE WILL BE PRINTED LATER.
 NUMBER OF ELECTRONS                          =    9
 CHARGE OF MOLECULE                           =    1
 SPIN MULTIPLICITY                            =    2
 NUMBER OF OCCUPIED ORBITALS (ALPHA)          =    5
 NUMBER OF OCCUPIED ORBITALS (BETA )          =    4
 TOTAL NUMBER OF ATOMS                        =    4
 THE NUCLEAR REPULSION ENERGY IS       11.7735173244

     $CONTRL OPTIONS
     ---------------
 SCFTYP=MCSCF        RUNTYP=ENERGY       EXETYP=RUN     
 MPLEVL=       2     CITYP =NONE         CCTYP =NONE         VBTYP =NONE    
 DFTTYP=NONE         TDDFT =NONE    
 MULT  =       2     ICHARG=       1     NZVAR =       0     COORD =UNIQUE  
 PP    =NONE         RELWFN=NONE         LOCAL =NONE         NUMGRD=       F
 ISPHER=       1     NOSYM =       1     MAXIT =     200     UNITS =ANGS    
 PLTORB=       F     MOLPLT=       F     AIMPAC=       F     FRIEND=        
 NPRINT=       7     IREST =       0     GEOM  =INPUT   
 NORMF =       0     NORMP =       0     ITOL  =      20     ICUT  =       9
 INTTYP=RYSQUAD      GRDTYP=BEST         QMTTOL= 1.0E-05

     $SYSTEM OPTIONS
     ---------------
  REPLICATED MEMORY=   100000000 WORDS (ON EVERY NODE).
 DISTRIBUTED MEMDDI=        1000 MILLION WORDS IN AGGREGATE,
 MEMDDI DISTRIBUTED OVER   1 PROCESSORS IS  1000000000 WORDS/PROCESSOR.
 TOTAL MEMORY REQUESTED ON EACH PROCESSOR=  1100000000 WORDS.
 TIMLIM=      525600.00 MINUTES, OR     365.0 DAYS.
 PARALL= T  BALTYP=  DLB     KDIAG=    3  COREFL= F
 MXSEQ2=     300 MXSEQ3=     150  mem10=         0

          ----------------
          PROPERTIES INPUT
          ----------------

     MOMENTS            FIELD           POTENTIAL          DENSITY
 IEMOM =       1   IEFLD =       0   IEPOT =       0   IEDEN =       0
 WHERE =COMASS     WHERE =NUCLEI     WHERE =NUCLEI     WHERE =NUCLEI  
 OUTPUT=BOTH       OUTPUT=BOTH       OUTPUT=BOTH       OUTPUT=BOTH    
 IEMINT=       0   IEFINT=       0                     IEDINT=       0
                                                       MORB  =       0

     -------------------------------
     INTEGRAL TRANSFORMATION OPTIONS
     -------------------------------
     NWORD  =            0
     CUTOFF = 1.0E-09     MPTRAN =       0
     DIRTRF =       T     AOINTS =DUP     

          ----------------------
          MCSCF INPUT PARAMETERS
          ----------------------
 CONVERGER SELECTION: FOCAS = F  SOSCF = F  FULLNR = T  QUD = F  JACOBI = F
 SECULAR EQUATION METHOD CISTEP = GMCCI   
 --- GENERAL INPUT OPTIONS:
 MAXIT =     100  MICIT =       1  ACURCY= 1.000E-06
 DAMP  =   0.000  CANONC=       T  ENGTOL= 1.000E-10
 EKT   =       F  NPUNCH=       2  NWORD =         0
 REGENERATE CI AFTER CONVERGENCE = NONE    
 DIABATIZATION AFTER CONVERGENCE =        F
 --- INPUT FOR FULLNR CONVERGER:
 METHOD=DM2       FORS  =       F  DROPC =       T
 LINSER=       F  FCORE =       F  NORB  =      30

          ----------------------
          INTEGRAL INPUT OPTIONS
          ----------------------
 NOPK  =       1 NORDER=       0 SCHWRZ=       T

 ------------------------------------------
 MULTIREFERENCE PERTURBATION THEORY CONTROL
 ------------------------------------------
 MRPT=GMCPT    READ CONVERGED MCSCF VECTORS= F


     ------------------------------------------
     THE POINT GROUP IS C1 , NAXIS= 1, ORDER= 1
     ------------------------------------------

 -- VARIATIONAL SPACE WILL BE RESTRICTED TO PURE SPHERICAL HARMONICS ONLY --
 AFTER EXCLUDING CONTAMINANT COMBINATIONS FROM THE CARTESIAN GAUSSIAN BASIS
 SET, THE NUMBER OF SPHERICAL HARMONICS KEPT IN THE VARIATION SPACE IS   29

     DIMENSIONS OF THE SYMMETRY SUBSPACES ARE
 A   =   29

 ..... DONE SETTING UP THE RUN .....
 CPU     0: STEP CPU TIME=     0.03 TOTAL CPU TIME=          0.0 (      0.0 MIN)
 TOTAL WALL CLOCK TIME=          0.0 SECONDS, CPU UTILIZATION IS    60.00%

          ********************
          1 ELECTRON INTEGRALS
          ********************
 TIME TO DO   DIPOLE INTEGRALS=      0.00
 ...... END OF ONE-ELECTRON INTEGRALS ......
 CPU     0: STEP CPU TIME=     0.00 TOTAL CPU TIME=          0.0 (      0.0 MIN)
 TOTAL WALL CLOCK TIME=          0.0 SECONDS, CPU UTILIZATION IS    60.00%

          -------------
          GUESS OPTIONS
          -------------
          GUESS =MOREAD            NORB  =      29          NORDER=       0
          MIX   =       F          PRTMO =       F          PUNMO =       F
          TOLZ  = 1.0E-08          TOLE  = 1.0E-05
          SYMDEN=       F          PURIFY=       T

 INITIAL GUESS ORBITALS GENERATED BY MOREAD   ROUTINE.

 STATISTICS FOR GENERATION OF SYMMETRY ORBITAL -Q- MATRIX
 NUMBER OF CARTESIAN ATOMIC ORBITALS=         30
 NUMBER OF SPHERICAL CONTAMINANTS DROPPED=     1
 NUMBER OF LINEARLY DEPENDENT MOS DROPPED=     0
 TOTAL NUMBER OF MOS IN VARIATION SPACE=      29
 ORBITAL PURIFICATION WILL OCCUR

 SYMMETRIES FOR INITIAL GUESS ORBITALS FOLLOW.   BOTH SET(S).
     5 ORBITALS ARE OCCUPIED (    1 CORE ORBITALS).
     1=A        2=A        3=A        4=A        5=A        6=A        7=A   
     8=A        9=A       10=A       11=A       12=A       13=A       14=A   
    15=A       16=A       17=A       18=A       19=A       20=A       21=A   
    22=A       23=A       24=A       25=A       26=A       27=A       28=A   
    29=A   
 ...... END OF INITIAL ORBITAL SELECTION ......
 CPU     0: STEP CPU TIME=     0.02 TOTAL CPU TIME=          0.0 (      0.0 MIN)
 TOTAL WALL CLOCK TIME=          0.0 SECONDS, CPU UTILIZATION IS   100.00%

                    ----------------------
                    AO INTEGRAL TECHNOLOGY
                    ----------------------
     S,P,L SHELL ROTATED AXIS INTEGRALS, REPROGRAMMED BY
        KAZUYA ISHIMURA (IMS) AND JOSE SIERRA (SYNSTAR).
     S,P,D,L SHELL ROTATED AXIS INTEGRALS PROGRAMMED BY
        KAZUYA ISHIMURA (INSTITUTE FOR MOLECULAR SCIENCE).
     S,P,D,F,G SHELL TO TOTAL QUARTET ANGULAR MOMENTUM SUM 5,
        ERIC PROGRAM BY GRAHAM FLETCHER (ELORET AND NASA ADVANCED
        SUPERCOMPUTING DIVISION, AMES RESEARCH CENTER).
     S,P,D,F,G,L SHELL GENERAL RYS QUADRATURE PROGRAMMED BY
        MICHEL DUPUIS (PACIFIC NORTHWEST NATIONAL LABORATORY).

          --------------------
          2 ELECTRON INTEGRALS
          --------------------

 DIRECT SCF METHOD SKIPS INTEGRAL STORAGE ON DISK.
 DIRECT TRANSFORMATION SKIPS AO INTEGRAL STORAGE ON DISK.
  ...... END OF TWO-ELECTRON INTEGRALS .....
 STEP CPU TIME =     0.02 TOTAL CPU TIME =          0.1 (      0.0 MIN)
 TOTAL WALL CLOCK TIME=          0.1 SECONDS, CPU UTILIZATION IS    87.50%
 DDI: Creating Array [0] - 900 x 36 = 32400 words.
 DDI: Creating Array [1] - 21 x 288 = 6048 words.
 DDI: Creating Array [2] - 36 x 36 = 1296 words.
 DDI: Creating Array [3] - 465 x 36 = 16740 words.

          -----------------
          MCSCF CALCULATION
          -----------------

 ----- NUCLEAR ENERGY ----- =        11.7735173244

     -------------------------------------------------
     GMC-PT/GMC-QDPT or general MCSCF input parameters
     -------------------------------------------------
 # of frozen core orbs. =         0 ->         0
 # of doubly occ. orbs. =         1
 # of active      orbs. =         7
 # of virtual     orbs. =        21
 # of active electrons  =         7
 # of states in CI      =         3
 Highest state in CI    =         3
 kstate =  1 1 1
 avecoe =  0.333 0.333 0.333
 State symmetry           = A           
 Assigned symmetry number = 1

 <<<Act. MO sym.: 1111111

 <<<Division of 1-ext.:  0
 <<<Division of 2-ext.:  0

 *** Reference space

 Reference type: ORMAS (= Occupation restricted multiple active space)
 # of orbitals          =  7
 # of minimum electrons =  7
 # of maximum electrons =  7
 State symmetry    =    1 (input)
 2*Sz              =    1 (input)
 Spin multiplicity =    2 (input)
 Dimension of reference space =      1225  (from      3432 walks)

 Dimension of reference space =      1225  (from      1225 walks)

 <<<Ionized spaces for Ref-CI:
      0:         1225 /   -1-0:         1960 /  0-1-0:         2891

 EVALUATING EXCHANGE INTEGRALS FOR DIRECT INTEGRAL TRANSFORMATION
 SCHWARZ INEQUALITY OVERHEAD:       465 INTEGRALS, T=        0.00

     --------------------------------------------
     PARTIAL TWO ELECTRON INTEGRAL TRANSFORMATION
     --------------------------------------------

 NUMBER OF CORE MOLECULAR ORBITALS     =    1
 NUMBER OF OCCUPIED MOLECULAR ORBITALS =    8
 TOTAL NUMBER OF MOLECULAR ORBITALS    =   29
 TOTAL NUMBER OF ATOMIC ORBITALS       =   30
 THRESHOLD FOR KEEPING TRANSFORMED 2E- INTEGRALS = 1.000E-09

 -------------------------------     ------------------------------
 DISTRIBUTED DATA TRANSFORMATION     PROGRAM WRITTEN BY G. FLETCHER
 -------------------------------     ------------------------------

 THE DISTRIBUTED MEMORY REQUIRED FOR THIS STEP IS MEMDDI=         1 MWORDS
 CREATING DISTRIBUTED STORAGE FOR [VIR OCC|VIR OCC] INTEGRALS
 CREATING DISTRIBUTED STORAGE FOR [VIR OCC|OCC OCC] INTEGRALS
 CREATING DISTRIBUTED STORAGE FOR [OCC OCC|OCC OCC] INTEGRALS
 CREATING DISTRIBUTED STORAGE FOR [VIR VIR|OCC OCC] INTEGRALS
 FOR    1 PROCESSORS, THE REPLICATED MEMORY NEEDED IS       73700 WORDS.
 SCHWARZ INEQUALITY OVERHEAD:       465 INTEGRALS, T=        0.00

      DIRECT 4-INDEX TRANSFORMATION 
      SCHWARZ INEQUALITY TEST SKIPPED          0 INTEGRAL BLOCKS
 ----- FROZEN CORE ENERGY =       -47.8140226524
 ... END OF INTEGRAL TRANSFORMATION ...
 CPU     0: STEP CPU TIME=     0.21 TOTAL CPU TIME=          0.3 (      0.0 MIN)
 TOTAL WALL CLOCK TIME=          0.3 SECONDS, CPU UTILIZATION IS    93.33%

     --------------------------------     -----------------------------
     MCHF NEWTON-RAPHSON OPTIMIZATION     CODE WRITTEN BY MICHEL DUPUIS
     --------------------------------     -----------------------------
     PARALLEL VERSION WRITTEN BY G. FLETCHER (ELORET)
     NASA ADVANCED SUPERCOMPUTING DIVISION, AMES RESEARCH CENTER

 NUMBER OF INDEPENDENT ORBITAL ROTATION PARAMETERS =    99
 ..... DONE SOLVING NEWTON-RAPHSON EQUATIONS .....
 CPU     0: STEP CPU TIME=     0.63 TOTAL CPU TIME=          0.9 (      0.0 MIN)
 TOTAL WALL CLOCK TIME=          0.9 SECONDS, CPU UTILIZATION IS    98.91%
 ..... DONE WITH NTN-RPH ORBITAL ROTATIONS ..... 
 CPU     0: STEP CPU TIME=     0.00 TOTAL CPU TIME=          0.9 (      0.0 MIN)
 TOTAL WALL CLOCK TIME=          0.9 SECONDS, CPU UTILIZATION IS    98.91%
 MAXIMUM MEMORY USED BY NTN-RPH CODE WAS     57645 WORDS.

 ITER     TOTAL ENERGY      DEL(E)  LAGRANGIAN ASYMMETRY   SQCDF  MICIT   DAMP
   1      -55.681081685 -0.681081685  0.139365   13    3 1.717E-01  1   0.0000
   2      -55.717125272 -0.036043587  0.025116   12    5 4.510E-01  1   0.0000
   3      -55.748840461 -0.031715189  0.012347   12    5 2.112E-01  1   0.0264
   4      -55.761970315 -0.013129855  0.004057   11    6 3.727E-02  1   0.0045
   5      -55.763557580 -0.001587264  0.000755   12    5 1.151E-03  1   0.0000
   6      -55.763607097 -0.000049518  0.000252   12    5 9.687E-05  1   0.0000
   7      -55.763612086 -0.000004989  0.000113   12    5 1.311E-05  1   0.0000
   8      -55.763612803 -0.000000716  0.000050   12    5 1.915E-06  1   0.0000
   9      -55.763612910 -0.000000107  0.000021   12    5 2.866E-07  1   0.0000
  10      -55.763612926 -0.000000016  0.000009   12    5 4.389E-08  1   0.0000
  11      -55.763612928 -0.000000003  0.000003   12    5 7.072E-09  1   0.0000
  12      -55.763612929 -0.000000000  0.000001   12    5 1.242E-09  1   0.0000
  13      -55.763612929 -0.000000000  0.000001   12    5 2.574E-10  1   0.0000

          --------------------
          LAGRANGIAN CONVERGED
          --------------------

 FINAL MCSCF ENERGY IS      -55.7636129287 AFTER  13 ITERATIONS

 -MCCI- BASED ON OPTIMIZED ORBITALS
 ----------------------------------

 PLEASE NOTE: IF THE ACTIVE ORBITALS ARE CANONICALIZED BELOW,
 THE FOLLOWING CI EXPANSION COEFFICIENTS AND THE DENSITY DO NOT
 CORRESPOND TO THE PRINTED ORBITALS.  THE PRINTED EXPANSIONS MATCH
 THE ORBITALS USED DURING THE LAST ITERATION.  IF YOU WISH TO SEE
 CI EXPANSIONS BASED ON THE CANONICAL (OR NATURAL) ORBITALS, YOU
 MUST RUN A CI CALCULATION WITH THAT ORBITAL CHOICE READ IN $VEC.

 Averaged energy =     -55.763612929

 State #    1  Energy =     -55.906448933  S =  0.500

      Det      Coef    Occupancy (Ignoring core)
      ---      ----    --------- --------- -----
        1   -0.953698  11110001110000
        2   -0.055831  11101001110000
        5    0.059300  01111001110000
        8    0.132337  10110101110000
       17    0.121191  11010011110000
      386   -0.108151  11110001010010
      393   -0.052690  10110101010010
      701   -0.091682  11110001100001
      717   -0.066479  11010011100001

 State #    2  Energy =     -55.725567977  S =  0.500

      Det      Coef    Occupancy (Ignoring core)
      ---      ----    --------- --------- -----
       36   -0.970725  11110001101000
       40    0.053453  01111001101000
       43    0.097293  10110101101000
       52    0.059884  11010011101000
      281   -0.055990  11110000101100
      456   -0.101465  11110001001010
      463   -0.056719  10110101001010

 State #    3  Energy =     -55.658821876  S =  0.500

      Det      Coef    Occupancy (Ignoring core)
      ---      ----    --------- --------- -----
       71    0.970111  11110001011000
       78   -0.067258  10110101011000
       87   -0.078008  11010011011000
      316    0.063517  11110000011100
      806   -0.091521  11110001001001
      822   -0.070309  11010011001001

 DENSITY MATRIX OVER ACTIVE MO-S

             1           2           3           4           5

    1    1.9800928
    2   -0.0042918   1.6372001
    3    0.0000000  -0.0000000   1.6379452
    4    0.0038901  -0.0001094  -0.0000000   1.6558918
    5    0.0930545   0.0022981   0.0000000   0.0437439   0.0234527
    6    0.0042520  -0.1499505  -0.0000000  -0.0062060  -0.0001652
    7   -0.0000000   0.0000000   0.1275721   0.0000000   0.0000000

             6           7

    6    0.0328190
    7   -0.0000000   0.0325984

 FORMING THE "STANDARD FOCK OPERATOR" IN DIRECT AO INTEGRAL MODE...
 ONLY THE    1 CORE AND   21 VIRTUAL ORBITALS WILL BE CANONICALIZED

          ----------------------
          MCSCF NATURAL ORBITALS
          ----------------------

                      1          2          3          4          5
                  -15.9876     1.9847     1.6570     1.6510     1.6480
                     A          A          A          A          A   
    1  N  1  S    1.001361   0.008323  -0.011501   0.001047   0.000000
    2  N  1  S   -0.001744   0.439161  -0.182357   0.040758   0.000000
    3  N  1  S   -0.006411   0.279841  -0.286604   0.057097   0.000000
    4  N  1  X    0.000053  -0.013137   0.068996   0.489970   0.000000
    5  N  1  Y    0.000000  -0.000000   0.000000  -0.000000   0.514607
    6  N  1  Z    0.001169   0.098023   0.592319  -0.057438  -0.000000
    7  N  1  X   -0.000031   0.002198   0.039934   0.185334   0.000000
    8  N  1  Y    0.000000  -0.000000   0.000000  -0.000000   0.238514
    9  N  1  Z   -0.000433   0.003837   0.380954  -0.026463  -0.000000
   10  N  1 XX    0.000276   0.000157  -0.011500   0.009836   0.000000
   11  N  1 YY   -0.000096  -0.001359  -0.012922  -0.007088  -0.000000
   12  N  1 ZZ   -0.000180   0.001202   0.024422  -0.002748  -0.000000
   13  N  1 XY    0.000000  -0.000000  -0.000000   0.000000  -0.013652
   14  N  1 XZ   -0.000059  -0.000911   0.002144   0.025085   0.000000
   15  N  1 YZ    0.000000  -0.000000   0.000000  -0.000000   0.026000
   16  H  2  S   -0.002028   0.197363   0.088967  -0.210962   0.318400
   17  H  2  S    0.000428   0.004289   0.022171  -0.026112   0.053619
   18  H  2  X   -0.000581   0.022376   0.010075   0.003354   0.025006
   19  H  2  Y    0.000803  -0.028887  -0.013096   0.025494  -0.013938
   20  H  2  Z    0.000455  -0.010282   0.019857   0.008441  -0.016111
   21  H  3  S   -0.002028   0.197363   0.088967  -0.210962  -0.318400
   22  H  3  S    0.000428   0.004289   0.022171  -0.026112  -0.053619
   23  H  3  X   -0.000581   0.022376   0.010075   0.003354  -0.025006
   24  H  3  Y   -0.000803   0.028887   0.013096  -0.025494  -0.013938
   25  H  3  Z    0.000455  -0.010282   0.019857   0.008441   0.016111
   26  H  4  S   -0.002130   0.187835   0.141285   0.364323   0.000000
   27  H  4  S    0.000565   0.001662   0.027721   0.042138   0.000000
   28  H  4  X    0.001089  -0.037960  -0.019349  -0.032014  -0.000000
   29  H  4  Y    0.000000   0.000000   0.000000  -0.000000   0.020118
   30  H  4  Z    0.000424  -0.006353   0.017311  -0.018878  -0.000000

                      6          7          8
                    0.0225     0.0189     0.0179
                     A          A          A   
    1  N  1  S    0.000000   0.023201   0.270440
    2  N  1  S    0.000000   0.056963   0.849839
    3  N  1  S    0.000000  -0.043459   0.150933
    4  N  1  X    0.000000   0.945230  -0.014882
    5  N  1  Y    0.888409  -0.000000  -0.000000
    6  N  1  Z   -0.000000  -0.043338   0.691041
    7  N  1  X    0.000000   0.069579  -0.023805
    8  N  1  Y    0.022551  -0.000000  -0.000000
    9  N  1  Z    0.000000  -0.002188  -0.102499
   10  N  1 XX    0.000000   0.011770  -0.014331
   11  N  1 YY   -0.000000  -0.015167   0.024316
   12  N  1 ZZ   -0.000000   0.003397  -0.009985
   13  N  1 XY    0.020183  -0.000000  -0.000000
   14  N  1 XZ   -0.000000  -0.049697   0.017077
   15  N  1 YZ   -0.031879   0.000000  -0.000000
   16  H  2  S   -0.630027   0.368404  -0.503040
   17  H  2  S   -0.125411   0.067589  -0.053926
   18  H  2  X   -0.041333  -0.003017  -0.039438
   19  H  2  Y    0.034491  -0.040668   0.063775
   20  H  2  Z    0.009687   0.004272  -0.011547
   21  H  3  S    0.630027   0.368404  -0.503040
   22  H  3  S    0.125411   0.067589  -0.053926
   23  H  3  X    0.041333  -0.003017  -0.039438
   24  H  3  Y    0.034491   0.040668  -0.063775
   25  H  3  Z   -0.009687   0.004272  -0.011547
   26  H  4  S   -0.000000  -0.726804  -0.545892
   27  H  4  S   -0.000000  -0.129595  -0.056653
   28  H  4  X    0.000000   0.065159   0.077725
   29  H  4  Y   -0.017712  -0.000000  -0.000000
   30  H  4  Z   -0.000000  -0.002264  -0.009793

          ------------------------
          MCSCF OPTIMIZED ORBITALS
          ------------------------

                      1          2          3          4          5
                  -15.9876     0.0000     0.0000     0.0000     0.0000
                     A          A          A          A          A   
    1  N  1  S    1.001361  -0.004160  -0.003530  -0.000000  -0.018669
    2  N  1  S   -0.001744   0.402493   0.007194   0.000000  -0.200324
    3  N  1  S   -0.006411   0.278178   0.027224   0.000000  -0.289593
    4  N  1  X    0.000053  -0.002906   0.405404   0.000000   0.016182
    5  N  1  Y    0.000000  -0.000000   0.000000   0.443068   0.000000
    6  N  1  Z    0.001169   0.053632   0.002661   0.000000   0.578264
    7  N  1  X   -0.000031   0.005698   0.181267   0.000000   0.021354
    8  N  1  Y    0.000000   0.000000   0.000000   0.235999   0.000000
    9  N  1  Z   -0.000433   0.001447   0.012853  -0.000000   0.384279
   10  N  1 XX    0.000276   0.001231   0.007555  -0.000000  -0.012084
   11  N  1 YY   -0.000096  -0.002435  -0.007013   0.000000  -0.012756
   12  N  1 ZZ   -0.000180   0.001204  -0.000542   0.000000   0.024840
   13  N  1 XY    0.000000   0.000000   0.000000  -0.015199   0.000000
   14  N  1 XZ   -0.000059  -0.001535   0.029584   0.000000  -0.000738
   15  N  1 YZ    0.000000   0.000000   0.000000   0.028429   0.000000
   16  H  2  S   -0.002028   0.217242  -0.234421   0.367011   0.125762
   17  H  2  S    0.000428   0.006259  -0.029681   0.063326   0.026009
   18  H  2  X   -0.000581   0.024069   0.004487   0.028182   0.011143
   19  H  2  Y    0.000803  -0.031368   0.027792  -0.016610  -0.017712
   20  H  2  Z    0.000455  -0.009932   0.010160  -0.016824   0.018995
   21  H  3  S   -0.002028   0.217242  -0.234421  -0.367011   0.125762
   22  H  3  S    0.000428   0.006259  -0.029681  -0.063326   0.026009
   23  H  3  X   -0.000581   0.024069   0.004487  -0.028182   0.011143
   24  H  3  Y   -0.000803   0.031368  -0.027792  -0.016610   0.017712
   25  H  3  Z    0.000455  -0.009932   0.010160   0.016824   0.018995
   26  H  4  S   -0.002130   0.213994   0.441946   0.000000   0.123616
   27  H  4  S    0.000565   0.004053   0.056703   0.000000   0.025213
   28  H  4  X    0.001089  -0.041505  -0.039494  -0.000000  -0.018942
   29  H  4  Y    0.000000   0.000000   0.000000   0.021450   0.000000
   30  H  4  Z    0.000424  -0.006490  -0.016615  -0.000000   0.019282

                      6          7          8          9         10
                    0.0000     0.0000     0.0000     0.1546     0.1967
                     A          A          A          A          A   
    1  N  1  S    0.269333   0.030985   0.000000  -0.162589  -0.011666
    2  N  1  S    0.862782   0.081700   0.000000  -0.253734  -0.022399
    3  N  1  S    0.157898  -0.038241   0.000000   1.603581   0.056937
    4  N  1  X   -0.042017   0.986051  -0.000000   0.014555   0.090683
    5  N  1  Y   -0.000000  -0.000000   0.926165  -0.000000   0.000000
    6  N  1  Z    0.710965  -0.020506  -0.000000  -0.239639  -0.029053
    7  N  1  X   -0.024776   0.086000   0.000000  -0.076210  -0.691041
    8  N  1  Y   -0.000000  -0.000000   0.041258   0.000000  -0.000001
    9  N  1  Z   -0.092233  -0.002612   0.000000   0.561190   0.076808
   10  N  1 XX   -0.014946   0.012038   0.000000   0.057630  -0.067972
   11  N  1 YY    0.024326  -0.015192  -0.000000  -0.011410   0.061877
   12  N  1 ZZ   -0.009379   0.003154  -0.000000  -0.046221   0.006095
   13  N  1 XY   -0.000000  -0.000000   0.019045  -0.000000   0.000000
   14  N  1 XZ    0.018523  -0.046636   0.000000  -0.023440  -0.107801
   15  N  1 YZ   -0.000000  -0.000000  -0.029733   0.000000  -0.000000
   16  H  2  S   -0.501215   0.333112  -0.603005   0.223182   0.252190
   17  H  2  S   -0.055044   0.063574  -0.120800  -0.825469  -0.949151
   18  H  2  X   -0.037946  -0.003797  -0.039237  -0.083570  -0.002926
   19  H  2  Y    0.063134  -0.036349   0.033287   0.068212   0.058657
   20  H  2  Z   -0.011636   0.004976   0.008389   0.034326   0.054193
   21  H  3  S   -0.501215   0.333112   0.603005   0.223182   0.252191
   22  H  3  S   -0.055044   0.063574   0.120800  -0.825469  -0.949154
   23  H  3  X   -0.037946  -0.003797   0.039237  -0.083570  -0.002926
   24  H  3  Y   -0.063134   0.036349   0.033287  -0.068212  -0.058657
   25  H  3  Z   -0.011636   0.004976  -0.008389   0.034326   0.054193
   26  H  4  S   -0.510790  -0.704925  -0.000000   0.298392  -0.540063
   27  H  4  S   -0.051917  -0.126446  -0.000000  -0.910551   1.873960
   28  H  4  X    0.073342   0.064084   0.000000   0.118539  -0.095155
   29  H  4  Y   -0.000000  -0.000000  -0.016073  -0.000000   0.000000
   30  H  4  Z   -0.009556  -0.004019   0.000000   0.005435  -0.076888

                     11         12         13         14         15
                    0.2010     0.5519     0.5570     0.6240     0.8344
                     A          A          A          A          A   
    1  N  1  S    0.000000  -0.000000  -0.026273  -0.091945  -0.181275
    2  N  1  S    0.000000   0.000000   0.019092  -0.338907  -0.405037
    3  N  1  S   -0.000000   0.000001   0.434242  -0.136104   0.837226
    4  N  1  X   -0.000000  -0.000001  -0.450162  -0.221311   0.085204
    5  N  1  Y    0.024574  -0.596357   0.000001   0.000000  -0.000000
    6  N  1  Z    0.000000  -0.000001  -0.354866   0.592816   0.121559
    7  N  1  X    0.000001   0.000003   1.633733   1.082940  -0.544620
    8  N  1  Y   -0.501826   1.798651  -0.000003  -0.000000   0.000000
    9  N  1  Z   -0.000000   0.000001   0.540287  -0.993028   0.071255
   10  N  1 XX    0.000000  -0.000000  -0.043299   0.040548  -0.112119
   11  N  1 YY   -0.000000   0.000000   0.017670   0.024819   0.153813
   12  N  1 ZZ   -0.000000   0.000000   0.025628  -0.065367  -0.041695
   13  N  1 XY    0.097394  -0.000067  -0.000000  -0.000000  -0.000000
   14  N  1 XZ    0.000000   0.000000   0.028458  -0.028157   0.136800
   15  N  1 YZ   -0.083805   0.035252  -0.000000  -0.000000  -0.000000
   16  H  2  S   -0.525176  -0.478980   0.055385   0.679861  -0.109880
   17  H  2  S    1.750665  -0.931462   0.373777   0.133645  -0.239186
   18  H  2  X    0.058278  -0.073361   0.127659   0.014302   0.210987
   19  H  2  Y   -0.054157   0.088412   0.009382  -0.024888   0.435586
   20  H  2  Z   -0.046673   0.084933   0.006575  -0.028152  -0.161044
   21  H  3  S    0.525175   0.478981   0.055383   0.679861  -0.109880
   22  H  3  S   -1.750663   0.931463   0.373774   0.133645  -0.239186
   23  H  3  X   -0.058278   0.073361   0.127659   0.014302   0.210987
   24  H  3  Y   -0.054157   0.088412  -0.009382   0.024888  -0.435586
   25  H  3  Z    0.046673  -0.084933   0.006575  -0.028152  -0.161044
   26  H  4  S    0.000001  -0.000002  -0.837302   0.049495   0.069890
   27  H  4  S   -0.000002  -0.000001  -0.842488  -0.585758   0.034395
   28  H  4  X    0.000000   0.000000   0.129624   0.140764  -0.118236
   29  H  4  Y    0.051287   0.080856  -0.000000  -0.000000  -0.000000
   30  H  4  Z    0.000000   0.000000   0.084912  -0.072389   0.299038

                     16         17         18         19         20
                    0.9579     0.9800     1.3660     1.4780     1.5277
                     A          A          A          A          A   
    1  N  1  S   -0.529336  -0.000000  -0.000000  -0.401376  -0.504155
    2  N  1  S   -1.124480  -0.000000  -0.000000  -0.828888  -1.027338
    3  N  1  S    2.272316   0.000000   0.000000   1.531710   2.076729
    4  N  1  X    0.038599  -0.000000  -0.000000  -0.054928   0.048153
    5  N  1  Y    0.000000   0.072342   0.096802   0.000000  -0.000000
    6  N  1  Z    0.169191   0.000000   0.000000  -0.023554  -0.010664
    7  N  1  X   -0.153710   0.000000   0.000000   0.854321  -0.776103
    8  N  1  Y   -0.000000  -0.446847  -0.312735   0.000000  -0.000000
    9  N  1  Z   -0.075599   0.000000   0.000000   0.595273   0.889637
   10  N  1 XX   -0.082617  -0.000000   0.000000   0.120988   0.101580
   11  N  1 YY   -0.136052  -0.000000  -0.000000   0.089013   0.109913
   12  N  1 ZZ    0.218668   0.000000   0.000000  -0.210002  -0.211494
   13  N  1 XY   -0.000000   0.184980   0.028711   0.000000  -0.000000
   14  N  1 XZ    0.006428   0.000000   0.000000  -0.054561   0.061058
   15  N  1 YZ   -0.000000   0.250989  -0.003735  -0.000000   0.000000
   16  H  2  S   -0.368669   0.113520   0.141090  -0.226586  -0.755279
   17  H  2  S   -0.309764   0.132096   0.038803  -0.033209  -0.256446
   18  H  2  X    0.002387   0.273372  -0.504825  -0.438389   0.183963
   19  H  2  Y   -0.114180  -0.039208  -0.156616  -0.154165   0.092985
   20  H  2  Z    0.336812   0.371818  -0.151553  -0.467426  -0.032805
   21  H  3  S   -0.368669  -0.113520  -0.141090  -0.226586  -0.755279
   22  H  3  S   -0.309764  -0.132096  -0.038803  -0.033209  -0.256446
   23  H  3  X    0.002387  -0.273372   0.504825  -0.438389   0.183963
   24  H  3  Y    0.114180  -0.039208  -0.156616   0.154165  -0.092985
   25  H  3  Z    0.336812  -0.371818   0.151553  -0.467427  -0.032805
   26  H  4  S   -0.276976  -0.000000  -0.000000  -0.782071  -0.271411
   27  H  4  S   -0.316338  -0.000000  -0.000000  -0.333173  -0.016390
   28  H  4  X   -0.037076   0.000000  -0.000000  -0.220089   0.241513
   29  H  4  Y   -0.000000   0.487886   0.735591  -0.000000   0.000000
   30  H  4  Z    0.292816   0.000000   0.000000   0.219480  -0.844724

                     21         22         23         24         25
                    1.6105     1.8425     1.8582     2.0988     2.2514
                     A          A          A          A          A   
    1  N  1  S   -0.000000  -0.000000  -0.018742   0.027679   0.099930
    2  N  1  S   -0.000000  -0.000000  -0.048718   0.185751   0.252568
    3  N  1  S    0.000000   0.000000   0.042282   2.135964   0.510809
    4  N  1  X    0.000000   0.000000   0.629632  -0.007086  -0.147588
    5  N  1  Y    0.192044   0.441044  -0.000000   0.000000   0.000000
    6  N  1  Z   -0.000000  -0.000000  -0.043379   0.384924   0.148349
    7  N  1  X   -0.000000  -0.000000   0.028848   0.074492   0.084576
    8  N  1  Y    0.735825  -0.201696   0.000000   0.000000   0.000000
    9  N  1  Z    0.000000   0.000000  -0.011514   0.951708  -0.102448
   10  N  1 XX    0.000000  -0.000000  -0.207335  -0.248280  -0.255422
   11  N  1 YY    0.000000   0.000000   0.318210  -0.181856   0.931544
   12  N  1 ZZ   -0.000000  -0.000000  -0.110875   0.430136  -0.676123
   13  N  1 XY    0.006633   0.245200  -0.000000   0.000000   0.000000
   14  N  1 XZ    0.000000  -0.000000  -0.175919  -0.016112   0.443305
   15  N  1 YZ   -0.215888  -0.146447   0.000000   0.000000   0.000000
   16  H  2  S   -0.142626   0.122736  -0.053335  -0.613323  -0.148110
   17  H  2  S   -0.265199  -0.368925   0.203615  -0.270397  -0.127156
   18  H  2  X   -0.384678  -0.199524   0.216188  -0.616563  -0.428199
   19  H  2  Y   -0.277412   0.787420  -0.369473   0.513702  -0.070332
   20  H  2  Z    0.617725   0.141123  -0.222281  -0.065632   0.537747
   21  H  3  S    0.142626  -0.122736  -0.053334  -0.613322  -0.148110
   22  H  3  S    0.265199   0.368925   0.203615  -0.270397  -0.127156
   23  H  3  X    0.384678   0.199524   0.216187  -0.616563  -0.428199
   24  H  3  Y   -0.277412   0.787420   0.369473  -0.513702   0.070332
   25  H  3  Z   -0.617725  -0.141123  -0.222281  -0.065632   0.537747
   26  H  4  S    0.000000   0.000000   0.068385  -0.645216  -0.125650
   27  H  4  S    0.000000  -0.000000  -0.412905  -0.387779  -0.027581
   28  H  4  X    0.000000   0.000000   0.776417   0.906198   0.100588
   29  H  4  Y   -0.439308   0.005101   0.000000  -0.000000  -0.000000
   30  H  4  Z   -0.000000   0.000000   0.414627  -0.151618   0.043047

                     26         27         28         29
                    2.3454     2.5337     2.8084     2.8960
                     A          A          A          A   
    1  N  1  S    0.000000   0.020119  -0.056037   0.000000
    2  N  1  S    0.000000   0.166723  -0.127113   0.000000
    3  N  1  S   -0.000000   1.825522  -0.189819   0.000000
    4  N  1  X    0.000000  -0.050664  -0.690753   0.000000
    5  N  1  Y    0.022579  -0.000000  -0.000000  -0.630269
    6  N  1  Z   -0.000000   0.298254  -0.038268   0.000000
    7  N  1  X    0.000000  -0.467226  -1.420907   0.000000
    8  N  1  Y    0.522161  -0.000000  -0.000000  -1.105365
    9  N  1  Z   -0.000000   0.329534   0.059975   0.000000
   10  N  1 XX    0.000000   0.950719  -0.888575   0.000000
   11  N  1 YY   -0.000000  -0.171827   0.705861  -0.000000
   12  N  1 ZZ   -0.000000  -0.778891   0.182714  -0.000000
   13  N  1 XY    0.730805  -0.000000   0.000000   1.216252
   14  N  1 XZ   -0.000000  -0.644540  -1.128944   0.000000
   15  N  1 YZ    0.851514  -0.000000  -0.000000  -0.945506
   16  H  2  S   -0.142503  -0.769329  -0.635155   1.170163
   17  H  2  S   -0.137711  -0.243444  -0.235235   0.436411
   18  H  2  X   -0.359109  -0.033785  -0.224886   0.604749
   19  H  2  Y   -0.075759   0.560783   0.340796  -0.681321
   20  H  2  Z   -0.249843   0.394084   0.128098  -0.472882
   21  H  3  S    0.142503  -0.769329  -0.635155  -1.170162
   22  H  3  S    0.137711  -0.243444  -0.235235  -0.436411
   23  H  3  X    0.359110  -0.033785  -0.224886  -0.604749
   24  H  3  Y   -0.075759  -0.560783  -0.340796  -0.681320
   25  H  3  Z    0.249843   0.394084   0.128098   0.472882
   26  H  4  S   -0.000000  -0.491577   1.494040  -0.000000
   27  H  4  S    0.000000  -0.099119   0.553138  -0.000000
   28  H  4  X    0.000000   0.369592  -1.103044   0.000000
   29  H  4  Y   -0.700848   0.000000  -0.000000  -0.028938
   30  H  4  Z    0.000000   0.593967  -0.429021   0.000000
 .....DONE WITH MCSCF ITERATIONS.....
 CPU     0: STEP CPU TIME=     7.28 TOTAL CPU TIME=          8.2 (      0.1 MIN)
 TOTAL WALL CLOCK TIME=          8.2 SECONDS, CPU UTILIZATION IS   100.00%

     ----------------------------------------------------------------
     PROPERTY VALUES FOR THE MCSCF SELF-CONSISTENT FIELD WAVEFUNCTION
     ----------------------------------------------------------------

          -----------------
          ENERGY COMPONENTS
          -----------------

         WAVEFUNCTION NORMALIZATION =       1.0000000000

                ONE ELECTRON ENERGY =     -94.9330943789
                TWO ELECTRON ENERGY =      27.3959641258
           NUCLEAR REPULSION ENERGY =      11.7735173244
                                      ------------------
                       TOTAL ENERGY =     -55.7636129287

 ELECTRON-ELECTRON POTENTIAL ENERGY =      27.3959641258
  NUCLEUS-ELECTRON POTENTIAL ENERGY =    -150.8722990911
   NUCLEUS-NUCLEUS POTENTIAL ENERGY =      11.7735173244
                                      ------------------
             TOTAL POTENTIAL ENERGY =    -111.7028176409
               TOTAL KINETIC ENERGY =      55.9392047122
                 VIRIAL RATIO (V/T) =       1.9968610247

          ---------------------------------------
          MULLIKEN AND LOWDIN POPULATION ANALYSES
          ---------------------------------------

     ATOMIC MULLIKEN POPULATION IN EACH MOLECULAR ORBITAL

                      1          2          3          4          5

                  2.000000   1.984686   1.657026   1.650974   1.648020

    1             2.001056   1.290506   1.542723   0.943328   1.029571
    2            -0.000342   0.239241   0.028396   0.143511   0.305149
    3            -0.000342   0.239241   0.028396   0.143511   0.305149
    4            -0.000372   0.215696   0.057511   0.420625   0.008150

                      6          7          8

                  0.022524   0.018894   0.017877

    1             0.011425   0.010061   0.009534
    2             0.005569   0.001511   0.002648
    3             0.005569   0.001511   0.002648
    4            -0.000039   0.005810   0.003046
 WARNING! MCSCF POPULATIONS SHOWN ABOVE ARE FOR THE NATURAL ORBITALS.
 IGNORE THE ABOVE DATA FOR MCSCF FUNCTIONS WHICH ARE NOT OF -FORS- TYPE.
 THE FOLLOWING POPULATIONS ARE CORRECT FOR ANY MCSCF WAVEFUNCTION.

               ----- POPULATIONS IN EACH AO -----
                             MULLIKEN      LOWDIN
              1  N  1  S      2.00280     1.89255
              2  N  1  S      0.82813     0.57611
              3  N  1  S      0.60977     0.38693
              4  N  1  X      0.67896     0.59849
              5  N  1  Y      0.70457     0.63621
              6  N  1  Z      0.89060     0.83118
              7  N  1  X      0.26240     0.37599
              8  N  1  Y      0.32646     0.40497
              9  N  1  Z      0.51502     0.55190
             10  N  1 XX      0.00056     0.17576
             11  N  1 YY      0.00190     0.15797
             12  N  1 ZZ      0.00357     0.14177
             13  N  1 XY      0.00704     0.01272
             14  N  1 XZ      0.00640     0.01370
             15  N  1 YZ      0.00000     0.01107
             16  H  2  S      0.62865     0.48664
             17  H  2  S      0.03799     0.14084
             18  H  2  X      0.01843     0.03317
             19  H  2  Y      0.02503     0.04357
             20  H  2  Z      0.01558     0.03995
             21  H  3  S      0.62865     0.48664
             22  H  3  S      0.03799     0.14084
             23  H  3  X      0.01843     0.03317
             24  H  3  Y      0.02503     0.04357
             25  H  3  Z      0.01558     0.03995
             26  H  4  S      0.62235     0.48517
             27  H  4  S      0.02937     0.14054
             28  H  4  X      0.03696     0.06124
             29  H  4  Y      0.00811     0.01965
             30  H  4  Z      0.01365     0.03776

          ----- MULLIKEN ATOMIC OVERLAP POPULATIONS -----
          (OFF-DIAGONAL ELEMENTS NEED TO BE MULTIPLIED BY 2)

             1           2           3           4

    1    5.8873851
    2    0.3135849   0.4228930
    3    0.3135849  -0.0056868   0.4228930
    4    0.3236490  -0.0051062  -0.0051062   0.3969896

          TOTAL MULLIKEN AND LOWDIN ATOMIC POPULATIONS
       ATOM         MULL.POP.    CHARGE          LOW.POP.     CHARGE
    1 N             6.838204    0.161796         6.767311    0.232689
    2 H             0.725685    0.274315         0.744161    0.255839
    3 H             0.725685    0.274315         0.744161    0.255839
    4 H             0.710426    0.289574         0.744368    0.255632

          MULLIKEN SPHERICAL HARMONIC POPULATIONS
       ATOM           S       P       D      F      G      H      I    TOTAL
    1 N             3.44    3.38    0.02   0.00   0.00   0.00   0.00    6.84
    2 H             0.67    0.06    0.00   0.00   0.00   0.00   0.00    0.73
    3 H             0.67    0.06    0.00   0.00   0.00   0.00   0.00    0.73
    4 H             0.65    0.06    0.00   0.00   0.00   0.00   0.00    0.71

          ---------------------
          ELECTROSTATIC MOMENTS
          ---------------------

 POINT   1           X           Y           Z (BOHR)    CHARGE
                -0.000001   -0.000000   -0.177185        1.00 (A.U.)
         DX          DY          DZ         /D/  (DEBYE)
    -0.205067   -0.000000    2.147886    2.157653
 ...... END OF PROPERTY EVALUATION ......
 CPU     0: STEP CPU TIME=     0.00 TOTAL CPU TIME=          8.2 (      0.1 MIN)
 TOTAL WALL CLOCK TIME=          8.2 SECONDS, CPU UTILIZATION IS    99.88%

     -------------------------------------------------
     GMC-PT/GMC-QDPT or general MCSCF input parameters
     -------------------------------------------------
 # of frozen core orbs. =         0 ->         0
 # of doubly occ. orbs. =         1
 # of active      orbs. =         7
 # of virtual     orbs. =        21
 # of active electrons  =         7
 # of states in CI      =         3
 Highest state in CI    =         3
 kstate =  1 1 1
 avecoe =  0.333 0.333 0.333
 State symmetry           = A           
 Assigned symmetry number = 1

 <<<Act. MO sym.: 1111111

 <<<Division of 1-ext.:  0
 <<<Division of 2-ext.:  0

     ------------------------
     Orbital canonicalization
     ------------------------

 MOs are canonicalized for core, virtual, and invariant-active orbital spaces.
 This is a part of the GMC-QDPT calculation.
 SCHWARZ INEQUALITY OVERHEAD:       465 INTEGRALS, T=        0.00
 DIRECT TRANSFORMATION SKIPS AO INTEGRAL STORAGE ON DISK.

 Averaged energy =     -55.763612929

 State #    1  Energy =     -55.906448933  S =  0.500
 State #    2  Energy =     -55.725567977  S =  0.500
 State #    3  Energy =     -55.658821876  S =  0.500

 Orbital energies for filled orbital space
  -15.987570
 Orbital energies for active orbital space
   -1.537466  -0.976888  -0.905566  -0.761825   0.429294
    0.408675   0.331124
 Orbital energies for external orbital space
    0.154624   0.196677   0.201043   0.551907   0.556956
    0.624003   0.834399   0.957917   0.979995   1.366006
    1.477998   1.527724   1.610507   1.842544   1.858237
    2.098798   2.251398   2.345384   2.533655   2.808426
    2.896042

 Zero values mean non-canonical orbitals.
 ... done with orbital canonicalization ...
 CPU     0: STEP CPU TIME=     0.54 TOTAL CPU TIME=          8.7 (      0.1 MIN)
 TOTAL WALL CLOCK TIME=          8.8 SECONDS, CPU UTILIZATION IS    99.77%

     --------------------------------------------
     PARTIAL TWO ELECTRON INTEGRAL TRANSFORMATION
     --------------------------------------------

 NUMBER OF CORE MOLECULAR ORBITALS     =    0
 NUMBER OF OCCUPIED MOLECULAR ORBITALS =    8
 TOTAL NUMBER OF MOLECULAR ORBITALS    =   29
 TOTAL NUMBER OF ATOMIC ORBITALS       =   30
 THRESHOLD FOR KEEPING TRANSFORMED 2E- INTEGRALS = 1.000E-09
 AO INTEGRALS WILL BE CALCULATED IN DIRECT MODE...
 DIRECT TRANSFORMATION SKIPS AO INTEGRAL STORAGE ON DISK.
 SCHWARZ INEQUALITY OVERHEAD:       465 INTEGRALS, T=        0.00

 PLAN A: REQUIREMENTS FOR FULLY IN-MEMORY TRANSFORMATION:
 # OF WORDS AVAILABLE =            100000000
 # OF WORDS NEEDED    =               221798

 PARALLEL ONLY WORKS WITH THE SEGMENTED ALGORITHM.
 ADJUSTING MEMORY TO USE SEGMENTED ALGORITHM.


 PLAN B: REQUIREMENTS FOR THE SEGMENTED TRANSFORMATION:
       MINIMUM=         124148 WORDS FOR 1 MOLECULAR ORBITAL PER PASS
       MAXIMUM=         221798 WORDS FOR ALL MOLECULAR ORBITALS IN 1 PASS
              (          13950 EXTRA WORDS INCLUDES 1 EXTRA ORBITAL/PASS)
 THIS RUN USES=         221798 WORDS,
 DISTRIBUTING   1 PASSES EACH CONTAINING     8 ORBITALS OVER   1 PROCESSORS.

 CHOOSING SEGMENTED PARTIAL TRANSFORMATION...
 DIRECT TRANSFORMATION SKIPS AO INTEGRAL STORAGE ON DISK.
 PASS #   1 TOOK        0.05 SECONDS.
 TOTAL NUMBER OF TRANSFORMED 2E- INTEGRALS KEPT =        21164
 ... END OF INTEGRAL TRANSFORMATION ...
 CPU     0: STEP CPU TIME=     0.05 TOTAL CPU TIME=          8.8 (      0.1 MIN)
 TOTAL WALL CLOCK TIME=          8.8 SECONDS, CPU UTILIZATION IS    99.89%

     --------     ------------------------------------------
     GMC-QDPT     Program written by H.Nakano (Kyushu Univ.)
     --------     ------------------------------------------

 *** Reference space

 Reference type: ORMAS (= Occupation restricted multiple active space)
 # of orbitals          =  7
 # of minimum electrons =  7
 # of maximum electrons =  7
 State symmetry    =    1 (input)
 2*Sz              =    1 (input)
 Spin multiplicity =    2 (input)
 Dimension of reference space =      1225  (from      3432 walks)

 Dimension of reference space =      1225  (from      1225 walks)

 <<<Ionized spaces for Ref-CI:
      0:         1225 /   -1-0:         1960 /  0-1-0:         2891

 ***                    ***
 *** Reference space CI ***
 ***                    ***

 Converged after   27 iterations

 Reference wavefunctions:

 State #    1  Energy =     -55.906448933  S =  0.500

      Det      Coef    Occupancy (Ignoring core)
      ---      ----    --------- --------- -----
        1    0.980168  11110001110000
      393    0.067811  10110101010010
      717    0.077782  11010011100001

 State #    2  Energy =     -55.725567977  S =  0.500

      Det      Coef    Occupancy (Ignoring core)
      ---      ----    --------- --------- -----
       36   -0.984682  11110001101000
      463   -0.067297  10110101001010

 State #    3  Energy =     -55.658821876  S =  0.500

      Det      Coef    Occupancy (Ignoring core)
      ---      ----    --------- --------- -----
       71    0.982847  11110001011000
      822   -0.077329  11010011001001

 Davidson method: CPU/Wall time =           0.45 /           0.46 sec.

 Oscillator strength (invalid if E(1)/=E(GS)):
 -----------------------------------------
   State                        f
 -----------------------------------------
     2     F(REF-CI)=        0.0000439959
     3     F(REF-CI)=        0.0005073744
 -----------------------------------------

 Dipole moment matrix elements, x, y, z, in A.U.

 Dimension of ionized spaces for PT:
 (N-2) space:         1715 /  (N-1) space:         2842 /  N space:         2891
 (N+1) space:         2842 /  (N+2) space:         1715

 <<<Ionized spaces for internal:
         0:         1225 /      -1-0:         1960 /     0-1-0:         2891
  -1-0-1-0:         2842 / 0-1-0-1-0:         3381

 Diagonal elements of averaged one-particle density matrix:
       2       3       4       5       6       7       8
  0.9944  0.9895  0.9884  0.9933  0.0099  0.0111  0.0134
  0.9903  0.6613  0.6593  0.6637  0.0082  0.0079  0.0094

 Orbital energies:
 -------- Doubly-occupied orbitals (highest several orbs.) -------
             1
 -1.598757D+01
 -------- Active orbitals ----------------------------------------
             2            3            4            5            6
 -1.537466D+00-9.768876D-01-9.055655D-01-7.618255D-01 4.292942D-01
             7            8
  4.086745D-01 3.311240D-01
 -------- External orbitals (lowest several orbs.) ---------------
             9           10           11           12           13
  1.546235D-01 1.966766D-01 2.010428D-01 5.519069D-01 5.569561D-01
            14           15           16           17           18
  6.240035D-01 8.343995D-01 9.579171D-01 9.799955D-01 1.366006D+00

 *** Quasi-degeneracy checking

 === Det (|Ci| > 1.0D-01 and dE < 5.0D-03)

 # of small denominators (single excitations)
 State       dEmin  dE < 5.0D-03  dE < 5.0D-04  dE < 5.0D-05  dE < 5.0D-06
 ----- ----------- ------------- ------------- ------------- -------------
     1    5.00D-03             0             0             0             0
     2    5.00D-03             0             0             0             0
     3    5.00D-03             0             0             0             0

 # of small denominators (double excitations)
 State       dEmin  dE < 5.0D-03  dE < 5.0D-04  dE < 5.0D-05  dE < 5.0D-06
 ----- ----------- ------------- ------------- ------------- -------------
     1    5.00D-03             0             0             0             0
     2    5.00D-03             0             0             0             0
     3    5.00D-03             0             0             0             0

 *** Zeroth-Order Setup (Granovsky's zeroth-order vectors)
 Zeroth-order effective Hamiltonian
  (= Sum_i e(i)*<I|a+(i)a(i)|J> ):
                   1            2            3
     1 -7.502697D+00
     2 -1.490951D-10-7.379916D+00
     3 -2.045749D-03-7.763205D-10-7.303644D+00

 Zeroth-order vectors:
 State #    1
       MC st            1           3           2
       Coeff   -9.999D-01  -1.028D-02  -1.279D-09
 State #    2
       MC st            2           3           1
       Coeff   -1.000D+00  -1.014D-08   1.383D-09
 State #    3
       MC st            3           1           2
       Coeff    9.999D-01  -1.028D-02  -1.015D-08

 *** GMC-QDPT computation

 (Integral reading:  CPU/Wall time =           0.00 /           0.00 sec.)

 One-external:
   0 -ionized terms: CPU/Wall time =           0.03 /           0.03 sec.
 (-1)-ionized terms: CPU/Wall time =           0.10 /           0.10 sec.
 (+1)-ionized terms: CPU/Wall time =           0.02 /           0.02 sec.
 (+1)-ionized terms: CPU/Wall time =           0.01 /           0.01 sec.
 (+2)-ionized terms: CPU/Wall time =           0.00 /           0.00 sec.

 Internal:
 # of macro loops for internal contribution =         1 (input)
 Loop:    1
 Dimension of internal CISD space     =         0  (after screening)
 Space construction: CPU/Wall time =           0.01 /           0.02 sec.
 Internal terms:     CPU/Wall time =           0.00 /           0.00 sec.

 Two-external:
   0 -ionized terms: CPU/Wall time =           0.02 /           0.02 sec.
 (-1)-ionized terms: CPU/Wall time =           0.33 /           0.33 sec.
 (-2)-ionized terms: CPU/Wall time =           0.18 /           0.19 sec.

 Total time:         CPU/Wall time =           0.70 /           0.72 sec.

 ***                  ***
 *** GMC-QDPT Results ***
 ***                  ***

 Diagonal elements of effective Hamiltonian:
 Heff(  1) =   -56.00392721
 Heff(  2) =   -55.83497570
 Heff(  3) =   -55.76953497

 Off-diagonal elements of effective Hamiltonian:
                   1            2
     2  2.285585D-10
     3 -2.264271D-03-6.997874D-10

 ******** GMC-QDPT energies ********
 ----------------------------------------------------------------------------
   State                        1st order                           2nd order
 ----------------------------------------------------------------------------
     1     E(REF-CI)=      -55.9064489330   E(GMC-QDPT2)=      -56.0039490775
     2     E(REF-CI)=      -55.7255679774   E(GMC-QDPT2)=      -55.8349756986
     3     E(REF-CI)=      -55.6588218757   E(GMC-QDPT2)=      -55.7695131027
 ----------------------------------------------------------------------------

 Excitation energies (invalid if E(1)/=E(GS)):
 ----------------------------------------------------------------------------
   State                        1st order                           2nd order
 ----------------------------------------------------------------------------

     TZ Sorted GMC-PT ENERGIES:
         1      -56.0039490775
         2      -55.8349756986
         3      -55.7695131027
     2     E(REF-CI)=        4.9220240 eV   E(GMC-QDPT2)=        4.5980022 eV
     3     E(REF-CI)=        6.7382789 eV   E(GMC-QDPT2)=        6.3793311 eV
 ----------------------------------------------------------------------------

 Main characters of perturbed GMC-QDPT states:

 State #    1  Energy =     -56.003949077  S =  0.500

      Det      Coef    Occupancy (Ignoring core)
      ---      ----    --------- --------- -----
        1    0.980171  11110001110000
      393    0.067799  10110101010010
      717    0.077782  11010011100001

 State #    2  Energy =     -55.834975699  S =  0.500

      Det      Coef    Occupancy (Ignoring core)
      ---      ----    --------- --------- -----
       36   -0.984682  11110001101000
      463   -0.067297  10110101001010

 State #    3  Energy =     -55.769513103  S =  0.500

      Det      Coef    Occupancy (Ignoring core)
      ---      ----    --------- --------- -----
       71    0.982849  11110001011000
      822   -0.077330  11010011001001

 <<<Max |V/de| = 2.765D-02  Thresh = 1.000D+00

 Oscillator strength (invalid if E(1)/=E(GS)):
 ----------------------------------------------------------------------------
   State                        1st order                           2nd order
 ----------------------------------------------------------------------------
     2     F(REF-CI)=        0.0000439959     F(GMC-PT2)=        0.0000416755
     3     F(REF-CI)=        0.0005073744     F(GMC-PT2)=        0.0004863466
 ----------------------------------------------------------------------------

 Dipole moment matrix elements, x, y, z, in A.U.
States    1    1       -0.1143353310       -0.0000000069        0.7743676236
States    1    2        0.0000000018        0.0192343126       -0.0000000049
States    1    3       -0.0422667784        0.0000000020       -0.0364050582
States    2    1        0.0000000018        0.0192343126       -0.0000000049
States    2    2        0.1292020084       -0.0000000048        0.2529598198
States    2    3       -0.0000000030        0.2161481754        0.0000000001
States    3    1       -0.0422667784        0.0000000020       -0.0364050582
States    3    2       -0.0000000030        0.2161481754        0.0000000001
States    3    3       -0.4011102969       -0.0000000087        0.2497598408

 Oscillator strength (valid only when positive): 
 ----------------------------------------------------------------------------
  States                        1st order                           2nd order
 ----------------------------------------------------------------------------
  1  1     F(REF-CI)=        0.0000000000     F(GMC-PT2)=        0.0000000000
  1  2     F(REF-CI)=       -0.0000439959     F(GMC-PT2)=       -0.0000416755
  1  3     F(REF-CI)=       -0.0005073744     F(GMC-PT2)=       -0.0004863466
  2  1     F(REF-CI)=        0.0000439959     F(GMC-PT2)=        0.0000416755
  2  2     F(REF-CI)=        0.0000000000     F(GMC-PT2)=        0.0000000000
  2  3     F(REF-CI)=       -0.0020791476     F(GMC-PT2)=       -0.0020389431
  3  1     F(REF-CI)=        0.0005073744     F(GMC-PT2)=        0.0004863466
  3  2     F(REF-CI)=        0.0020791476     F(GMC-PT2)=        0.0020389431
  3  3     F(REF-CI)=        0.0000000000     F(GMC-PT2)=        0.0000000000
 CPU     0: STEP CPU TIME=     1.24 TOTAL CPU TIME=         10.0 (      0.2 MIN)
 TOTAL WALL CLOCK TIME=         10.0 SECONDS, CPU UTILIZATION IS    99.90%

     !!! DIABATIZATION FOR REF CI STATES !!!

 *******************************************************
          $DMO GROUP FOUND IN THE INPUT.
        DIABATIZATION OF ADIABATIC STATES BEGINS.
     PROGRAMMED BY TAO ZENG (CARLETON UNIVERSITY).
               Email: toby.zeng@carleton.ca
     See T. Zeng, J. Chem. Phys. 2017, 146, 144103
 *******************************************************

 *************************************************************************
     STEP 1: TRANSFORMATION OF ADIABATIC STATES TO THE DMO REPRESENTATION
         See Atchity and Ruedenberg, J. Chem. Phys. 1999, 111, 2910
 *************************************************************************

Read in Diabatic Molecualr Orbitals:

                      1          2          3          4          5

    1  N  1  S    0.008609   0.000000   0.000000  -0.013219   0.279491
    2  N  1  S    0.442914  -0.000000   0.000000  -0.184329   0.867803
    3  N  1  S    0.276913   0.000000  -0.000000  -0.288315   0.144236
    4  N  1  X   -0.000000   0.493155  -0.024636  -0.000000  -0.000000
    5  N  1  Y    0.000000   0.024636   0.493155  -0.000000   0.000000
    6  N  1  Z    0.090197   0.000000   0.000000   0.593421   0.705309
    7  N  1  X   -0.000000   0.210628  -0.010522   0.000000   0.000000
    8  N  1  Y    0.000000   0.010522   0.210628  -0.000000  -0.000000
    9  N  1  Z   -0.004381   0.000000   0.000000   0.381592  -0.106092
   10  N  1 XX   -0.000457   0.010719  -0.000535  -0.012387   0.006153
   11  N  1 YY   -0.000457  -0.010719   0.000535  -0.012387   0.006153
   12  N  1 ZZ    0.000914  -0.000000   0.000000   0.024773  -0.012306
   13  N  1 XY    0.000000  -0.000618  -0.012377  -0.000000   0.000000
   14  N  1 XZ   -0.000000   0.026529  -0.001325  -0.000000   0.000000
   15  N  1 YZ    0.000000   0.001325   0.026529  -0.000000   0.000000
   16  H  2  S    0.194462  -0.176074   0.343485   0.112865  -0.523343
   17  H  2  S    0.003574  -0.023812   0.046452   0.024014  -0.054445
   18  H  2  X    0.018760   0.009101   0.022834   0.009336  -0.039151
   19  H  2  Y   -0.032493   0.022287  -0.020044  -0.016171   0.067811
   20  H  2  Z   -0.009251   0.008464  -0.016511   0.018769  -0.010566
   21  H  3  S    0.194462  -0.209430  -0.324227   0.112865  -0.523343
   22  H  3  S    0.003574  -0.028322  -0.043847   0.024014  -0.054445
   23  H  3  X    0.018760   0.006781  -0.023627   0.009336  -0.039151
   24  H  3  Y    0.032493  -0.024174  -0.017723   0.016171  -0.067811
   25  H  3  Z   -0.009251   0.010067   0.015585   0.018769  -0.010566
   26  H  4  S    0.194462   0.385503  -0.019258   0.112865  -0.523343
   27  H  4  S    0.003574   0.052134  -0.002604   0.024014  -0.054445
   28  H  4  X   -0.037519  -0.032295   0.001613  -0.018672   0.078302
   29  H  4  Y    0.000000   0.001067   0.021353  -0.000000   0.000000
   30  H  4  Z   -0.009251  -0.018530   0.000926   0.018769  -0.010566

                      6          7

    1  N  1  S    0.000000  -0.000000
    2  N  1  S    0.000000  -0.000000
    3  N  1  S   -0.000000   0.000000
    4  N  1  X   -0.930415  -0.002083
    5  N  1  Y   -0.002083   0.930415
    6  N  1  Z   -0.000000   0.000000
    7  N  1  X   -0.046866  -0.000105
    8  N  1  Y   -0.000105   0.046866
    9  N  1  Z   -0.000000   0.000000
   10  N  1 XX    0.001538   0.000003
   11  N  1 YY   -0.001538  -0.000003
   12  N  1 ZZ   -0.000000   0.000000
   13  N  1 XY   -0.000004   0.001776
   14  N  1 XZ    0.039985   0.000090
   15  N  1 YZ    0.000090  -0.039985
   16  H  2  S   -0.362630  -0.631354
   17  H  2  S   -0.065964  -0.114846
   18  H  2  X    0.002763  -0.037520
   19  H  2  Y    0.037435   0.040736
   20  H  2  Z    0.001882   0.003276
   21  H  3  S   -0.365454   0.629724
   22  H  3  S   -0.066477   0.114549
   23  H  3  X    0.002595   0.037532
   24  H  3  Y   -0.037617   0.040567
   25  H  3  Z    0.001896  -0.003268
   26  H  4  S    0.728084   0.001630
   27  H  4  S    0.132441   0.000297
   28  H  4  X   -0.062317  -0.000140
   29  H  4  Y    0.000055  -0.024345
   30  H  4  Z   -0.003778  -0.000008

NUMBER OF SUB ACTIVE SPACES:   1
ROTATE ACTIVE MOS TO DMOS IN EACH SUB-SPACE

SPACE  1:

OVERLAP BETWEEN ORTHONORMAL AND PRE-ORTHONORMAL REF. DMOS

             1           2           3           4           5

    1    0.9980538  -0.0083071   0.0004150  -0.0006974  -0.0001366
    2   -0.0083071   1.0213926  -0.0025053  -0.0130718   0.0277002
    3    0.0004150  -0.0025053   0.9713680   0.0006530  -0.0013838
    4   -0.0006974  -0.0130718   0.0006530   0.9994595  -0.0009226
    5   -0.0001366   0.0277002  -0.0013838  -0.0009226   1.0136684
    6    0.0025355   0.0205174  -0.0010768  -0.0162284   0.0067843
    7    0.0000057   0.0011995   0.0230901  -0.0000363   0.0000152

             6           7

    1    0.0025355   0.0000057
    2    0.0205174   0.0011995
    3   -0.0010768   0.0230901
    4   -0.0162284  -0.0000363
    5    0.0067843   0.0000152
    6    0.9938332  -0.0000488
    7   -0.0000488   1.0156186
REFERENCE DMOS AFTER ORTHONORMALIZATION:

                      1          2          3          4          5

    1  N  1  S    0.008596  -0.007541   0.000377  -0.013096   0.275932
    2  N  1  S    0.443609  -0.021782   0.001088  -0.183769   0.856655
    3  N  1  S    0.277243  -0.005166   0.000258  -0.288316   0.142250
    4  N  1  X    0.006586   0.501926  -0.025074  -0.008793  -0.007421
    5  N  1  Y    0.000000   0.024290   0.486238  -0.000000  -0.000000
    6  N  1  Z    0.090782  -0.010645   0.000532   0.594389   0.696610
    7  N  1  X    0.001862   0.207407  -0.010361   0.001881  -0.005336
    8  N  1  Y    0.000000   0.010785   0.215884   0.000000  -0.000000
    9  N  1  Z   -0.004091   0.007553  -0.000377   0.381909  -0.104566
   10  N  1 XX   -0.000383   0.010155  -0.000507  -0.012237   0.005773
   11  N  1 YY   -0.000552  -0.010799   0.000539  -0.012555   0.006365
   12  N  1 ZZ    0.000935   0.000645  -0.000032   0.024792  -0.012139
   13  N  1 XY   -0.000000  -0.000639  -0.012792  -0.000000   0.000000
   14  N  1 XZ    0.000110   0.025211  -0.001259   0.000975  -0.000956
   15  N  1 YZ   -0.000000   0.001412   0.028266   0.000000  -0.000000
   16  H  2  S    0.194380  -0.146848   0.366927   0.104615  -0.509253
   17  H  2  S    0.003569  -0.020000   0.050320   0.022624  -0.052636
   18  H  2  X    0.018866   0.010284   0.024358   0.009484  -0.038879
   19  H  2  Y   -0.032486   0.018732  -0.021392  -0.015286   0.066092
   20  H  2  Z   -0.009183   0.008655  -0.017082   0.018922  -0.010682
   21  H  3  S    0.194380  -0.182686  -0.350465   0.104615  -0.509253
   22  H  3  S    0.003569  -0.024915  -0.048076   0.022624  -0.052636
   23  H  3  X    0.018866   0.007805  -0.025262   0.009484  -0.038879
   24  H  3  Y    0.032486  -0.020771  -0.019418   0.015286  -0.066092
   25  H  3  Z   -0.009183   0.010314   0.016135   0.018922  -0.010682
   26  H  4  S    0.196178   0.380382  -0.019002   0.129413  -0.531448
   27  H  4  S    0.003674   0.050253  -0.002510   0.026797  -0.055953
   28  H  4  X   -0.037712  -0.033047   0.001651  -0.020089   0.078548
   29  H  4  Y   -0.000000   0.001127   0.022567   0.000000  -0.000000
   30  H  4  Z   -0.009397  -0.017650   0.000882   0.018483  -0.009904

                      6          7

    1  N  1  S   -0.001963  -0.000004
    2  N  1  S   -0.009530  -0.000021
    3  N  1  S   -0.006279  -0.000014
    4  N  1  X   -0.946688  -0.002120
    5  N  1  Y   -0.002027   0.905023
    6  N  1  Z    0.004939   0.000011
    7  N  1  X   -0.051387  -0.000115
    8  N  1  Y   -0.000092   0.041224
    9  N  1  Z    0.006804   0.000015
   10  N  1 XX    0.001099   0.000002
   11  N  1 YY   -0.001571  -0.000004
   12  N  1 ZZ    0.000472   0.000001
   13  N  1 XY   -0.000005   0.002040
   14  N  1 XZ    0.039734   0.000089
   15  N  1 YZ    0.000090  -0.040015
   16  H  2  S   -0.356793  -0.629821
   17  H  2  S   -0.065192  -0.114201
   18  H  2  X    0.002965  -0.037508
   19  H  2  Y    0.036641   0.040574
   20  H  2  Z    0.002102   0.003605
   21  H  3  S   -0.359610   0.628216
   22  H  3  S   -0.065702   0.113908
   23  H  3  X    0.002797   0.037520
   24  H  3  Y   -0.036822   0.040409
   25  H  3  Z    0.002118  -0.003596
   26  H  4  S    0.729969   0.001635
   27  H  4  S    0.133033   0.000298
   28  H  4  X   -0.062788  -0.000141
   29  H  4  Y    0.000055  -0.024485
   30  H  4  Z   -0.003043  -0.000007

 -------------------------------------------
       MAXIMIZING MORMO OVERLAP TERM        
 -------------------------------------------
   SWEEP    VALUE       PROGRESS
     0     6.79051
     1     6.99538     0.20487698
     2     6.99542     0.00003195
     3     6.99542     0.00000000
     4     6.99542     0.00000000
 THE ROTATION IS DONE
ACTIVE ORBITALS AFTER MORMO:

                      1          2          3          4          5

    1  N  1  S    0.008410  -0.009966   0.000498  -0.013000   0.270062
    2  N  1  S    0.441611  -0.020870   0.001043  -0.184486   0.848950
    3  N  1  S    0.283719   0.010921  -0.000546  -0.286947   0.150914
    4  N  1  X    0.004003   0.503743  -0.025165  -0.011915  -0.002913
    5  N  1  Y    0.000000   0.023905   0.478533  -0.000000   0.000000
    6  N  1  Z    0.089648  -0.015387   0.000769   0.594564   0.693377
    7  N  1  X    0.006741   0.189802  -0.009482   0.016495  -0.017366
    8  N  1  Y   -0.000000   0.011847   0.237142   0.000000  -0.000000
    9  N  1  Z   -0.000705   0.021723  -0.001085   0.381776  -0.100418
   10  N  1 XX    0.000600   0.009034  -0.000451  -0.012797  -0.014136
   11  N  1 YY   -0.001510  -0.009520   0.000476  -0.011739   0.024044
   12  N  1 ZZ    0.000910   0.000486  -0.000024   0.024535  -0.009908
   13  N  1 XY    0.000000  -0.000720  -0.014420  -0.000000  -0.000000
   14  N  1 XZ   -0.000648   0.024027  -0.001200   0.000362   0.018278
   15  N  1 YZ   -0.000000   0.001359   0.027204   0.000000  -0.000000
   16  H  2  S    0.193924  -0.164433   0.351668   0.108257  -0.511764
   17  H  2  S    0.003887  -0.017870   0.059495   0.023637  -0.055062
   18  H  2  X    0.022355   0.006697   0.026317   0.010130  -0.039197
   19  H  2  Y   -0.028423   0.020950  -0.016355  -0.015584   0.064786
   20  H  2  Z   -0.010244   0.010548  -0.017028   0.018533  -0.011115
   21  H  3  S    0.193924  -0.198662  -0.333530   0.108257  -0.511764
   22  H  3  S    0.003887  -0.023711  -0.057417   0.023637  -0.055062
   23  H  3  X    0.022355   0.004041  -0.026853   0.010130  -0.039197
   24  H  3  Y    0.028423  -0.022476  -0.014185   0.015584  -0.064786
   25  H  3  Z   -0.010244   0.012193   0.015892   0.018533  -0.011115
   26  H  4  S    0.190996   0.385595  -0.019263   0.120342  -0.527037
   27  H  4  S    0.001626   0.045703  -0.002283   0.026049  -0.054105
   28  H  4  X   -0.038171  -0.035252   0.001761  -0.017886   0.075987
   29  H  4  Y   -0.000000   0.001038   0.020776   0.000000  -0.000000
   30  H  4  Z   -0.006996  -0.016216   0.000810   0.019389  -0.010306

                      6          7

    1  N  1  S   -0.024617  -0.000055
    2  N  1  S   -0.055155  -0.000124
    3  N  1  S    0.051505   0.000115
    4  N  1  X   -0.940278  -0.002106
    5  N  1  Y   -0.002033   0.908032
    6  N  1  Z    0.024776   0.000055
    7  N  1  X   -0.067985  -0.000152
    8  N  1  Y   -0.000072   0.031950
    9  N  1  Z   -0.006395  -0.000014
   10  N  1 XX   -0.011278  -0.000025
   11  N  1 YY    0.015209   0.000034
   12  N  1 ZZ   -0.003932  -0.000009
   13  N  1 XY   -0.000044   0.019628
   14  N  1 XZ    0.049827   0.000112
   15  N  1 YZ    0.000069  -0.030827
   16  H  2  S   -0.367228  -0.617789
   17  H  2  S   -0.067761  -0.123348
   18  H  2  X    0.003296  -0.040307
   19  H  2  Y    0.040626   0.034005
   20  H  2  Z   -0.004634   0.009033
   21  H  3  S   -0.369991   0.616138
   22  H  3  S   -0.068313   0.123043
   23  H  3  X    0.003116   0.040321
   24  H  3  Y   -0.040778   0.033823
   25  H  3  Z   -0.004593  -0.009054
   26  H  4  S    0.732414   0.001640
   27  H  4  S    0.129802   0.000291
   28  H  4  X   -0.065804  -0.000147
   29  H  4  Y    0.000038  -0.016904
   30  H  4  Z    0.001646   0.000004

Actually Used Diabatic Molecualr Orbitals:

                      1          2          3          4          5

    1  N  1  S    0.008410  -0.009966   0.000498  -0.013000   0.270062
    2  N  1  S    0.441611  -0.020870   0.001043  -0.184486   0.848950
    3  N  1  S    0.283719   0.010921  -0.000546  -0.286947   0.150914
    4  N  1  X    0.004003   0.503743  -0.025165  -0.011915  -0.002913
    5  N  1  Y    0.000000   0.023905   0.478533  -0.000000   0.000000
    6  N  1  Z    0.089648  -0.015387   0.000769   0.594564   0.693377
    7  N  1  X    0.006741   0.189802  -0.009482   0.016495  -0.017366
    8  N  1  Y   -0.000000   0.011847   0.237142   0.000000  -0.000000
    9  N  1  Z   -0.000705   0.021723  -0.001085   0.381776  -0.100418
   10  N  1 XX    0.000600   0.009034  -0.000451  -0.012797  -0.014136
   11  N  1 YY   -0.001510  -0.009520   0.000476  -0.011739   0.024044
   12  N  1 ZZ    0.000910   0.000486  -0.000024   0.024535  -0.009908
   13  N  1 XY    0.000000  -0.000720  -0.014420  -0.000000  -0.000000
   14  N  1 XZ   -0.000648   0.024027  -0.001200   0.000362   0.018278
   15  N  1 YZ   -0.000000   0.001359   0.027204   0.000000  -0.000000
   16  H  2  S    0.193924  -0.164433   0.351668   0.108257  -0.511764
   17  H  2  S    0.003887  -0.017870   0.059495   0.023637  -0.055062
   18  H  2  X    0.022355   0.006697   0.026317   0.010130  -0.039197
   19  H  2  Y   -0.028423   0.020950  -0.016355  -0.015584   0.064786
   20  H  2  Z   -0.010244   0.010548  -0.017028   0.018533  -0.011115
   21  H  3  S    0.193924  -0.198662  -0.333530   0.108257  -0.511764
   22  H  3  S    0.003887  -0.023711  -0.057417   0.023637  -0.055062
   23  H  3  X    0.022355   0.004041  -0.026853   0.010130  -0.039197
   24  H  3  Y    0.028423  -0.022476  -0.014185   0.015584  -0.064786
   25  H  3  Z   -0.010244   0.012193   0.015892   0.018533  -0.011115
   26  H  4  S    0.190996   0.385595  -0.019263   0.120342  -0.527037
[...]
       38   -0.029001    0.029001  2202+00
       76    0.027182    0.027182  2+2-0+0
      248    0.026969   -0.026969  2+02200
      192   -0.026109    0.026109  2+-+-0+
      391    0.025955   -0.025955  2+20020
      177    0.025508   -0.025508  2+20200
      180   -0.025051    0.025051  -+2+200
      809    0.024941   -0.024941  20+2+0-
      323   -0.024787    0.024787  +022-+0
      807   -0.024466    0.024466  2++-+0-
      317    0.023830   -0.023830  ++2-200
       78   -0.023757    0.023757  20220+0
       51    0.022727   -0.022727  22+-00+
      878    0.022684    0.022684  ++-2+0-
      264    0.022405   -0.022405  -++2-0+
      421   -0.022339   -0.022339  +22+0-0
        6    0.021706   -0.021706  22200+0
      113    0.021621   -0.021621  +-220+0
       99   -0.021058    0.021058  20-20++
      751    0.020145   -0.020145  2+20002

 State #    3  Energy =     -55.834975493

      Det      Coef        Coefp    Occupancy (Ignoring core)
      ---      ----        ----    --------- --------- -----
       36   -0.984680   -0.984680  22+2000
      463    0.067297   -0.067297  20+2020
      121   -0.035968    0.035968  +22-00+
      472   -0.034793   -0.034793  2+020-+
      297    0.033204   -0.033204  +202-0+
      285    0.032467   -0.032467  02+2200
      123    0.031336   -0.031336  +-2200+
      262   -0.027523   -0.027523  2+02-0+
      157    0.027470   -0.027470  220+-0+
      142    0.027377    0.027377  22+0200
       16   -0.027310    0.027310  222000+
      460   -0.025206   -0.025206  -++2+-0
      288   -0.024907   -0.024907  +-+2-+0
       73    0.024072   -0.024072  2+-2+00
      145   -0.024041   -0.024041  -2++200
       39   -0.023606   -0.023606  2-+2+00
      282    0.023482    0.023482  +2+-200
      249    0.023423   -0.023423  20+2200
      716    0.022314    0.022314  22+0002
      356    0.022176    0.022176  22+0020
       64    0.021369   -0.021369  2-020++
      843   -0.020584   -0.020584  +202+0-
      498   -0.020221    0.020221  +-+2020
      464    0.020191    0.020191  -++2020
      859    0.020062   -0.020062  02+2002

 ---------------------------------------
    -DIABATIC STATES IN PROTOTYPES-     
 ---------------------------------------

     STATE:    1
 Group Ref#    Coefficients
     1    1    0.993831
     2    2   -0.000188
     3    3   -0.000017

WEIGHT OF LISTED PROTOTYPES:   98.77%

     STATE:    2
 Group Ref#    Coefficients
     1    1   -0.000188
     2    2    0.992906
     3    3   -0.000103

WEIGHT OF LISTED PROTOTYPES:   98.59%

     STATE:    3
 Group Ref#    Coefficients
     1    1   -0.000017
     2    2   -0.000103
     3    3    0.993739

WEIGHT OF LISTED PROTOTYPES:   98.75%

 --------------------------------------------------
 IN DIRECT MAX. DIABATIZATION FOR GMC-QDPT

 DIRECT MAXIMIZATION (DM) WITHOUT TRUNCATING ADIABATS
 EXPANSIONS INTO THE REFERENCE CONFIGURATION SPACE
 --------------------------------------------------

 -------------------------------------------
 - DM DIABT PT HAMILTONIAN MATRIX ELEMENTS -
 -------------------------------------------
                                            
 --- DIABATIC ENERGIES (DIAGONAL ELEMENT) ---       HARTREE            EV
 STATE #  1'S GMC-PT-LEVEL DIABATIC ENERGY=     -56.002915273       0.000000000
 STATE #  2'S GMC-PT-LEVEL DIABATIC ENERGY=     -55.770547112       6.323059716
 STATE #  3'S GMC-PT-LEVEL DIABATIC ENERGY=     -55.834975493       4.569874171

 --- DIABATIC COUPLINGS (OFF DIAGONAL ELEMENTS)---  HATREE            EV
 STATE #  1 &  2'S GMC-PT-LEVEL COUPLING  =       0.015533548       0.422689358
 STATE #  1 &  3'S GMC-PT-LEVEL COUPLING  =      -0.000032908      -0.000895479
 STATE #  2 &  3'S GMC-PT-LEVEL COUPLING  =      -0.000115037      -0.003130309

 ---------------------------------------
     - ROTATION TO DIABATIC STATES -    
 ---------------------------------------
 ROWS=ADIABATIC, COLUMNS=DIABATIC STATES

             1           2           3

    1   -0.9977927   0.0664058  -0.0001491
    2   -0.0000301   0.0017928   0.9999984
    3    0.0664060   0.9977911  -0.0017868

 ---------------------------------------
          - DIABATIC STATES -           
 ---------------------------------------

 State #    1  Energy =     -56.002915273

      Det      Coef        Coefp    Occupancy (Ignoring core)
      ---      ----        ----    --------- --------- -----
        1    0.977284   -0.977284  222+000
      717   -0.075302   -0.075302  220+002
       17    0.072464    0.072464  22-+00+
      393   -0.067175   -0.067175  202+020
      701   -0.043651   -0.043651  22++00-
      402    0.037984   -0.037984  2+-+0-+
      708    0.036800   -0.036800  2-++0+-
        4    0.034164   -0.034164  2-2++00
      215   -0.034105   -0.034105  022+200
      227   -0.033438   -0.033438  +2-+-0+
      176   -0.033369    0.033369  2+2+-00
      705   -0.033097   -0.033097  -2+++0-
      218    0.031994   -0.031994  +-2+-+0
      390    0.031849   -0.031849  -+2++-0
       51   -0.028812    0.028812  22+-00+
        2    0.028419   -0.028419  2220+00
      212    0.027869    0.027869  +220200
      122    0.026790    0.026790  +2-200+
       76    0.025901    0.025901  2+2-0+0
        8   -0.025027    0.025027  2-2+0+0
      113   -0.024130    0.024130  +-220+0
      106   -0.023470   -0.023470  +222000
      773    0.022697   -0.022697  +2-++0-
      179   -0.022433   -0.022433  202+200
      702    0.022142    0.022142  22+0+0-
      159    0.022101   -0.022101  -2++-0+
      143   -0.021740   -0.021740  220+200
      387   -0.021347    0.021347  2+20+-0
        6   -0.021090    0.021090  22200+0
      424   -0.020939   -0.020939  +-2++-0
      368   -0.020548   -0.020548  2-++0-+
      184   -0.020432   -0.020432  -+2+-+0
      742   -0.020286   -0.020286  2+-+0+-

 State #    2  Energy =     -55.770547112

      Det      Coef        Coefp    Occupancy (Ignoring core)
      ---      ----        ----    --------- --------- -----
       71   -0.980165    0.980165  2+22000
      822    0.075904   -0.075904  2+02002
       36    0.047204    0.047204  22+2000
      806   -0.042728   -0.042728  2++200-
      111    0.041641   -0.041641  +22-0+0
      813    0.041012   -0.041012  20+20+-
       78   -0.037277    0.037277  20220+0
      332   -0.034179    0.034179  ++-2-0+
      810   -0.034041   -0.034041  -++2+0-
      320    0.034013    0.034013  0+22200
      122    0.032640    0.032640  +2-200+
       87    0.031740   -0.031740  2+-200+
      323   -0.030535    0.030535  +022-+0
      180   -0.028102    0.028102  -+2+200
      317    0.027972   -0.027972  ++2-200
        6    0.026119   -0.026119  22200+0
      177    0.025990   -0.025990  2+20200
       38   -0.025757    0.025757  2202+00
      391    0.024477   -0.024477  2+20020
      248    0.024166   -0.024166  2+02200
      192   -0.024165    0.024165  2+-+-0+
      807   -0.024163    0.024163  2++-+0-
       99   -0.024106    0.024106  20-20++
      183   -0.023083    0.023083  202+-+0
       51    0.023058   -0.023058  22+-00+
      878    0.022770    0.022770  ++-2+0-
      113    0.022547   -0.022547  +-220+0
      264    0.022396   -0.022396  -++2-0+
      421   -0.022383   -0.022383  +22+0-0
      106   -0.021947   -0.021947  +222000
      751    0.020949   -0.020949  2+20002

 State #    3  Energy =     -55.834975493

      Det      Coef        Coefp    Occupancy (Ignoring core)
      ---      ----        ----    --------- --------- -----
       36   -0.979637   -0.979637  22+2000
      463    0.065642   -0.065642  20+2020
       39   -0.062063   -0.062063  2-+2+00
       71   -0.047177    0.047177  2+22000
       41   -0.046943    0.046943  22+-0+0
      472   -0.040358   -0.040358  2+020-+
      246    0.038852    0.038852  2++2-00
      121   -0.037477    0.037477  +22-00+
      351    0.037120    0.037120  22++0-0
      285    0.033519   -0.033519  02+2200
      297    0.033066   -0.033066  +202-0+
      460   -0.032114   -0.032114  -++2+-0
      288   -0.031551   -0.031551  +-+2-+0
      123    0.028154   -0.028154  +-2200+
      145   -0.028151   -0.028151  -2++200
      282    0.027869    0.027869  +2+-200
      142    0.026029    0.026029  22+0200
      157    0.025832   -0.025832  220+-0+
       16   -0.024923    0.024923  222000+
      716    0.024484    0.024484  22+0002
       64    0.023804   -0.023804  2-020++
      249    0.023329   -0.023329  20+2200
       73    0.023211   -0.023211  2+-2+00
      457   -0.022257    0.022257  2++-+-0
      148   -0.022136   -0.022136  2-++-+0
       86    0.021246    0.021246  2+2-00+
      494    0.020925   -0.020925  +-+2+-0
      356    0.020731    0.020731  22+0020
      859    0.020073   -0.020073  02+2002

 ---------------------------------------
      - DIABATIC STATES IN CMO -        
 ---------------------------------------

 State #    1  Energy =     -56.002915273

      Det      Coef        Coefp    Occupancy (Ignoring core)
      ---      ----        ----    --------- --------- -----
        1    0.977747   -0.977747  222+000
      717   -0.077567   -0.077567  220+002
      393   -0.068899   -0.068899  202+020
       71   -0.068642    0.068642  2+22000
       17    0.045518    0.045518  22-+00+
        8   -0.041468    0.041468  2-2+0+0
      705   -0.033413   -0.033413  -2+++0-
      227   -0.033222   -0.033222  +2-+-0+
      215   -0.032792   -0.032792  022+200
      708    0.031937   -0.031937  2-++0+-
      402    0.031545   -0.031545  2+-+0-+
       51   -0.028987    0.028987  22+-00+
        2    0.028001   -0.028001  2220+00
      122    0.026557    0.026557  +2-200+
      143   -0.025658   -0.025658  220+200
      106   -0.025622   -0.025622  +222000
      390    0.025564   -0.025564  -+2++-0
      218    0.025179   -0.025179  +-2+-+0
      704    0.024862   -0.024862  2-+++0-
       76    0.024248    0.024248  2+2-0+0
      212    0.023976    0.023976  +220200
      702    0.023951    0.023951  22+0+0-
      773    0.023188   -0.023188  +2-++0-
      113   -0.022631    0.022631  +-220+0
      159    0.022600   -0.022600  -2++-0+
      192    0.022478   -0.022478  2+-+-0+
      179   -0.020973   -0.020973  202+200
      428    0.020510    0.020510  +-2+020
      394   -0.020026    0.020026  -+2+020

 State #    2  Energy =     -55.770547112

      Det      Coef        Coefp    Occupancy (Ignoring core)
      ---      ----        ----    --------- --------- -----
       71   -0.980453    0.980453  2+22000
      822    0.077110   -0.077110  2+02002
        1   -0.068998    0.068998  222+000
      111    0.039896   -0.039896  +22-0+0
      813    0.034112   -0.034112  20+20+-
      810   -0.033910   -0.033910  -++2+0-
      122    0.033163    0.033163  +2-200+
      332   -0.032887    0.032887  ++-2-0+
      320    0.032532    0.032532  0+22200
       38   -0.029001    0.029001  2202+00
       76    0.027182    0.027182  2+2-0+0
      248    0.026969   -0.026969  2+02200
      192   -0.026109    0.026109  2+-+-0+
      391    0.025955   -0.025955  2+20020
      177    0.025508   -0.025508  2+20200
      180   -0.025051    0.025051  -+2+200
      809    0.024941   -0.024941  20+2+0-
      323   -0.024787    0.024787  +022-+0
      807   -0.024466    0.024466  2++-+0-
      317    0.023830   -0.023830  ++2-200
       78   -0.023757    0.023757  20220+0
       51    0.022727   -0.022727  22+-00+
      878    0.022684    0.022684  ++-2+0-
      264    0.022405   -0.022405  -++2-0+
      421   -0.022339   -0.022339  +22+0-0
        6    0.021706   -0.021706  22200+0
      113    0.021621   -0.021621  +-220+0
       99   -0.021058    0.021058  20-20++
      751    0.020145   -0.020145  2+20002

 State #    3  Energy =     -55.834975493

      Det      Coef        Coefp    Occupancy (Ignoring core)
      ---      ----        ----    --------- --------- -----
       36   -0.984680   -0.984680  22+2000
      463    0.067297   -0.067297  20+2020
      121   -0.035968    0.035968  +22-00+
      472   -0.034793   -0.034793  2+020-+
      297    0.033204   -0.033204  +202-0+
      285    0.032467   -0.032467  02+2200
      123    0.031336   -0.031336  +-2200+
      262   -0.027523   -0.027523  2+02-0+
      157    0.027470   -0.027470  220+-0+
      142    0.027377    0.027377  22+0200
       16   -0.027310    0.027310  222000+
      460   -0.025206   -0.025206  -++2+-0
      288   -0.024907   -0.024907  +-+2-+0
       73    0.024072   -0.024072  2+-2+00
      145   -0.024041   -0.024041  -2++200
       39   -0.023606   -0.023606  2-+2+00
      282    0.023482    0.023482  +2+-200
      249    0.023423   -0.023423  20+2200
      716    0.022314    0.022314  22+0002
      356    0.022176    0.022176  22+0020
       64    0.021369   -0.021369  2-020++
      843   -0.020584   -0.020584  +202+0-
      498   -0.020221    0.020221  +-+2020
      464    0.020191    0.020191  -++2020
      859    0.020062   -0.020062  02+2002

 ---------------------------------------
    -DIABATIC STATES IN PROTOTYPES-     
 ---------------------------------------

     STATE:    1
 Group Ref#    Coefficients
     1    1    0.993831
     2    2   -0.000188
     3    3   -0.000017

WEIGHT OF LISTED PROTOTYPES:   98.77%

     STATE:    2
 Group Ref#    Coefficients
     1    1   -0.000188
     2    2    0.992906
     3    3   -0.000103

WEIGHT OF LISTED PROTOTYPES:   98.59%

     STATE:    3
 Group Ref#    Coefficients
     1    1   -0.000017
     2    2   -0.000103
     3    3    0.993739

WEIGHT OF LISTED PROTOTYPES:   98.75%

     DIRECT MAX. DIABATIZATION FINISHED    
 CPU     0: STEP CPU TIME=     0.25 TOTAL CPU TIME=         10.3 (      0.2 MIN)
 TOTAL WALL CLOCK TIME=         10.3 SECONDS, CPU UTILIZATION IS    99.90%

DIABATS FOR SPIN-ORBIT CALCULATION ARE READY

TRANSITION DIPOLES BETWEEN ADIABATS (in A.U.):

STATE PAIR      X         Y         Z
    1    1 -0.114335 -0.000000  0.774368
    2    1  0.000000  0.019234 -0.000000
    2    2  0.129202 -0.000000  0.252960
    3    1 -0.042267  0.000000 -0.036405
    3    2 -0.000000  0.216148  0.000000
    3    3 -0.401110 -0.000000  0.249760


TRANSITION DIPOLES BETWEEN DIABATS (in A.U.):

STATE PAIR      X         Y         Z
    1    1 -0.109999  0.000000  0.776879
    2    1  0.022892 -0.000015  0.001324
    2    2 -0.405445  0.000778  0.247249
    3    1 -0.000048 -0.004838  0.000013
    3    2  0.000959  0.216947  0.000010
    3    3  0.129200 -0.000778  0.252960

TRANSITION DIPOLES BETWEEN DIRECT MAX. DIABATS (in A.U.):

STATE PAIR      X         Y         Z
    1    1 -0.109999  0.000000  0.776879
    2    1  0.022892 -0.000015  0.001324
    2    2 -0.405445  0.000778  0.247249
    3    1 -0.000048 -0.004838  0.000013
    3    2  0.000959  0.216947  0.000010
    3    3  0.129200 -0.000778  0.252960
 No $TRANST Group Found.
 Quit without doing spin-orbit coupling
 ..... DONE WITH MP2 ENERGY .....
 CPU     0: STEP CPU TIME=     0.00 TOTAL CPU TIME=         10.3 (      0.2 MIN)
 TOTAL WALL CLOCK TIME=         10.3 SECONDS, CPU UTILIZATION IS    99.90%
            100000000  WORDS OF DYNAMIC MEMORY USED
 EXECUTION OF GAMESS TERMINATED NORMALLY Wed Nov 16 19:22:34 2022
 DDI: 715512 bytes (0.7 MB / 0 MWords) used by master data server.

 ----------------------------------------
 CPU timing information for all processes
 ========================================
 0: 10.04 + 0.272 = 10.277
 ----------------------------------------
Note: The following floating-point exceptions are signalling: IEEE_DENORMAL
 ddikick.x: exited gracefully.
unset echo
----- accounting info -----
Files used on the master node io002 were:
-rw-r--r-- 1 bsonghao nooijen   20722 Nov 16 19:22 /scratch/bsonghao/nh3_diabatization_2d_at_mode_7_8_dist0.0_-0.2.F05
-rw-r--r-- 1 bsonghao nooijen  363520 Nov 16 19:22 /scratch/bsonghao/nh3_diabatization_2d_at_mode_7_8_dist0.0_-0.2.F09
-rw-r--r-- 1 bsonghao nooijen 1995920 Nov 16 19:22 /scratch/bsonghao/nh3_diabatization_2d_at_mode_7_8_dist0.0_-0.2.F10
-rw-r--r-- 1 bsonghao nooijen  104040 Nov 16 19:22 /scratch/bsonghao/nh3_diabatization_2d_at_mode_7_8_dist0.0_-0.2.F13
-rw-r--r-- 1 bsonghao nooijen  180312 Nov 16 19:22 /scratch/bsonghao/nh3_diabatization_2d_at_mode_7_8_dist0.0_-0.2.F15
-rw-r--r-- 1 bsonghao nooijen       0 Nov 16 19:22 /scratch/bsonghao/nh3_diabatization_2d_at_mode_7_8_dist0.0_-0.2.F16
-rw-r--r-- 1 bsonghao nooijen    9808 Nov 16 19:22 /scratch/bsonghao/nh3_diabatization_2d_at_mode_7_8_dist0.0_-0.2.F70
-rw-r--r-- 1 bsonghao nooijen    9808 Nov 16 19:22 /scratch/bsonghao/nh3_diabatization_2d_at_mode_7_8_dist0.0_-0.2.F71
-rw-r--r-- 1 bsonghao nooijen   19608 Nov 16 19:22 /scratch/bsonghao/nh3_diabatization_2d_at_mode_7_8_dist0.0_-0.2.F72
-rw-r--r-- 1 bsonghao nooijen   19608 Nov 16 19:22 /scratch/bsonghao/nh3_diabatization_2d_at_mode_7_8_dist0.0_-0.2.F73
-rw-r--r-- 1 bsonghao nooijen 1920824 Nov 16 19:22 /scratch/bsonghao/nh3_diabatization_2d_at_mode_7_8_dist0.0_-0.2.F74
-rw-r--r-- 1 bsonghao nooijen       0 Nov 16 19:22 /scratch/bsonghao/nh3_diabatization_2d_at_mode_7_8_dist0.0_-0.2.F75
-rw-r--r-- 1 bsonghao nooijen   58848 Nov 16 19:22 /scratch/bsonghao/nh3_diabatization_2d_at_mode_7_8_dist0.0_-0.2.F76
-rw-r--r-- 1 bsonghao nooijen       0 Nov 16 19:22 /scratch/bsonghao/nh3_diabatization_2d_at_mode_7_8_dist0.0_-0.2.F77
-rw-r--r-- 1 bsonghao nooijen    1864 Nov 16 19:22 /scratch/bsonghao/nh3_diabatization_2d_at_mode_7_8_dist0.0_-0.2.F78
-rw-r--r-- 1 bsonghao nooijen   39208 Nov 16 19:22 /scratch/bsonghao/nh3_diabatization_2d_at_mode_7_8_dist0.0_-0.2.F79
-rw-r--r-- 1 bsonghao nooijen     104 Nov 16 19:22 /scratch/bsonghao/nh3_diabatization_2d_at_mode_7_8_dist0.0_-0.2.F80
-rw-r--r-- 1 bsonghao nooijen   13472 Nov 16 19:22 /scratch/bsonghao/nh3_diabatization_2d_at_mode_7_8_dist0.0_-0.2.F81
-rw-r--r-- 1 bsonghao nooijen      16 Nov 16 19:22 /scratch/bsonghao/nh3_diabatization_2d_at_mode_7_8_dist0.0_-0.2.F82
-rw-r--r-- 1 bsonghao nooijen   19216 Nov 16 19:22 /scratch/bsonghao/nh3_diabatization_2d_at_mode_7_8_dist0.0_-0.2.F83
-rw-r--r-- 1 bsonghao nooijen   29712 Nov 16 19:22 /scratch/bsonghao/nh3_diabatization_2d_at_mode_7_8_dist0.0_-0.2.F84
-rw-r--r-- 1 bsonghao nooijen  279144 Nov 16 19:22 /scratch/bsonghao/nh3_diabatization_2d_at_mode_7_8_dist0.0_-0.2.F85
-rw-r--r-- 1 bsonghao nooijen  635512 Nov 16 19:22 /scratch/bsonghao/nh3_diabatization_2d_at_mode_7_8_dist0.0_-0.2.F86
-rw-r--r-- 1 bsonghao nooijen     656 Nov 16 19:22 /scratch/bsonghao/nh3_diabatization_2d_at_mode_7_8_dist0.0_-0.2.F87
-rw-r--r-- 1 bsonghao nooijen   19952 Nov 16 19:22 /scratch/bsonghao/nh3_diabatization_2d_at_mode_7_8_dist0.0_-0.2.F88
-rw-r--r-- 1 bsonghao nooijen     240 Nov 16 19:22 /scratch/bsonghao/nh3_diabatization_2d_at_mode_7_8_dist0.0_-0.2.F89
-rw-r--r-- 1 bsonghao nooijen       0 Nov 16 19:22 /scratch/bsonghao/nh3_diabatization_2d_at_mode_7_8_dist0.0_-0.2.F90
-rw-r--r-- 1 bsonghao nooijen   13760 Nov 16 19:22 /scratch/bsonghao/nh3_diabatization_2d_at_mode_7_8_dist0.0_-0.2.F91
-rw-r--r-- 1 bsonghao nooijen   22776 Nov 16 19:22 /scratch/bsonghao/nh3_diabatization_2d_at_mode_7_8_dist0.0_-0.2.F92
-rw-r--r-- 1 bsonghao nooijen   23168 Nov 16 19:22 /scratch/bsonghao/nh3_diabatization_2d_at_mode_7_8_dist0.0_-0.2.F93
-rw-r--r-- 1 bsonghao nooijen   22776 Nov 16 19:22 /scratch/bsonghao/nh3_diabatization_2d_at_mode_7_8_dist0.0_-0.2.F94
-rw-r--r-- 1 bsonghao nooijen   13760 Nov 16 19:22 /scratch/bsonghao/nh3_diabatization_2d_at_mode_7_8_dist0.0_-0.2.F95
-rw-r--r-- 1 bsonghao nooijen   29440 Nov 16 19:22 /scratch/bsonghao/nh3_diabatization_2d_at_mode_7_8_dist0.0_-0.2.F96
-rw-r--r-- 1 bsonghao nooijen    1184 Nov 16 19:22 /scratch/bsonghao/nh3_diabatization_2d_at_mode_7_8_dist0.0_-0.2.F97
-rw-r--r-- 1 bsonghao nooijen    9808 Nov 16 19:22 /scratch/bsonghao/nh3_diabatization_2d_at_mode_7_8_dist0.0_-0.2.F98
-rw-r--r-- 1 bsonghao nooijen   30264 Nov 16 19:22 /scratch/bsonghao/nh3_diabatization_2d_at_mode_7_8_dist0.0_-0.2.F99
ls: No match.
ls: No match.
ls: No match.
Wed 16 Nov 2022 07:22:37 PM EST
0.297u 0.033s 0:13.65 2.3%	0+0k 48+224io 0pf+0w
