----- GAMESS execution script 'rungms' -----
This job is running on host io002
under operating system Linux at Wed 16 Nov 2022 08:21:04 PM EST
Available scratch disk space (Kbyte units) at beginning of the job is
Filesystem       1K-blocks       Used   Available Use% Mounted on
/dev/sdc1      15378471580 3278917120 11318349060  23% /scratch
GAMESS temporary binary files will be written to /scratch/bsonghao
GAMESS supplementary output files will be written to /home/bsonghao/.gamess_ascii_files/267638
Copying input file nh3_diabatization_2d_at_mode_7_8_dist0.7_0.8.inp to your run's scratch directory...
cp nh3_diabatization_2d_at_mode_7_8_dist0.7_0.8.inp /scratch/bsonghao/nh3_diabatization_2d_at_mode_7_8_dist0.7_0.8.F05
unset echo
/home/bjb2chen/gamess/ddikick.x /home/bjb2chen/gamess/gamess.00.x nh3_diabatization_2d_at_mode_7_8_dist0.7_0.8 -ddi 1 1 io002 -scr /scratch/bsonghao

 Distributed Data Interface kickoff program.
 Initiating 1 compute processes on 1 nodes to run the following command:
 /home/bjb2chen/gamess/gamess.00.x nh3_diabatization_2d_at_mode_7_8_dist0.7_0.8 

          ******************************************************
          *         GAMESS VERSION = 02 AUG 2018 (R2)         *
          *             FROM IOWA STATE UNIVERSITY             *
          * M.W.SCHMIDT, K.K.BALDRIDGE, J.A.BOATZ, S.T.ELBERT, *
          *   M.S.GORDON, J.H.JENSEN, S.KOSEKI, N.MATSUNAGA,   *
          *          K.A.NGUYEN, S.J.SU, T.L.WINDUS,           *
          *       TOGETHER WITH M.DUPUIS, J.A.MONTGOMERY       *
          *         J.COMPUT.CHEM.  14, 1347-1363(1993)        *
          **************** 64 BIT LINUX VERSION ****************

  SINCE 1993, STUDENTS AND POSTDOCS WORKING AT IOWA STATE UNIVERSITY
  AND ALSO IN THEIR VARIOUS JOBS AFTER LEAVING ISU HAVE MADE IMPORTANT
  CONTRIBUTIONS TO THE CODE:
     IVANA ADAMOVIC, CHRISTINE AIKENS, YURI ALEXEEV, POOJA ARORA,
     ANDREY ASADCHEV, ROB BELL, PRADIPTA BANDYOPADHYAY, JONATHAN BENTZ,
     BRETT BODE, KURT BRORSEN, CALEB CARLIN, GALINA CHABAN, WEI CHEN,
     CHEOL HO CHOI, PAUL DAY, ALBERT DEFUSCO, NUWAN DESILVA, TIM DUDLEY,
     DMITRI FEDOROV, ALEX FINDLATER, GRAHAM FLETCHER, MARK FREITAG,
     KURT GLAESEMANN, ANASTASIA GUININA,
     DAN KEMP, GRANT MERRILL, NORIYUKI MINEZAWA, JONATHAN MULLIN,
     TAKESHI NAGATA, SEAN NEDD, HEATHER NETZLOFF, BOSILJKA NJEGIC, RYAN OLSON,
     MIKE PAK, BUU PHAM,
     SPENCER PRUITT, LUKE ROSKOP, JIM SHOEMAKER, LYUDMILA SLIPCHENKO,
     TONY SMITH, SAROM SOK LEANG, JIE SONG, TETSUYA TAKETSUGU, SIMON WEBB,
     PENG XU, SOOHAENG YOO, FEDERICO ZAHARIEV

  ADDITIONAL CODE HAS BEEN PROVIDED BY COLLABORATORS IN OTHER GROUPS:
     IOWA STATE UNIVERSITY:
          JOE IVANIC, AARON WEST, LAIMUTIS BYTAUTAS, KLAUS RUEDENBERG
     UNIVERSITY OF TOKYO: KIMIHIKO HIRAO, TAKAHITO NAKAJIMA,
          TAKAO TSUNEDA, MUNEAKI KAMIYA, SUSUMU YANAGISAWA,
          KIYOSHI YAGI, MAHITO CHIBA, SEIKEN TOKURA, NAOAKI KAWAKAMI
     UNIVERSITY OF AARHUS: FRANK JENSEN
     UNIVERSITY OF IOWA: VISVALDAS KAIRYS, HUI LI
     NATIONAL INST. OF STANDARDS AND TECHNOLOGY: WALT STEVENS, DAVID GARMER
     UNIVERSITY OF PISA: BENEDETTA MENNUCCI, JACOPO TOMASI
     UNIVERSITY OF MEMPHIS: HENRY KURTZ, PRAKASHAN KORAMBATH
     UNIVERSITY OF ALBERTA: TOBY ZENG, MARIUSZ KLOBUKOWSKI
     UNIVERSITY OF NEW ENGLAND: MARK SPACKMAN
     MIE UNIVERSITY: HIROAKI UMEDA
     NAT. INST. OF ADVANCED INDUSTRIAL SCIENCE AND TECHNOLOGY: KAZUO KITAURA
     MICHIGAN STATE UNIVERSITY:
          KAROL KOWALSKI, MARTA WLOCH, JEFFREY GOUR, JESSE LUTZ,
          WEI LI, JUN SHEN, J. EMILIANO DEUSTUA, PIOTR PIECUCH
     UNIVERSITY OF MINNESOTA:
          YINAN SHU
     UNIVERSITY OF SILESIA: MONIKA MUSIAL, STANISLAW KUCHARSKI
     FACULTES UNIVERSITAIRES NOTRE-DAME DE LA PAIX:
          OLIVIER QUINET, BENOIT CHAMPAGNE
     UNIVERSITY OF CALIFORNIA - SANTA BARBARA: BERNARD KIRTMAN
     INSTITUTE FOR MOLECULAR SCIENCE:
          KAZUYA ISHIMURA, MICHIO KATOUDA, AND SHIGERU NAGASE
     UNIVERSITY OF NOTRE DAME: ANNA POMOGAEVA, DAN CHIPMAN
     KYUSHU UNIVERSITY:
          HARUYUKI NAKANO,
          FENG LONG GU, JACEK KORCHOWIEC, MARCIN MAKOWSKI, AND YURIKO AOKI,
          HIROTOSHI MORI AND EISAKU MIYOSHI
     PENNSYLVANIA STATE UNIVERSITY:
          TZVETELIN IORDANOV, CHET SWALINA, JONATHAN SKONE,
          SHARON HAMMES-SCHIFFER
     WASEDA UNIVERSITY:
          MASATO KOBAYASHI, TOMOKO AKAMA, TSUGUKI TOUMA,
          TAKESHI YOSHIKAWA, YASUHIRO IKABATA, JUNJI SEINO,
          YUYA NAKAJIMA, HIROMI NAKAI
     NANJING UNIVERSITY: SHUHUA LI
     UNIVERSITY OF NEBRASKA:
          PEIFENG SU, DEJUN SI, NANDUN THELLAMUREGE, YALI WANG, HUI LI
     UNIVERSITY OF ZURICH: ROBERTO PEVERATI, KIM BALDRIDGE
     N. COPERNICUS UNIVERSITY AND JACKSON STATE UNIVERSITY:
          MARIA BARYSZ
     UNIVERSITY OF COPENHAGEN: Jimmy Kromann, CASPER STEINMANN
     TOKYO INSTITUTE OF TECHNOLOGY: HIROYA NAKATA
     NAGOYA UNIVERSITY: YOSHIO NISHIMOTO, STEPHAN IRLE
     MOSCOW STATE UNIVERSITY: VLADIMIR MIRONOV

 EXECUTION OF GAMESS BEGUN Wed Nov 16 20:21:05 2022

            ECHO OF THE FIRST FEW INPUT CARDS -
 INPUT CARD> $system kdiag=3 mwords=100 memddi=1000 parall=.t. $end                         
 INPUT CARD> $contrl runtyp=energy ispher=1 $end                                            
 INPUT CARD> $contrl icut=9 itol=20 inttyp=rysquad qmttol=1.0d-05 nosym=1 $end              
 INPUT CARD> $scf    npunch=2 conv=1.0d-06 dirscf=.t.      $end                             
 INPUT CARD> $contrl scftyp=mcscf  mult=2 maxit=200 icharg=1 mplevl=2 $end                  
 INPUT CARD> $guess  guess=moread norb=29 purify=.t. $end                                   
 INPUT CARD> $basis  gbasis=ccd $end                                                        
 INPUT CARD> $mcscf  cistep=gmcci fullnr=.t. finci=mos                                      
 INPUT CARD>         acurcy=1.d-6 maxit=100 $end                                            
 INPUT CARD> $trans  dirtrf=.t. $end                                                        
 INPUT CARD> $mrmp   mrpt=gmcpt rdvecs=.f. $end                                             
 INPUT CARD> $gmcpt  nmofzc=0 nmodoc=1 nmoact=7 nelact=7 stsym(1)=A                         
 INPUT CARD>         reftyp=ormas nspace=1 mstart(1)=2 mine(1)=7 maxe(1)=7                  
 INPUT CARD>         kstate(1)=1,1,1                                                        
 INPUT CARD>         wstate(1)=1,1,1                                                        
 INPUT CARD>         iwgt=0 thrwgt=-1.0 krot=.f. kszdoe=.f. knospn=.f.                      
 INPUT CARD>         thrde=-1.0 edshft=0.02 $end                                            
 INPUT CARD> $data                                                                          
 INPUT CARD> NH3+ 3 states calculation at NH3 structure.                                    
 INPUT CARD> c1                                                                             
 INPUT CARD>N 7.0 -0.049831344 -0.043602321 -0.1693811162                                   
 INPUT CARD>H 1.0 0.209467949 1.1591901078 0.3108978981                                     
 INPUT CARD>H 1.0 -0.32550928599999995 -1.0641513098000002 -0.009152442900000002            
 INPUT CARD>H 1.0 0.808461204 0.510830224 0.46764184510000006                               
 INPUT CARD>$end                                                                            
 INPUT CARD>--- OPTIMIZED RHF      MO-S --- GENERATED AT Mon Nov 14 16:47:08 2022           
 INPUT CARD>E=      -56.3825050291, E(NUC)=   11.8429239490                                 
 INPUT CARD> $VEC                                                                           
 INPUT CARD> 1  1-1.00134066E+00-2.25158504E-03 3.44925845E-03 0.00000000E+00 0.00000000E+00
 INPUT CARD> 1  2-2.13170927E-03 0.00000000E+00 0.00000000E+00 6.57129898E-04-6.87950443E-05
 INPUT CARD> 1  3-6.87950443E-05 1.37590089E-04 0.00000000E+00 0.00000000E+00 0.00000000E+00
 INPUT CARD> 1  4 3.25502815E-04-4.84772356E-04 3.62525460E-04-6.27912517E-04-3.45956485E-04
 INPUT CARD> 1  5 3.25502815E-04-4.84772356E-04 3.62525460E-04 6.27912517E-04-3.45956485E-04
 INPUT CARD> 1  6 3.25502815E-04-4.84772356E-04-7.25050921E-04 0.00000000E+00-3.45956485E-04
 INPUT CARD> 2  1 1.31286642E-02-4.05911371E-01-2.82090992E-01 0.00000000E+00 0.00000000E+00
 INPUT CARD> 2  2-7.71489043E-02 0.00000000E+00 0.00000000E+00 9.73717494E-03 6.62450916E-04
 INPUT CARD> 2  3 6.62450916E-04-1.32490183E-03 0.00000000E+00 0.00000000E+00 0.00000000E+00
 INPUT CARD> 2  4-1.96090317E-01-1.96656153E-02-1.74855877E-02 3.02859263E-02 8.68214399E-03
 INPUT CARD> 2  5-1.96090317E-01-1.96656153E-02-1.74855877E-02-3.02859263E-02 8.68214399E-03
 INPUT CARD> 2  6-1.96090317E-01-1.96656153E-02 3.49711754E-02 0.00000000E+00 8.68214399E-03
 INPUT CARD> 3  1 0.00000000E+00 0.00000000E+00 0.00000000E+00 4.48608762E-01 0.00000000E+00
 INPUT CARD> 3  2 0.00000000E+00 2.18692520E-01 0.00000000E+00 0.00000000E+00 1.30198027E-02
 INPUT CARD> 3  3-1.30198027E-02 0.00000000E+00 0.00000000E+00 2.71832968E-02 0.00000000E+00
 INPUT CARD> 3  4-1.85332726E-01-7.03958951E-02 8.47929477E-03 1.95242443E-02 8.32835058E-03
 INPUT CARD> 3  5-1.85332726E-01-7.03958951E-02 8.47929477E-03-1.95242443E-02 8.32835058E-03
 INPUT CARD> 3  6 3.70665453E-01 1.40791790E-01-2.53376884E-02 0.00000000E+00-1.66567012E-02
 INPUT CARD> 4  1 0.00000000E+00 0.00000000E+00 0.00000000E+00 0.00000000E+00 4.48608762E-01
 INPUT CARD> 4  2 0.00000000E+00 0.00000000E+00 2.18692520E-01 0.00000000E+00 0.00000000E+00
 INPUT CARD> 4  3 0.00000000E+00 0.00000000E+00-1.50339731E-02 0.00000000E+00 2.71832968E-02
 INPUT CARD> 4  4 3.21005698E-01 1.21929267E-01 1.95242443E-02-1.40653607E-02-1.44251263E-02
  100000000 WORDS OF MEMORY AVAILABLE

     BASIS OPTIONS
     -------------
     GBASIS=CCD          IGAUSS=       0      POLAR=NONE    
     NDFUNC=       0     NFFUNC=       0     DIFFSP=       F
     NPFUNC=       0      DIFFS=       F     BASNAM=        


     RUN TITLE
     ---------
  NH3+ 3 states calculation at NH3 structure.                                    

 THE POINT GROUP OF THE MOLECULE IS C1      
 THE ORDER OF THE PRINCIPAL AXIS IS     0

 ATOM      ATOMIC                      COORDINATES (BOHR)
           CHARGE         X                   Y                   Z
 N           7.0    -0.0941675858       -0.0823964391       -0.3200838971
 H           1.0     0.3958370268        2.1905516714        0.5875118376
 H           1.0    -0.6151233570       -2.0109543850       -0.0172956092
 H           1.0     1.5277701473        0.9653291496        0.8837149476

          INTERNUCLEAR DISTANCES (ANGS.)
          ------------------------------

                1 N          2 H          3 H          4 H     

   1 N       0.0000000    1.3208382 *  1.0692015 *  1.2041012 *
   2 H       1.3208382 *  0.0000000    2.3090864 *  0.8965111 *
   3 H       1.0692015 *  2.3090864 *  0.0000000    1.9984466 *
   4 H       1.2041012 *  0.8965111 *  1.9984466 *  0.0000000  

  * ... LESS THAN  3.000


     ATOMIC BASIS SET
     ----------------
 THE CONTRACTED PRIMITIVE FUNCTIONS HAVE BEEN UNNORMALIZED
 THE CONTRACTED BASIS FUNCTIONS ARE NOW NORMALIZED TO UNITY

  SHELL TYPE  PRIMITIVE        EXPONENT          CONTRACTION COEFFICIENT(S)

 N         

      1   S       1          9046.0000000    0.000699617413
      1   S       2          1357.0000000    0.005386054630
      1   S       3           309.3000000    0.027391021189
      1   S       4            87.7300000    0.103150591982
      1   S       5            28.5600000    0.278570663317
      1   S       6            10.2100000    0.448294849454
      1   S       7             3.8380000    0.278085928395
      1   S       8             0.7466000    0.015431561233

      2   S       9          9046.0000000   -0.000304990096
      2   S      10          1357.0000000   -0.002408026379
      2   S      11           309.3000000   -0.011944448725
      2   S      12            87.7300000   -0.048925992909
      2   S      13            28.5600000   -0.134472724725
      2   S      14            10.2100000   -0.315112577700
      2   S      15             3.8380000   -0.242857832550
      2   S      16             0.7466000    1.094382206854

      3   S      17             0.2248000    1.000000000000

      4   P      18            13.5500000    0.058905676772
      4   P      19             2.9170000    0.320461106714
      4   P      20             0.7973000    0.753042061792

      5   P      21             0.2185000    1.000000000000

      6   D      22             0.8170000    1.000000000000

 H         

      7   S      23            13.0100000    0.033498726390
      7   S      24             1.9620000    0.234800801174
      7   S      25             0.4446000    0.813682957883

      8   S      26             0.1220000    1.000000000000

      9   P      27             0.7270000    1.000000000000

 H         

     10   S      28            13.0100000    0.033498726390
     10   S      29             1.9620000    0.234800801174
     10   S      30             0.4446000    0.813682957883

     11   S      31             0.1220000    1.000000000000

     12   P      32             0.7270000    1.000000000000

 H         

     13   S      33            13.0100000    0.033498726390
     13   S      34             1.9620000    0.234800801174
     13   S      35             0.4446000    0.813682957883

     14   S      36             0.1220000    1.000000000000

     15   P      37             0.7270000    1.000000000000

 TOTAL NUMBER OF BASIS SET SHELLS             =   15
 NUMBER OF CARTESIAN GAUSSIAN BASIS FUNCTIONS =   30
 NOTE: THIS RUN WILL RESTRICT THE MO VARIATION SPACE TO SPHERICAL HARMONICS.
 THE NUMBER OF ORBITALS KEPT IN THE VARIATIONAL SPACE WILL BE PRINTED LATER.
 NUMBER OF ELECTRONS                          =    9
 CHARGE OF MOLECULE                           =    1
 SPIN MULTIPLICITY                            =    2
 NUMBER OF OCCUPIED ORBITALS (ALPHA)          =    5
 NUMBER OF OCCUPIED ORBITALS (BETA )          =    4
 TOTAL NUMBER OF ATOMS                        =    4
 THE NUCLEAR REPULSION ENERGY IS       10.4295369317

     $CONTRL OPTIONS
     ---------------
 SCFTYP=MCSCF        RUNTYP=ENERGY       EXETYP=RUN     
 MPLEVL=       2     CITYP =NONE         CCTYP =NONE         VBTYP =NONE    
 DFTTYP=NONE         TDDFT =NONE    
 MULT  =       2     ICHARG=       1     NZVAR =       0     COORD =UNIQUE  
 PP    =NONE         RELWFN=NONE         LOCAL =NONE         NUMGRD=       F
 ISPHER=       1     NOSYM =       1     MAXIT =     200     UNITS =ANGS    
 PLTORB=       F     MOLPLT=       F     AIMPAC=       F     FRIEND=        
 NPRINT=       7     IREST =       0     GEOM  =INPUT   
 NORMF =       0     NORMP =       0     ITOL  =      20     ICUT  =       9
 INTTYP=RYSQUAD      GRDTYP=BEST         QMTTOL= 1.0E-05

     $SYSTEM OPTIONS
     ---------------
  REPLICATED MEMORY=   100000000 WORDS (ON EVERY NODE).
 DISTRIBUTED MEMDDI=        1000 MILLION WORDS IN AGGREGATE,
 MEMDDI DISTRIBUTED OVER   1 PROCESSORS IS  1000000000 WORDS/PROCESSOR.
 TOTAL MEMORY REQUESTED ON EACH PROCESSOR=  1100000000 WORDS.
 TIMLIM=      525600.00 MINUTES, OR     365.0 DAYS.
 PARALL= T  BALTYP=  DLB     KDIAG=    3  COREFL= F
 MXSEQ2=     300 MXSEQ3=     150  mem10=         0

          ----------------
          PROPERTIES INPUT
          ----------------

     MOMENTS            FIELD           POTENTIAL          DENSITY
 IEMOM =       1   IEFLD =       0   IEPOT =       0   IEDEN =       0
 WHERE =COMASS     WHERE =NUCLEI     WHERE =NUCLEI     WHERE =NUCLEI  
 OUTPUT=BOTH       OUTPUT=BOTH       OUTPUT=BOTH       OUTPUT=BOTH    
 IEMINT=       0   IEFINT=       0                     IEDINT=       0
                                                       MORB  =       0

     -------------------------------
     INTEGRAL TRANSFORMATION OPTIONS
     -------------------------------
     NWORD  =            0
     CUTOFF = 1.0E-09     MPTRAN =       0
     DIRTRF =       T     AOINTS =DUP     

          ----------------------
          MCSCF INPUT PARAMETERS
          ----------------------
 CONVERGER SELECTION: FOCAS = F  SOSCF = F  FULLNR = T  QUD = F  JACOBI = F
 SECULAR EQUATION METHOD CISTEP = GMCCI   
 --- GENERAL INPUT OPTIONS:
 MAXIT =     100  MICIT =       1  ACURCY= 1.000E-06
 DAMP  =   0.000  CANONC=       T  ENGTOL= 1.000E-10
 EKT   =       F  NPUNCH=       2  NWORD =         0
 REGENERATE CI AFTER CONVERGENCE = NONE    
 DIABATIZATION AFTER CONVERGENCE =        F
 --- INPUT FOR FULLNR CONVERGER:
 METHOD=DM2       FORS  =       F  DROPC =       T
 LINSER=       F  FCORE =       F  NORB  =      30

          ----------------------
          INTEGRAL INPUT OPTIONS
          ----------------------
 NOPK  =       1 NORDER=       0 SCHWRZ=       T

 ------------------------------------------
 MULTIREFERENCE PERTURBATION THEORY CONTROL
 ------------------------------------------
 MRPT=GMCPT    READ CONVERGED MCSCF VECTORS= F


     ------------------------------------------
     THE POINT GROUP IS C1 , NAXIS= 1, ORDER= 1
     ------------------------------------------

 -- VARIATIONAL SPACE WILL BE RESTRICTED TO PURE SPHERICAL HARMONICS ONLY --
 AFTER EXCLUDING CONTAMINANT COMBINATIONS FROM THE CARTESIAN GAUSSIAN BASIS
 SET, THE NUMBER OF SPHERICAL HARMONICS KEPT IN THE VARIATION SPACE IS   29

     DIMENSIONS OF THE SYMMETRY SUBSPACES ARE
 A   =   29

 ..... DONE SETTING UP THE RUN .....
 CPU     0: STEP CPU TIME=     0.04 TOTAL CPU TIME=          0.0 (      0.0 MIN)
 TOTAL WALL CLOCK TIME=          0.0 SECONDS, CPU UTILIZATION IS   100.00%

          ********************
          1 ELECTRON INTEGRALS
          ********************
 TIME TO DO   DIPOLE INTEGRALS=      0.00
 ...... END OF ONE-ELECTRON INTEGRALS ......
 CPU     0: STEP CPU TIME=     0.00 TOTAL CPU TIME=          0.0 (      0.0 MIN)
 TOTAL WALL CLOCK TIME=          0.1 SECONDS, CPU UTILIZATION IS    80.00%

          -------------
          GUESS OPTIONS
          -------------
          GUESS =MOREAD            NORB  =      29          NORDER=       0
          MIX   =       F          PRTMO =       F          PUNMO =       F
          TOLZ  = 1.0E-08          TOLE  = 1.0E-05
          SYMDEN=       F          PURIFY=       T

 INITIAL GUESS ORBITALS GENERATED BY MOREAD   ROUTINE.

 STATISTICS FOR GENERATION OF SYMMETRY ORBITAL -Q- MATRIX
 NUMBER OF CARTESIAN ATOMIC ORBITALS=         30
 NUMBER OF SPHERICAL CONTAMINANTS DROPPED=     1
 NUMBER OF LINEARLY DEPENDENT MOS DROPPED=     0
 TOTAL NUMBER OF MOS IN VARIATION SPACE=      29
 ORBITAL PURIFICATION WILL OCCUR

 SYMMETRIES FOR INITIAL GUESS ORBITALS FOLLOW.   BOTH SET(S).
     5 ORBITALS ARE OCCUPIED (    1 CORE ORBITALS).
     1=A        2=A        3=A        4=A        5=A        6=A        7=A   
     8=A        9=A       10=A       11=A       12=A       13=A       14=A   
    15=A       16=A       17=A       18=A       19=A       20=A       21=A   
    22=A       23=A       24=A       25=A       26=A       27=A       28=A   
    29=A   
 ...... END OF INITIAL ORBITAL SELECTION ......
 CPU     0: STEP CPU TIME=     0.00 TOTAL CPU TIME=          0.0 (      0.0 MIN)
 TOTAL WALL CLOCK TIME=          0.1 SECONDS, CPU UTILIZATION IS    80.00%

                    ----------------------
                    AO INTEGRAL TECHNOLOGY
                    ----------------------
     S,P,L SHELL ROTATED AXIS INTEGRALS, REPROGRAMMED BY
        KAZUYA ISHIMURA (IMS) AND JOSE SIERRA (SYNSTAR).
     S,P,D,L SHELL ROTATED AXIS INTEGRALS PROGRAMMED BY
        KAZUYA ISHIMURA (INSTITUTE FOR MOLECULAR SCIENCE).
     S,P,D,F,G SHELL TO TOTAL QUARTET ANGULAR MOMENTUM SUM 5,
        ERIC PROGRAM BY GRAHAM FLETCHER (ELORET AND NASA ADVANCED
        SUPERCOMPUTING DIVISION, AMES RESEARCH CENTER).
     S,P,D,F,G,L SHELL GENERAL RYS QUADRATURE PROGRAMMED BY
        MICHEL DUPUIS (PACIFIC NORTHWEST NATIONAL LABORATORY).

          --------------------
          2 ELECTRON INTEGRALS
          --------------------

 DIRECT SCF METHOD SKIPS INTEGRAL STORAGE ON DISK.
 DIRECT TRANSFORMATION SKIPS AO INTEGRAL STORAGE ON DISK.
  ...... END OF TWO-ELECTRON INTEGRALS .....
 STEP CPU TIME =     0.03 TOTAL CPU TIME =          0.1 (      0.0 MIN)
 TOTAL WALL CLOCK TIME=          0.1 SECONDS, CPU UTILIZATION IS    87.50%
 DDI: Creating Array [0] - 900 x 36 = 32400 words.
 DDI: Creating Array [1] - 21 x 288 = 6048 words.
 DDI: Creating Array [2] - 36 x 36 = 1296 words.
 DDI: Creating Array [3] - 465 x 36 = 16740 words.

          -----------------
          MCSCF CALCULATION
          -----------------

 ----- NUCLEAR ENERGY ----- =        10.4295369317

     -------------------------------------------------
     GMC-PT/GMC-QDPT or general MCSCF input parameters
     -------------------------------------------------
 # of frozen core orbs. =         0 ->         0
 # of doubly occ. orbs. =         1
 # of active      orbs. =         7
 # of virtual     orbs. =        21
 # of active electrons  =         7
 # of states in CI      =         3
 Highest state in CI    =         3
 kstate =  1 1 1
 avecoe =  0.333 0.333 0.333
 State symmetry           = A           
 Assigned symmetry number = 1

 <<<Act. MO sym.: 1111111

 <<<Division of 1-ext.:  0
 <<<Division of 2-ext.:  0

 *** Reference space

 Reference type: ORMAS (= Occupation restricted multiple active space)
 # of orbitals          =  7
 # of minimum electrons =  7
 # of maximum electrons =  7
 State symmetry    =    1 (input)
 2*Sz              =    1 (input)
 Spin multiplicity =    2 (input)
 Dimension of reference space =      1225  (from      3432 walks)

 Dimension of reference space =      1225  (from      1225 walks)

 <<<Ionized spaces for Ref-CI:
      0:         1225 /   -1-0:         1960 /  0-1-0:         2891

 EVALUATING EXCHANGE INTEGRALS FOR DIRECT INTEGRAL TRANSFORMATION
 SCHWARZ INEQUALITY OVERHEAD:       465 INTEGRALS, T=        0.00

     --------------------------------------------
     PARTIAL TWO ELECTRON INTEGRAL TRANSFORMATION
     --------------------------------------------

 NUMBER OF CORE MOLECULAR ORBITALS     =    1
 NUMBER OF OCCUPIED MOLECULAR ORBITALS =    8
 TOTAL NUMBER OF MOLECULAR ORBITALS    =   29
 TOTAL NUMBER OF ATOMIC ORBITALS       =   30
 THRESHOLD FOR KEEPING TRANSFORMED 2E- INTEGRALS = 1.000E-09

 -------------------------------     ------------------------------
 DISTRIBUTED DATA TRANSFORMATION     PROGRAM WRITTEN BY G. FLETCHER
 -------------------------------     ------------------------------

 THE DISTRIBUTED MEMORY REQUIRED FOR THIS STEP IS MEMDDI=         1 MWORDS
 CREATING DISTRIBUTED STORAGE FOR [VIR OCC|VIR OCC] INTEGRALS
 CREATING DISTRIBUTED STORAGE FOR [VIR OCC|OCC OCC] INTEGRALS
 CREATING DISTRIBUTED STORAGE FOR [OCC OCC|OCC OCC] INTEGRALS
 CREATING DISTRIBUTED STORAGE FOR [VIR VIR|OCC OCC] INTEGRALS
 FOR    1 PROCESSORS, THE REPLICATED MEMORY NEEDED IS       73700 WORDS.
 SCHWARZ INEQUALITY OVERHEAD:       465 INTEGRALS, T=        0.00

      DIRECT 4-INDEX TRANSFORMATION 
      SCHWARZ INEQUALITY TEST SKIPPED          0 INTEGRAL BLOCKS
 ----- FROZEN CORE ENERGY =       -47.4018734275
 ... END OF INTEGRAL TRANSFORMATION ...
 CPU     0: STEP CPU TIME=     0.21 TOTAL CPU TIME=          0.3 (      0.0 MIN)
 TOTAL WALL CLOCK TIME=          0.3 SECONDS, CPU UTILIZATION IS    93.33%

     --------------------------------     -----------------------------
     MCHF NEWTON-RAPHSON OPTIMIZATION     CODE WRITTEN BY MICHEL DUPUIS
     --------------------------------     -----------------------------
     PARALLEL VERSION WRITTEN BY G. FLETCHER (ELORET)
     NASA ADVANCED SUPERCOMPUTING DIVISION, AMES RESEARCH CENTER

 NUMBER OF INDEPENDENT ORBITAL ROTATION PARAMETERS =   175
 ..... DONE SOLVING NEWTON-RAPHSON EQUATIONS .....
 CPU     0: STEP CPU TIME=     0.82 TOTAL CPU TIME=          1.1 (      0.0 MIN)
 TOTAL WALL CLOCK TIME=          1.1 SECONDS, CPU UTILIZATION IS    98.21%
 ..... DONE WITH NTN-RPH ORBITAL ROTATIONS ..... 
 CPU     0: STEP CPU TIME=     0.00 TOTAL CPU TIME=          1.1 (      0.0 MIN)
 TOTAL WALL CLOCK TIME=          1.1 SECONDS, CPU UTILIZATION IS    98.21%
 MAXIMUM MEMORY USED BY NTN-RPH CODE WAS     57645 WORDS.

 ITER     TOTAL ENERGY      DEL(E)  LAGRANGIAN ASYMMETRY   SQCDF  MICIT   DAMP
   1      -55.454801081 -0.454801081  0.135012   12    5 1.899E-01  1   0.0000
   2      -55.605114247 -0.150313166  0.036171    9    3 2.693E-01  1   0.0000
   3      -55.637570497 -0.032456250  0.013540   12    5 2.693E-01  1   0.0000
   4      -55.654867714 -0.017297217  0.013226   26    4 5.780E-02  1   0.0089
   5      -55.659182706 -0.004314992  0.004465   29    6 4.801E-03  1   0.0000
   6      -55.659671730 -0.000489024  0.001461   27    6 6.502E-04  1   0.0000
   7      -55.659732575 -0.000060845  0.000567   24    5 1.041E-04  1   0.0000
   8      -55.659742327 -0.000009752  0.000239   24    5 1.784E-05  1   0.0000
   9      -55.659744129 -0.000001801  0.000107   24    5 3.448E-06  1   0.0000
  10      -55.659744507 -0.000000379  0.000051   24    5 7.816E-07  1   0.0000
  11      -55.659744597 -0.000000090  0.000025   24    5 2.062E-07  1   0.0000
  12      -55.659744621 -0.000000024  0.000013   24    5 6.053E-08  1   0.0000
  13      -55.659744628 -0.000000007  0.000007   24    5 1.880E-08  1   0.0000
  14      -55.659744630 -0.000000002  0.000003   24    5 6.019E-09  1   0.0000
  15      -55.659744631 -0.000000001  0.000002   13    6 1.937E-09  1   0.0000
  16      -55.659744631 -0.000000000  0.000001   24    5 6.327E-10  1   0.0000
  17      -55.659744631 -0.000000000  0.000001   24    5 1.933E-10  1   0.0000

          --------------------
          LAGRANGIAN CONVERGED
          --------------------

 FINAL MCSCF ENERGY IS      -55.6597446308 AFTER  17 ITERATIONS

 -MCCI- BASED ON OPTIMIZED ORBITALS
 ----------------------------------

 PLEASE NOTE: IF THE ACTIVE ORBITALS ARE CANONICALIZED BELOW,
 THE FOLLOWING CI EXPANSION COEFFICIENTS AND THE DENSITY DO NOT
 CORRESPOND TO THE PRINTED ORBITALS.  THE PRINTED EXPANSIONS MATCH
 THE ORBITALS USED DURING THE LAST ITERATION.  IF YOU WISH TO SEE
 CI EXPANSIONS BASED ON THE CANONICAL (OR NATURAL) ORBITALS, YOU
 MUST RUN A CI CALCULATION WITH THAT ORBITAL CHOICE READ IN $VEC.

 Averaged energy =     -55.659744631

 State #    1  Energy =     -55.747441475  S =  0.500

      Det      Coef    Occupancy (Ignoring core)
      ---      ----    --------- --------- -----
        1   -0.778055  11110001110000
        4    0.081810  10111001110000
        5    0.064253  01111001110000
        8    0.143707  10110101110000
       17   -0.109628  11010011110000
       36    0.151179  11110001101000
       71    0.471235  11110001011000
       74   -0.058510  10111001011000
       75   -0.050866  01111001011000
       76    0.059338  11100101011000
       78   -0.088656  10110101011000
       87    0.062514  11010011011000
      176   -0.105836  11110001010100
      386   -0.084369  11110001010010
      393   -0.054008  10110101010010
      701    0.095019  11110001100001

 State #    2  Energy =     -55.688878807  S =  0.500

      Det      Coef    Occupancy (Ignoring core)
      ---      ----    --------- --------- -----
        1   -0.467799  11110001110000
        8    0.081824  10110101110000
       17   -0.066499  11010011110000
       36   -0.506562  11110001101000
       39    0.073699  10111001101000
       43    0.087066  10110101101000
       52   -0.068248  11010011101000
       71   -0.603610  11110001011000
       74    0.109121  10111001011000
       75    0.051035  01111001011000
       78    0.107722  10110101011000
       87   -0.083687  11010011011000
      141    0.055025  11110001100100
      246   -0.077387  11110001001100
      386   -0.118617  11110001010010
      456   -0.053450  11110001001010

 State #    3  Energy =     -55.542913610  S =  0.500

      Det      Coef    Occupancy (Ignoring core)
      ---      ----    --------- --------- -----
        2    0.359478  11101001110000
        3   -0.177613  11011001110000
        4   -0.377628  10111001110000
        5   -0.052867  01111001110000
       11   -0.064312  10101101110000
       16   -0.128010  11100011110000
       17    0.059662  11010011110000
       18    0.121174  10110011110000
       20    0.061540  11001011110000
       23    0.052444  10011011110000
       37   -0.285266  11101001101000
       39    0.144467  10111001101000
       46    0.056617  10101101101000
       51    0.125323  11100011101000
       53   -0.058841  10110011101000
       72   -0.491350  11101001011000
       73    0.087846  11011001011000
       74    0.287163  10111001011000
       81    0.098479  10101101011000
       86    0.167650  11100011011000
       88   -0.083510  10110011011000
       90   -0.079550  11001011011000
      107   -0.087357  11101000111000
      109    0.052982  10111000111000
      141   -0.107653  11110001100100
      176   -0.113721  11110001010100
      246   -0.056621  11110001001100
      387    0.058786  11101001010010
      389   -0.064130  10111001010010
      701    0.065661  11110001100001
      702   -0.074311  11101001100001
      704    0.074738  10111001100001
      807   -0.088043  11101001001001

 DENSITY MATRIX OVER ACTIVE MO-S

             1           2           3           4           5

    1    1.9667090
    2    0.0551236   1.4500582
    3   -0.0301337   0.2750213   1.7619402
    4   -0.0269544   0.2869234  -0.0638673   1.3146515
    5    0.0995460  -0.1150658  -0.0464552  -0.0898372   0.3537910
    6    0.0082846  -0.2153181   0.0369312   0.0217611   0.0140981
    7   -0.0057470   0.0210481  -0.2067253   0.0478840  -0.1101437

             6           7

    6    0.0651721
    7   -0.0131981   0.0876780

 FORMING THE "STANDARD FOCK OPERATOR" IN DIRECT AO INTEGRAL MODE...
 ONLY THE    1 CORE AND   21 VIRTUAL ORBITALS WILL BE CANONICALIZED

          ----------------------
          MCSCF NATURAL ORBITALS
          ----------------------

                      1          2          3          4          5
                  -16.0186     1.9791     1.9598     1.6035     1.0429
                     A          A          A          A          A   
    1  N  1  S    1.000847   0.015024  -0.001315  -0.009990   0.004425
    2  N  1  S   -0.003381   0.450501   0.004403  -0.177670   0.075012
    3  N  1  S   -0.007561   0.373713  -0.029062  -0.255582   0.129721
    4  N  1  X    0.001048   0.014530   0.184372   0.320300   0.466796
    5  N  1  Y    0.001612  -0.105354   0.360109  -0.307040  -0.061099
    6  N  1  Z    0.000715   0.054266   0.086354   0.376046  -0.419756
    7  N  1  X   -0.000104   0.008798   0.065221   0.190450   0.305614
    8  N  1  Y    0.000524  -0.032411   0.126016  -0.191814  -0.040735
    9  N  1  Z   -0.000588   0.018886   0.029455   0.235608  -0.285739
   10  N  1 XX   -0.000090  -0.003505   0.002949   0.002004   0.015131
   11  N  1 YY    0.000273   0.006831  -0.005647  -0.007189  -0.004863
   12  N  1 ZZ   -0.000183  -0.003326   0.002699   0.005185  -0.010268
   13  N  1 XY    0.000235   0.003171   0.004863   0.000015   0.002097
   14  N  1 XZ    0.000192   0.001729   0.007842   0.016435   0.009872
   15  N  1 YZ   -0.000013  -0.001169   0.012530  -0.006827  -0.008550
   16  H  2  S    0.000120   0.074048   0.290215  -0.041123  -0.179272
   17  H  2  S    0.000291  -0.008651   0.045645  -0.060619  -0.112648
   18  H  2  X    0.000039  -0.000893   0.004423   0.014427   0.012323
   19  H  2  Y    0.000212  -0.013028  -0.033902   0.006142   0.012914
   20  H  2  Z    0.000129  -0.002954  -0.006834   0.015743  -0.009436
   21  H  3  S   -0.003260   0.241456  -0.259330   0.125971  -0.089770
   22  H  3  S    0.000509   0.009777  -0.034900   0.020578  -0.024900
   23  H  3  X   -0.000228   0.011858  -0.005044   0.015327   0.012594
   24  H  3  Y   -0.000966   0.036216  -0.028733   0.008843  -0.011514
   25  H  3  Z    0.000212  -0.003484   0.007117   0.010092  -0.011979
   26  H  4  S   -0.000374   0.128305   0.311661   0.223600   0.030093
   27  H  4  S    0.000537   0.004757   0.038743   0.115748   0.041594
   28  H  4  X    0.000496  -0.021550  -0.030580  -0.013842   0.010522
   29  H  4  Y    0.000219  -0.011562   0.001259  -0.016183  -0.015049
   30  H  4  Z    0.000337  -0.012641  -0.019004  -0.002331  -0.022911

                      6          7          8
                    0.3678     0.0253     0.0215
                     A          A          A   
    1  N  1  S   -0.029960   0.030342  -0.170459
    2  N  1  S   -0.275543   0.066511  -0.515494
    3  N  1  S   -0.476157  -0.095133   0.032162
    4  N  1  X   -0.114708  -0.665079   0.093693
    5  N  1  Y   -0.290548   0.017250   0.810053
    6  N  1  Z   -0.360761  -0.284487  -0.156232
    7  N  1  X   -0.081586   0.114253   0.067264
    8  N  1  Y   -0.175601  -0.141288   0.029877
    9  N  1  Z   -0.231011   0.072782   0.066839
   10  N  1 XX   -0.019213   0.048417   0.007069
   11  N  1 YY    0.034549  -0.066980  -0.018985
   12  N  1 ZZ   -0.015336   0.018563   0.011916
   13  N  1 XY    0.020633   0.009900   0.005218
   14  N  1 XZ    0.002817   0.026712   0.009333
   15  N  1 YZ    0.003381   0.007534   0.009763
   16  H  2  S    0.512330  -0.406813  -0.229446
   17  H  2  S    0.377038  -0.347632  -0.111773
   18  H  2  X    0.027188   0.046077  -0.008813
   19  H  2  Y    0.008497   0.018092   0.003041
   20  H  2  Z    0.013037   0.030351  -0.007827
   21  H  3  S    0.243893  -0.184389   0.822284
   22  H  3  S    0.089538  -0.058762   0.137345
   23  H  3  X   -0.001469   0.012241   0.028707
   24  H  3  Y    0.005731  -0.011035   0.074141
   25  H  3  Z   -0.016270   0.009680   0.009112
   26  H  4  S    0.208708   0.739072   0.062180
   27  H  4  S    0.084537   0.326936   0.062403
   28  H  4  X    0.005632  -0.021412  -0.007580
   29  H  4  Y    0.055826  -0.041648  -0.036566
   30  H  4  Z    0.011698  -0.015276  -0.007251

          ------------------------
          MCSCF OPTIMIZED ORBITALS
          ------------------------

                      1          2          3          4          5
                  -16.0186     0.0000     0.0000     0.0000     0.0000
                     A          A          A          A          A   
    1  N  1  S    1.000847   0.009712   0.013567   0.010905  -0.014856
    2  N  1  S   -0.003381   0.412714  -0.008599  -0.004053  -0.194459
    3  N  1  S   -0.007561   0.326834  -0.067587  -0.028514  -0.249605
    4  N  1  X    0.001048   0.013777   0.453374  -0.105642  -0.046185
    5  N  1  Y    0.001612  -0.000930  -0.004284   0.389220  -0.055263
    6  N  1  Z    0.000715   0.061102  -0.019597   0.009170   0.599960
    7  N  1  X   -0.000104  -0.007588   0.343601  -0.154150  -0.079465
    8  N  1  Y    0.000524   0.001096  -0.058558   0.217880  -0.056156
    9  N  1  Z   -0.000588   0.020021  -0.008290  -0.041899   0.381029
   10  N  1 XX   -0.000090  -0.005017   0.021344  -0.007995  -0.009708
   11  N  1 YY    0.000273   0.007978  -0.023209   0.008216  -0.002232
   12  N  1 ZZ   -0.000183  -0.002962   0.001864  -0.000221   0.011940
   13  N  1 XY    0.000235   0.005441   0.003069   0.001652  -0.002732
   14  N  1 XZ    0.000192   0.002469   0.022239  -0.008781   0.003800
   15  N  1 YZ   -0.000013   0.003146  -0.001367   0.014267   0.003302
   16  H  2  S    0.000120   0.186966  -0.074160   0.352101   0.121683
   17  H  2  S    0.000291   0.036196  -0.159030   0.154846   0.035509
   18  H  2  X    0.000039   0.000168   0.022800  -0.009797  -0.002945
   19  H  2  Y    0.000212  -0.021574  -0.005077  -0.031302  -0.011400
   20  H  2  Z    0.000129  -0.004067   0.002791  -0.011574   0.013656
   21  H  3  S   -0.003260   0.197021  -0.254528  -0.345013   0.106578
   22  H  3  S    0.000509   0.009381  -0.051012  -0.036577   0.025568
   23  H  3  X   -0.000228   0.008995   0.012328  -0.021843   0.000001
   24  H  3  Y   -0.000966   0.029642  -0.027946  -0.037506   0.009586
   25  H  3  Z    0.000212  -0.002174   0.004684   0.002253   0.017624
   26  H  4  S   -0.000374   0.199915   0.393220   0.018078   0.120828
   27  H  4  S    0.000537   0.011226   0.146898  -0.075445   0.032678
   28  H  4  X    0.000496  -0.028102  -0.019772  -0.011314  -0.020114
   29  H  4  Y    0.000219  -0.006058  -0.025850   0.025279  -0.002093
   30  H  4  Z    0.000337  -0.014645  -0.028089  -0.001435   0.012200

                      6          7          8          9         10
                    0.0000     0.0000     0.0000     0.1399     0.2079
                     A          A          A          A          A   
    1  N  1  S    0.077039  -0.094698  -0.125302   0.043752   0.049961
    2  N  1  S    0.451409  -0.265612  -0.322007   0.072410   0.062601
    3  N  1  S    0.499542   0.100887   0.158877  -0.695910  -0.580680
    4  N  1  X    0.125978   0.745306  -0.169054   0.074478  -0.021155
    5  N  1  Y    0.029500   0.292311   0.859537   0.027719  -0.190226
    6  N  1  Z    0.391670   0.162150  -0.140161   0.080572   0.027445
    7  N  1  X    0.018353  -0.007856   0.098194  -0.214215   0.225014
    8  N  1  Y    0.183083   0.125432   0.061359  -0.014312   0.778899
    9  N  1  Z    0.167838  -0.063499   0.147999  -0.137149  -0.010892
   10  N  1 XX    0.008718  -0.037738   0.029634   0.018726   0.036282
   11  N  1 YY   -0.016292   0.050658  -0.051844  -0.054168  -0.077863
   12  N  1 ZZ    0.007574  -0.012920   0.022210   0.035442   0.041580
   13  N  1 XY   -0.022234  -0.006525   0.001716  -0.066781  -0.026651
   14  N  1 XZ   -0.010830  -0.017133   0.015413  -0.038381   0.023255
   15  N  1 YZ   -0.007121  -0.004280   0.012097  -0.036085   0.054352
   16  H  2  S   -0.361236   0.249476  -0.481866  -0.522381   0.221995
   17  H  2  S   -0.269904   0.243196  -0.331950   0.342186  -0.567550
   18  H  2  X   -0.030648  -0.041899  -0.000977  -0.052534   0.024072
   19  H  2  Y   -0.011146  -0.014033   0.003186   0.000186   0.034393
   20  H  2  Z   -0.015094  -0.031147  -0.001388  -0.015549   0.043936
   21  H  3  S   -0.429389   0.470251   0.528781  -0.352258  -0.532626
   22  H  3  S   -0.116233   0.102107   0.063818   0.461752   1.902360
   23  H  3  X   -0.009212   0.003294   0.027018   0.031976   0.032322
   24  H  3  Y   -0.022645   0.036452   0.054769   0.048010   0.141870
   25  H  3  Z    0.009800  -0.005731   0.016683   0.029278  -0.043089
   26  H  4  S   -0.339309  -0.606820   0.255489  -0.526806   0.168856
   27  H  4  S   -0.153716  -0.252756   0.136382   1.232619  -0.484282
   28  H  4  X    0.000993   0.015597  -0.017088  -0.030387   0.003707
   29  H  4  Y   -0.035111   0.018782  -0.062272  -0.074265   0.021655
   30  H  4  Z   -0.006278   0.006052  -0.015610  -0.023550   0.032563

                     11         12         13         14         15
                    0.3265     0.5552     0.5844     0.7143     0.8845
                     A          A          A          A          A   
    1  N  1  S   -0.008419  -0.001271   0.044954   0.000850  -0.649716
    2  N  1  S   -0.010914   0.074105   0.057480  -0.002167  -1.454258
    3  N  1  S    0.072612   0.273893  -0.402087  -0.142399   2.323416
    4  N  1  X   -0.053210  -0.506489  -0.515385   0.151498  -0.080695
    5  N  1  Y    0.071967   0.123215  -0.026941  -0.462374  -0.257444
    6  N  1  Z   -0.068855  -0.438844   0.661300  -0.345765   0.105422
    7  N  1  X    0.376988   1.116574   0.767455   0.099513   0.224234
    8  N  1  Y   -0.385951   0.036450   0.442143   1.563945   0.380092
    9  N  1  Z    0.194958   0.792850  -0.683828   0.543666   0.026908
   10  N  1 XX    0.055383  -0.029360   0.022538   0.061983  -0.037027
   11  N  1 YY   -0.078017   0.020026   0.003078  -0.007782  -0.015103
   12  N  1 ZZ    0.022634   0.009333  -0.025616  -0.054201   0.052130
   13  N  1 XY    0.015486  -0.047536   0.014863   0.057965  -0.088454
   14  N  1 XZ    0.043432  -0.024551  -0.011468  -0.014824   0.019797
   15  N  1 YZ   -0.006060  -0.000605  -0.038193  -0.120984  -0.019799
   16  H  2  S   -0.646361   0.150022  -0.112195  -0.459526  -0.086630
   17  H  2  S    2.505621   0.304661   0.279081  -0.386565  -0.354324
   18  H  2  X    0.111456  -0.085005   0.072661   0.142278  -0.146469
   19  H  2  Y   -0.118134   0.097907   0.013748   0.147791   0.091472
   20  H  2  Z    0.046216   0.016391  -0.163041  -0.150651   0.139195
   21  H  3  S   -0.211732  -0.088409   0.372851   0.601492  -0.076963
   22  H  3  S    0.232125   0.235106   0.323887   0.465247  -0.454881
   23  H  3  X   -0.020628   0.093835   0.010889  -0.024598   0.117554
   24  H  3  Y   -0.010456  -0.005711   0.097033   0.147028  -0.114552
   25  H  3  Z   -0.005146   0.047613   0.041901   0.158963   0.110027
   26  H  4  S    0.502733  -0.627898  -0.067129  -0.056578  -0.046855
   27  H  4  S   -2.446675  -0.641606  -0.275674  -0.057716  -0.393014
   28  H  4  X    0.129212   0.036381   0.084919   0.242398   0.098134
   29  H  4  Y   -0.133101   0.114262   0.035457   0.057112  -0.054991
   30  H  4  Z    0.051140   0.089069  -0.109081  -0.107035   0.261408

                     16         17         18         19         20
                    1.0109     1.1638     1.2176     1.3588     1.4378
                     A          A          A          A          A   
    1  N  1  S   -0.313927   0.061865   0.036106  -0.188116   0.202580
    2  N  1  S   -0.654343   0.178223   0.100113  -0.395399   0.487452
    3  N  1  S    1.387607  -0.067958   0.001869   0.671049  -0.387935
    4  N  1  X    0.028121   0.052058   0.154805   0.010086   0.069191
    5  N  1  Y    0.268075   0.079252   0.154975  -0.082873   0.087751
    6  N  1  Z   -0.038935   0.113017   0.045808  -0.007532   0.174701
    7  N  1  X   -0.211447   0.142195  -0.622291   0.207714  -0.114695
    8  N  1  Y   -1.236567   0.135735  -0.389158   0.255009   0.194321
    9  N  1  Z    0.236749  -0.360320  -0.046990   0.319072  -0.248017
   10  N  1 XX    0.156498  -0.134408  -0.062917   0.048166   0.290867
   11  N  1 YY   -0.081951  -0.118079   0.111780  -0.007856  -0.079619
   12  N  1 ZZ   -0.074547   0.252487  -0.048863  -0.040310  -0.211248
   13  N  1 XY    0.090271   0.109418  -0.189479   0.037401  -0.183266
   14  N  1 XZ   -0.077817  -0.052683   0.134891  -0.374803  -0.024150
   15  N  1 YZ   -0.060336  -0.151488  -0.081535   0.227609  -0.007123
   16  H  2  S    0.393784  -0.103458   0.027867  -0.493308   0.270180
   17  H  2  S    0.087914  -0.010753   0.006025   0.163829  -0.314329
   18  H  2  X    0.225419   0.292739   0.281839   0.068980  -0.285195
   19  H  2  Y    0.221771   0.056672   0.015676  -0.366673   0.271452
   20  H  2  Z   -0.208379   0.347773  -0.231031   0.345672   0.664534
   21  H  3  S   -0.777581   0.125332  -0.244634  -0.014450   0.239532
   22  H  3  S   -0.568603   0.061177  -0.118363  -0.005027   0.061135
   23  H  3  X   -0.263436  -0.110967   0.763346   0.065366   0.066535
   24  H  3  Y   -0.006930   0.095125  -0.177212  -0.026002  -0.157999
   25  H  3  Z    0.223007   0.563043   0.146401  -0.232118   0.173016
   26  H  4  S   -0.073649  -0.082938   0.215341  -0.291130   0.234653
   27  H  4  S   -0.187991  -0.024997   0.081530  -0.179651   0.038533
   28  H  4  X    0.141744  -0.226762   0.107411   0.164304   0.441399
   29  H  4  Y    0.082124   0.228087   0.208342   0.575334  -0.033929
   30  H  4  Z   -0.389141   0.304422  -0.025169  -0.267159  -0.260936

                     21         22         23         24         25
                    1.5565     1.6337     1.8399     1.8948     2.0857
                     A          A          A          A          A   
    1  N  1  S   -0.092965   0.080421  -0.166215  -0.043983   0.064970
    2  N  1  S   -0.098903   0.224101  -0.374176  -0.088455   0.095921
    3  N  1  S    0.833492   0.040856  -0.031760  -0.049449  -0.613140
    4  N  1  X    0.041831   0.226259   0.084382   0.061984   0.001138
    5  N  1  Y    0.002559   0.287361   0.402408   0.211175   0.080876
    6  N  1  Z    0.105561   0.139428  -0.016809   0.003291  -0.021426
    7  N  1  X    0.289563   0.094861   0.257643  -0.105948  -0.374907
    8  N  1  Y    0.747176  -0.481234   0.344918   0.219924   0.160856
    9  N  1  Z    0.475830  -0.037615   0.063757   0.161996  -0.312565
   10  N  1 XX    0.063970  -0.154613   0.226215  -0.585018   0.379279
   11  N  1 YY   -0.114343   0.138027   0.202448  -0.118332  -0.211553
   12  N  1 ZZ    0.050374   0.016586  -0.428663   0.703349  -0.167727
   13  N  1 XY   -0.030689  -0.087436   0.009840   0.380907   0.470413
   14  N  1 XZ   -0.075073  -0.282667   0.172341   0.032453  -0.648040
   15  N  1 YZ   -0.048466   0.076570  -0.311794  -0.081724   0.195832
   16  H  2  S   -0.179490   0.142703  -0.069397  -0.013024   0.001547
   17  H  2  S   -0.432114   0.233862  -0.013432  -0.213235  -0.237679
   18  H  2  X    0.574991  -0.265810   0.119782  -0.181480  -0.089963
   19  H  2  Y    0.604899  -0.010941   0.030774   0.287548   0.310149
   20  H  2  Z    0.056878  -0.389857   0.331928   0.233714  -0.130174
   21  H  3  S    0.219963  -0.240170   0.081787   0.067753   0.182102
   22  H  3  S    0.014804   0.038433   0.433731   0.180618   0.126181
   23  H  3  X   -0.121353  -0.241894   0.135117   0.313615   0.658857
   24  H  3  Y   -0.295841   0.221709   0.891250   0.283025   0.124198
   25  H  3  Z   -0.665595   0.044910  -0.324006  -0.317194   0.127096
   26  H  4  S   -0.350194   0.376581  -0.177646   0.137491   0.417803
   27  H  4  S   -0.123773  -0.521056  -0.192808  -0.001171   0.313604
   28  H  4  X    0.036297   0.562471  -0.014315   0.306037  -0.401897
   29  H  4  Y    0.068634   0.290238   0.016087  -0.000019  -0.323934
   30  H  4  Z    0.360461   0.591799   0.166712  -0.388480   0.166565

                     26         27         28         29
                    2.3318     2.4749     2.6823     2.9610
                     A          A          A          A   
    1  N  1  S   -0.021019   0.135249   0.113584  -0.138053
    2  N  1  S   -0.087495   0.239129   0.124141  -0.159612
    3  N  1  S   -0.555031  -0.361648  -1.205842   1.586864
    4  N  1  X    0.029956  -0.071107  -0.130578  -0.159210
    5  N  1  Y    0.164551  -0.193432   0.032127  -0.324577
    6  N  1  Z   -0.081549  -0.011847  -0.148643   0.069042
    7  N  1  X    0.006115  -0.474009  -0.429577  -0.185664
    8  N  1  Y    0.792152  -0.734960  -0.310161  -0.502376
    9  N  1  Z   -0.138481  -0.226741  -0.337651   0.159328
   10  N  1 XX   -0.307003  -0.259010  -0.162212  -0.689737
   11  N  1 YY    0.178159   0.292842  -0.068916   1.330205
   12  N  1 ZZ    0.128844  -0.033832   0.231128  -0.640469
   13  N  1 XY   -0.517366  -0.046950  -0.784530   0.406630
   14  N  1 XZ   -0.118633  -0.516019  -0.566542  -0.103558
   15  N  1 YZ    0.754710  -0.595492  -0.511316   0.016542
   16  H  2  S    0.086834   1.192309  -0.557497  -0.806418
   17  H  2  S   -0.224745   0.344547  -0.123709  -0.160486
   18  H  2  X    0.649771   0.699135  -0.599370  -0.148662
   19  H  2  Y    0.190092  -0.960036   0.464390   0.889301
   20  H  2  Z    0.246769   0.205927  -0.223401   0.247191
   21  H  3  S    0.614295  -0.488905   0.234926  -1.249241
   22  H  3  S    0.356810  -0.202725   0.014344  -0.390334
   23  H  3  X   -0.016948  -0.055948  -0.105302  -0.338508
   24  H  3  Y    0.687031  -0.420680   0.281777  -0.981680
   25  H  3  Z    0.247984  -0.089992  -0.225967   0.270103
   26  H  4  S   -0.184854  -0.450311   1.456043   0.579742
   27  H  4  S    0.111922  -0.027037   0.521350   0.022546
   28  H  4  X    0.060006   0.450886  -1.141249  -0.422514
   29  H  4  Y   -0.658547  -1.169522   0.207948   0.214968
   30  H  4  Z   -0.179538  -0.070582  -0.638130  -0.181000
 .....DONE WITH MCSCF ITERATIONS.....
 CPU     0: STEP CPU TIME=    11.34 TOTAL CPU TIME=         12.4 (      0.2 MIN)
 TOTAL WALL CLOCK TIME=         12.5 SECONDS, CPU UTILIZATION IS    99.92%

     ----------------------------------------------------------------
     PROPERTY VALUES FOR THE MCSCF SELF-CONSISTENT FIELD WAVEFUNCTION
     ----------------------------------------------------------------

          -----------------
          ENERGY COMPONENTS
          -----------------

         WAVEFUNCTION NORMALIZATION =       1.0000000000

                ONE ELECTRON ENERGY =     -92.3132518157
                TWO ELECTRON ENERGY =      26.2239702532
           NUCLEAR REPULSION ENERGY =      10.4295369317
                                      ------------------
                       TOTAL ENERGY =     -55.6597446308

 ELECTRON-ELECTRON POTENTIAL ENERGY =      26.2239702532
  NUCLEUS-ELECTRON POTENTIAL ENERGY =    -147.9622577937
   NUCLEUS-NUCLEUS POTENTIAL ENERGY =      10.4295369317
                                      ------------------
             TOTAL POTENTIAL ENERGY =    -111.3087506088
               TOTAL KINETIC ENERGY =      55.6490059780
                 VIRIAL RATIO (V/T) =       2.0001929712

          ---------------------------------------
          MULLIKEN AND LOWDIN POPULATION ANALYSES
          ---------------------------------------

     ATOMIC MULLIKEN POPULATION IN EACH MOLECULAR ORBITAL

                      1          2          3          4          5

                  2.000000   1.979117   1.959814   1.603527   1.042938

    1             2.000349   1.487271   0.830228   1.400376   0.947023
    2             0.000023   0.042219   0.422258   0.022436   0.068345
    3            -0.000359   0.326051   0.263995   0.043733   0.018430
    4            -0.000013   0.123575   0.443333   0.136983   0.009139

                      6          7          8

                  0.367833   0.025274   0.021496

    1             0.136259   0.010257   0.011065
    2             0.163347   0.004213   0.000818
    3             0.029784   0.000613   0.009416
    4             0.038444   0.010192   0.000197
 WARNING! MCSCF POPULATIONS SHOWN ABOVE ARE FOR THE NATURAL ORBITALS.
 IGNORE THE ABOVE DATA FOR MCSCF FUNCTIONS WHICH ARE NOT OF -FORS- TYPE.
 THE FOLLOWING POPULATIONS ARE CORRECT FOR ANY MCSCF WAVEFUNCTION.

               ----- POPULATIONS IN EACH AO -----
                             MULLIKEN      LOWDIN
              1  N  1  S      2.00192     1.90816
              2  N  1  S      0.85945     0.62229
              3  N  1  S      0.75088     0.43984
              4  N  1  X      0.67916     0.63052
              5  N  1  Y      0.73855     0.65126
              6  N  1  Z      0.67731     0.63915
              7  N  1  X      0.37653     0.42895
              8  N  1  Y      0.32615     0.45366
              9  N  1  Z      0.39939     0.43546
             10  N  1 XX      0.00076     0.16217
             11  N  1 YY      0.00443     0.19297
             12  N  1 ZZ      0.00185     0.15782
             13  N  1 XY      0.00325     0.00683
             14  N  1 XZ      0.00321     0.00649
             15  N  1 YZ      0.00000     0.00787
             16  H  2  S      0.55434     0.41995
             17  H  2  S      0.12681     0.19692
             18  H  2  X      0.00938     0.03219
             19  H  2  Y      0.02605     0.05860
             20  H  2  Z      0.00708     0.01772
             21  H  3  S      0.60195     0.47740
             22  H  3  S      0.03853     0.16778
             23  H  3  X      0.00931     0.02443
             24  H  3  Y      0.03509     0.06778
             25  H  3  Z      0.00677     0.01991
             26  H  4  S      0.62537     0.46351
             27  H  4  S      0.07805     0.17881
             28  H  4  X      0.02520     0.04624
             29  H  4  Y      0.01954     0.05852
             30  H  4  Z      0.01370     0.02680

          ----- MULLIKEN ATOMIC OVERLAP POPULATIONS -----
          (OFF-DIAGONAL ELEMENTS NEED TO BE MULTIPLIED BY 2)

             1           2           3           4

    1    6.3643761
    2    0.0149407   0.5685090
    3    0.3025871   0.0025337   0.3860001
    4    0.1409239   0.1376759   0.0005418   0.4827085

          TOTAL MULLIKEN AND LOWDIN ATOMIC POPULATIONS
       ATOM         MULL.POP.    CHARGE          LOW.POP.     CHARGE
    1 N             6.822828    0.177172         6.743445    0.256555
    2 H             0.723659    0.276341         0.725367    0.274633
    3 H             0.691663    0.308337         0.757303    0.242697
    4 H             0.761850    0.238150         0.773885    0.226115

          MULLIKEN SPHERICAL HARMONIC POPULATIONS
       ATOM           S       P       D      F      G      H      I    TOTAL
    1 N             3.61    3.20    0.01   0.00   0.00   0.00   0.00    6.82
    2 H             0.68    0.04    0.00   0.00   0.00   0.00   0.00    0.72
    3 H             0.64    0.05    0.00   0.00   0.00   0.00   0.00    0.69
    4 H             0.70    0.06    0.00   0.00   0.00   0.00   0.00    0.76

          ---------------------
          ELECTROSTATIC MOMENTS
          ---------------------

 POINT   1           X           Y           Z (BOHR)    CHARGE
                 0.000005    0.000005   -0.177185        1.00 (A.U.)
         DX          DY          DZ         /D/  (DEBYE)
     0.935339    0.359846    1.630467    1.913837
 ...... END OF PROPERTY EVALUATION ......
 CPU     0: STEP CPU TIME=     0.00 TOTAL CPU TIME=         12.4 (      0.2 MIN)
 TOTAL WALL CLOCK TIME=         12.5 SECONDS, CPU UTILIZATION IS    99.84%

     -------------------------------------------------
     GMC-PT/GMC-QDPT or general MCSCF input parameters
     -------------------------------------------------
 # of frozen core orbs. =         0 ->         0
 # of doubly occ. orbs. =         1
 # of active      orbs. =         7
 # of virtual     orbs. =        21
 # of active electrons  =         7
 # of states in CI      =         3
 Highest state in CI    =         3
 kstate =  1 1 1
 avecoe =  0.333 0.333 0.333
 State symmetry           = A           
 Assigned symmetry number = 1

 <<<Act. MO sym.: 1111111

 <<<Division of 1-ext.:  0
 <<<Division of 2-ext.:  0

     ------------------------
     Orbital canonicalization
     ------------------------

 MOs are canonicalized for core, virtual, and invariant-active orbital spaces.
 This is a part of the GMC-QDPT calculation.
 SCHWARZ INEQUALITY OVERHEAD:       465 INTEGRALS, T=        0.00
 DIRECT TRANSFORMATION SKIPS AO INTEGRAL STORAGE ON DISK.

 Averaged energy =     -55.659744631

 State #    1  Energy =     -55.747441475  S =  0.500
 State #    2  Energy =     -55.688878807  S =  0.500
 State #    3  Energy =     -55.542913610  S =  0.500

 Orbital energies for filled orbital space
  -16.018633
 Orbital energies for active orbital space
   -1.471016  -0.574773  -1.083729  -0.754041  -0.255218
    0.208138   0.366934
 Orbital energies for external orbital space
    0.139936   0.207878   0.326493   0.555217   0.584355
    0.714341   0.884529   1.010941   1.163766   1.217605
    1.358765   1.437804   1.556531   1.633716   1.839884
    1.894755   2.085740   2.331841   2.474899   2.682264
    2.961049

 Zero values mean non-canonical orbitals.
 ... done with orbital canonicalization ...
 CPU     0: STEP CPU TIME=     0.57 TOTAL CPU TIME=         13.0 (      0.2 MIN)
 TOTAL WALL CLOCK TIME=         13.0 SECONDS, CPU UTILIZATION IS    99.92%

     --------------------------------------------
     PARTIAL TWO ELECTRON INTEGRAL TRANSFORMATION
     --------------------------------------------

 NUMBER OF CORE MOLECULAR ORBITALS     =    0
 NUMBER OF OCCUPIED MOLECULAR ORBITALS =    8
 TOTAL NUMBER OF MOLECULAR ORBITALS    =   29
 TOTAL NUMBER OF ATOMIC ORBITALS       =   30
 THRESHOLD FOR KEEPING TRANSFORMED 2E- INTEGRALS = 1.000E-09
 AO INTEGRALS WILL BE CALCULATED IN DIRECT MODE...
 DIRECT TRANSFORMATION SKIPS AO INTEGRAL STORAGE ON DISK.
 SCHWARZ INEQUALITY OVERHEAD:       465 INTEGRALS, T=        0.00

 PLAN A: REQUIREMENTS FOR FULLY IN-MEMORY TRANSFORMATION:
 # OF WORDS AVAILABLE =            100000000
 # OF WORDS NEEDED    =               221798

 PARALLEL ONLY WORKS WITH THE SEGMENTED ALGORITHM.
 ADJUSTING MEMORY TO USE SEGMENTED ALGORITHM.


 PLAN B: REQUIREMENTS FOR THE SEGMENTED TRANSFORMATION:
       MINIMUM=         124148 WORDS FOR 1 MOLECULAR ORBITAL PER PASS
       MAXIMUM=         221798 WORDS FOR ALL MOLECULAR ORBITALS IN 1 PASS
              (          13950 EXTRA WORDS INCLUDES 1 EXTRA ORBITAL/PASS)
 THIS RUN USES=         221798 WORDS,
 DISTRIBUTING   1 PASSES EACH CONTAINING     8 ORBITALS OVER   1 PROCESSORS.

 CHOOSING SEGMENTED PARTIAL TRANSFORMATION...
 DIRECT TRANSFORMATION SKIPS AO INTEGRAL STORAGE ON DISK.
 PASS #   1 TOOK        0.04 SECONDS.
 TOTAL NUMBER OF TRANSFORMED 2E- INTEGRALS KEPT =        29226
 ... END OF INTEGRAL TRANSFORMATION ...
 CPU     0: STEP CPU TIME=     0.04 TOTAL CPU TIME=         13.1 (      0.2 MIN)
 TOTAL WALL CLOCK TIME=         13.1 SECONDS, CPU UTILIZATION IS    99.85%

     --------     ------------------------------------------
     GMC-QDPT     Program written by H.Nakano (Kyushu Univ.)
     --------     ------------------------------------------

 *** Reference space

 Reference type: ORMAS (= Occupation restricted multiple active space)
 # of orbitals          =  7
 # of minimum electrons =  7
 # of maximum electrons =  7
 State symmetry    =    1 (input)
 2*Sz              =    1 (input)
 Spin multiplicity =    2 (input)
 Dimension of reference space =      1225  (from      3432 walks)

 Dimension of reference space =      1225  (from      1225 walks)

 <<<Ionized spaces for Ref-CI:
      0:         1225 /   -1-0:         1960 /  0-1-0:         2891

 ***                    ***
 *** Reference space CI ***
 ***                    ***

 Converged after   24 iterations

 Reference wavefunctions:

 State #    1  Energy =     -55.747441475  S =  0.500

      Det      Coef    Occupancy (Ignoring core)
      ---      ----    --------- --------- -----
        1   -0.203019  11110001110000
       71    0.950629  11110001011000
      106   -0.050802  11110000111000
      248   -0.069524  11011001001100
      391   -0.066790  11100101010010

 State #    2  Energy =     -55.688878807  S =  0.500

      Det      Coef    Occupancy (Ignoring core)
      ---      ----    --------- --------- -----
        1   -0.949853  11110001110000
       71   -0.205408  11110001011000
      143   -0.069446  11011001100100
      179   -0.076091  10111001010100

 State #    3  Energy =     -55.542913610  S =  0.500

      Det      Coef    Occupancy (Ignoring core)
      ---      ----    --------- --------- -----
        2    0.185068  11101001110000
        4   -0.083659  10111001110000
       72    0.100911  11101001011000
       74   -0.920024  10111001011000
       81   -0.051083  10101101011000
      109   -0.050216  10111000111000
      110    0.058256  01111000111000
      176    0.184570  11110001010100
      246    0.051662  11110001001100
      249    0.081002  10111001001100

 Davidson method: CPU/Wall time =           0.38 /           0.38 sec.

 Oscillator strength (invalid if E(1)/=E(GS)):
 -----------------------------------------
   State                        f
 -----------------------------------------
     2     F(REF-CI)=        0.0012671720
     3     F(REF-CI)=        0.0034929083
 -----------------------------------------

 Dipole moment matrix elements, x, y, z, in A.U.

 Dimension of ionized spaces for PT:
 (N-2) space:         1715 /  (N-1) space:         2842 /  N space:         2891
 (N+1) space:         2842 /  (N+2) space:         1715

 <<<Ionized spaces for internal:
         0:         1225 /      -1-0:         1960 /     0-1-0:         2891
  -1-0-1-0:         2842 / 0-1-0-1-0:         3381

 Diagonal elements of averaged one-particle density matrix:
       2       3       4       5       6       7       8
  0.9923  0.6936  0.9837  0.9710  0.3323  0.0156  0.0115
  0.9847  0.3491  0.9769  0.6334  0.0351  0.0105  0.0104

 Orbital energies:
 -------- Doubly-occupied orbitals (highest several orbs.) -------
             1
 -1.601863D+01
 -------- Active orbitals ----------------------------------------
             2            3            4            5            6
 -1.471016D+00-5.747731D-01-1.083729D+00-7.540409D-01-2.552184D-01
             7            8
  2.081378D-01 3.669335D-01
 -------- External orbitals (lowest several orbs.) ---------------
             9           10           11           12           13
  1.399363D-01 2.078779D-01 3.264931D-01 5.552168D-01 5.843552D-01
            14           15           16           17           18
  7.143413D-01 8.845294D-01 1.010941D+00 1.163766D+00 1.217605D+00

 *** Quasi-degeneracy checking

 === Det (|Ci| > 1.0D-01 and dE < 5.0D-03)

 # of small denominators (single excitations)
 State       dEmin  dE < 5.0D-03  dE < 5.0D-04  dE < 5.0D-05  dE < 5.0D-06
 ----- ----------- ------------- ------------- ------------- -------------
     1    5.00D-03             0             0             0             0
     2    5.00D-03             0             0             0             0
     3    5.00D-03             0             0             0             0

 # of small denominators (double excitations)
 State       dEmin  dE < 5.0D-03  dE < 5.0D-04  dE < 5.0D-05  dE < 5.0D-06
 ----- ----------- ------------- ------------- ------------- -------------
     1    5.00D-03             0             0             0             0
     2    5.00D-03             0             0             0             0
     3    5.00D-03             0             0             0             0

 *** Zeroth-Order Setup (Granovsky's zeroth-order vectors)
 Zeroth-order effective Hamiltonian
  (= Sum_i e(i)*<I|a+(i)a(i)|J> ):
                   1            2            3
     1 -7.081156D+00
     2  3.955985D-02-6.930551D+00
     3  1.434587D-02 1.332387D-03-6.755107D+00

 Zeroth-order vectors:
 State #    1
       MC st            1           2           3
       Coeff   -9.704D-01   2.382D-01   4.044D-02
 State #    2
       MC st            2           1           3
       Coeff   -9.710D-01  -2.372D-01   2.832D-02
 State #    3
       MC st            3           1           2
       Coeff    9.988D-01   4.602D-02   1.789D-02

 *** GMC-QDPT computation

 (Integral reading:  CPU/Wall time =           0.00 /           0.00 sec.)

 One-external:
   0 -ionized terms: CPU/Wall time =           0.03 /           0.04 sec.
 (-1)-ionized terms: CPU/Wall time =           0.08 /           0.08 sec.
 (+1)-ionized terms: CPU/Wall time =           0.03 /           0.02 sec.
 (+1)-ionized terms: CPU/Wall time =           0.00 /           0.01 sec.
 (+2)-ionized terms: CPU/Wall time =           0.01 /           0.00 sec.

 Internal:
 # of macro loops for internal contribution =         1 (input)
 Loop:    1
 Dimension of internal CISD space     =         0  (after screening)
 Space construction: CPU/Wall time =           0.01 /           0.02 sec.
 Internal terms:     CPU/Wall time =           0.00 /           0.00 sec.

 Two-external:
   0 -ionized terms: CPU/Wall time =           0.06 /           0.06 sec.
 (-1)-ionized terms: CPU/Wall time =           1.01 /           1.00 sec.
 (-2)-ionized terms: CPU/Wall time =           0.17 /           0.17 sec.

 Total time:         CPU/Wall time =           1.40 /           1.40 sec.

 ***                  ***
 *** GMC-QDPT Results ***
 ***                  ***

 Diagonal elements of effective Hamiltonian:
 Heff(  1) =   -55.84917268
 Heff(  2) =   -55.80697725
 Heff(  3) =   -55.65564854

 Off-diagonal elements of effective Hamiltonian:
                   1            2
     2 -9.439992D-03
     3  1.084442D-02 4.559421D-03

 ******** GMC-QDPT energies ********
 ----------------------------------------------------------------------------
   State                        1st order                           2nd order
 ----------------------------------------------------------------------------
     1     E(REF-CI)=      -55.7474414750   E(GMC-QDPT2)=      -55.8518694039
     2     E(REF-CI)=      -55.6888788071   E(GMC-QDPT2)=      -55.8049932456
     3     E(REF-CI)=      -55.5429136103   E(GMC-QDPT2)=      -55.6549358135
 ----------------------------------------------------------------------------

 Excitation energies (invalid if E(1)/=E(GS)):
 ----------------------------------------------------------------------------
   State                        1st order                           2nd order
 ----------------------------------------------------------------------------

     TZ Sorted GMC-PT ENERGIES:
         1      -55.8518694039
         2      -55.8049932456
         3      -55.6549358135
     2     E(REF-CI)=        1.5935722 eV   E(GMC-QDPT2)=        1.2755659 eV
     3     E(REF-CI)=        5.5654895 eV   E(GMC-QDPT2)=        5.3588387 eV
 ----------------------------------------------------------------------------

 Main characters of perturbed GMC-QDPT states:

 State #    1  Energy =     -55.851869404  S =  0.500

      Det      Coef    Occupancy (Ignoring core)
      ---      ----    --------- --------- -----
        1   -0.177917  11110001110000
       71    0.955116  11110001011000
      248   -0.070222  11011001001100
      391   -0.066592  11100101010010

 State #    2  Energy =     -55.804993246  S =  0.500

      Det      Coef    Occupancy (Ignoring core)
      ---      ----    --------- --------- -----
        1   -0.954869  11110001110000
       71   -0.180045  11110001011000
      143   -0.069795  11011001100100
      179   -0.076269  10111001010100

 State #    3  Energy =     -55.654935814  S =  0.500

      Det      Coef    Occupancy (Ignoring core)
      ---      ----    --------- --------- -----
        2    0.185283  11101001110000
        4   -0.083594  10111001110000
       71   -0.051943  11110001011000
       72    0.100883  11101001011000
       74   -0.919357  10111001011000
       81   -0.051346  10101101011000
      110    0.058274  01111000111000
      176    0.184477  11110001010100
      246    0.051229  11110001001100
      249    0.081386  10111001001100

 <<<Max |V/de| = 7.630D-02  Thresh = 1.000D+00

 Oscillator strength (invalid if E(1)/=E(GS)):
 ----------------------------------------------------------------------------
   State                        1st order                           2nd order
 ----------------------------------------------------------------------------
     2     F(REF-CI)=        0.0012671720     F(GMC-PT2)=        0.0010711620
     3     F(REF-CI)=        0.0034929083     F(GMC-PT2)=        0.0030400797
 ----------------------------------------------------------------------------

 Dipole moment matrix elements, x, y, z, in A.U.
States    1    1        0.3303428044        0.4129304387        0.5297021701
States    1    2       -0.0289962555        0.0351693210        0.1794398873
States    1    3       -0.0167679270       -0.1225663808       -0.0886111716
States    2    1       -0.0289962555        0.0351693210        0.1794398873
States    2    2        0.5293353466        0.2971527135        0.4479485593
States    2    3        0.0138269348        0.0962434128        0.0392338019
States    3    1       -0.0167679270       -0.1225663808       -0.0886111716
States    3    2        0.0138269348        0.0962434128        0.0392338019
States    3    3        0.5480917710        1.0619963973        0.9103187706

 Oscillator strength (valid only when positive): 
 ----------------------------------------------------------------------------
  States                        1st order                           2nd order
 ----------------------------------------------------------------------------
  1  1     F(REF-CI)=        0.0000000000     F(GMC-PT2)=        0.0000000000
  1  2     F(REF-CI)=       -0.0012671720     F(GMC-PT2)=       -0.0010711620
  1  3     F(REF-CI)=       -0.0034929083     F(GMC-PT2)=       -0.0030400797
  2  1     F(REF-CI)=        0.0012671720     F(GMC-PT2)=        0.0010711620
  2  2     F(REF-CI)=        0.0000000000     F(GMC-PT2)=        0.0000000000
  2  3     F(REF-CI)=       -0.0012739697     F(GMC-PT2)=       -0.0010997479
  3  1     F(REF-CI)=        0.0034929083     F(GMC-PT2)=        0.0030400797
  3  2     F(REF-CI)=        0.0012739697     F(GMC-PT2)=        0.0010997479
  3  3     F(REF-CI)=        0.0000000000     F(GMC-PT2)=        0.0000000000
 CPU     0: STEP CPU TIME=     1.84 TOTAL CPU TIME=         14.9 (      0.2 MIN)
 TOTAL WALL CLOCK TIME=         14.9 SECONDS, CPU UTILIZATION IS    99.87%

     !!! DIABATIZATION FOR REF CI STATES !!!

 *******************************************************
          $DMO GROUP FOUND IN THE INPUT.
        DIABATIZATION OF ADIABATIC STATES BEGINS.
     PROGRAMMED BY TAO ZENG (CARLETON UNIVERSITY).
               Email: toby.zeng@carleton.ca
     See T. Zeng, J. Chem. Phys. 2017, 146, 144103
 *******************************************************

 *************************************************************************
     STEP 1: TRANSFORMATION OF ADIABATIC STATES TO THE DMO REPRESENTATION
         See Atchity and Ruedenberg, J. Chem. Phys. 1999, 111, 2910
 *************************************************************************

Read in Diabatic Molecualr Orbitals:

                      1          2          3          4          5

    1  N  1  S    0.008609   0.000000   0.000000  -0.013219   0.279491
    2  N  1  S    0.442914  -0.000000   0.000000  -0.184329   0.867803
    3  N  1  S    0.276913   0.000000  -0.000000  -0.288315   0.144236
    4  N  1  X   -0.000000   0.493155  -0.024636  -0.000000  -0.000000
    5  N  1  Y    0.000000   0.024636   0.493155  -0.000000   0.000000
    6  N  1  Z    0.090197   0.000000   0.000000   0.593421   0.705309
    7  N  1  X   -0.000000   0.210628  -0.010522   0.000000   0.000000
    8  N  1  Y    0.000000   0.010522   0.210628  -0.000000  -0.000000
    9  N  1  Z   -0.004381   0.000000   0.000000   0.381592  -0.106092
   10  N  1 XX   -0.000457   0.010719  -0.000535  -0.012387   0.006153
   11  N  1 YY   -0.000457  -0.010719   0.000535  -0.012387   0.006153
   12  N  1 ZZ    0.000914  -0.000000   0.000000   0.024773  -0.012306
   13  N  1 XY    0.000000  -0.000618  -0.012377  -0.000000   0.000000
   14  N  1 XZ   -0.000000   0.026529  -0.001325  -0.000000   0.000000
   15  N  1 YZ    0.000000   0.001325   0.026529  -0.000000   0.000000
   16  H  2  S    0.194462  -0.176074   0.343485   0.112865  -0.523343
   17  H  2  S    0.003574  -0.023812   0.046452   0.024014  -0.054445
   18  H  2  X    0.018760   0.009101   0.022834   0.009336  -0.039151
   19  H  2  Y   -0.032493   0.022287  -0.020044  -0.016171   0.067811
   20  H  2  Z   -0.009251   0.008464  -0.016511   0.018769  -0.010566
   21  H  3  S    0.194462  -0.209430  -0.324227   0.112865  -0.523343
   22  H  3  S    0.003574  -0.028322  -0.043847   0.024014  -0.054445
   23  H  3  X    0.018760   0.006781  -0.023627   0.009336  -0.039151
   24  H  3  Y    0.032493  -0.024174  -0.017723   0.016171  -0.067811
   25  H  3  Z   -0.009251   0.010067   0.015585   0.018769  -0.010566
   26  H  4  S    0.194462   0.385503  -0.019258   0.112865  -0.523343
   27  H  4  S    0.003574   0.052134  -0.002604   0.024014  -0.054445
   28  H  4  X   -0.037519  -0.032295   0.001613  -0.018672   0.078302
   29  H  4  Y    0.000000   0.001067   0.021353  -0.000000   0.000000
   30  H  4  Z   -0.009251  -0.018530   0.000926   0.018769  -0.010566

                      6          7

    1  N  1  S    0.000000  -0.000000
    2  N  1  S    0.000000  -0.000000
    3  N  1  S   -0.000000   0.000000
    4  N  1  X   -0.930415  -0.002083
    5  N  1  Y   -0.002083   0.930415
    6  N  1  Z   -0.000000   0.000000
    7  N  1  X   -0.046866  -0.000105
    8  N  1  Y   -0.000105   0.046866
    9  N  1  Z   -0.000000   0.000000
   10  N  1 XX    0.001538   0.000003
   11  N  1 YY   -0.001538  -0.000003
   12  N  1 ZZ   -0.000000   0.000000
   13  N  1 XY   -0.000004   0.001776
   14  N  1 XZ    0.039985   0.000090
   15  N  1 YZ    0.000090  -0.039985
   16  H  2  S   -0.362630  -0.631354
   17  H  2  S   -0.065964  -0.114846
   18  H  2  X    0.002763  -0.037520
   19  H  2  Y    0.037435   0.040736
   20  H  2  Z    0.001882   0.003276
   21  H  3  S   -0.365454   0.629724
   22  H  3  S   -0.066477   0.114549
   23  H  3  X    0.002595   0.037532
   24  H  3  Y   -0.037617   0.040567
   25  H  3  Z    0.001896  -0.003268
   26  H  4  S    0.728084   0.001630
   27  H  4  S    0.132441   0.000297
   28  H  4  X   -0.062317  -0.000140
   29  H  4  Y    0.000055  -0.024345
   30  H  4  Z   -0.003778  -0.000008

NUMBER OF SUB ACTIVE SPACES:   1
ROTATE ACTIVE MOS TO DMOS IN EACH SUB-SPACE

SPACE  1:

OVERLAP BETWEEN ORTHONORMAL AND PRE-ORTHONORMAL REF. DMOS

             1           2           3           4           5

    1    0.9561416   0.0318435   0.0010963  -0.0161286  -0.0049642
    2    0.0318435   0.8475078   0.1092697   0.0480494  -0.0695740
    3    0.0010963   0.1092697   0.9838632   0.0275776  -0.0709391
    4   -0.0161286   0.0480494   0.0275776   0.9878635  -0.0176109
    5   -0.0049642  -0.0695740  -0.0709391  -0.0176109   1.2716907
    6    0.0075284  -0.1065807   0.1209733   0.0558197  -0.0184208
    7   -0.0014823  -0.0750846  -0.0275086  -0.0628489   0.1311944

             6           7

    1    0.0075284  -0.0014823
    2   -0.1065807  -0.0750846
    3    0.1209733  -0.0275086
    4    0.0558197  -0.0628489
    5   -0.0184208   0.1311944
    6    1.0735580  -0.0257066
    7   -0.0257066   1.0820148
REFERENCE DMOS AFTER ORTHONORMALIZATION:

                      1          2          3          4          5

    1  N  1  S    0.009371   0.015112   0.013607  -0.012240   0.224008
    2  N  1  S    0.462312   0.037630   0.046157  -0.176281   0.695875
    3  N  1  S    0.284745   0.012795   0.012101  -0.288752   0.115086
    4  N  1  X   -0.008932   0.476592   0.023914   0.023501   0.014565
    5  N  1  Y    0.000552   0.027653   0.522285   0.041503  -0.060543
    6  N  1  Z    0.107784  -0.001783   0.026247   0.611342   0.567924
    7  N  1  X   -0.008417   0.254466  -0.035913  -0.009658   0.010060
    8  N  1  Y    0.000517  -0.014508   0.220566  -0.000953   0.006338
    9  N  1  Z    0.002724  -0.027917  -0.010228   0.389667  -0.083542
   10  N  1 XX   -0.001190   0.014594  -0.001885  -0.013362   0.005437
   11  N  1 YY   -0.000230  -0.012446   0.002803  -0.011938   0.004327
   12  N  1 ZZ    0.001420  -0.002148  -0.000918   0.025300  -0.009765
   13  N  1 XY   -0.000034   0.001193  -0.012929   0.000297  -0.000789
   14  N  1 XZ   -0.001663   0.038716  -0.010562  -0.003795   0.001770
   15  N  1 YZ    0.000102  -0.005273   0.027453  -0.002565   0.005013
   16  H  2  S    0.219260  -0.410372   0.405331   0.109812  -0.357515
   17  H  2  S    0.006299  -0.058863   0.057397   0.022800  -0.032757
   18  H  2  X    0.019469   0.002024   0.020171   0.006768  -0.026257
   19  H  2  Y   -0.035786   0.044842  -0.025722  -0.017897   0.051112
   20  H  2  Z   -0.009812   0.012118  -0.019658   0.018757  -0.009042
   21  H  3  S    0.216490  -0.258537  -0.283818   0.187951  -0.507090
   22  H  3  S    0.005877  -0.033910  -0.035380   0.036503  -0.058391
   23  H  3  X    0.019287   0.011635  -0.027872   0.011528  -0.035498
   24  H  3  Y    0.035621  -0.035505  -0.013185   0.022848  -0.060488
   25  H  3  Z   -0.009722   0.008879   0.013854   0.017883  -0.006819
   26  H  4  S    0.178737   0.541475  -0.198492   0.053770  -0.391315
   27  H  4  S    0.000126   0.079474  -0.030758   0.013925  -0.039473
   28  H  4  X   -0.037305  -0.042292   0.018476  -0.014138   0.060307
   29  H  4  Y    0.000076  -0.003655   0.022153  -0.001647   0.003315
   30  H  4  Z   -0.008500  -0.024804   0.003397   0.020260  -0.009388

                      6          7

    1  N  1  S    0.003750  -0.026375
    2  N  1  S    0.014247  -0.089858
    3  N  1  S    0.014209  -0.028803
    4  N  1  X   -0.822672   0.011796
    5  N  1  Y   -0.040085   0.883889
    6  N  1  Z   -0.026730  -0.033295
    7  N  1  X   -0.013263   0.014541
    8  N  1  Y   -0.025124   0.046494
    9  N  1  Z   -0.022613   0.030033
   10  N  1 XX    0.003881  -0.000377
   11  N  1 YY   -0.002337  -0.002070
   12  N  1 ZZ   -0.001544   0.002446
   13  N  1 XY    0.001580   0.001546
   14  N  1 XZ    0.042593   0.003076
   15  N  1 YZ   -0.004212  -0.037479
   16  H  2  S   -0.451046  -0.562359
   17  H  2  S   -0.078069  -0.105316
   18  H  2  X   -0.001166  -0.030447
   19  H  2  Y    0.045090   0.033891
   20  H  2  Z    0.004245   0.005642
   21  H  3  S   -0.339209   0.621475
   22  H  3  S   -0.061601   0.110359
   23  H  3  X    0.006326   0.039936
   24  H  3  Y   -0.038537   0.042488
   25  H  3  Z    0.000103  -0.000197
   26  H  4  S    0.746013   0.102574
   27  H  4  S    0.133650   0.013777
   28  H  4  X   -0.062590  -0.012266
   29  H  4  Y   -0.003211  -0.022764
   30  H  4  Z   -0.007508   0.000482

 -------------------------------------------
       MAXIMIZING MORMO OVERLAP TERM        
 -------------------------------------------
   SWEEP    VALUE       PROGRESS
     0     4.80740
     1     6.71462     1.90722237
     2     6.78418     0.06955826
     3     6.78418     0.00000215
     4     6.78418     0.00000000
     5     6.78418     0.00000000
 THE ROTATION IS DONE
FLIPPING SIGN FOR ORBITAL   7
ACTIVE ORBITALS AFTER MORMO:

                      1          2          3          4          5

    1  N  1  S    0.012993   0.014143  -0.002392  -0.027452   0.097696
    2  N  1  S    0.427977   0.048392  -0.010338  -0.228056   0.494482
    3  N  1  S    0.339705   0.030818   0.054766  -0.218811   0.458704
    4  N  1  X    0.003118   0.400591   0.063794   0.042818   0.052012
    5  N  1  Y   -0.011574   0.053612   0.476036   0.032052  -0.142730
    6  N  1  Z    0.089894  -0.033784   0.042389   0.615220   0.379589
    7  N  1  X   -0.020601   0.366776  -0.118132  -0.056549  -0.020349
    8  N  1  Y    0.006715  -0.050735   0.253781  -0.032284   0.152522
    9  N  1  Z    0.033347   0.015109  -0.045056   0.385660   0.143700
   10  N  1 XX   -0.005844   0.028902  -0.010186  -0.009955   0.005591
   11  N  1 YY    0.008538  -0.034312   0.011230  -0.002443  -0.010448
   12  N  1 ZZ   -0.002694   0.005410  -0.001044   0.012398   0.004857
   13  N  1 XY    0.004451   0.001240  -0.001298  -0.004038  -0.022132
   14  N  1 XZ    0.001306   0.023986  -0.010498   0.003638  -0.013532
   15  N  1 YZ    0.002821  -0.001667   0.012816   0.003399  -0.009467
   16  H  2  S    0.181659  -0.216286   0.318208   0.098784  -0.328936
   17  H  2  S    0.034886  -0.255124   0.138111   0.020699  -0.229456
   18  H  2  X   -0.001674   0.022331  -0.018210  -0.007129  -0.028533
   19  H  2  Y   -0.021886  -0.002555  -0.033879  -0.013243  -0.006422
   20  H  2  Z   -0.004302   0.002859  -0.018668   0.009918  -0.011847
   21  H  3  S    0.188035  -0.241450  -0.294016   0.141463  -0.486214
   22  H  3  S    0.006886  -0.061091  -0.031141   0.030662  -0.122669
   23  H  3  X    0.008059   0.015921  -0.019476   0.001699  -0.013246
   24  H  3  Y    0.029529  -0.022690  -0.032124   0.012622  -0.028193
   25  H  3  Z   -0.001766   0.006812   0.002524   0.018652   0.006687
   26  H  4  S    0.174668   0.413289  -0.086258   0.081195  -0.379322
   27  H  4  S    0.000657   0.162899  -0.117418   0.016818  -0.163269
   28  H  4  X   -0.027580  -0.021118  -0.009676  -0.020123   0.006794
   29  H  4  Y   -0.006000  -0.039981   0.019727  -0.006311  -0.025433
   30  H  4  Z   -0.013474  -0.031500  -0.004255   0.010222  -0.000763

                      6          7

    1  N  1  S    0.055800  -0.132042
    2  N  1  S    0.142774  -0.289356
    3  N  1  S   -0.088912   0.271891
    4  N  1  X   -0.806049  -0.012466
    5  N  1  Y   -0.000785   0.853620
    6  N  1  Z   -0.149555  -0.086766
[...]
        5    0.045184    0.045184  -22++00
      813    0.044667   -0.044667  20+20+-
       13    0.043115    0.043115  2--+++0
       17    0.041191    0.041191  22-+00+
        6    0.040659   -0.040659  22200+0
      354   -0.039854    0.039854  2-+++-0
      822    0.039285   -0.039285  2+02002
      463   -0.038902    0.038902  20+2020
      113    0.037459   -0.037459  +-220+0
       91   -0.036926   -0.036926  202-+0+
      810   -0.036741   -0.036741  -++2+0-
       42    0.036253   -0.036253  22020+0
       51   -0.035322    0.035322  22+-00+
      263   -0.035281   -0.035281  20+2-0+
      180   -0.034760    0.034760  -+2+200
      123    0.034601   -0.034601  +-2200+
      176    0.032829   -0.032829  2+2+-00
      396   -0.031673   -0.031673  2020+20
      248    0.031604   -0.031604  2+02200
      389    0.031425    0.031425  202++-0
       64   -0.030994    0.030994  2-020++
      186   -0.030891    0.030891  20202+0
      323   -0.030356    0.030356  +022-+0
       10    0.030320    0.030320  22-0++0
       73   -0.029667    0.029667  2+-2+00
       21   -0.029420    0.029420  2-20+0+
       89   -0.029194   -0.029194  -+2200+
      704   -0.028560    0.028560  2-+++0-
      828   -0.028066   -0.028066  2002+02
      141    0.027958    0.027958  22++-00
      351    0.027830    0.027830  22++0-0
      247   -0.027540    0.027540  2++-200
      702   -0.027488   -0.027488  22+0+0-
      753    0.027386    0.027386  202+002
      316   -0.027340   -0.027340  ++22-00
      183   -0.026492    0.026492  202+-+0
      529    0.026355    0.026355  +022+-0
      457    0.026053   -0.026053  2++-+-0
        7    0.026021    0.026021  22-+0+0
      332   -0.025624    0.025624  ++-2-0+
       93    0.025218   -0.025218  20-2+0+
       79   -0.023955   -0.023955  -+220+0
      251    0.023931    0.023931  2++--+0
      320    0.023591    0.023591  0+22200
      352   -0.023253   -0.023253  22+0+-0
      178    0.022225    0.022225  2+-+200
      812    0.022068   -0.022068  2+020+-
      751    0.022021   -0.022021  2+20002
       58    0.021946   -0.021946  2-02+0+
      193   -0.021927    0.021927  202+-0+
      392   -0.021846   -0.021846  2+-+020
      878    0.021189    0.021189  ++-2+0-
      264    0.020675   -0.020675  -++2-0+
      388    0.020671    0.020671  2+-++-0
      192   -0.020610    0.020610  2+-+-0+
     1054    0.020425    0.020425  20+++--
       11   -0.020339    0.020339  2-20++0
      494   -0.020234    0.020234  +-+2+-0
       20    0.020008    0.020008  22-0+0+

 State #    3  Energy =     -55.725056892

      Det      Coef        Coefp    Occupancy (Ignoring core)
      ---      ----        ----    --------- --------- -----
       71    0.404993   -0.404993  2+22000
       72    0.387350    0.387350  2+2-+00
       36   -0.311940   -0.311940  22+2000
        4   -0.301885    0.301885  2-2++00
       86    0.226143    0.226143  2+2-00+
        1    0.211665   -0.211665  222+000
        2    0.190963   -0.190963  2220+00
       37   -0.190748    0.190748  22+-+00
       18   -0.151842    0.151842  2-2+00+
       51   -0.150651    0.150651  22+-00+
      141    0.126523    0.126523  22++-00
       74    0.125741   -0.125741  2022+00
       81   -0.113576   -0.113576  202-++0
       78   -0.100889    0.100889  20220+0
      701    0.097374    0.097374  22++00-
       77   -0.096555    0.096555  2+-20+0
       80   -0.095440   -0.095440  2+--++0
       73    0.091175   -0.091175  2+-2+00
      386    0.090028   -0.090028  2+2+0-0
      176   -0.085465    0.085465  2+2+-00
       43    0.080627    0.080627  2-+20+0
      246   -0.079690   -0.079690  2++2-00
       16    0.075827   -0.075827  222000+
      107   -0.075552    0.075552  +22-+00
      736   -0.074301    0.074301  2+2+00-
      389    0.070115    0.070115  202++-0
       42   -0.068663    0.068663  22020+0
        8   -0.066667    0.066667  2-2+0+0
       97    0.065880    0.065880  202-0++
      351   -0.065171   -0.065171  22++0-0
        3    0.064225    0.064225  22-++00
      354   -0.064175    0.064175  2-+++-0
       46    0.062993   -0.062993  2-+-++0
       96    0.062988    0.062988  2+--0++
       13    0.057002    0.057002  2--+++0
      148   -0.055821   -0.055821  2-++-+0
        7    0.054541    0.054541  22-+0+0
       17    0.053277    0.053277  22-+00+
      247   -0.051301    0.051301  2++-200
        5    0.050762    0.050762  -22++00
       88    0.049280   -0.049280  202200+
      121   -0.047170    0.047170  +22-00+
       62   -0.047160    0.047160  2-+-0++
        6    0.045426   -0.045426  22200+0
      737    0.045113   -0.045113  2+20+0-
      183    0.043462   -0.043462  202+-+0
       45   -0.043269   -0.043269  220-++0
       90   -0.040765   -0.040765  2+--+0+
      396   -0.039623   -0.039623  2020+20
      368    0.038729    0.038729  2-++0-+
       21   -0.037593    0.037593  2-20+0+
      147    0.037525   -0.037525  220+-+0
      739    0.037421    0.037421  202++0-
      111   -0.037192    0.037192  +22-0+0
       61    0.036688    0.036688  220-0++
       10    0.036476    0.036476  22-0++0
      403   -0.036183    0.036183  202+0-+
      708    0.035624   -0.035624  2-++0+-
      109    0.033469   -0.033469  +-22+00
       19    0.033230    0.033230  -22+00+
      742   -0.032944   -0.032944  2+-+0+-
       91   -0.032284   -0.032284  202-+0+
      144    0.032135   -0.032135  2-++200
      822   -0.031688    0.031688  2+02002
      825   -0.030691   -0.030691  2+0-+02
      459   -0.030668    0.030668  20+2+-0
      813   -0.029790    0.029790  20+20+-
      743   -0.029696   -0.029696  202+0+-
      358   -0.029481    0.029481  2-++020
      282    0.028492    0.028492  +2+-200
      707   -0.028375   -0.028375  220+0+-
      252    0.028298    0.028298  2+02-+0
      253    0.027856    0.027856  20+2-+0
       29   -0.027192   -0.027192  2--+0++
      317   -0.026571    0.026571  ++2-200
      457    0.026301   -0.026301  2++-+-0
      179    0.025648    0.025648  202+200
       11   -0.025439    0.025439  2-20++0
      352   -0.025375   -0.025375  22+0+-0
       55   -0.025161   -0.025161  220-+0+
      182    0.025120   -0.025120  2+-+-+0
      473    0.024929    0.024929  20+20-+
      211    0.024790    0.024790  +22+-00
      702   -0.024766   -0.024766  22+0+0-
      320   -0.024703   -0.024703  0+22200
      157    0.024672   -0.024672  220+-0+
      561    0.024556    0.024556  2+++--0
      256    0.024537   -0.024537  20+-2+0
      471   -0.024513   -0.024513  2++-0-+
      316   -0.023753   -0.023753  ++22-00
      463    0.023661   -0.023661  20+2020
        9    0.023408    0.023408  -22+0+0
       76   -0.023361   -0.023361  2+2-0+0
       23    0.023145    0.023145  2--++0+
       20    0.022838    0.022838  22-0+0+
      255    0.022794   -0.022794  2+0-2+0
      145   -0.022787   -0.022787  -2++200
      186   -0.022729    0.022729  20202+0
      249    0.022679   -0.022679  20+2200
      142    0.022131    0.022131  22+0200
      723    0.021790   -0.021790  2-0++02
      387    0.021783   -0.021783  2+20+-0
      717   -0.021433   -0.021433  220+002
      564   -0.021131   -0.021131  20++2-0
      143   -0.020472   -0.020472  220+200
     1054    0.020278    0.020278  20+++--
       38    0.020265   -0.020265  2202+00

 ---------------------------------------
      - DIABATIC STATES IN CMO -        
 ---------------------------------------

 State #    1  Energy =     -55.814179747

      Det      Coef        Coefp    Occupancy (Ignoring core)
      ---      ----        ----    --------- --------- -----
       71   -0.686624    0.686624  2+22000
        1    0.606995   -0.606995  222+000
       74   -0.314464    0.314464  2022+00
      106   -0.074904   -0.074904  +222000
        2    0.061664   -0.061664  2220+00
      391    0.056792   -0.056792  2+20020
      249    0.048171   -0.048171  20+2200
      143   -0.045342   -0.045342  220+200
      248    0.040661   -0.040661  2+02200
      176    0.038350   -0.038350  2+2+-00
        4   -0.037601    0.037601  2-2++00
      822    0.033834   -0.033834  2+02002
      388   -0.032560   -0.032560  2+-++-0
       78    0.032359   -0.032359  20220+0
      179   -0.031851   -0.031851  202+200
      320    0.031601    0.031601  0+22200
       81    0.031389    0.031389  202-++0
      389   -0.031054   -0.031054  202++-0
      717   -0.028737   -0.028737  220+002
      561    0.028229    0.028229  2+++--0
      177    0.028081   -0.028081  2+20200
      110    0.026791   -0.026791  0222+00
      319    0.026117    0.026117  +022200
      393   -0.025253   -0.025253  202+020
      392    0.025167    0.025167  2+-+020
      215   -0.024170   -0.024170  022+200
      141    0.022983    0.022983  22++-00
      251   -0.022825   -0.022825  2++--+0
      146    0.022750   -0.022750  22+0-+0
      462    0.022006   -0.022006  2+02020
      211    0.021850    0.021850  +22+-00
      390    0.021698   -0.021698  -+2++-0
        5   -0.021500   -0.021500  -22++00
      809   -0.021310    0.021310  20+2+0-
      461   -0.020732    0.020732  2++-020
      263    0.020393    0.020393  20+2-0+

 State #    2  Energy =     -55.772561824

      Det      Coef        Coefp    Occupancy (Ignoring core)
      ---      ----        ----    --------- --------- -----
       71   -0.648003    0.648003  2+22000
       74    0.573298   -0.573298  2022+00
        1   -0.414648    0.414648  222+000
      176   -0.101363    0.101363  2+2+-00
        2   -0.089842    0.089842  2220+00
      248    0.062681   -0.062681  2+02200
      109    0.058591   -0.058591  +-22+00
        4    0.056358   -0.056358  2-2++00
      246    0.055680    0.055680  2++2-00
      316   -0.050770   -0.050770  ++22-00
       72    0.045005    0.045005  2+2-+00
       73   -0.039557    0.039557  2+-2+00
      386   -0.038583    0.038583  2+2+0-0
      391    0.035919   -0.035919  2+20020
      143    0.035626    0.035626  220+200
      110   -0.034964    0.034964  0222+00
        3    0.034226    0.034226  22-++00
      396   -0.031824   -0.031824  2020+20
      141   -0.031514   -0.031514  22++-00
      828   -0.029500   -0.029500  2002+02
      822    0.028757   -0.028757  2+02002
       36   -0.028730   -0.028730  22+2000
      249   -0.027964    0.027964  20+2200
       53    0.027109    0.027109  2-+200+
       80    0.026738    0.026738  2+--++0
      806   -0.026142   -0.026142  2++200-
      251   -0.025816   -0.025816  2++--+0
       76    0.025029    0.025029  2+2-0+0
      388   -0.024614   -0.024614  2+-++-0
      320    0.023697    0.023697  0+22200
      250   -0.023203   -0.023203  -++2200
      810    0.022187    0.022187  -++2+0-
      740   -0.021931    0.021931  -+2++0-
      318    0.021475    0.021475  ++-2200
       38   -0.021428    0.021428  2202+00
      462    0.020502   -0.020502  2+02020
      717    0.020167    0.020167  220+002

 State #    3  Energy =     -55.725056892

      Det      Coef        Coefp    Occupancy (Ignoring core)
      ---      ----        ----    --------- --------- -----
       74    0.648614   -0.648614  2022+00
        1    0.634873   -0.634873  222+000
       71    0.236644   -0.236644  2+22000
      176   -0.153313    0.153313  2+2+-00
        2   -0.151793    0.151793  2220+00
       72    0.102179    0.102179  2+2-+00
      179   -0.084432   -0.084432  202+200
      249   -0.065153    0.065153  20+2200
        4    0.051134   -0.051134  2-2++00
       78   -0.042350    0.042350  20220+0
      178   -0.041691   -0.041691  2+-+200
       81   -0.041400   -0.041400  202-++0
      143   -0.041390   -0.041390  220+200
      110   -0.038757    0.038757  0222+00
      107   -0.035963    0.035963  +22-+00
      828   -0.034754   -0.034754  2002+02
      396   -0.034263   -0.034263  2020+20
      316   -0.030835   -0.030835  ++22-00
      717   -0.030587   -0.030587  220+002
      177   -0.029978    0.029978  2+20200
       11    0.027347   -0.027347  2-20++0
      181   -0.027218   -0.027218  2+20-+0
      144    0.025665   -0.025665  2-++200
       39   -0.024960   -0.024960  2-+2+00
      809    0.024539   -0.024539  20+2+0-
      215   -0.023421   -0.023421  022+200
      214   -0.023403   -0.023403  +-2+200
      180    0.022989   -0.022989  -+2+200
      263   -0.022895   -0.022895  20+2-0+
       38   -0.022852    0.022852  2202+00
      389    0.022714    0.022714  202++-0
      246    0.022643    0.022643  2++2-00
      109    0.022336   -0.022336  +-22+00
      357   -0.021542   -0.021542  220+020
      112   -0.021412   -0.021412  +2-20+0
       36   -0.021400   -0.021400  22+2000
      468   -0.021399   -0.021399  2002+20
        5    0.021293    0.021293  -22++00
      141    0.021184    0.021184  22++-00
      192   -0.021166    0.021166  2+-+-0+
      466    0.020861    0.020861  20+-+20
      356    0.020183    0.020183  22+0020
      111   -0.020139    0.020139  +22-0+0

 ---------------------------------------
    -DIABATIC STATES IN PROTOTYPES-     
 ---------------------------------------

     STATE:    1
 Group Ref#    Coefficients
     1    1    0.751118
     2    2    0.126554
     3    3    0.112248

WEIGHT OF LISTED PROTOTYPES:   59.28%

     STATE:    2
 Group Ref#    Coefficients
     1    1    0.135445
     2    2    0.597255
     3    3   -0.225455

WEIGHT OF LISTED PROTOTYPES:   42.59%

     STATE:    3
 Group Ref#    Coefficients
     1    1    0.226441
     2    2   -0.424964
     3    3    0.303823

WEIGHT OF LISTED PROTOTYPES:   32.42%

     DIRECT MAX. DIABATIZATION FINISHED    
 CPU     0: STEP CPU TIME=     0.26 TOTAL CPU TIME=         15.1 (      0.3 MIN)
 TOTAL WALL CLOCK TIME=         15.2 SECONDS, CPU UTILIZATION IS    99.93%

DIABATS FOR SPIN-ORBIT CALCULATION ARE READY

TRANSITION DIPOLES BETWEEN ADIABATS (in A.U.):

STATE PAIR      X         Y         Z
    1    1  0.330343  0.412930  0.529702
    2    1 -0.028996  0.035169  0.179440
    2    2  0.529335  0.297153  0.447949
    3    1 -0.016768 -0.122566 -0.088611
    3    2  0.013827  0.096243  0.039234
    3    3  0.548092  1.061996  0.910319


TRANSITION DIPOLES BETWEEN DIABATS (in A.U.):

STATE PAIR      X         Y         Z
    1    1  0.383724  0.469170  0.710474
    2    1 -0.089446 -0.006250 -0.039102
    2    2  0.466503  0.316360  0.333709
    3    1 -0.013250 -0.211891 -0.092999
    3    2 -0.011787  0.164824  0.149392
    3    3  0.557542  0.986550  0.843786

TRANSITION DIPOLES BETWEEN DIRECT MAX. DIABATS (in A.U.):

STATE PAIR      X         Y         Z
    1    1  0.389581  0.536189  0.737563
    2    1 -0.092639 -0.092663 -0.084697
    2    2  0.461286  0.423101  0.424940
    3    1 -0.015462 -0.258858 -0.089580
    3    2 -0.002431  0.282280  0.236465
    3    3  0.556903  0.812789  0.725466
 No $TRANST Group Found.
 Quit without doing spin-orbit coupling
 ..... DONE WITH MP2 ENERGY .....
 CPU     0: STEP CPU TIME=     0.00 TOTAL CPU TIME=         15.1 (      0.3 MIN)
 TOTAL WALL CLOCK TIME=         15.2 SECONDS, CPU UTILIZATION IS    99.87%
            100000000  WORDS OF DYNAMIC MEMORY USED
 EXECUTION OF GAMESS TERMINATED NORMALLY Wed Nov 16 20:21:20 2022
 DDI: 715512 bytes (0.7 MB / 0 MWords) used by master data server.

 ----------------------------------------
 CPU timing information for all processes
 ========================================
 0: 14.759 + 0.403 = 15.163
 ----------------------------------------
Note: The following floating-point exceptions are signalling: IEEE_DENORMAL
 ddikick.x: exited gracefully.
unset echo
----- accounting info -----
Files used on the master node io002 were:
-rw-r--r-- 1 bsonghao nooijen   20709 Nov 16 20:21 /scratch/bsonghao/nh3_diabatization_2d_at_mode_7_8_dist0.7_0.8.F05
-rw-r--r-- 1 bsonghao nooijen  363520 Nov 16 20:21 /scratch/bsonghao/nh3_diabatization_2d_at_mode_7_8_dist0.7_0.8.F09
-rw-r--r-- 1 bsonghao nooijen 1995920 Nov 16 20:21 /scratch/bsonghao/nh3_diabatization_2d_at_mode_7_8_dist0.7_0.8.F10
-rw-r--r-- 1 bsonghao nooijen  131264 Nov 16 20:21 /scratch/bsonghao/nh3_diabatization_2d_at_mode_7_8_dist0.7_0.8.F13
-rw-r--r-- 1 bsonghao nooijen  180312 Nov 16 20:21 /scratch/bsonghao/nh3_diabatization_2d_at_mode_7_8_dist0.7_0.8.F15
-rw-r--r-- 1 bsonghao nooijen       0 Nov 16 20:21 /scratch/bsonghao/nh3_diabatization_2d_at_mode_7_8_dist0.7_0.8.F16
-rw-r--r-- 1 bsonghao nooijen    9808 Nov 16 20:21 /scratch/bsonghao/nh3_diabatization_2d_at_mode_7_8_dist0.7_0.8.F70
-rw-r--r-- 1 bsonghao nooijen    9808 Nov 16 20:21 /scratch/bsonghao/nh3_diabatization_2d_at_mode_7_8_dist0.7_0.8.F71
-rw-r--r-- 1 bsonghao nooijen   19608 Nov 16 20:21 /scratch/bsonghao/nh3_diabatization_2d_at_mode_7_8_dist0.7_0.8.F72
-rw-r--r-- 1 bsonghao nooijen   19608 Nov 16 20:21 /scratch/bsonghao/nh3_diabatization_2d_at_mode_7_8_dist0.7_0.8.F73
-rw-r--r-- 1 bsonghao nooijen 1920824 Nov 16 20:21 /scratch/bsonghao/nh3_diabatization_2d_at_mode_7_8_dist0.7_0.8.F74
-rw-r--r-- 1 bsonghao nooijen       0 Nov 16 20:21 /scratch/bsonghao/nh3_diabatization_2d_at_mode_7_8_dist0.7_0.8.F75
-rw-r--r-- 1 bsonghao nooijen   58848 Nov 16 20:21 /scratch/bsonghao/nh3_diabatization_2d_at_mode_7_8_dist0.7_0.8.F76
-rw-r--r-- 1 bsonghao nooijen       0 Nov 16 20:21 /scratch/bsonghao/nh3_diabatization_2d_at_mode_7_8_dist0.7_0.8.F77
-rw-r--r-- 1 bsonghao nooijen    1864 Nov 16 20:21 /scratch/bsonghao/nh3_diabatization_2d_at_mode_7_8_dist0.7_0.8.F78
-rw-r--r-- 1 bsonghao nooijen   39208 Nov 16 20:21 /scratch/bsonghao/nh3_diabatization_2d_at_mode_7_8_dist0.7_0.8.F79
-rw-r--r-- 1 bsonghao nooijen     104 Nov 16 20:21 /scratch/bsonghao/nh3_diabatization_2d_at_mode_7_8_dist0.7_0.8.F80
-rw-r--r-- 1 bsonghao nooijen   13472 Nov 16 20:21 /scratch/bsonghao/nh3_diabatization_2d_at_mode_7_8_dist0.7_0.8.F81
-rw-r--r-- 1 bsonghao nooijen      16 Nov 16 20:21 /scratch/bsonghao/nh3_diabatization_2d_at_mode_7_8_dist0.7_0.8.F82
-rw-r--r-- 1 bsonghao nooijen   19216 Nov 16 20:21 /scratch/bsonghao/nh3_diabatization_2d_at_mode_7_8_dist0.7_0.8.F83
-rw-r--r-- 1 bsonghao nooijen   29712 Nov 16 20:21 /scratch/bsonghao/nh3_diabatization_2d_at_mode_7_8_dist0.7_0.8.F84
-rw-r--r-- 1 bsonghao nooijen  401576 Nov 16 20:21 /scratch/bsonghao/nh3_diabatization_2d_at_mode_7_8_dist0.7_0.8.F85
-rw-r--r-- 1 bsonghao nooijen  903672 Nov 16 20:21 /scratch/bsonghao/nh3_diabatization_2d_at_mode_7_8_dist0.7_0.8.F86
-rw-r--r-- 1 bsonghao nooijen     656 Nov 16 20:21 /scratch/bsonghao/nh3_diabatization_2d_at_mode_7_8_dist0.7_0.8.F87
-rw-r--r-- 1 bsonghao nooijen   49712 Nov 16 20:21 /scratch/bsonghao/nh3_diabatization_2d_at_mode_7_8_dist0.7_0.8.F88
-rw-r--r-- 1 bsonghao nooijen     240 Nov 16 20:21 /scratch/bsonghao/nh3_diabatization_2d_at_mode_7_8_dist0.7_0.8.F89
-rw-r--r-- 1 bsonghao nooijen       0 Nov 16 20:21 /scratch/bsonghao/nh3_diabatization_2d_at_mode_7_8_dist0.7_0.8.F90
-rw-r--r-- 1 bsonghao nooijen   13760 Nov 16 20:21 /scratch/bsonghao/nh3_diabatization_2d_at_mode_7_8_dist0.7_0.8.F91
-rw-r--r-- 1 bsonghao nooijen   22776 Nov 16 20:21 /scratch/bsonghao/nh3_diabatization_2d_at_mode_7_8_dist0.7_0.8.F92
-rw-r--r-- 1 bsonghao nooijen   23168 Nov 16 20:21 /scratch/bsonghao/nh3_diabatization_2d_at_mode_7_8_dist0.7_0.8.F93
-rw-r--r-- 1 bsonghao nooijen   22776 Nov 16 20:21 /scratch/bsonghao/nh3_diabatization_2d_at_mode_7_8_dist0.7_0.8.F94
-rw-r--r-- 1 bsonghao nooijen   13760 Nov 16 20:21 /scratch/bsonghao/nh3_diabatization_2d_at_mode_7_8_dist0.7_0.8.F95
-rw-r--r-- 1 bsonghao nooijen   29440 Nov 16 20:21 /scratch/bsonghao/nh3_diabatization_2d_at_mode_7_8_dist0.7_0.8.F96
-rw-r--r-- 1 bsonghao nooijen    1184 Nov 16 20:21 /scratch/bsonghao/nh3_diabatization_2d_at_mode_7_8_dist0.7_0.8.F97
-rw-r--r-- 1 bsonghao nooijen    9808 Nov 16 20:21 /scratch/bsonghao/nh3_diabatization_2d_at_mode_7_8_dist0.7_0.8.F98
-rw-r--r-- 1 bsonghao nooijen   30264 Nov 16 20:21 /scratch/bsonghao/nh3_diabatization_2d_at_mode_7_8_dist0.7_0.8.F99
ls: No match.
ls: No match.
ls: No match.
Wed 16 Nov 2022 08:21:23 PM EST
0.288u 0.040s 0:18.54 1.7%	0+0k 48+224io 0pf+0w
