----- GAMESS execution script 'rungms' -----
This job is running on host io002
under operating system Linux at Wed 16 Nov 2022 07:56:28 PM EST
Available scratch disk space (Kbyte units) at beginning of the job is
Filesystem       1K-blocks       Used   Available Use% Mounted on
/dev/sdc1      15378471580 3278917120 11318349060  23% /scratch
GAMESS temporary binary files will be written to /scratch/bsonghao
GAMESS supplementary output files will be written to /home/bsonghao/.gamess_ascii_files/267638
Copying input file nh3_diabatization_2d_at_mode_7_8_dist0.4_0.7.inp to your run's scratch directory...
cp nh3_diabatization_2d_at_mode_7_8_dist0.4_0.7.inp /scratch/bsonghao/nh3_diabatization_2d_at_mode_7_8_dist0.4_0.7.F05
unset echo
/home/bjb2chen/gamess/ddikick.x /home/bjb2chen/gamess/gamess.00.x nh3_diabatization_2d_at_mode_7_8_dist0.4_0.7 -ddi 1 1 io002 -scr /scratch/bsonghao

 Distributed Data Interface kickoff program.
 Initiating 1 compute processes on 1 nodes to run the following command:
 /home/bjb2chen/gamess/gamess.00.x nh3_diabatization_2d_at_mode_7_8_dist0.4_0.7 

          ******************************************************
          *         GAMESS VERSION = 02 AUG 2018 (R2)         *
          *             FROM IOWA STATE UNIVERSITY             *
          * M.W.SCHMIDT, K.K.BALDRIDGE, J.A.BOATZ, S.T.ELBERT, *
          *   M.S.GORDON, J.H.JENSEN, S.KOSEKI, N.MATSUNAGA,   *
          *          K.A.NGUYEN, S.J.SU, T.L.WINDUS,           *
          *       TOGETHER WITH M.DUPUIS, J.A.MONTGOMERY       *
          *         J.COMPUT.CHEM.  14, 1347-1363(1993)        *
          **************** 64 BIT LINUX VERSION ****************

  SINCE 1993, STUDENTS AND POSTDOCS WORKING AT IOWA STATE UNIVERSITY
  AND ALSO IN THEIR VARIOUS JOBS AFTER LEAVING ISU HAVE MADE IMPORTANT
  CONTRIBUTIONS TO THE CODE:
     IVANA ADAMOVIC, CHRISTINE AIKENS, YURI ALEXEEV, POOJA ARORA,
     ANDREY ASADCHEV, ROB BELL, PRADIPTA BANDYOPADHYAY, JONATHAN BENTZ,
     BRETT BODE, KURT BRORSEN, CALEB CARLIN, GALINA CHABAN, WEI CHEN,
     CHEOL HO CHOI, PAUL DAY, ALBERT DEFUSCO, NUWAN DESILVA, TIM DUDLEY,
     DMITRI FEDOROV, ALEX FINDLATER, GRAHAM FLETCHER, MARK FREITAG,
     KURT GLAESEMANN, ANASTASIA GUININA,
     DAN KEMP, GRANT MERRILL, NORIYUKI MINEZAWA, JONATHAN MULLIN,
     TAKESHI NAGATA, SEAN NEDD, HEATHER NETZLOFF, BOSILJKA NJEGIC, RYAN OLSON,
     MIKE PAK, BUU PHAM,
     SPENCER PRUITT, LUKE ROSKOP, JIM SHOEMAKER, LYUDMILA SLIPCHENKO,
     TONY SMITH, SAROM SOK LEANG, JIE SONG, TETSUYA TAKETSUGU, SIMON WEBB,
     PENG XU, SOOHAENG YOO, FEDERICO ZAHARIEV

  ADDITIONAL CODE HAS BEEN PROVIDED BY COLLABORATORS IN OTHER GROUPS:
     IOWA STATE UNIVERSITY:
          JOE IVANIC, AARON WEST, LAIMUTIS BYTAUTAS, KLAUS RUEDENBERG
     UNIVERSITY OF TOKYO: KIMIHIKO HIRAO, TAKAHITO NAKAJIMA,
          TAKAO TSUNEDA, MUNEAKI KAMIYA, SUSUMU YANAGISAWA,
          KIYOSHI YAGI, MAHITO CHIBA, SEIKEN TOKURA, NAOAKI KAWAKAMI
     UNIVERSITY OF AARHUS: FRANK JENSEN
     UNIVERSITY OF IOWA: VISVALDAS KAIRYS, HUI LI
     NATIONAL INST. OF STANDARDS AND TECHNOLOGY: WALT STEVENS, DAVID GARMER
     UNIVERSITY OF PISA: BENEDETTA MENNUCCI, JACOPO TOMASI
     UNIVERSITY OF MEMPHIS: HENRY KURTZ, PRAKASHAN KORAMBATH
     UNIVERSITY OF ALBERTA: TOBY ZENG, MARIUSZ KLOBUKOWSKI
     UNIVERSITY OF NEW ENGLAND: MARK SPACKMAN
     MIE UNIVERSITY: HIROAKI UMEDA
     NAT. INST. OF ADVANCED INDUSTRIAL SCIENCE AND TECHNOLOGY: KAZUO KITAURA
     MICHIGAN STATE UNIVERSITY:
          KAROL KOWALSKI, MARTA WLOCH, JEFFREY GOUR, JESSE LUTZ,
          WEI LI, JUN SHEN, J. EMILIANO DEUSTUA, PIOTR PIECUCH
     UNIVERSITY OF MINNESOTA:
          YINAN SHU
     UNIVERSITY OF SILESIA: MONIKA MUSIAL, STANISLAW KUCHARSKI
     FACULTES UNIVERSITAIRES NOTRE-DAME DE LA PAIX:
          OLIVIER QUINET, BENOIT CHAMPAGNE
     UNIVERSITY OF CALIFORNIA - SANTA BARBARA: BERNARD KIRTMAN
     INSTITUTE FOR MOLECULAR SCIENCE:
          KAZUYA ISHIMURA, MICHIO KATOUDA, AND SHIGERU NAGASE
     UNIVERSITY OF NOTRE DAME: ANNA POMOGAEVA, DAN CHIPMAN
     KYUSHU UNIVERSITY:
          HARUYUKI NAKANO,
          FENG LONG GU, JACEK KORCHOWIEC, MARCIN MAKOWSKI, AND YURIKO AOKI,
          HIROTOSHI MORI AND EISAKU MIYOSHI
     PENNSYLVANIA STATE UNIVERSITY:
          TZVETELIN IORDANOV, CHET SWALINA, JONATHAN SKONE,
          SHARON HAMMES-SCHIFFER
     WASEDA UNIVERSITY:
          MASATO KOBAYASHI, TOMOKO AKAMA, TSUGUKI TOUMA,
          TAKESHI YOSHIKAWA, YASUHIRO IKABATA, JUNJI SEINO,
          YUYA NAKAJIMA, HIROMI NAKAI
     NANJING UNIVERSITY: SHUHUA LI
     UNIVERSITY OF NEBRASKA:
          PEIFENG SU, DEJUN SI, NANDUN THELLAMUREGE, YALI WANG, HUI LI
     UNIVERSITY OF ZURICH: ROBERTO PEVERATI, KIM BALDRIDGE
     N. COPERNICUS UNIVERSITY AND JACKSON STATE UNIVERSITY:
          MARIA BARYSZ
     UNIVERSITY OF COPENHAGEN: Jimmy Kromann, CASPER STEINMANN
     TOKYO INSTITUTE OF TECHNOLOGY: HIROYA NAKATA
     NAGOYA UNIVERSITY: YOSHIO NISHIMOTO, STEPHAN IRLE
     MOSCOW STATE UNIVERSITY: VLADIMIR MIRONOV

 EXECUTION OF GAMESS BEGUN Wed Nov 16 19:56:29 2022

            ECHO OF THE FIRST FEW INPUT CARDS -
 INPUT CARD> $system kdiag=3 mwords=100 memddi=1000 parall=.t. $end                         
 INPUT CARD> $contrl runtyp=energy ispher=1 $end                                            
 INPUT CARD> $contrl icut=9 itol=20 inttyp=rysquad qmttol=1.0d-05 nosym=1 $end              
 INPUT CARD> $scf    npunch=2 conv=1.0d-06 dirscf=.t.      $end                             
 INPUT CARD> $contrl scftyp=mcscf  mult=2 maxit=200 icharg=1 mplevl=2 $end                  
 INPUT CARD> $guess  guess=moread norb=29 purify=.t. $end                                   
 INPUT CARD> $basis  gbasis=ccd $end                                                        
 INPUT CARD> $mcscf  cistep=gmcci fullnr=.t. finci=mos                                      
 INPUT CARD>         acurcy=1.d-6 maxit=100 $end                                            
 INPUT CARD> $trans  dirtrf=.t. $end                                                        
 INPUT CARD> $mrmp   mrpt=gmcpt rdvecs=.f. $end                                             
 INPUT CARD> $gmcpt  nmofzc=0 nmodoc=1 nmoact=7 nelact=7 stsym(1)=A                         
 INPUT CARD>         reftyp=ormas nspace=1 mstart(1)=2 mine(1)=7 maxe(1)=7                  
 INPUT CARD>         kstate(1)=1,1,1                                                        
 INPUT CARD>         wstate(1)=1,1,1                                                        
 INPUT CARD>         iwgt=0 thrwgt=-1.0 krot=.f. kszdoe=.f. knospn=.f.                      
 INPUT CARD>         thrde=-1.0 edshft=0.02 $end                                            
 INPUT CARD> $data                                                                          
 INPUT CARD> NH3+ 3 states calculation at NH3 structure.                                    
 INPUT CARD> c1                                                                             
 INPUT CARD>N 7.0 -0.043602426 -0.02491561200000001 -0.1693810622                           
 INPUT CARD>H 1.0 0.043916712999999996 1.1006120168 0.25551412110000005                     
 INPUT CARD>H 1.0 -0.2617845690000001 -1.0463041298 0.07262820709999998                     
 INPUT CARD>H 1.0 0.823735246 0.2919029900000001 0.4412441451                               
 INPUT CARD>$end                                                                            
 INPUT CARD>--- OPTIMIZED RHF      MO-S --- GENERATED AT Mon Nov 14 16:47:08 2022           
 INPUT CARD>E=      -56.3825050291, E(NUC)=   11.8429239490                                 
 INPUT CARD> $VEC                                                                           
 INPUT CARD> 1  1-1.00134066E+00-2.25158504E-03 3.44925845E-03 0.00000000E+00 0.00000000E+00
 INPUT CARD> 1  2-2.13170927E-03 0.00000000E+00 0.00000000E+00 6.57129898E-04-6.87950443E-05
 INPUT CARD> 1  3-6.87950443E-05 1.37590089E-04 0.00000000E+00 0.00000000E+00 0.00000000E+00
 INPUT CARD> 1  4 3.25502815E-04-4.84772356E-04 3.62525460E-04-6.27912517E-04-3.45956485E-04
 INPUT CARD> 1  5 3.25502815E-04-4.84772356E-04 3.62525460E-04 6.27912517E-04-3.45956485E-04
 INPUT CARD> 1  6 3.25502815E-04-4.84772356E-04-7.25050921E-04 0.00000000E+00-3.45956485E-04
 INPUT CARD> 2  1 1.31286642E-02-4.05911371E-01-2.82090992E-01 0.00000000E+00 0.00000000E+00
 INPUT CARD> 2  2-7.71489043E-02 0.00000000E+00 0.00000000E+00 9.73717494E-03 6.62450916E-04
 INPUT CARD> 2  3 6.62450916E-04-1.32490183E-03 0.00000000E+00 0.00000000E+00 0.00000000E+00
 INPUT CARD> 2  4-1.96090317E-01-1.96656153E-02-1.74855877E-02 3.02859263E-02 8.68214399E-03
 INPUT CARD> 2  5-1.96090317E-01-1.96656153E-02-1.74855877E-02-3.02859263E-02 8.68214399E-03
 INPUT CARD> 2  6-1.96090317E-01-1.96656153E-02 3.49711754E-02 0.00000000E+00 8.68214399E-03
 INPUT CARD> 3  1 0.00000000E+00 0.00000000E+00 0.00000000E+00 4.48608762E-01 0.00000000E+00
 INPUT CARD> 3  2 0.00000000E+00 2.18692520E-01 0.00000000E+00 0.00000000E+00 1.30198027E-02
 INPUT CARD> 3  3-1.30198027E-02 0.00000000E+00 0.00000000E+00 2.71832968E-02 0.00000000E+00
 INPUT CARD> 3  4-1.85332726E-01-7.03958951E-02 8.47929477E-03 1.95242443E-02 8.32835058E-03
 INPUT CARD> 3  5-1.85332726E-01-7.03958951E-02 8.47929477E-03-1.95242443E-02 8.32835058E-03
 INPUT CARD> 3  6 3.70665453E-01 1.40791790E-01-2.53376884E-02 0.00000000E+00-1.66567012E-02
 INPUT CARD> 4  1 0.00000000E+00 0.00000000E+00 0.00000000E+00 0.00000000E+00 4.48608762E-01
 INPUT CARD> 4  2 0.00000000E+00 0.00000000E+00 2.18692520E-01 0.00000000E+00 0.00000000E+00
 INPUT CARD> 4  3 0.00000000E+00 0.00000000E+00-1.50339731E-02 0.00000000E+00 2.71832968E-02
 INPUT CARD> 4  4 3.21005698E-01 1.21929267E-01 1.95242443E-02-1.40653607E-02-1.44251263E-02
  100000000 WORDS OF MEMORY AVAILABLE

     BASIS OPTIONS
     -------------
     GBASIS=CCD          IGAUSS=       0      POLAR=NONE    
     NDFUNC=       0     NFFUNC=       0     DIFFSP=       F
     NPFUNC=       0      DIFFS=       F     BASNAM=        


     RUN TITLE
     ---------
  NH3+ 3 states calculation at NH3 structure.                                    

 THE POINT GROUP OF THE MOLECULE IS C1      
 THE ORDER OF THE PRINCIPAL AXIS IS     0

 ATOM      ATOMIC                      COORDINATES (BOHR)
           CHARGE         X                   Y                   Z
 N           7.0    -0.0823966375       -0.0470836795       -0.3200837951
 H           1.0     0.0829905539        2.0798551305        0.4828516749
 H           1.0    -0.4947011032       -1.9772281051        0.1372474104
 H           1.0     1.5566339014        0.5516166661        0.8338305279

          INTERNUCLEAR DISTANCES (ANGS.)
          ------------------------------

                1 N          2 H          3 H          4 H     

   1 N       0.0000000    1.2062371 *  1.0721037 *  1.1070284 *
   2 H       1.2062371 *  0.0000000    2.1762696 *  1.1386935 *
   3 H       1.0721037 *  2.1762696 *  0.0000000    1.7621093 *
   4 H       1.1070284 *  1.1386935 *  1.7621093 *  0.0000000  

  * ... LESS THAN  3.000


     ATOMIC BASIS SET
     ----------------
 THE CONTRACTED PRIMITIVE FUNCTIONS HAVE BEEN UNNORMALIZED
 THE CONTRACTED BASIS FUNCTIONS ARE NOW NORMALIZED TO UNITY

  SHELL TYPE  PRIMITIVE        EXPONENT          CONTRACTION COEFFICIENT(S)

 N         

      1   S       1          9046.0000000    0.000699617413
      1   S       2          1357.0000000    0.005386054630
      1   S       3           309.3000000    0.027391021189
      1   S       4            87.7300000    0.103150591982
      1   S       5            28.5600000    0.278570663317
      1   S       6            10.2100000    0.448294849454
      1   S       7             3.8380000    0.278085928395
      1   S       8             0.7466000    0.015431561233

      2   S       9          9046.0000000   -0.000304990096
      2   S      10          1357.0000000   -0.002408026379
      2   S      11           309.3000000   -0.011944448725
      2   S      12            87.7300000   -0.048925992909
      2   S      13            28.5600000   -0.134472724725
      2   S      14            10.2100000   -0.315112577700
      2   S      15             3.8380000   -0.242857832550
      2   S      16             0.7466000    1.094382206854

      3   S      17             0.2248000    1.000000000000

      4   P      18            13.5500000    0.058905676772
      4   P      19             2.9170000    0.320461106714
      4   P      20             0.7973000    0.753042061792

      5   P      21             0.2185000    1.000000000000

      6   D      22             0.8170000    1.000000000000

 H         

      7   S      23            13.0100000    0.033498726390
      7   S      24             1.9620000    0.234800801174
      7   S      25             0.4446000    0.813682957883

      8   S      26             0.1220000    1.000000000000

      9   P      27             0.7270000    1.000000000000

 H         

     10   S      28            13.0100000    0.033498726390
     10   S      29             1.9620000    0.234800801174
     10   S      30             0.4446000    0.813682957883

     11   S      31             0.1220000    1.000000000000

     12   P      32             0.7270000    1.000000000000

 H         

     13   S      33            13.0100000    0.033498726390
     13   S      34             1.9620000    0.234800801174
     13   S      35             0.4446000    0.813682957883

     14   S      36             0.1220000    1.000000000000

     15   P      37             0.7270000    1.000000000000

 TOTAL NUMBER OF BASIS SET SHELLS             =   15
 NUMBER OF CARTESIAN GAUSSIAN BASIS FUNCTIONS =   30
 NOTE: THIS RUN WILL RESTRICT THE MO VARIATION SPACE TO SPHERICAL HARMONICS.
 THE NUMBER OF ORBITALS KEPT IN THE VARIATIONAL SPACE WILL BE PRINTED LATER.
 NUMBER OF ELECTRONS                          =    9
 CHARGE OF MOLECULE                           =    1
 SPIN MULTIPLICITY                            =    2
 NUMBER OF OCCUPIED ORBITALS (ALPHA)          =    5
 NUMBER OF OCCUPIED ORBITALS (BETA )          =    4
 TOTAL NUMBER OF ATOMS                        =    4
 THE NUCLEAR REPULSION ENERGY IS       10.8803220055

     $CONTRL OPTIONS
     ---------------
 SCFTYP=MCSCF        RUNTYP=ENERGY       EXETYP=RUN     
 MPLEVL=       2     CITYP =NONE         CCTYP =NONE         VBTYP =NONE    
 DFTTYP=NONE         TDDFT =NONE    
 MULT  =       2     ICHARG=       1     NZVAR =       0     COORD =UNIQUE  
 PP    =NONE         RELWFN=NONE         LOCAL =NONE         NUMGRD=       F
 ISPHER=       1     NOSYM =       1     MAXIT =     200     UNITS =ANGS    
 PLTORB=       F     MOLPLT=       F     AIMPAC=       F     FRIEND=        
 NPRINT=       7     IREST =       0     GEOM  =INPUT   
 NORMF =       0     NORMP =       0     ITOL  =      20     ICUT  =       9
 INTTYP=RYSQUAD      GRDTYP=BEST         QMTTOL= 1.0E-05

     $SYSTEM OPTIONS
     ---------------
  REPLICATED MEMORY=   100000000 WORDS (ON EVERY NODE).
 DISTRIBUTED MEMDDI=        1000 MILLION WORDS IN AGGREGATE,
 MEMDDI DISTRIBUTED OVER   1 PROCESSORS IS  1000000000 WORDS/PROCESSOR.
 TOTAL MEMORY REQUESTED ON EACH PROCESSOR=  1100000000 WORDS.
 TIMLIM=      525600.00 MINUTES, OR     365.0 DAYS.
 PARALL= T  BALTYP=  DLB     KDIAG=    3  COREFL= F
 MXSEQ2=     300 MXSEQ3=     150  mem10=         0

          ----------------
          PROPERTIES INPUT
          ----------------

     MOMENTS            FIELD           POTENTIAL          DENSITY
 IEMOM =       1   IEFLD =       0   IEPOT =       0   IEDEN =       0
 WHERE =COMASS     WHERE =NUCLEI     WHERE =NUCLEI     WHERE =NUCLEI  
 OUTPUT=BOTH       OUTPUT=BOTH       OUTPUT=BOTH       OUTPUT=BOTH    
 IEMINT=       0   IEFINT=       0                     IEDINT=       0
                                                       MORB  =       0

     -------------------------------
     INTEGRAL TRANSFORMATION OPTIONS
     -------------------------------
     NWORD  =            0
     CUTOFF = 1.0E-09     MPTRAN =       0
     DIRTRF =       T     AOINTS =DUP     

          ----------------------
          MCSCF INPUT PARAMETERS
          ----------------------
 CONVERGER SELECTION: FOCAS = F  SOSCF = F  FULLNR = T  QUD = F  JACOBI = F
 SECULAR EQUATION METHOD CISTEP = GMCCI   
 --- GENERAL INPUT OPTIONS:
 MAXIT =     100  MICIT =       1  ACURCY= 1.000E-06
 DAMP  =   0.000  CANONC=       T  ENGTOL= 1.000E-10
 EKT   =       F  NPUNCH=       2  NWORD =         0
 REGENERATE CI AFTER CONVERGENCE = NONE    
 DIABATIZATION AFTER CONVERGENCE =        F
 --- INPUT FOR FULLNR CONVERGER:
 METHOD=DM2       FORS  =       F  DROPC =       T
 LINSER=       F  FCORE =       F  NORB  =      30

          ----------------------
          INTEGRAL INPUT OPTIONS
          ----------------------
 NOPK  =       1 NORDER=       0 SCHWRZ=       T

 ------------------------------------------
 MULTIREFERENCE PERTURBATION THEORY CONTROL
 ------------------------------------------
 MRPT=GMCPT    READ CONVERGED MCSCF VECTORS= F


     ------------------------------------------
     THE POINT GROUP IS C1 , NAXIS= 1, ORDER= 1
     ------------------------------------------

 -- VARIATIONAL SPACE WILL BE RESTRICTED TO PURE SPHERICAL HARMONICS ONLY --
 AFTER EXCLUDING CONTAMINANT COMBINATIONS FROM THE CARTESIAN GAUSSIAN BASIS
 SET, THE NUMBER OF SPHERICAL HARMONICS KEPT IN THE VARIATION SPACE IS   29

     DIMENSIONS OF THE SYMMETRY SUBSPACES ARE
 A   =   29

 ..... DONE SETTING UP THE RUN .....
 CPU     0: STEP CPU TIME=     0.04 TOTAL CPU TIME=          0.0 (      0.0 MIN)
 TOTAL WALL CLOCK TIME=          0.1 SECONDS, CPU UTILIZATION IS    80.00%

          ********************
          1 ELECTRON INTEGRALS
          ********************
 TIME TO DO   DIPOLE INTEGRALS=      0.00
 ...... END OF ONE-ELECTRON INTEGRALS ......
 CPU     0: STEP CPU TIME=     0.00 TOTAL CPU TIME=          0.0 (      0.0 MIN)
 TOTAL WALL CLOCK TIME=          0.1 SECONDS, CPU UTILIZATION IS    80.00%

          -------------
          GUESS OPTIONS
          -------------
          GUESS =MOREAD            NORB  =      29          NORDER=       0
          MIX   =       F          PRTMO =       F          PUNMO =       F
          TOLZ  = 1.0E-08          TOLE  = 1.0E-05
          SYMDEN=       F          PURIFY=       T

 INITIAL GUESS ORBITALS GENERATED BY MOREAD   ROUTINE.

 STATISTICS FOR GENERATION OF SYMMETRY ORBITAL -Q- MATRIX
 NUMBER OF CARTESIAN ATOMIC ORBITALS=         30
 NUMBER OF SPHERICAL CONTAMINANTS DROPPED=     1
 NUMBER OF LINEARLY DEPENDENT MOS DROPPED=     0
 TOTAL NUMBER OF MOS IN VARIATION SPACE=      29
 ORBITAL PURIFICATION WILL OCCUR

 SYMMETRIES FOR INITIAL GUESS ORBITALS FOLLOW.   BOTH SET(S).
     5 ORBITALS ARE OCCUPIED (    1 CORE ORBITALS).
     1=A        2=A        3=A        4=A        5=A        6=A        7=A   
     8=A        9=A       10=A       11=A       12=A       13=A       14=A   
    15=A       16=A       17=A       18=A       19=A       20=A       21=A   
    22=A       23=A       24=A       25=A       26=A       27=A       28=A   
    29=A   
 ...... END OF INITIAL ORBITAL SELECTION ......
 CPU     0: STEP CPU TIME=     0.01 TOTAL CPU TIME=          0.1 (      0.0 MIN)
 TOTAL WALL CLOCK TIME=          0.1 SECONDS, CPU UTILIZATION IS    83.33%

                    ----------------------
                    AO INTEGRAL TECHNOLOGY
                    ----------------------
     S,P,L SHELL ROTATED AXIS INTEGRALS, REPROGRAMMED BY
        KAZUYA ISHIMURA (IMS) AND JOSE SIERRA (SYNSTAR).
     S,P,D,L SHELL ROTATED AXIS INTEGRALS PROGRAMMED BY
        KAZUYA ISHIMURA (INSTITUTE FOR MOLECULAR SCIENCE).
     S,P,D,F,G SHELL TO TOTAL QUARTET ANGULAR MOMENTUM SUM 5,
        ERIC PROGRAM BY GRAHAM FLETCHER (ELORET AND NASA ADVANCED
        SUPERCOMPUTING DIVISION, AMES RESEARCH CENTER).
     S,P,D,F,G,L SHELL GENERAL RYS QUADRATURE PROGRAMMED BY
        MICHEL DUPUIS (PACIFIC NORTHWEST NATIONAL LABORATORY).

          --------------------
          2 ELECTRON INTEGRALS
          --------------------

 DIRECT SCF METHOD SKIPS INTEGRAL STORAGE ON DISK.
 DIRECT TRANSFORMATION SKIPS AO INTEGRAL STORAGE ON DISK.
  ...... END OF TWO-ELECTRON INTEGRALS .....
 STEP CPU TIME =     0.02 TOTAL CPU TIME =          0.1 (      0.0 MIN)
 TOTAL WALL CLOCK TIME=          0.1 SECONDS, CPU UTILIZATION IS    87.50%
 DDI: Creating Array [0] - 900 x 36 = 32400 words.
 DDI: Creating Array [1] - 21 x 288 = 6048 words.
 DDI: Creating Array [2] - 36 x 36 = 1296 words.
 DDI: Creating Array [3] - 465 x 36 = 16740 words.

          -----------------
          MCSCF CALCULATION
          -----------------

 ----- NUCLEAR ENERGY ----- =        10.8803220055

     -------------------------------------------------
     GMC-PT/GMC-QDPT or general MCSCF input parameters
     -------------------------------------------------
 # of frozen core orbs. =         0 ->         0
 # of doubly occ. orbs. =         1
 # of active      orbs. =         7
 # of virtual     orbs. =        21
 # of active electrons  =         7
 # of states in CI      =         3
 Highest state in CI    =         3
 kstate =  1 1 1
 avecoe =  0.333 0.333 0.333
 State symmetry           = A           
 Assigned symmetry number = 1

 <<<Act. MO sym.: 1111111

 <<<Division of 1-ext.:  0
 <<<Division of 2-ext.:  0

 *** Reference space

 Reference type: ORMAS (= Occupation restricted multiple active space)
 # of orbitals          =  7
 # of minimum electrons =  7
 # of maximum electrons =  7
 State symmetry    =    1 (input)
 2*Sz              =    1 (input)
 Spin multiplicity =    2 (input)
 Dimension of reference space =      1225  (from      3432 walks)

 Dimension of reference space =      1225  (from      1225 walks)

 <<<Ionized spaces for Ref-CI:
      0:         1225 /   -1-0:         1960 /  0-1-0:         2891

 EVALUATING EXCHANGE INTEGRALS FOR DIRECT INTEGRAL TRANSFORMATION
 SCHWARZ INEQUALITY OVERHEAD:       465 INTEGRALS, T=        0.00

     --------------------------------------------
     PARTIAL TWO ELECTRON INTEGRAL TRANSFORMATION
     --------------------------------------------

 NUMBER OF CORE MOLECULAR ORBITALS     =    1
 NUMBER OF OCCUPIED MOLECULAR ORBITALS =    8
 TOTAL NUMBER OF MOLECULAR ORBITALS    =   29
 TOTAL NUMBER OF ATOMIC ORBITALS       =   30
 THRESHOLD FOR KEEPING TRANSFORMED 2E- INTEGRALS = 1.000E-09

 -------------------------------     ------------------------------
 DISTRIBUTED DATA TRANSFORMATION     PROGRAM WRITTEN BY G. FLETCHER
 -------------------------------     ------------------------------

 THE DISTRIBUTED MEMORY REQUIRED FOR THIS STEP IS MEMDDI=         1 MWORDS
 CREATING DISTRIBUTED STORAGE FOR [VIR OCC|VIR OCC] INTEGRALS
 CREATING DISTRIBUTED STORAGE FOR [VIR OCC|OCC OCC] INTEGRALS
 CREATING DISTRIBUTED STORAGE FOR [OCC OCC|OCC OCC] INTEGRALS
 CREATING DISTRIBUTED STORAGE FOR [VIR VIR|OCC OCC] INTEGRALS
 FOR    1 PROCESSORS, THE REPLICATED MEMORY NEEDED IS       73700 WORDS.
 SCHWARZ INEQUALITY OVERHEAD:       465 INTEGRALS, T=        0.00

      DIRECT 4-INDEX TRANSFORMATION 
      SCHWARZ INEQUALITY TEST SKIPPED          0 INTEGRAL BLOCKS
 ----- FROZEN CORE ENERGY =       -47.5525233211
 ... END OF INTEGRAL TRANSFORMATION ...
 CPU     0: STEP CPU TIME=     0.21 TOTAL CPU TIME=          0.3 (      0.0 MIN)
 TOTAL WALL CLOCK TIME=          0.3 SECONDS, CPU UTILIZATION IS    93.33%

     --------------------------------     -----------------------------
     MCHF NEWTON-RAPHSON OPTIMIZATION     CODE WRITTEN BY MICHEL DUPUIS
     --------------------------------     -----------------------------
     PARALLEL VERSION WRITTEN BY G. FLETCHER (ELORET)
     NASA ADVANCED SUPERCOMPUTING DIVISION, AMES RESEARCH CENTER

 NUMBER OF INDEPENDENT ORBITAL ROTATION PARAMETERS =   175
 ..... DONE SOLVING NEWTON-RAPHSON EQUATIONS .....
 CPU     0: STEP CPU TIME=     0.87 TOTAL CPU TIME=          1.1 (      0.0 MIN)
 TOTAL WALL CLOCK TIME=          1.2 SECONDS, CPU UTILIZATION IS    99.14%
 ..... DONE WITH NTN-RPH ORBITAL ROTATIONS ..... 
 CPU     0: STEP CPU TIME=     0.00 TOTAL CPU TIME=          1.1 (      0.0 MIN)
 TOTAL WALL CLOCK TIME=          1.2 SECONDS, CPU UTILIZATION IS    99.14%
 MAXIMUM MEMORY USED BY NTN-RPH CODE WAS     57645 WORDS.

 ITER     TOTAL ENERGY      DEL(E)  LAGRANGIAN ASYMMETRY   SQCDF  MICIT   DAMP
   1      -55.565550876 -0.565550876  0.123456    9    3 9.239E-02  1   0.0000
   2      -55.633078617 -0.067527741  0.019924   12    5 4.587E-01  1   0.0000
   3      -55.670423409 -0.037344792  0.014600   11    6 2.356E-01  1   0.0165
   4      -55.687954951 -0.017531542  0.005113   11    6 5.023E-02  1   0.0066
   5      -55.690539733 -0.002584782  0.001263   13    5 1.596E-03  1   0.0000
   6      -55.690636218 -0.000096485  0.000560   13    5 1.597E-04  1   0.0000
   7      -55.690648536 -0.000012318  0.000260   13    5 3.586E-05  1   0.0000
   8      -55.690651327 -0.000002791  0.000128   22    5 9.511E-06  1   0.0000
   9      -55.690652051 -0.000000724  0.000065   22    5 2.743E-06  1   0.0000
  10      -55.690652253 -0.000000203  0.000033   22    5 8.377E-07  1   0.0000
  11      -55.690652313 -0.000000060  0.000017   22    5 2.677E-07  1   0.0000
  12      -55.690652332 -0.000000018  0.000009   22    5 8.874E-08  1   0.0000
  13      -55.690652338 -0.000000006  0.000005   22    5 3.049E-08  1   0.0000
  14      -55.690652340 -0.000000002  0.000002   22    5 1.075E-08  1   0.0000
  15      -55.690652340 -0.000000001  0.000001   12    8 3.883E-09  1   0.0000
  16      -55.690652341 -0.000000000  0.000001   12    8 1.416E-09  1   0.0000

          --------------------
          LAGRANGIAN CONVERGED
          --------------------

 FINAL MCSCF ENERGY IS      -55.6906523406 AFTER  16 ITERATIONS

 -MCCI- BASED ON OPTIMIZED ORBITALS
 ----------------------------------

 PLEASE NOTE: IF THE ACTIVE ORBITALS ARE CANONICALIZED BELOW,
 THE FOLLOWING CI EXPANSION COEFFICIENTS AND THE DENSITY DO NOT
 CORRESPOND TO THE PRINTED ORBITALS.  THE PRINTED EXPANSIONS MATCH
 THE ORBITALS USED DURING THE LAST ITERATION.  IF YOU WISH TO SEE
 CI EXPANSIONS BASED ON THE CANONICAL (OR NATURAL) ORBITALS, YOU
 MUST RUN A CI CALCULATION WITH THAT ORBITAL CHOICE READ IN $VEC.

 Averaged energy =     -55.690652341

 State #    1  Energy =     -55.826499155  S =  0.500

      Det      Coef    Occupancy (Ignoring core)
      ---      ----    --------- --------- -----
        1   -0.873938  11110001110000
        5    0.073802  01111001110000
        8    0.150509  10110101110000
       17   -0.123541  11010011110000
       71    0.340422  11110001011000
       76    0.054096  11100101011000
       78   -0.054801  10110101011000
      211   -0.053557  11110000110100
      386   -0.096413  11110001010010
      393   -0.070511  10110101010010
      701    0.103145  11110001100001

 State #    2  Energy =     -55.723640902  S =  0.500

      Det      Coef    Occupancy (Ignoring core)
      ---      ----    --------- --------- -----
        1   -0.313158  11110001110000
       17   -0.052866  11010011110000
       36   -0.441472  11110001101000
       43    0.062547  10110101101000
       71   -0.775385  11110001011000
       74    0.083775  10111001011000
       75    0.063145  01111001011000
       78    0.107556  10110101011000
       87   -0.090550  11010011011000
      386   -0.091480  11110001010010
      456   -0.050664  11110001001010
      806   -0.072109  11110001001001

 State #    3  Energy =     -55.521816965  S =  0.500

      Det      Coef    Occupancy (Ignoring core)
      ---      ----    --------- --------- -----
        1   -0.122324  11110001110000
       36    0.842731  11110001101000
       43   -0.087673  10110101101000
       71   -0.421253  11110001011000
       74    0.052129  10111001011000
      246    0.055499  11110001001100
      281    0.077626  11110000101100
      456    0.115637  11110001001010
      463    0.067975  10110101001010

 DENSITY MATRIX OVER ACTIVE MO-S

             1           2           3           4           5

    1    1.9708570
    2    0.0295079   1.6121954
    3   -0.0017970   0.0092374   1.6305714
    4   -0.0023840   0.0093947  -0.0033729   1.6476025
    5    0.1139069  -0.0974332  -0.0032964  -0.0001213   0.0439115
    6    0.0113805  -0.1914895   0.0181502   0.0856682   0.0160088
    7   -0.0144398   0.0052881  -0.1459655   0.0022416  -0.0054430

             6           7

    6    0.0590634
    7   -0.0068699   0.0357987

 FORMING THE "STANDARD FOCK OPERATOR" IN DIRECT AO INTEGRAL MODE...
 ONLY THE    1 CORE AND   21 VIRTUAL ORBITALS WILL BE CANONICALIZED

          ----------------------
          MCSCF NATURAL ORBITALS
          ----------------------

                      1          2          3          4          5
                  -15.9795     1.9792     1.6536     1.6476     1.6353
                     A          A          A          A          A   
    1  N  1  S    1.001032   0.009189  -0.007605  -0.004719  -0.002887
    2  N  1  S   -0.001983   0.432716  -0.120623  -0.152528  -0.052059
    3  N  1  S   -0.006358   0.339559  -0.209119  -0.211277  -0.082464
    4  N  1  X    0.000091   0.052156  -0.171221   0.201637   0.477682
    5  N  1  Y   -0.000197   0.006336  -0.230630   0.305718  -0.273945
    6  N  1  Z    0.001113   0.081248   0.516491   0.263615  -0.033314
    7  N  1  X   -0.000078   0.008807  -0.114613   0.073126   0.288828
    8  N  1  Y   -0.000054   0.006102  -0.102652   0.093230  -0.150857
    9  N  1  Z   -0.000591   0.017233   0.355626   0.152106  -0.048309
   10  N  1 XX   -0.000110  -0.002937  -0.013681   0.001006   0.013446
   11  N  1 YY    0.000260   0.003656  -0.005922  -0.012233  -0.011973
   12  N  1 ZZ   -0.000150  -0.000719   0.019603   0.011228  -0.001473
   13  N  1 XY    0.000219   0.002930  -0.000265   0.001940  -0.000273
   14  N  1 XZ    0.000116   0.002827  -0.001423   0.012505   0.020002
   15  N  1 YZ   -0.000013   0.002468  -0.008618   0.013242  -0.011347
   16  H  2  S   -0.001212   0.158270  -0.020861   0.235805  -0.265030
   17  H  2  S    0.000293  -0.000941   0.014336   0.031437  -0.112996
   18  H  2  X    0.000014   0.000100  -0.003981   0.011298   0.017244
   19  H  2  Y    0.000623  -0.027221   0.002477  -0.029094   0.025986
   20  H  2  Z    0.000310  -0.005965   0.023348   0.002596   0.006829
   21  H  3  S   -0.001690   0.162121   0.255201  -0.262415   0.060143
   22  H  3  S    0.000643  -0.000418   0.047704  -0.028710  -0.006392
   23  H  3  X   -0.000212   0.009818   0.002203  -0.001227   0.021938
   24  H  3  Y   -0.000903   0.030213   0.028504  -0.030342   0.006144
   25  H  3  Z    0.000264  -0.002097   0.013726   0.017275  -0.002459
   26  H  4  S   -0.001634   0.211675   0.030718   0.290723   0.252507
   27  H  4  S    0.000285   0.009701   0.021294   0.055726   0.111301
   28  H  4  X    0.000777  -0.031935  -0.013084  -0.027611  -0.009340
   29  H  4  Y    0.000234  -0.008953  -0.006508   0.011076  -0.018211
   30  H  4  Z    0.000523  -0.017806   0.021701  -0.006920  -0.019760

                      6          7          8
                    0.0369     0.0276     0.0197
                     A          A          A   
    1  N  1  S   -0.128720  -0.082645  -0.125214
    2  N  1  S   -0.459287  -0.336749  -0.379724
    3  N  1  S   -0.057371  -0.226685   0.003092
    4  N  1  X    0.449067  -0.605470   0.098852
    5  N  1  Y   -0.290565  -0.159459   0.852013
    6  N  1  Z   -0.298591  -0.512806  -0.192642
    7  N  1  X   -0.100584  -0.048235   0.020070
    8  N  1  Y    0.012510  -0.101026   0.078979
    9  N  1  Z    0.050585  -0.002907   0.088551
   10  N  1 XX   -0.064186   0.012609  -0.009626
   11  N  1 YY    0.069847  -0.013795   0.028820
   12  N  1 ZZ   -0.005661   0.001186  -0.019194
   13  N  1 XY    0.021250   0.028764  -0.027883
   14  N  1 XZ    0.009461   0.037707   0.013543
   15  N  1 YZ    0.018776   0.022101  -0.042256
   16  H  2  S    0.687428   0.104392  -0.312425
   17  H  2  S    0.220712  -0.051350  -0.111873
   18  H  2  X   -0.017799   0.037344  -0.012159
   19  H  2  Y   -0.064727  -0.012857   0.024091
   20  H  2  Z    0.008736   0.030923  -0.008179
   21  H  3  S    0.351369   0.061193   0.768271
   22  H  3  S    0.059181  -0.021279   0.155444
   23  H  3  X   -0.005476   0.009136   0.020733
   24  H  3  Y    0.036235   0.015513   0.074527
   25  H  3  Z   -0.001523   0.003788   0.030344
   26  H  4  S   -0.223759   0.789648   0.047376
   27  H  4  S   -0.155948   0.205305   0.037401
   28  H  4  X   -0.009883  -0.052317  -0.009335
   29  H  4  Y    0.029382   0.013489  -0.041403
   30  H  4  Z    0.026416  -0.005713  -0.003851

          ------------------------
          MCSCF OPTIMIZED ORBITALS
          ------------------------

                      1          2          3          4          5
                  -15.9795     0.0000     0.0000     0.0000     0.0000
                     A          A          A          A          A   
    1  N  1  S    1.001032  -0.001215   0.015537   0.006981  -0.012082
    2  N  1  S   -0.001983   0.397752  -0.007011  -0.008930  -0.187646
    3  N  1  S   -0.006358   0.333797  -0.108471  -0.008731  -0.275652
    4  N  1  X    0.000091   0.019143   0.446892  -0.065646  -0.035890
    5  N  1  Y   -0.000197  -0.003929   0.000509   0.387955  -0.031432
    6  N  1  Z    0.001113   0.049969   0.017076  -0.003901   0.585371
    7  N  1  X   -0.000078  -0.016153   0.304626  -0.084135  -0.080048
    8  N  1  Y   -0.000054   0.006296  -0.049852   0.191558  -0.032084
    9  N  1  Z   -0.000591   0.025306  -0.053183  -0.017450   0.389336
   10  N  1 XX   -0.000110  -0.006556   0.023016  -0.003989  -0.014906
   11  N  1 YY    0.000260   0.007602  -0.024676   0.002192  -0.007154
   12  N  1 ZZ   -0.000150  -0.001045   0.001660   0.001796   0.022060
   13  N  1 XY    0.000219   0.004578   0.001090   0.004438  -0.000108
   14  N  1 XZ    0.000116   0.003392   0.022873  -0.004121   0.002920
   15  N  1 YZ   -0.000013   0.003608   0.001419   0.023315  -0.001492
   16  H  2  S   -0.001212   0.195158  -0.125298   0.381989   0.121602
   17  H  2  S    0.000293   0.011052  -0.098112   0.102800   0.040735
   18  H  2  X    0.000014  -0.000798   0.024990  -0.001330  -0.001072
   19  H  2  Y    0.000623  -0.030646   0.008005  -0.041003  -0.014273
   20  H  2  Z    0.000310  -0.004448   0.001123  -0.011163   0.020349
   21  H  3  S   -0.001690   0.199688  -0.226939  -0.365334   0.114676
   22  H  3  S    0.000643   0.005591  -0.048189  -0.044701   0.033447
   23  H  3  X   -0.000212   0.009113   0.016627  -0.017008   0.000029
   24  H  3  Y   -0.000903   0.034465  -0.024313  -0.040480   0.011662
   25  H  3  Z    0.000264  -0.001806   0.002883   0.005073   0.020726
   26  H  4  S   -0.001634   0.208823   0.421249   0.010082   0.116910
   27  H  4  S    0.000285   0.003503   0.138521  -0.050054   0.027595
   28  H  4  X    0.000777  -0.033235  -0.021846  -0.006846  -0.022612
   29  H  4  Y    0.000234  -0.007130  -0.008093   0.025626   0.000399
   30  H  4  Z    0.000523  -0.015134  -0.029126  -0.000049   0.017719

                      6          7          8          9         10
                    0.0000     0.0000     0.0000     0.1273     0.2026
                     A          A          A          A          A   
    1  N  1  S    0.177239  -0.057681  -0.063811  -0.098048   0.033999
    2  N  1  S    0.670754  -0.159466  -0.165578  -0.142925   0.037572
    3  N  1  S    0.222617   0.124890   0.027476   1.072985  -0.445754
    4  N  1  X    0.073185   0.811358  -0.097811  -0.044502  -0.008319
    5  N  1  Y    0.062372   0.162741   0.935753  -0.019861  -0.167195
    6  N  1  Z    0.613362   0.088392  -0.060944  -0.136821   0.050656
    7  N  1  X    0.074505   0.017218   0.049368   0.193527   0.182339
    8  N  1  Y    0.043529   0.096073   0.085154   0.148503   0.774078
    9  N  1  Z   -0.051293   0.032728   0.059893   0.325914  -0.051402
   10  N  1 XX    0.034419  -0.049893   0.016257  -0.020907   0.036926
   11  N  1 YY   -0.042586   0.060859  -0.000954   0.055863  -0.072488
   12  N  1 ZZ    0.008167  -0.010966  -0.015304  -0.034956   0.035562
   13  N  1 XY   -0.026133  -0.014587  -0.033635   0.054581  -0.014829
   14  N  1 XZ   -0.037744  -0.014353   0.008388   0.057796   0.022585
   15  N  1 YZ   -0.015875  -0.015606  -0.044211   0.036668   0.079978
   16  H  2  S   -0.419882   0.256934  -0.524966   0.443313   0.200820
   17  H  2  S   -0.071442   0.133519  -0.181445  -0.884128  -0.661639
   18  H  2  X   -0.012621  -0.038664  -0.004219   0.056668   0.018866
   19  H  2  Y    0.042674  -0.023681   0.043978   0.037840   0.031406
   20  H  2  Z   -0.025457  -0.019548  -0.011986   0.041429   0.059744
   21  H  3  S   -0.465064   0.371715   0.537476   0.278906  -0.555232
   22  H  3  S   -0.064596   0.090636   0.115763  -0.473277   1.930034
   23  H  3  X   -0.009124  -0.002086   0.019774  -0.036177   0.018363
   24  H  3  Y   -0.052197   0.030236   0.050983  -0.055820   0.128118
   25  H  3  Z   -0.010503   0.004066   0.029000  -0.025147  -0.064535
   26  H  4  S   -0.433368  -0.654767   0.136131   0.361152   0.166176
   27  H  4  S   -0.059977  -0.222143   0.092182  -0.917482  -0.527911
   28  H  4  X    0.045239   0.027288  -0.005603   0.048492   0.003931
   29  H  4  Y   -0.017125  -0.003486  -0.047515   0.098715   0.005549
   30  H  4  Z   -0.011412   0.015845  -0.014107   0.057385   0.034370

                     11         12         13         14         15
                    0.2604     0.5285     0.5866     0.6969     0.8561
                     A          A          A          A          A   
    1  N  1  S    0.016703   0.100754  -0.023571  -0.053408  -0.512189
    2  N  1  S    0.040289   0.148149   0.059165  -0.114210  -1.157154
    3  N  1  S   -0.102215  -0.593240   0.551232   0.121750   1.891387
    4  N  1  X    0.014103  -0.563384  -0.408340   0.064777  -0.058078
    5  N  1  Y   -0.059216   0.030523   0.056622  -0.490594  -0.065688
    6  N  1  Z    0.014558   0.534785  -0.494873  -0.076009   0.281534
    7  N  1  X   -0.336609   0.918102   1.160230   0.147164   0.081010
    8  N  1  Y    0.344827   0.131322   0.081533   1.820869   0.041605
    9  N  1  Z   -0.104789  -0.644068   0.980353   0.267237  -0.205882
   10  N  1 XX   -0.062363   0.011589  -0.001758   0.047900  -0.024232
   11  N  1 YY    0.073356   0.011727  -0.018869  -0.015929   0.013682
   12  N  1 ZZ   -0.010993  -0.023315   0.020627  -0.031971   0.010551
   13  N  1 XY   -0.025993   0.017439  -0.054694   0.046731  -0.135243
   14  N  1 XZ   -0.058401  -0.000017  -0.004397   0.000273   0.052336
   15  N  1 YZ    0.017372  -0.004804  -0.001173  -0.105046  -0.021757
   16  H  2  S    0.580217   0.235749  -0.109186  -0.597246   0.056966
   17  H  2  S   -1.989216   0.346821   0.389531  -0.544330  -0.343794
   18  H  2  X   -0.056333   0.068709  -0.106751   0.076556  -0.305522
   19  H  2  Y    0.066298  -0.005819   0.080582   0.227960   0.119978
   20  H  2  Z   -0.006174  -0.106036   0.025829  -0.171445   0.038759
   21  H  3  S    0.121589   0.422901  -0.256444   0.612443  -0.139822
   22  H  3  S   -0.240798   0.320291   0.315451   0.538531  -0.444394
   23  H  3  X    0.033487   0.007066   0.102534  -0.036416   0.183298
   24  H  3  Y    0.014218   0.052243   0.006277   0.194036  -0.114410
   25  H  3  Z    0.000997  -0.029752   0.062483   0.159991   0.104996
   26  H  4  S   -0.636150  -0.067992  -0.664530  -0.089069   0.061543
   27  H  4  S    2.183293  -0.420467  -0.829090  -0.036600  -0.259230
   28  H  4  X   -0.089521   0.048517   0.124236   0.201029   0.105524
   29  H  4  Y    0.026901   0.077059  -0.029889  -0.023461  -0.271513
   30  H  4  Z   -0.039944  -0.034236   0.122706  -0.080143   0.188259

                     16         17         18         19         20
                    1.0505     1.0677     1.2042     1.2984     1.4040
                     A          A          A          A          A   
    1  N  1  S   -0.009952  -0.441482  -0.108541  -0.223602  -0.315092
    2  N  1  S   -0.012333  -0.923003  -0.233286  -0.480244  -0.679476
    3  N  1  S   -0.014706   1.878191   0.433903   0.815825   1.046065
    4  N  1  X   -0.012527  -0.056174  -0.037801   0.043166  -0.015011
    5  N  1  Y   -0.193030   0.123032  -0.211581  -0.032310  -0.025161
    6  N  1  Z    0.053558   0.057471   0.029704  -0.016833  -0.079236
    7  N  1  X    0.244919   0.330537   0.465852  -0.367756   0.386967
    8  N  1  Y    0.912005  -0.564708   0.805620  -0.158852  -0.024092
    9  N  1  Z   -0.277118   0.204660   0.258551   0.338184   0.570039
   10  N  1 XX   -0.216004   0.029576   0.093392   0.085857  -0.110014
   11  N  1 YY   -0.036748  -0.121485  -0.036163   0.051824   0.082002
   12  N  1 ZZ    0.252753   0.091909  -0.057228  -0.137681   0.028012
   13  N  1 XY    0.009184   0.169732   0.007238  -0.117466   0.116081
   14  N  1 XZ    0.040767  -0.173187  -0.219846  -0.013848  -0.073862
   15  N  1 YZ   -0.022752  -0.013302   0.194249   0.036189   0.051535
   16  H  2  S   -0.501042  -0.025296  -0.492554  -0.231493  -0.344332
   17  H  2  S   -0.090492  -0.005532  -0.068453   0.020895   0.168951
   18  H  2  X    0.122000   0.301805  -0.394902   0.325858   0.163548
   19  H  2  Y   -0.170311   0.100678  -0.259143  -0.120816  -0.103703
   20  H  2  Z    0.341579   0.188532   0.438338  -0.118221  -0.635097
   21  H  3  S    0.426321  -0.495450   0.345230  -0.282278  -0.288885
   22  H  3  S    0.242836  -0.418951   0.142422  -0.153679  -0.061186
   23  H  3  X    0.202900  -0.384388  -0.215508   0.702983  -0.237714
   24  H  3  Y    0.020664   0.039302  -0.112417  -0.156918   0.071072
   25  H  3  Z    0.106149   0.351073  -0.415815  -0.083108  -0.570826
   26  H  4  S   -0.165835  -0.455725  -0.245278  -0.132099  -0.379677
   27  H  4  S   -0.009206  -0.279066  -0.153240  -0.046735  -0.260882
   28  H  4  X   -0.347370   0.030253   0.238806   0.153789  -0.109484
   29  H  4  Y    0.168523   0.254268   0.199767   0.409449   0.010244
   30  H  4  Z    0.514377  -0.119954  -0.159964  -0.316562   0.355734

                     21         22         23         24         25
                    1.5929     1.7176     1.8427     1.9946     2.0957
                     A          A          A          A          A   
    1  N  1  S   -0.108648   0.134733  -0.094117  -0.035612   0.062400
    2  N  1  S   -0.176791   0.388342  -0.213148  -0.064193   0.135080
    3  N  1  S    0.752508   0.519788  -0.162472   0.102711  -0.010176
    4  N  1  X   -0.109883   0.322148   0.132640  -0.031272   0.077301
    5  N  1  Y   -0.071097   0.201923   0.497985   0.118553  -0.128378
    6  N  1  Z    0.006605   0.242304   0.018842  -0.019448   0.052138
    7  N  1  X    0.044540  -0.029936   0.132355  -0.167473  -0.117557
    8  N  1  Y    0.831711  -0.072162   0.448150   0.042422   0.015153
    9  N  1  Z    0.363229   0.149041  -0.020346   0.230163   0.080648
   10  N  1 XX    0.155889  -0.023516   0.000038  -0.569543  -0.516772
   11  N  1 YY   -0.099108  -0.072061   0.139871  -0.166927   0.139265
   12  N  1 ZZ   -0.056781   0.095577  -0.139909   0.736471   0.377507
   13  N  1 XY    0.007720  -0.100745   0.066387   0.500539  -0.185324
   14  N  1 XZ    0.066934  -0.299884   0.058969   0.092888   0.077228
   15  N  1 YZ   -0.079834   0.017980  -0.269945   0.050345   0.016507
   16  H  2  S   -0.237279   0.039368  -0.043444  -0.134025   0.284142
   17  H  2  S   -0.549919  -0.205961  -0.109370  -0.222068   0.303378
   18  H  2  X    0.459990   0.079288   0.095807  -0.361201   0.715900
   19  H  2  Y    0.578297   0.553859   0.125036   0.387710  -0.570154
   20  H  2  Z    0.353299  -0.035709   0.498166  -0.090867   0.171087
   21  H  3  S    0.250521  -0.090394   0.133965  -0.017824  -0.062583
   22  H  3  S   -0.067072  -0.046793   0.532869  -0.018171  -0.006421
   23  H  3  X    0.013361  -0.012363   0.202291   0.314235  -0.177520
   24  H  3  Y   -0.443380  -0.243820   0.940424  -0.034426  -0.157049
   25  H  3  Z   -0.515849  -0.112016  -0.429080  -0.226531  -0.014619
   26  H  4  S   -0.407733   0.123432  -0.047128   0.120835  -0.249733
   27  H  4  S    0.233504  -0.322854  -0.239990   0.179503  -0.313007
   28  H  4  X   -0.232434   0.558063   0.225889   0.056022   0.797850
   29  H  4  Y   -0.335257   0.430710  -0.075627   0.155671  -0.649578
   30  H  4  Z   -0.090698   0.557894   0.101064  -0.460363  -0.138743

                     26         27         28         29
                    2.2519     2.4690     2.6436     3.0376
                     A          A          A          A   
    1  N  1  S   -0.121461  -0.023134  -0.168066  -0.098278
    2  N  1  S   -0.213846  -0.095434  -0.191407  -0.089189
    3  N  1  S    0.687992  -0.717809   1.889791   1.302652
    4  N  1  X   -0.011052  -0.038995   0.268293  -0.239799
    5  N  1  Y    0.028953   0.324633   0.098873  -0.254844
    6  N  1  Z    0.008553  -0.114615   0.258211   0.060148
    7  N  1  X    0.405484  -0.083625   0.763454  -0.329322
    8  N  1  Y   -0.120577   1.083790   0.604154  -0.412902
    9  N  1  Z    0.386937  -0.183111   0.588323   0.104461
   10  N  1 XX   -0.252452  -0.168096   0.190468  -0.876074
   11  N  1 YY    0.068876   0.008349   0.172001   1.492144
   12  N  1 ZZ    0.183576   0.159748  -0.362468  -0.616069
   13  N  1 XY   -0.691872  -0.486433   0.550222   0.178285
   14  N  1 XZ    0.603737  -0.213687   0.913108  -0.318403
   15  N  1 YZ   -0.228756   0.974140   0.652486  -0.075802
   16  H  2  S   -0.272522  -0.519598  -0.534262  -0.668459
   17  H  2  S   -0.078389  -0.369470  -0.103343  -0.171910
   18  H  2  X   -0.205257   0.193279   0.085709  -0.052430
   19  H  2  Y    0.263175   0.616323   0.320330   0.754109
   20  H  2  Z   -0.044677   0.049028   0.202956   0.350033
   21  H  3  S   -0.151173   0.917011  -0.146491  -1.194365
   22  H  3  S   -0.067054   0.410442   0.040511  -0.347753
   23  H  3  X   -0.588205   0.083386  -0.056056  -0.254560
   24  H  3  Y    0.049156   0.837817  -0.119764  -0.918539
   25  H  3  Z   -0.207862   0.100383   0.221003   0.367119
   26  H  4  S   -0.214093   0.334508  -1.260533   0.541560
   27  H  4  S   -0.074982   0.233515  -0.518334   0.120348
   28  H  4  X   -0.039777  -0.334607   0.857135  -0.474314
   29  H  4  Y    0.714955  -0.217480   0.241077  -0.037958
   30  H  4  Z   -0.232244  -0.237901   0.623955  -0.303927
 .....DONE WITH MCSCF ITERATIONS.....
 CPU     0: STEP CPU TIME=    10.88 TOTAL CPU TIME=         12.0 (      0.2 MIN)
 TOTAL WALL CLOCK TIME=         12.1 SECONDS, CPU UTILIZATION IS    99.83%

     ----------------------------------------------------------------
     PROPERTY VALUES FOR THE MCSCF SELF-CONSISTENT FIELD WAVEFUNCTION
     ----------------------------------------------------------------

          -----------------
          ENERGY COMPONENTS
          -----------------

         WAVEFUNCTION NORMALIZATION =       1.0000000000

                ONE ELECTRON ENERGY =     -93.3580209964
                TWO ELECTRON ENERGY =      26.7870466503
           NUCLEAR REPULSION ENERGY =      10.8803220055
                                      ------------------
                       TOTAL ENERGY =     -55.6906523406

 ELECTRON-ELECTRON POTENTIAL ENERGY =      26.7870466503
  NUCLEUS-ELECTRON POTENTIAL ENERGY =    -148.9798644750
   NUCLEUS-NUCLEUS POTENTIAL ENERGY =      10.8803220055
                                      ------------------
             TOTAL POTENTIAL ENERGY =    -111.3124958192
               TOTAL KINETIC ENERGY =      55.6218434786
                 VIRIAL RATIO (V/T) =       2.0012370834

          ---------------------------------------
          MULLIKEN AND LOWDIN POPULATION ANALYSES
          ---------------------------------------

     ATOMIC MULLIKEN POPULATION IN EACH MOLECULAR ORBITAL

                      1          2          3          4          5

                  2.000000   1.979239   1.653634   1.647621   1.635308

    1             2.000530   1.372794   1.434732   0.939034   1.209536
    2            -0.000091   0.162334   0.010042   0.193160   0.233404
    3            -0.000216   0.163958   0.196883   0.250996   0.019544
    4            -0.000223   0.280152   0.011978   0.264431   0.172824

                      6          7          8

                  0.036861   0.027627   0.019711

    1             0.015334   0.014453   0.010641
    2             0.016477   0.000399   0.001222
    3             0.004016  -0.000011   0.007743
    4             0.001034   0.012786   0.000105
 WARNING! MCSCF POPULATIONS SHOWN ABOVE ARE FOR THE NATURAL ORBITALS.
 IGNORE THE ABOVE DATA FOR MCSCF FUNCTIONS WHICH ARE NOT OF -FORS- TYPE.
 THE FOLLOWING POPULATIONS ARE CORRECT FOR ANY MCSCF WAVEFUNCTION.

               ----- POPULATIONS IN EACH AO -----
                             MULLIKEN      LOWDIN
              1  N  1  S      2.00216     1.90560
              2  N  1  S      0.81725     0.58098
              3  N  1  S      0.72415     0.42259
              4  N  1  X      0.75336     0.69822
              5  N  1  Y      0.62154     0.54239
              6  N  1  Z      0.84042     0.79319
              7  N  1  X      0.41785     0.48314
              8  N  1  Y      0.27959     0.39964
              9  N  1  Z      0.52504     0.56468
             10  N  1 XX      0.00054     0.15410
             11  N  1 YY      0.00513     0.19303
             12  N  1 ZZ      0.00051     0.14533
             13  N  1 XY      0.00510     0.00248
             14  N  1 XZ      0.00441     0.00969
             15  N  1 YZ      0.00000     0.00825
             16  H  2  S      0.50544     0.38753
             17  H  2  S      0.06186     0.15530
             18  H  2  X      0.00971     0.03101
             19  H  2  Y      0.02921     0.04816
             20  H  2  Z      0.01072     0.02443
             21  H  3  S      0.55563     0.43572
             22  H  3  S      0.03245     0.15040
             23  H  3  X      0.01011     0.02361
             24  H  3  Y      0.03480     0.06066
             25  H  3  Z      0.00992     0.02703
             26  H  4  S      0.62163     0.47455
             27  H  4  S      0.06249     0.15416
             28  H  4  X      0.02760     0.05141
             29  H  4  Y      0.01230     0.03344
             30  H  4  Z      0.01907     0.03929

          ----- MULLIKEN ATOMIC OVERLAP POPULATIONS -----
          (OFF-DIAGONAL ELEMENTS NEED TO BE MULTIPLIED BY 2)

             1           2           3           4

    1    6.2186348
    2    0.2307347   0.3985305
    3    0.2963285  -0.0051874   0.3556815
    4    0.2513568  -0.0071314  -0.0039095   0.5027701

          TOTAL MULLIKEN AND LOWDIN ATOMIC POPULATIONS
       ATOM         MULL.POP.    CHARGE          LOW.POP.     CHARGE
    1 N             6.997055    0.002945         6.903310    0.096690
    2 H             0.616946    0.383054         0.646427    0.353573
    3 H             0.642913    0.357087         0.697415    0.302585
    4 H             0.743086    0.256914         0.752848    0.247152

          MULLIKEN SPHERICAL HARMONIC POPULATIONS
       ATOM           S       P       D      F      G      H      I    TOTAL
    1 N             3.54    3.44    0.02   0.00   0.00   0.00   0.00    7.00
    2 H             0.57    0.05    0.00   0.00   0.00   0.00   0.00    0.62
    3 H             0.59    0.05    0.00   0.00   0.00   0.00   0.00    0.64
    4 H             0.68    0.06    0.00   0.00   0.00   0.00   0.00    0.74

          ---------------------
          ELECTROSTATIC MOMENTS
          ---------------------

 POINT   1           X           Y           Z (BOHR)    CHARGE
                 0.000004    0.000003   -0.177185        1.00 (A.U.)
         DX          DY          DZ         /D/  (DEBYE)
     0.893735    0.515232    2.151996    2.386485
 ...... END OF PROPERTY EVALUATION ......
 CPU     0: STEP CPU TIME=     0.00 TOTAL CPU TIME=         12.0 (      0.2 MIN)
 TOTAL WALL CLOCK TIME=         12.1 SECONDS, CPU UTILIZATION IS    99.83%

     -------------------------------------------------
     GMC-PT/GMC-QDPT or general MCSCF input parameters
     -------------------------------------------------
 # of frozen core orbs. =         0 ->         0
 # of doubly occ. orbs. =         1
 # of active      orbs. =         7
 # of virtual     orbs. =        21
 # of active electrons  =         7
 # of states in CI      =         3
 Highest state in CI    =         3
 kstate =  1 1 1
 avecoe =  0.333 0.333 0.333
 State symmetry           = A           
 Assigned symmetry number = 1

 <<<Act. MO sym.: 1111111

 <<<Division of 1-ext.:  0
 <<<Division of 2-ext.:  0

     ------------------------
     Orbital canonicalization
     ------------------------

 MOs are canonicalized for core, virtual, and invariant-active orbital spaces.
 This is a part of the GMC-QDPT calculation.
 SCHWARZ INEQUALITY OVERHEAD:       465 INTEGRALS, T=        0.00
 DIRECT TRANSFORMATION SKIPS AO INTEGRAL STORAGE ON DISK.

 Averaged energy =     -55.690652341

 State #    1  Energy =     -55.826499155  S =  0.500
 State #    2  Energy =     -55.723640902  S =  0.500
 State #    3  Energy =     -55.521816965  S =  0.500

 Orbital energies for filled orbital space
  -15.979490
 Orbital energies for active orbital space
   -1.482844  -0.787286  -0.987522  -0.714430   0.095572
    0.240982   0.383720
 Orbital energies for external orbital space
    0.127289   0.202587   0.260375   0.528470   0.586602
    0.696948   0.856121   1.050490   1.067660   1.204201
    1.298407   1.403962   1.592908   1.717551   1.842734
    1.994551   2.095711   2.251899   2.469002   2.643566
    3.037597

 Zero values mean non-canonical orbitals.
 ... done with orbital canonicalization ...
 CPU     0: STEP CPU TIME=     0.63 TOTAL CPU TIME=         12.7 (      0.2 MIN)
 TOTAL WALL CLOCK TIME=         12.7 SECONDS, CPU UTILIZATION IS    99.84%

     --------------------------------------------
     PARTIAL TWO ELECTRON INTEGRAL TRANSFORMATION
     --------------------------------------------

 NUMBER OF CORE MOLECULAR ORBITALS     =    0
 NUMBER OF OCCUPIED MOLECULAR ORBITALS =    8
 TOTAL NUMBER OF MOLECULAR ORBITALS    =   29
 TOTAL NUMBER OF ATOMIC ORBITALS       =   30
 THRESHOLD FOR KEEPING TRANSFORMED 2E- INTEGRALS = 1.000E-09
 AO INTEGRALS WILL BE CALCULATED IN DIRECT MODE...
 DIRECT TRANSFORMATION SKIPS AO INTEGRAL STORAGE ON DISK.
 SCHWARZ INEQUALITY OVERHEAD:       465 INTEGRALS, T=        0.01

 PLAN A: REQUIREMENTS FOR FULLY IN-MEMORY TRANSFORMATION:
 # OF WORDS AVAILABLE =            100000000
 # OF WORDS NEEDED    =               221798

 PARALLEL ONLY WORKS WITH THE SEGMENTED ALGORITHM.
 ADJUSTING MEMORY TO USE SEGMENTED ALGORITHM.


 PLAN B: REQUIREMENTS FOR THE SEGMENTED TRANSFORMATION:
       MINIMUM=         124148 WORDS FOR 1 MOLECULAR ORBITAL PER PASS
       MAXIMUM=         221798 WORDS FOR ALL MOLECULAR ORBITALS IN 1 PASS
              (          13950 EXTRA WORDS INCLUDES 1 EXTRA ORBITAL/PASS)
 THIS RUN USES=         221798 WORDS,
 DISTRIBUTING   1 PASSES EACH CONTAINING     8 ORBITALS OVER   1 PROCESSORS.

 CHOOSING SEGMENTED PARTIAL TRANSFORMATION...
 DIRECT TRANSFORMATION SKIPS AO INTEGRAL STORAGE ON DISK.
 PASS #   1 TOOK        0.04 SECONDS.
 TOTAL NUMBER OF TRANSFORMED 2E- INTEGRALS KEPT =        29226
 ... END OF INTEGRAL TRANSFORMATION ...
 CPU     0: STEP CPU TIME=     0.05 TOTAL CPU TIME=         12.7 (      0.2 MIN)
 TOTAL WALL CLOCK TIME=         12.7 SECONDS, CPU UTILIZATION IS    99.92%

     --------     ------------------------------------------
     GMC-QDPT     Program written by H.Nakano (Kyushu Univ.)
     --------     ------------------------------------------

 *** Reference space

 Reference type: ORMAS (= Occupation restricted multiple active space)
 # of orbitals          =  7
 # of minimum electrons =  7
 # of maximum electrons =  7
 State symmetry    =    1 (input)
 2*Sz              =    1 (input)
 Spin multiplicity =    2 (input)
 Dimension of reference space =      1225  (from      3432 walks)

 Dimension of reference space =      1225  (from      1225 walks)

 <<<Ionized spaces for Ref-CI:
      0:         1225 /   -1-0:         1960 /  0-1-0:         2891

 ***                    ***
 *** Reference space CI ***
 ***                    ***

 Converged after   32 iterations

 Reference wavefunctions:

 State #    1  Energy =     -55.826499155  S =  0.500

      Det      Coef    Occupancy (Ignoring core)
      ---      ----    --------- --------- -----
        1   -0.965923  11110001110000
       71   -0.130371  11110001011000
      393   -0.069105  10110101010010
      717   -0.051761  11010011100001

 State #    2  Energy =     -55.723640902  S =  0.500

      Det      Coef    Occupancy (Ignoring core)
      ---      ----    --------- --------- -----
        1   -0.135303  11110001110000
       71    0.969558  11110001011000
      822   -0.052991  11010011001001

 State #    3  Energy =     -55.521816965  S =  0.500

      Det      Coef    Occupancy (Ignoring core)
      ---      ----    --------- --------- -----
       36    0.971522  11110001101000
      142   -0.052573  11101001100100
      463    0.071065  10110101001010

 Davidson method: CPU/Wall time =           0.45 /           0.45 sec.

 Oscillator strength (invalid if E(1)/=E(GS)):
 -----------------------------------------
   State                        f
 -----------------------------------------
     2     F(REF-CI)=        0.0019287209
     3     F(REF-CI)=        0.0059938313
 -----------------------------------------

 Dipole moment matrix elements, x, y, z, in A.U.

 Dimension of ionized spaces for PT:
 (N-2) space:         1715 /  (N-1) space:         2842 /  N space:         2891
 (N+1) space:         2842 /  (N+2) space:         1715

 <<<Ionized spaces for internal:
         0:         1225 /      -1-0:         1960 /     0-1-0:         2891
  -1-0-1-0:         2842 / 0-1-0-1-0:         3381

 Diagonal elements of averaged one-particle density matrix:
       2       3       4       5       6       7       8
  0.9924  0.9835  0.9857  0.9890  0.0216  0.0162  0.0116
  0.9867  0.6560  0.6623  0.6600  0.0149  0.0119  0.0083

 Orbital energies:
 -------- Doubly-occupied orbitals (highest several orbs.) -------
             1
 -1.597949D+01
 -------- Active orbitals ----------------------------------------
             2            3            4            5            6
 -1.482844D+00-7.872862D-01-9.875222D-01-7.144299D-01 9.557195D-02
             7            8
  2.409816D-01 3.837204D-01
 -------- External orbitals (lowest several orbs.) ---------------
             9           10           11           12           13
  1.272893D-01 2.025874D-01 2.603748D-01 5.284705D-01 5.866022D-01
            14           15           16           17           18
  6.969482D-01 8.561211D-01 1.050490D+00 1.067660D+00 1.204201D+00

 *** Quasi-degeneracy checking

 === Det (|Ci| > 1.0D-01 and dE < 5.0D-03)

 # of small denominators (single excitations)
 State       dEmin  dE < 5.0D-03  dE < 5.0D-04  dE < 5.0D-05  dE < 5.0D-06
 ----- ----------- ------------- ------------- ------------- -------------
     1    5.00D-03             0             0             0             0
     2    5.00D-03             0             0             0             0
     3    5.00D-03             0             0             0             0

 # of small denominators (double excitations)
 State       dEmin  dE < 5.0D-03  dE < 5.0D-04  dE < 5.0D-05  dE < 5.0D-06
 ----- ----------- ------------- ------------- ------------- -------------
     1    5.00D-03             0             0             0             0
     2    5.00D-03             0             0             0             0
     3    5.00D-03             0             0             0             0

 *** Zeroth-Order Setup (Granovsky's zeroth-order vectors)
 Zeroth-order effective Hamiltonian
  (= Sum_i e(i)*<I|a+(i)a(i)|J> ):
                   1            2            3
     1 -7.119635D+00
     2 -1.675500D-02-7.066604D+00
     3 -7.781737D-04-7.554369D-03-6.852438D+00

 Zeroth-order vectors:
 State #    1
       MC st            1           2           3
       Coeff    9.602D-01   2.792D-01   1.050D-02
 State #    2
       MC st            2           1           3
       Coeff   -9.596D-01   2.794D-01  -3.356D-02
 State #    3
       MC st            3           2           1
       Coeff    9.994D-01  -3.515D-02  -7.056D-04

 *** GMC-QDPT computation

 (Integral reading:  CPU/Wall time =           0.00 /           0.00 sec.)

 One-external:
   0 -ionized terms: CPU/Wall time =           0.04 /           0.03 sec.
 (-1)-ionized terms: CPU/Wall time =           0.08 /           0.09 sec.
 (+1)-ionized terms: CPU/Wall time =           0.03 /           0.02 sec.
 (+1)-ionized terms: CPU/Wall time =           0.00 /           0.01 sec.
 (+2)-ionized terms: CPU/Wall time =           0.00 /           0.00 sec.

 Internal:
 # of macro loops for internal contribution =         1 (input)
 Loop:    1
 Dimension of internal CISD space     =         0  (after screening)
 Space construction: CPU/Wall time =           0.02 /           0.02 sec.
 Internal terms:     CPU/Wall time =           0.00 /           0.00 sec.

 Two-external:
   0 -ionized terms: CPU/Wall time =           0.06 /           0.06 sec.
 (-1)-ionized terms: CPU/Wall time =           1.00 /           1.00 sec.
 (-2)-ionized terms: CPU/Wall time =           0.17 /           0.17 sec.

 Total time:         CPU/Wall time =           1.40 /           1.40 sec.

 ***                  ***
 *** GMC-QDPT Results ***
 ***                  ***

 Diagonal elements of effective Hamiltonian:
 Heff(  1) =   -55.91894416
 Heff(  2) =   -55.83749409
 Heff(  3) =   -55.63337772

 Off-diagonal elements of effective Hamiltonian:
                   1            2
     2 -2.459915D-02
     3  2.832785D-03-6.273660D-03

 ******** GMC-QDPT energies ********
 ----------------------------------------------------------------------------
   State                        1st order                           2nd order
 ----------------------------------------------------------------------------
     1     E(REF-CI)=      -55.8264991547   E(GMC-QDPT2)=      -55.9258006609
     2     E(REF-CI)=      -55.7236409024   E(GMC-QDPT2)=      -55.8308757024
     3     E(REF-CI)=      -55.5218169647   E(GMC-QDPT2)=      -55.6331396071
 ----------------------------------------------------------------------------

 Excitation energies (invalid if E(1)/=E(GS)):
 ----------------------------------------------------------------------------
   State                        1st order                           2nd order
 ----------------------------------------------------------------------------

     TZ Sorted GMC-PT ENERGIES:
         1      -55.9258006609
         2      -55.8308757024
         3      -55.6331396071
     2     E(REF-CI)=        2.7989170 eV   E(GMC-QDPT2)=        2.5830410 eV
     3     E(REF-CI)=        8.2908289 eV   E(GMC-QDPT2)=        7.9637170 eV
 ----------------------------------------------------------------------------

 Main characters of perturbed GMC-QDPT states:

 State #    1  Energy =     -55.925800661  S =  0.500

      Det      Coef    Occupancy (Ignoring core)
      ---      ----    --------- --------- -----
        1   -0.967424  11110001110000
       71   -0.118976  11110001011000
      393   -0.069241  10110101010010
      717   -0.051798  11010011100001

 State #    2  Energy =     -55.830875702  S =  0.500

      Det      Coef    Occupancy (Ignoring core)
      ---      ----    --------- --------- -----
        1   -0.123907  11110001110000
       71    0.971043  11110001011000
      822   -0.053058  11010011001001

 State #    3  Energy =     -55.633139607  S =  0.500

      Det      Coef    Occupancy (Ignoring core)
      ---      ----    --------- --------- -----
       36    0.971516  11110001101000
      142   -0.052539  11101001100100
      463    0.071032  10110101001010

 <<<Max |V/de| = 2.902D-02  Thresh = 1.000D+00

 Oscillator strength (invalid if E(1)/=E(GS)):
 ----------------------------------------------------------------------------
   State                        1st order                           2nd order
 ----------------------------------------------------------------------------
     2     F(REF-CI)=        0.0019287209     F(GMC-PT2)=        0.0018601956
     3     F(REF-CI)=        0.0059938313     F(GMC-PT2)=        0.0058713107
 ----------------------------------------------------------------------------

 Dipole moment matrix elements, x, y, z, in A.U.
States    1    1        0.3046990709        0.2097087906        0.6448682969
States    1    2       -0.0114348164       -0.0335812855       -0.1677386988
States    1    3       -0.0498009505       -0.1454935398        0.0802758468
States    2    1       -0.0114348164       -0.0335812855       -0.1677386988
States    2    2        0.3787843425        0.0048083315        0.3546425415
States    2    3        0.0631327966       -0.0873132198       -0.0008840008
States    3    1       -0.0498009505       -0.1454935398        0.0802758468
States    3    2        0.0631327966       -0.0873132198       -0.0008840008
States    3    3        0.4604154899        0.4339011819        0.2726252846

 Oscillator strength (valid only when positive): 
 ----------------------------------------------------------------------------
  States                        1st order                           2nd order
 ----------------------------------------------------------------------------
  1  1     F(REF-CI)=        0.0000000000     F(GMC-PT2)=        0.0000000000
  1  2     F(REF-CI)=       -0.0019287209     F(GMC-PT2)=       -0.0018601956
  1  3     F(REF-CI)=       -0.0059938313     F(GMC-PT2)=       -0.0058713107
  2  1     F(REF-CI)=        0.0019287209     F(GMC-PT2)=        0.0018601956
  2  2     F(REF-CI)=        0.0000000000     F(GMC-PT2)=        0.0000000000
  2  3     F(REF-CI)=       -0.0015974238     F(GMC-PT2)=       -0.0015304945
  3  1     F(REF-CI)=        0.0059938313     F(GMC-PT2)=        0.0058713107
  3  2     F(REF-CI)=        0.0015974238     F(GMC-PT2)=        0.0015304945
  3  3     F(REF-CI)=        0.0000000000     F(GMC-PT2)=        0.0000000000
 CPU     0: STEP CPU TIME=     1.91 TOTAL CPU TIME=         14.6 (      0.2 MIN)
 TOTAL WALL CLOCK TIME=         14.6 SECONDS, CPU UTILIZATION IS    99.86%

     !!! DIABATIZATION FOR REF CI STATES !!!

 *******************************************************
          $DMO GROUP FOUND IN THE INPUT.
        DIABATIZATION OF ADIABATIC STATES BEGINS.
     PROGRAMMED BY TAO ZENG (CARLETON UNIVERSITY).
               Email: toby.zeng@carleton.ca
     See T. Zeng, J. Chem. Phys. 2017, 146, 144103
 *******************************************************

 *************************************************************************
     STEP 1: TRANSFORMATION OF ADIABATIC STATES TO THE DMO REPRESENTATION
         See Atchity and Ruedenberg, J. Chem. Phys. 1999, 111, 2910
 *************************************************************************

Read in Diabatic Molecualr Orbitals:

                      1          2          3          4          5

    1  N  1  S    0.008609   0.000000   0.000000  -0.013219   0.279491
    2  N  1  S    0.442914  -0.000000   0.000000  -0.184329   0.867803
    3  N  1  S    0.276913   0.000000  -0.000000  -0.288315   0.144236
    4  N  1  X   -0.000000   0.493155  -0.024636  -0.000000  -0.000000
    5  N  1  Y    0.000000   0.024636   0.493155  -0.000000   0.000000
    6  N  1  Z    0.090197   0.000000   0.000000   0.593421   0.705309
    7  N  1  X   -0.000000   0.210628  -0.010522   0.000000   0.000000
    8  N  1  Y    0.000000   0.010522   0.210628  -0.000000  -0.000000
    9  N  1  Z   -0.004381   0.000000   0.000000   0.381592  -0.106092
   10  N  1 XX   -0.000457   0.010719  -0.000535  -0.012387   0.006153
   11  N  1 YY   -0.000457  -0.010719   0.000535  -0.012387   0.006153
   12  N  1 ZZ    0.000914  -0.000000   0.000000   0.024773  -0.012306
   13  N  1 XY    0.000000  -0.000618  -0.012377  -0.000000   0.000000
   14  N  1 XZ   -0.000000   0.026529  -0.001325  -0.000000   0.000000
   15  N  1 YZ    0.000000   0.001325   0.026529  -0.000000   0.000000
   16  H  2  S    0.194462  -0.176074   0.343485   0.112865  -0.523343
   17  H  2  S    0.003574  -0.023812   0.046452   0.024014  -0.054445
   18  H  2  X    0.018760   0.009101   0.022834   0.009336  -0.039151
   19  H  2  Y   -0.032493   0.022287  -0.020044  -0.016171   0.067811
   20  H  2  Z   -0.009251   0.008464  -0.016511   0.018769  -0.010566
   21  H  3  S    0.194462  -0.209430  -0.324227   0.112865  -0.523343
   22  H  3  S    0.003574  -0.028322  -0.043847   0.024014  -0.054445
   23  H  3  X    0.018760   0.006781  -0.023627   0.009336  -0.039151
   24  H  3  Y    0.032493  -0.024174  -0.017723   0.016171  -0.067811
   25  H  3  Z   -0.009251   0.010067   0.015585   0.018769  -0.010566
   26  H  4  S    0.194462   0.385503  -0.019258   0.112865  -0.523343
   27  H  4  S    0.003574   0.052134  -0.002604   0.024014  -0.054445
   28  H  4  X   -0.037519  -0.032295   0.001613  -0.018672   0.078302
   29  H  4  Y    0.000000   0.001067   0.021353  -0.000000   0.000000
   30  H  4  Z   -0.009251  -0.018530   0.000926   0.018769  -0.010566

                      6          7

    1  N  1  S    0.000000  -0.000000
    2  N  1  S    0.000000  -0.000000
    3  N  1  S   -0.000000   0.000000
    4  N  1  X   -0.930415  -0.002083
    5  N  1  Y   -0.002083   0.930415
    6  N  1  Z   -0.000000   0.000000
    7  N  1  X   -0.046866  -0.000105
    8  N  1  Y   -0.000105   0.046866
    9  N  1  Z   -0.000000   0.000000
   10  N  1 XX    0.001538   0.000003
   11  N  1 YY   -0.001538  -0.000003
   12  N  1 ZZ   -0.000000   0.000000
   13  N  1 XY   -0.000004   0.001776
   14  N  1 XZ    0.039985   0.000090
   15  N  1 YZ    0.000090  -0.039985
   16  H  2  S   -0.362630  -0.631354
   17  H  2  S   -0.065964  -0.114846
   18  H  2  X    0.002763  -0.037520
   19  H  2  Y    0.037435   0.040736
   20  H  2  Z    0.001882   0.003276
   21  H  3  S   -0.365454   0.629724
   22  H  3  S   -0.066477   0.114549
   23  H  3  X    0.002595   0.037532
   24  H  3  Y   -0.037617   0.040567
   25  H  3  Z    0.001896  -0.003268
   26  H  4  S    0.728084   0.001630
   27  H  4  S    0.132441   0.000297
   28  H  4  X   -0.062317  -0.000140
   29  H  4  Y    0.000055  -0.024345
   30  H  4  Z   -0.003778  -0.000008

NUMBER OF SUB ACTIVE SPACES:   1
ROTATE ACTIVE MOS TO DMOS IN EACH SUB-SPACE

SPACE  1:

OVERLAP BETWEEN ORTHONORMAL AND PRE-ORTHONORMAL REF. DMOS

             1           2           3           4           5

    1    0.9700822   0.0359495   0.0018422  -0.0103393   0.0023117
    2    0.0359495   0.8909440   0.0646670   0.0459750  -0.0669914
    3    0.0018422   0.0646670   1.0105185   0.0163686  -0.0466407
    4   -0.0103393   0.0459750   0.0163686   0.9929836  -0.0132085
    5    0.0023117  -0.0669914  -0.0466407  -0.0132085   1.1686668
    6    0.0025110  -0.0704275   0.0705555   0.0472669   0.0211197
    7    0.0019279  -0.0413993  -0.0360614  -0.0364855   0.0734250

             6           7

    1    0.0025110   0.0019279
    2   -0.0704275  -0.0413993
    3    0.0705555  -0.0360614
    4    0.0472669  -0.0364855
    5    0.0211197   0.0734250
    6    1.0798992  -0.0030278
    7   -0.0030278   1.0513350
REFERENCE DMOS AFTER ORTHONORMALIZATION:

                      1          2          3          4          5

    1  N  1  S    0.007584   0.016654   0.009937  -0.011371   0.241455
    2  N  1  S    0.451461   0.041427   0.032359  -0.175157   0.747029
    3  N  1  S    0.281650   0.011990   0.007656  -0.287620   0.121573
    4  N  1  X   -0.015992   0.491025   0.004419   0.017639   0.042777
    5  N  1  Y   -0.003322   0.025906   0.519006   0.024607  -0.033920
    6  N  1  Z    0.097903   0.005245   0.019982   0.607339   0.613333
    7  N  1  X   -0.008854   0.238109  -0.022815  -0.009059   0.012672
    8  N  1  Y   -0.000422  -0.001808   0.211619  -0.000787   0.005362
    9  N  1  Z    0.000814  -0.026591  -0.006865   0.385908  -0.089071
   10  N  1 XX   -0.001129   0.013483  -0.001120  -0.013163   0.005818
   11  N  1 YY   -0.000183  -0.011388   0.001755  -0.011869   0.004653
   12  N  1 ZZ    0.001312  -0.002094  -0.000635   0.025032  -0.010471
   13  N  1 XY    0.000012   0.000273  -0.012306   0.000192  -0.000572
   14  N  1 XZ   -0.001380   0.033707  -0.006108  -0.003313   0.000863
   15  N  1 YZ    0.000077  -0.001913   0.025338  -0.001578   0.003274
   16  H  2  S    0.216169  -0.324665   0.345612   0.116881  -0.409059
   17  H  2  S    0.005997  -0.044899   0.047577   0.024350  -0.039115
   18  H  2  X    0.019366   0.003969   0.019504   0.007419  -0.030437
   19  H  2  Y   -0.035349   0.037766  -0.020721  -0.017844   0.056330
   20  H  2  Z   -0.009668   0.009954  -0.017742   0.018524  -0.009269
   21  H  3  S    0.213497  -0.267162  -0.284823   0.164809  -0.505881
   22  H  3  S    0.005468  -0.034961  -0.035993   0.032728  -0.055541
   23  H  3  X    0.019216   0.007504  -0.024727   0.010345  -0.036455
   24  H  3  Y    0.035169  -0.034147  -0.014651   0.020877  -0.062371
   25  H  3  Z   -0.009693   0.009176   0.014112   0.017963  -0.007677
   26  H  4  S    0.183478   0.456671  -0.118279   0.058183  -0.442175
   27  H  4  S    0.001198   0.065975  -0.017906   0.014947  -0.046073
   28  H  4  X   -0.037542  -0.034937   0.011272  -0.014189   0.066872
   29  H  4  Y    0.000040  -0.001252   0.020619  -0.001018   0.002191
   30  H  4  Z   -0.008444  -0.022817   0.002031   0.020000  -0.009956

                      6          7

    1  N  1  S   -0.003851  -0.016286
    2  N  1  S   -0.007563  -0.056359
    3  N  1  S    0.009787  -0.018226
    4  N  1  X   -0.831377   0.012765
    5  N  1  Y   -0.032012   0.906944
    6  N  1  Z   -0.039829  -0.021160
    7  N  1  X   -0.026189   0.007235
    8  N  1  Y   -0.013967   0.051324
    9  N  1  Z   -0.016385   0.018282
   10  N  1 XX    0.002841  -0.000357
   11  N  1 YY   -0.001856  -0.001133
   12  N  1 ZZ   -0.000985   0.001490
   13  N  1 XY    0.000825   0.001327
   14  N  1 XZ    0.039759   0.001145
   15  N  1 YZ   -0.001798  -0.037528
   16  H  2  S   -0.378772  -0.570319
   17  H  2  S   -0.067732  -0.106003
   18  H  2  X    0.001678  -0.032510
   19  H  2  Y    0.038342   0.035145
   20  H  2  Z    0.002956   0.004216
   21  H  3  S   -0.333312   0.618384
   22  H  3  S   -0.061535   0.111172
   23  H  3  X    0.004830   0.038030
   24  H  3  Y   -0.035762   0.041652
   25  H  3  Z    0.000816  -0.001083
   26  H  4  S    0.717540   0.050107
   27  H  4  S    0.128377   0.006370
   28  H  4  X   -0.061338  -0.006392
   29  H  4  Y   -0.001440  -0.022691
   30  H  4  Z   -0.005779   0.000551

 -------------------------------------------
       MAXIMIZING MORMO OVERLAP TERM        
 -------------------------------------------
   SWEEP    VALUE       PROGRESS
     0     5.02790
     1     6.93231     1.90440907
     2     6.93884     0.00652787
     3     6.93884     0.00000044
     4     6.93884     0.00000000
     5     6.93884     0.00000000
 THE ROTATION IS DONE
FLIPPING SIGN FOR ORBITAL   7
ACTIVE ORBITALS AFTER MORMO:

                      1          2          3          4          5

    1  N  1  S    0.005472   0.029403   0.006472  -0.012273   0.181241
    2  N  1  S    0.421744   0.071984   0.006762  -0.190578   0.671272
    3  N  1  S    0.340254  -0.061521   0.026924  -0.268636   0.215396
    4  N  1  X    0.000862   0.430117   0.021347   0.042855   0.018189
    5  N  1  Y   -0.010916   0.048821   0.499087   0.020171  -0.041337
    6  N  1  Z    0.082155   0.036545   0.025249   0.604644   0.594450
    7  N  1  X   -0.026182   0.317470  -0.064592  -0.058911   0.048994
    8  N  1  Y    0.007484  -0.045925   0.210270  -0.021590   0.027651
    9  N  1  Z    0.031244  -0.074618  -0.021019   0.386953  -0.059989
   10  N  1 XX   -0.006166   0.028724  -0.004467  -0.015466   0.033103
   11  N  1 YY    0.006430  -0.029147   0.005331  -0.005508  -0.042206
   12  N  1 ZZ   -0.000263   0.000423  -0.000864   0.020974   0.009103
   13  N  1 XY    0.003847  -0.002915  -0.002164  -0.003112  -0.023072
   14  N  1 XZ    0.001190   0.020146  -0.006791   0.002195  -0.039569
   15  N  1 YZ    0.003251  -0.002746   0.015989  -0.004428  -0.012929
   16  H  2  S    0.186664  -0.209726   0.318821   0.101631  -0.399113
   17  H  2  S    0.012855  -0.122217   0.089602   0.036858  -0.057849
   18  H  2  X   -0.001968   0.024315  -0.006068  -0.003010  -0.012923
   19  H  2  Y   -0.029561   0.015806  -0.035323  -0.012513   0.042280
   20  H  2  Z   -0.004873  -0.002430  -0.016340   0.017687  -0.023284
   21  H  3  S    0.187395  -0.232786  -0.303939   0.127718  -0.489553
   22  H  3  S    0.004299  -0.049194  -0.028855   0.038942  -0.071013
   23  H  3  X    0.008060   0.017664  -0.015282   0.000909  -0.011576
   24  H  3  Y    0.033133  -0.024805  -0.035632   0.011864  -0.054387
   25  H  3  Z   -0.002208   0.002191   0.007242   0.021885  -0.013805
   26  H  4  S    0.181091   0.401623  -0.066187   0.081349  -0.466981
   27  H  4  S   -0.002694   0.142334  -0.064977   0.020119  -0.069983
   28  H  4  X   -0.031127  -0.018220  -0.001561  -0.020149   0.048421
   29  H  4  Y   -0.007185  -0.013299   0.018859  -0.002167  -0.013169
   30  H  4  Z   -0.014150  -0.032600  -0.001537   0.016584  -0.007808

                      6          7

    1  N  1  S    0.044285  -0.057912
    2  N  1  S    0.107051  -0.121745
    3  N  1  S   -0.141076   0.080074
    4  N  1  X   -0.831373  -0.009775
    5  N  1  Y    0.002526   0.896554
    6  N  1  Z   -0.068648  -0.028360
    7  N  1  X   -0.031004   0.048500
    8  N  1  Y   -0.066991   0.080794
    9  N  1  Z    0.002012   0.048210
   10  N  1 XX    0.048924   0.011729
   11  N  1 YY   -0.059009   0.005283
   12  N  1 ZZ    0.010086  -0.017012
   13  N  1 XY    0.010447  -0.037279
   14  N  1 XZ    0.015213   0.002417
   15  N  1 YZ    0.011417  -0.049195
   16  H  2  S   -0.274381  -0.554088
   17  H  2  S   -0.141246  -0.173327
   18  H  2  X    0.036900  -0.011422
   19  H  2  Y    0.024032   0.048073
   20  H  2  Z    0.018309  -0.015707
   21  H  3  S   -0.304237   0.592549
   22  H  3  S   -0.072687   0.127063
   23  H  3  X    0.002997   0.019314
   24  H  3  Y   -0.024281   0.055863
   25  H  3  Z    0.001987   0.026441
   26  H  4  S    0.668196  -0.015395
   27  H  4  S    0.226465   0.053224
   28  H  4  X   -0.029812   0.004468
   29  H  4  Y   -0.000332  -0.050734
   30  H  4  Z   -0.015454  -0.011465

Actually Used Diabatic Molecualr Orbitals:

                      1          2          3          4          5

    1  N  1  S    0.005472   0.029403   0.006472  -0.012273   0.181241
    2  N  1  S    0.421744   0.071984   0.006762  -0.190578   0.671272
    3  N  1  S    0.340254  -0.061521   0.026924  -0.268636   0.215396
    4  N  1  X    0.000862   0.430117   0.021347   0.042855   0.018189
    5  N  1  Y   -0.010916   0.048821   0.499087   0.020171  -0.041337
    6  N  1  Z    0.082155   0.036545   0.025249   0.604644   0.594450
    7  N  1  X   -0.026182   0.317470  -0.064592  -0.058911   0.048994
    8  N  1  Y    0.007484  -0.045925   0.210270  -0.021590   0.027651
    9  N  1  Z    0.031244  -0.074618  -0.021019   0.386953  -0.059989
   10  N  1 XX   -0.006166   0.028724  -0.004467  -0.015466   0.033103
   11  N  1 YY    0.006430  -0.029147   0.005331  -0.005508  -0.042206
   12  N  1 ZZ   -0.000263   0.000423  -0.000864   0.020974   0.009103
   13  N  1 XY    0.003847  -0.002915  -0.002164  -0.003112  -0.023072
[...]

 -------------------------------------------
 - DM DIABT PT HAMILTONIAN MATRIX ELEMENTS -
 -------------------------------------------
                                            
 --- DIABATIC ENERGIES (DIAGONAL ELEMENT) ---       HARTREE            EV
 STATE #  1'S GMC-PT-LEVEL DIABATIC ENERGY=     -55.902733136       0.000000000
 STATE #  2'S GMC-PT-LEVEL DIABATIC ENERGY=     -55.820546555       2.236410790
 STATE #  3'S GMC-PT-LEVEL DIABATIC ENERGY=     -55.666536280       6.427243830

 --- DIABATIC COUPLINGS (OFF DIAGONAL ELEMENTS)---  HATREE            EV
 STATE #  1 &  2'S GMC-PT-LEVEL COUPLING  =      -0.049274149      -1.340817886
 STATE #  1 &  3'S GMC-PT-LEVEL COUPLING  =      -0.031527714      -0.857912795
 STATE #  2 &  3'S GMC-PT-LEVEL COUPLING  =       0.067040310       1.824259741

 ---------------------------------------
     - ROTATION TO DIABATIC STATES -    
 ---------------------------------------
 ROWS=ADIABATIC, COLUMNS=DIABATIC STATES

             1           2           3

    1    0.9058157   0.4236714   0.0005988
    2   -0.3860171   0.8258911  -0.4109679
    3    0.1746099  -0.3720301  -0.9116496

 ---------------------------------------
          - DIABATIC STATES -           
 ---------------------------------------

 State #    1  Energy =     -55.902733136

      Det      Coef        Coefp    Occupancy (Ignoring core)
      ---      ----        ----    --------- --------- -----
        1    0.908666   -0.908666  222+000
        8   -0.171312    0.171312  2-2+0+0
      386    0.140920   -0.140920  2+2+0-0
        4   -0.134014    0.134014  2-2++00
      176    0.128931   -0.128931  2+2+-00
        7    0.099194    0.099194  22-+0+0
      351   -0.093195   -0.093195  22++0-0
        6    0.092489   -0.092489  22200+0
      717   -0.065181   -0.065181  220+002
      393   -0.063273   -0.063273  202+020
        3   -0.056774   -0.056774  22-++00
      141    0.054903    0.054903  22++-00
       18   -0.050454    0.050454  2-2+00+
      736    0.047118   -0.047118  2+2+00-
      708    0.045226   -0.045226  2-++0+-
       16   -0.041537    0.041537  222000+
      402    0.040701   -0.040701  2+-+0-+
      215   -0.038815   -0.038815  022+200
      705   -0.036596   -0.036596  -2+++0-
      227   -0.036029   -0.036029  +2-+-0+
       13    0.035608    0.035608  2--+++0
      143   -0.033260   -0.033260  220+200
        5    0.033221    0.033221  -22++00
      561    0.031986    0.031986  2+++--0
      391    0.031804   -0.031804  2+20020
      212    0.031453    0.031453  +220200
      218    0.031340   -0.031340  +-2+-+0
      390    0.031235   -0.031235  -+2++-0
       11    0.031074   -0.031074  2-20++0
     1051   -0.030808   -0.030808  2+++0--
       76    0.030392    0.030392  2+2-0+0
      113   -0.028946    0.028946  +-220+0
      183   -0.028653    0.028653  202+-+0
      387   -0.028431    0.028431  2+20+-0
      389    0.028043    0.028043  202++-0
       29   -0.026990   -0.026990  2--+0++
      147    0.026881   -0.026881  220+-+0
       51   -0.026591    0.026591  22+-00+
      424   -0.025833   -0.025833  +-2++-0
      353   -0.025587   -0.025587  220++-0
      702    0.024279    0.024279  22+0+0-
      773    0.024195   -0.024195  +2-++0-
      159    0.023798   -0.023798  -2++-0+
      184   -0.022751   -0.022751  -+2+-+0
      122    0.022114    0.022114  +2-200+

 State #    2  Energy =     -55.820546555

      Det      Coef        Coefp    Occupancy (Ignoring core)
      ---      ----        ----    --------- --------- -----
       71   -0.906133    0.906133  2+22000
       74    0.173500   -0.173500  2022+00
       78    0.138829   -0.138829  20220+0
       76    0.129873    0.129873  2+2-0+0
      386   -0.113175    0.113175  2+2+0-0
       77    0.108859   -0.108859  2+-20+0
      456   -0.093016   -0.093016  2++20-0
      106    0.081580    0.081580  +222000
      246    0.071668    0.071668  2++2-00
      822    0.062726   -0.062726  2+02002
       88    0.052735   -0.052735  202200+
      736    0.052093   -0.052093  2+2+00-
       73   -0.050802    0.050802  2+-2+00
      813    0.050638   -0.050638  20+20+-
       81    0.049482    0.049482  202-++0
       86   -0.049293   -0.049293  2+2-00+
      113    0.047635   -0.047635  +-220+0
       36    0.045621    0.045621  22+2000
       99   -0.040358    0.040358  20-20++
       83    0.040187   -0.040187  20-2++0
      323   -0.038962    0.038962  +022-+0
      393   -0.038832   -0.038832  202+020
      320    0.038265    0.038265  0+22200
      183   -0.037480    0.037480  202+-+0
      810   -0.037333   -0.037333  -++2+0-
      806    0.035692    0.035692  2++200-
       75   -0.035618   -0.035618  -+22+00
      180   -0.035551    0.035551  -+2+200
      177    0.034565   -0.034565  2+20200
      317    0.034241   -0.034241  ++2-200
      332   -0.034030    0.034030  ++-2-0+
      248    0.032678   -0.032678  2+02200
       38   -0.031048    0.031048  2202+00
      252   -0.030341   -0.030341  2+02-+0
       79   -0.029546   -0.029546  -+220+0
      109    0.029049   -0.029049  +-22+00
       72   -0.026262   -0.026262  2+2-+00
      529    0.026164    0.026164  +022+-0
      807   -0.024938    0.024938  2++-+0-
      192   -0.024217    0.024217  2+-+-0+
      176    0.022882   -0.022882  2+2+-00
      878    0.022861    0.022861  ++-2+0-
      264    0.022632   -0.022632  -++2-0+
      458    0.022354   -0.022354  2+02+-0
      253   -0.021993   -0.021993  20+2-+0
      534    0.021437    0.021437  0+22020
       39   -0.020866   -0.020866  2-+2+00
       87   -0.020845    0.020845  2+-200+
      111    0.020096   -0.020096  +22-0+0

 State #    3  Energy =     -55.666536280

      Det      Coef        Coefp    Occupancy (Ignoring core)
      ---      ----        ----    --------- --------- -----
       36   -0.910885   -0.910885  22+2000
      456   -0.145796   -0.145796  2++20-0
      246   -0.142932   -0.142932  2++2-00
       43    0.123855    0.123855  2-+20+0
       39    0.109508    0.109508  2-+2+00
      351   -0.099135   -0.099135  22++0-0
       42   -0.094368    0.094368  22020+0
       41    0.082940   -0.082940  22+-0+0
      463    0.070735   -0.070735  20+2020
       51   -0.057378    0.057378  22+-00+
       38    0.055802   -0.055802  2202+00
       53    0.051657    0.051657  2-+200+
      472   -0.051407   -0.051407  2+020-+
       52    0.051167   -0.051167  220200+
      701    0.049640    0.049640  22++00-
      806   -0.049547   -0.049547  2++200-
       37   -0.045293    0.045293  22+-+00
      112   -0.043432   -0.043432  +2-20+0
      281    0.041707   -0.041707  +2+2-00
       71   -0.041094    0.041094  2+22000
      121   -0.041056    0.041056  +22-00+
      285    0.040701   -0.040701  02+2200
       64    0.040330   -0.040330  2-020++
       46    0.038316   -0.038316  2-+-++0
      461    0.037397   -0.037397  2++-020
      457   -0.037314    0.037314  2++-+-0
      358   -0.037035    0.037035  2-++020
      561    0.036534    0.036534  2+++--0
      297    0.036297   -0.036297  +202-0+
      282    0.036160    0.036160  +2+-200
      460   -0.035315   -0.035315  -++2+-0
      142    0.034929    0.034929  22+0200
      148   -0.034462   -0.034462  2-++-+0
      145   -0.034239   -0.034239  -2++200
       73    0.033425   -0.033425  2+-2+00
      491    0.031821   -0.031821  +2+20-0
      288   -0.030976   -0.030976  +-+2-+0
      108   -0.030156   -0.030156  +2-2+00
       48   -0.028697    0.028697  2-02++0
        3    0.028565    0.028565  22-++00
       16   -0.028349    0.028349  222000+
      254    0.027236   -0.027236  -++2-+0
      253    0.024650    0.024650  20+2-+0
      157    0.024643   -0.024643  220+-0+
      494    0.023388   -0.023388  +-+2+-0
      771    0.022098    0.022098  +22+00-
       77    0.021941   -0.021941  2+-20+0
      459   -0.021365    0.021365  20+2+-0
      843   -0.021281   -0.021281  +202+0-
      716    0.020908    0.020908  22+0002
      106    0.020814    0.020814  +222000

 ---------------------------------------
      - DIABATIC STATES IN CMO -        
 ---------------------------------------

 State #    1  Energy =     -55.902733136

      Det      Coef        Coefp    Occupancy (Ignoring core)
      ---      ----        ----    --------- --------- -----
        1    0.830713   -0.830713  222+000
       71    0.479009   -0.479009  2+22000
       36    0.168452    0.168452  22+2000
      393   -0.058499   -0.058499  202+020
      177   -0.048568    0.048568  2+20200
      717   -0.047059   -0.047059  220+002
      179   -0.044996   -0.044996  202+200
      106   -0.038381   -0.038381  +222000
      180    0.033180   -0.033180  -+2+200
      143   -0.032969   -0.032969  220+200
      183    0.032527   -0.032527  202+-+0
      392    0.031151    0.031151  2+-+020
        8   -0.030799    0.030799  2-2+0+0
       17   -0.030727   -0.030727  22-+00+
        2    0.030701   -0.030701  2220+00
      358   -0.029980    0.029980  2-++020
      822   -0.029556    0.029556  2+02002
      212    0.029013    0.029013  +220200
      215   -0.025845   -0.025845  022+200
      113   -0.025252    0.025252  +-220+0
      357   -0.025155   -0.025155  220+020
      192   -0.024551    0.024551  2+-+-0+
      248   -0.024219    0.024219  2+02200
      178   -0.024146   -0.024146  2+-+200
        7   -0.023854   -0.023854  22-+0+0
       76    0.023492    0.023492  2+2-0+0
       74   -0.023374    0.023374  2022+00
      394   -0.022477    0.022477  -+2+020
      112   -0.022235   -0.022235  +2-20+0
      702   -0.022217   -0.022217  22+0+0-
      389   -0.021947   -0.021947  202++-0
      705    0.021684    0.021684  -2+++0-
      429   -0.021581   -0.021581  022+020
      227    0.021457    0.021457  +2-+-0+

 State #    2  Energy =     -55.820546555

      Det      Coef        Coefp    Occupancy (Ignoring core)
      ---      ----        ----    --------- --------- -----
       71   -0.743898    0.743898  2+22000
        1    0.507441   -0.507441  222+000
       36   -0.381924   -0.381924  22+2000
      822    0.047991   -0.047991  2+02002
      248    0.043586   -0.043586  2+02200
      393   -0.038365   -0.038365  202+020
        2    0.036511   -0.036511  2220+00
      109    0.035469   -0.035469  +-22+00
      113    0.033478   -0.033478  +-220+0
      143   -0.030638   -0.030638  220+200
      249    0.029041   -0.029041  20+2200
       74    0.027278   -0.027278  2022+00
      142    0.026692    0.026692  22+0200
      807    0.025251   -0.025251  2++-+0-
      317    0.025166   -0.025166  ++2-200
      177    0.025134   -0.025134  2+20200
      112    0.024683    0.024683  +2-20+0
      247   -0.024385    0.024385  2++-200
      823    0.023387   -0.023387  20+2002
      534    0.023205    0.023205  0+22020
       53    0.022725    0.022725  2-+200+
       72    0.022395    0.022395  2+2-+00
       38   -0.022221    0.022221  2202+00
      320    0.021820    0.021820  0+22200
       87   -0.021760    0.021760  2+-200+
      717   -0.021665   -0.021665  220+002
      810    0.021400    0.021400  -++2+0-
      813   -0.021166    0.021166  20+20+-
        6    0.021030   -0.021030  22200+0
       83    0.020907   -0.020907  20-2++0
      111    0.020805   -0.020805  +22-0+0
      144    0.020349   -0.020349  2-++200
        4   -0.020321    0.020321  2-2++00
      107   -0.020010    0.020010  +22-+00

 State #    3  Energy =     -55.666536280

      Det      Coef        Coefp    Occupancy (Ignoring core)
      ---      ----        ----    --------- --------- -----
       36   -0.877547   -0.877547  22+2000
       71    0.417937   -0.417937  2+22000
      463    0.079097   -0.079097  20+2020
        1   -0.062013    0.062013  222+000
      142    0.047406    0.047406  22+0200
      108   -0.045970   -0.045970  +2-2+00
      462   -0.045193    0.045193  2+02020
        3    0.041184    0.041184  22-++00
       37   -0.034658    0.034658  22+-+00
       72    0.034487    0.034487  2+2-+00
      113    0.034007   -0.034007  +-220+0
      121    0.033648   -0.033648  +22-00+
        4   -0.032306    0.032306  2-2++00
      145   -0.031209   -0.031209  -2++200
      282    0.030526    0.030526  +2+-200
      459    0.030373   -0.030373  20+2+-0
      285    0.029411   -0.029411  02+2200
      249    0.029383   -0.029383  20+2200
      457   -0.028726    0.028726  2++-+-0
       40    0.026124   -0.026124  -2+2+00
      464    0.025904    0.025904  -++2020
       52   -0.025465    0.025465  220200+
      107   -0.025373    0.025373  +22-+00
      177   -0.024231    0.024231  2+20200
       88    0.024190   -0.024190  202200+
      499    0.023987   -0.023987  02+2020
      472    0.023695    0.023695  2+020-+
      157   -0.023153    0.023153  220+-0+
      144    0.023141   -0.023141  2-++200
      716    0.021596    0.021596  22+0002
       64   -0.020958    0.020958  2-020++
      771   -0.020502   -0.020502  +22+00-

 ---------------------------------------
    -DIABATIC STATES IN PROTOTYPES-     
 ---------------------------------------

     STATE:    1
 Group Ref#    Coefficients
     1    1    0.929373
     2    2    0.006011
     3    3   -0.007660

WEIGHT OF LISTED PROTOTYPES:   86.38%

     STATE:    2
 Group Ref#    Coefficients
     1    1    0.006025
     2    2    0.927119
     3    3   -0.003123

WEIGHT OF LISTED PROTOTYPES:   85.96%

     STATE:    3
 Group Ref#    Coefficients
     1    1   -0.007725
     2    2   -0.003142
     3    3    0.921492

WEIGHT OF LISTED PROTOTYPES:   84.92%

     DIRECT MAX. DIABATIZATION FINISHED    
 CPU     0: STEP CPU TIME=     0.24 TOTAL CPU TIME=         14.9 (      0.2 MIN)
 TOTAL WALL CLOCK TIME=         14.9 SECONDS, CPU UTILIZATION IS    99.87%

DIABATS FOR SPIN-ORBIT CALCULATION ARE READY

TRANSITION DIPOLES BETWEEN ADIABATS (in A.U.):

STATE PAIR      X         Y         Z
    1    1  0.304699  0.209709  0.644868
    2    1 -0.011435 -0.033581 -0.167739
    2    2  0.378784  0.004808  0.354643
    3    1 -0.049801 -0.145494  0.080276
    3    2  0.063133 -0.087313 -0.000884
    3    3  0.460415  0.433901  0.272625


TRANSITION DIPOLES BETWEEN DIABATS (in A.U.):

STATE PAIR      X         Y         Z
    1    1  0.304215  0.175240  0.733088
    2    1 -0.009150  0.044257 -0.002717
    2    2  0.345685  0.176990  0.253238
    3    1  0.050025  0.039984  0.009180
    3    2  0.011015  0.260032 -0.029114
    3    3  0.493999  0.296188  0.285810

TRANSITION DIPOLES BETWEEN DIRECT MAX. DIABATS (in A.U.):

STATE PAIR      X         Y         Z
    1    1  0.304219  0.175243  0.733089
    2    1 -0.009150  0.044266 -0.002714
    2    2  0.345685  0.176996  0.253237
    3    1  0.050032  0.039986  0.009165
    3    2  0.011017  0.260032 -0.029114
    3    3  0.493995  0.296180  0.285810
 No $TRANST Group Found.
 Quit without doing spin-orbit coupling
 ..... DONE WITH MP2 ENERGY .....
 CPU     0: STEP CPU TIME=     0.01 TOTAL CPU TIME=         14.9 (      0.2 MIN)
 TOTAL WALL CLOCK TIME=         14.9 SECONDS, CPU UTILIZATION IS    99.87%
            100000000  WORDS OF DYNAMIC MEMORY USED
 EXECUTION OF GAMESS TERMINATED NORMALLY Wed Nov 16 19:56:43 2022
 DDI: 715512 bytes (0.7 MB / 0 MWords) used by master data server.

 ----------------------------------------
 CPU timing information for all processes
 ========================================
 0: 14.552 + 0.328 = 14.880
 ----------------------------------------
Note: The following floating-point exceptions are signalling: IEEE_DENORMAL
 ddikick.x: exited gracefully.
unset echo
----- accounting info -----
Files used on the master node io002 were:
-rw-r--r-- 1 bsonghao nooijen   20724 Nov 16 19:56 /scratch/bsonghao/nh3_diabatization_2d_at_mode_7_8_dist0.4_0.7.F05
-rw-r--r-- 1 bsonghao nooijen  363520 Nov 16 19:56 /scratch/bsonghao/nh3_diabatization_2d_at_mode_7_8_dist0.4_0.7.F09
-rw-r--r-- 1 bsonghao nooijen 1995920 Nov 16 19:56 /scratch/bsonghao/nh3_diabatization_2d_at_mode_7_8_dist0.4_0.7.F10
-rw-r--r-- 1 bsonghao nooijen  131264 Nov 16 19:56 /scratch/bsonghao/nh3_diabatization_2d_at_mode_7_8_dist0.4_0.7.F13
-rw-r--r-- 1 bsonghao nooijen  180312 Nov 16 19:56 /scratch/bsonghao/nh3_diabatization_2d_at_mode_7_8_dist0.4_0.7.F15
-rw-r--r-- 1 bsonghao nooijen       0 Nov 16 19:56 /scratch/bsonghao/nh3_diabatization_2d_at_mode_7_8_dist0.4_0.7.F16
-rw-r--r-- 1 bsonghao nooijen    9808 Nov 16 19:56 /scratch/bsonghao/nh3_diabatization_2d_at_mode_7_8_dist0.4_0.7.F70
-rw-r--r-- 1 bsonghao nooijen    9808 Nov 16 19:56 /scratch/bsonghao/nh3_diabatization_2d_at_mode_7_8_dist0.4_0.7.F71
-rw-r--r-- 1 bsonghao nooijen   19608 Nov 16 19:56 /scratch/bsonghao/nh3_diabatization_2d_at_mode_7_8_dist0.4_0.7.F72
-rw-r--r-- 1 bsonghao nooijen   19608 Nov 16 19:56 /scratch/bsonghao/nh3_diabatization_2d_at_mode_7_8_dist0.4_0.7.F73
-rw-r--r-- 1 bsonghao nooijen 1920824 Nov 16 19:56 /scratch/bsonghao/nh3_diabatization_2d_at_mode_7_8_dist0.4_0.7.F74
-rw-r--r-- 1 bsonghao nooijen       0 Nov 16 19:56 /scratch/bsonghao/nh3_diabatization_2d_at_mode_7_8_dist0.4_0.7.F75
-rw-r--r-- 1 bsonghao nooijen   58848 Nov 16 19:56 /scratch/bsonghao/nh3_diabatization_2d_at_mode_7_8_dist0.4_0.7.F76
-rw-r--r-- 1 bsonghao nooijen       0 Nov 16 19:56 /scratch/bsonghao/nh3_diabatization_2d_at_mode_7_8_dist0.4_0.7.F77
-rw-r--r-- 1 bsonghao nooijen    1864 Nov 16 19:56 /scratch/bsonghao/nh3_diabatization_2d_at_mode_7_8_dist0.4_0.7.F78
-rw-r--r-- 1 bsonghao nooijen   39208 Nov 16 19:56 /scratch/bsonghao/nh3_diabatization_2d_at_mode_7_8_dist0.4_0.7.F79
-rw-r--r-- 1 bsonghao nooijen     104 Nov 16 19:56 /scratch/bsonghao/nh3_diabatization_2d_at_mode_7_8_dist0.4_0.7.F80
-rw-r--r-- 1 bsonghao nooijen   13472 Nov 16 19:56 /scratch/bsonghao/nh3_diabatization_2d_at_mode_7_8_dist0.4_0.7.F81
-rw-r--r-- 1 bsonghao nooijen      16 Nov 16 19:56 /scratch/bsonghao/nh3_diabatization_2d_at_mode_7_8_dist0.4_0.7.F82
-rw-r--r-- 1 bsonghao nooijen   19216 Nov 16 19:56 /scratch/bsonghao/nh3_diabatization_2d_at_mode_7_8_dist0.4_0.7.F83
-rw-r--r-- 1 bsonghao nooijen   29712 Nov 16 19:56 /scratch/bsonghao/nh3_diabatization_2d_at_mode_7_8_dist0.4_0.7.F84
-rw-r--r-- 1 bsonghao nooijen  401576 Nov 16 19:56 /scratch/bsonghao/nh3_diabatization_2d_at_mode_7_8_dist0.4_0.7.F85
-rw-r--r-- 1 bsonghao nooijen  903672 Nov 16 19:56 /scratch/bsonghao/nh3_diabatization_2d_at_mode_7_8_dist0.4_0.7.F86
-rw-r--r-- 1 bsonghao nooijen     656 Nov 16 19:56 /scratch/bsonghao/nh3_diabatization_2d_at_mode_7_8_dist0.4_0.7.F87
-rw-r--r-- 1 bsonghao nooijen   42736 Nov 16 19:56 /scratch/bsonghao/nh3_diabatization_2d_at_mode_7_8_dist0.4_0.7.F88
-rw-r--r-- 1 bsonghao nooijen     240 Nov 16 19:56 /scratch/bsonghao/nh3_diabatization_2d_at_mode_7_8_dist0.4_0.7.F89
-rw-r--r-- 1 bsonghao nooijen       0 Nov 16 19:56 /scratch/bsonghao/nh3_diabatization_2d_at_mode_7_8_dist0.4_0.7.F90
-rw-r--r-- 1 bsonghao nooijen   13760 Nov 16 19:56 /scratch/bsonghao/nh3_diabatization_2d_at_mode_7_8_dist0.4_0.7.F91
-rw-r--r-- 1 bsonghao nooijen   22776 Nov 16 19:56 /scratch/bsonghao/nh3_diabatization_2d_at_mode_7_8_dist0.4_0.7.F92
-rw-r--r-- 1 bsonghao nooijen   23168 Nov 16 19:56 /scratch/bsonghao/nh3_diabatization_2d_at_mode_7_8_dist0.4_0.7.F93
-rw-r--r-- 1 bsonghao nooijen   22776 Nov 16 19:56 /scratch/bsonghao/nh3_diabatization_2d_at_mode_7_8_dist0.4_0.7.F94
-rw-r--r-- 1 bsonghao nooijen   13760 Nov 16 19:56 /scratch/bsonghao/nh3_diabatization_2d_at_mode_7_8_dist0.4_0.7.F95
-rw-r--r-- 1 bsonghao nooijen   29440 Nov 16 19:56 /scratch/bsonghao/nh3_diabatization_2d_at_mode_7_8_dist0.4_0.7.F96
-rw-r--r-- 1 bsonghao nooijen    1184 Nov 16 19:56 /scratch/bsonghao/nh3_diabatization_2d_at_mode_7_8_dist0.4_0.7.F97
-rw-r--r-- 1 bsonghao nooijen    9808 Nov 16 19:56 /scratch/bsonghao/nh3_diabatization_2d_at_mode_7_8_dist0.4_0.7.F98
-rw-r--r-- 1 bsonghao nooijen   30264 Nov 16 19:56 /scratch/bsonghao/nh3_diabatization_2d_at_mode_7_8_dist0.4_0.7.F99
ls: No match.
ls: No match.
ls: No match.
Wed 16 Nov 2022 07:56:46 PM EST
0.283u 0.045s 0:18.25 1.7%	0+0k 48+224io 0pf+0w
