----- GAMESS execution script 'rungms' -----
This job is running on host io002
under operating system Linux at Wed 16 Nov 2022 06:46:29 PM EST
Available scratch disk space (Kbyte units) at beginning of the job is
Filesystem       1K-blocks       Used   Available Use% Mounted on
/dev/sdc1      15378471580 3278917120 11318349060  23% /scratch
GAMESS temporary binary files will be written to /scratch/bsonghao
GAMESS supplementary output files will be written to /home/bsonghao/.gamess_ascii_files/267638
Copying input file nh3_diabatization_2d_at_mode_7_8_dist-0.5_0.3.inp to your run's scratch directory...
cp nh3_diabatization_2d_at_mode_7_8_dist-0.5_0.3.inp /scratch/bsonghao/nh3_diabatization_2d_at_mode_7_8_dist-0.5_0.3.F05
unset echo
/home/bjb2chen/gamess/ddikick.x /home/bjb2chen/gamess/gamess.00.x nh3_diabatization_2d_at_mode_7_8_dist-0.5_0.3 -ddi 1 1 io002 -scr /scratch/bsonghao

 Distributed Data Interface kickoff program.
 Initiating 1 compute processes on 1 nodes to run the following command:
 /home/bjb2chen/gamess/gamess.00.x nh3_diabatization_2d_at_mode_7_8_dist-0.5_0.3 

          ******************************************************
          *         GAMESS VERSION = 02 AUG 2018 (R2)         *
          *             FROM IOWA STATE UNIVERSITY             *
          * M.W.SCHMIDT, K.K.BALDRIDGE, J.A.BOATZ, S.T.ELBERT, *
          *   M.S.GORDON, J.H.JENSEN, S.KOSEKI, N.MATSUNAGA,   *
          *          K.A.NGUYEN, S.J.SU, T.L.WINDUS,           *
          *       TOGETHER WITH M.DUPUIS, J.A.MONTGOMERY       *
          *         J.COMPUT.CHEM.  14, 1347-1363(1993)        *
          **************** 64 BIT LINUX VERSION ****************

  SINCE 1993, STUDENTS AND POSTDOCS WORKING AT IOWA STATE UNIVERSITY
  AND ALSO IN THEIR VARIOUS JOBS AFTER LEAVING ISU HAVE MADE IMPORTANT
  CONTRIBUTIONS TO THE CODE:
     IVANA ADAMOVIC, CHRISTINE AIKENS, YURI ALEXEEV, POOJA ARORA,
     ANDREY ASADCHEV, ROB BELL, PRADIPTA BANDYOPADHYAY, JONATHAN BENTZ,
     BRETT BODE, KURT BRORSEN, CALEB CARLIN, GALINA CHABAN, WEI CHEN,
     CHEOL HO CHOI, PAUL DAY, ALBERT DEFUSCO, NUWAN DESILVA, TIM DUDLEY,
     DMITRI FEDOROV, ALEX FINDLATER, GRAHAM FLETCHER, MARK FREITAG,
     KURT GLAESEMANN, ANASTASIA GUININA,
     DAN KEMP, GRANT MERRILL, NORIYUKI MINEZAWA, JONATHAN MULLIN,
     TAKESHI NAGATA, SEAN NEDD, HEATHER NETZLOFF, BOSILJKA NJEGIC, RYAN OLSON,
     MIKE PAK, BUU PHAM,
     SPENCER PRUITT, LUKE ROSKOP, JIM SHOEMAKER, LYUDMILA SLIPCHENKO,
     TONY SMITH, SAROM SOK LEANG, JIE SONG, TETSUYA TAKETSUGU, SIMON WEBB,
     PENG XU, SOOHAENG YOO, FEDERICO ZAHARIEV

  ADDITIONAL CODE HAS BEEN PROVIDED BY COLLABORATORS IN OTHER GROUPS:
     IOWA STATE UNIVERSITY:
          JOE IVANIC, AARON WEST, LAIMUTIS BYTAUTAS, KLAUS RUEDENBERG
     UNIVERSITY OF TOKYO: KIMIHIKO HIRAO, TAKAHITO NAKAJIMA,
          TAKAO TSUNEDA, MUNEAKI KAMIYA, SUSUMU YANAGISAWA,
          KIYOSHI YAGI, MAHITO CHIBA, SEIKEN TOKURA, NAOAKI KAWAKAMI
     UNIVERSITY OF AARHUS: FRANK JENSEN
     UNIVERSITY OF IOWA: VISVALDAS KAIRYS, HUI LI
     NATIONAL INST. OF STANDARDS AND TECHNOLOGY: WALT STEVENS, DAVID GARMER
     UNIVERSITY OF PISA: BENEDETTA MENNUCCI, JACOPO TOMASI
     UNIVERSITY OF MEMPHIS: HENRY KURTZ, PRAKASHAN KORAMBATH
     UNIVERSITY OF ALBERTA: TOBY ZENG, MARIUSZ KLOBUKOWSKI
     UNIVERSITY OF NEW ENGLAND: MARK SPACKMAN
     MIE UNIVERSITY: HIROAKI UMEDA
     NAT. INST. OF ADVANCED INDUSTRIAL SCIENCE AND TECHNOLOGY: KAZUO KITAURA
     MICHIGAN STATE UNIVERSITY:
          KAROL KOWALSKI, MARTA WLOCH, JEFFREY GOUR, JESSE LUTZ,
          WEI LI, JUN SHEN, J. EMILIANO DEUSTUA, PIOTR PIECUCH
     UNIVERSITY OF MINNESOTA:
          YINAN SHU
     UNIVERSITY OF SILESIA: MONIKA MUSIAL, STANISLAW KUCHARSKI
     FACULTES UNIVERSITAIRES NOTRE-DAME DE LA PAIX:
          OLIVIER QUINET, BENOIT CHAMPAGNE
     UNIVERSITY OF CALIFORNIA - SANTA BARBARA: BERNARD KIRTMAN
     INSTITUTE FOR MOLECULAR SCIENCE:
          KAZUYA ISHIMURA, MICHIO KATOUDA, AND SHIGERU NAGASE
     UNIVERSITY OF NOTRE DAME: ANNA POMOGAEVA, DAN CHIPMAN
     KYUSHU UNIVERSITY:
          HARUYUKI NAKANO,
          FENG LONG GU, JACEK KORCHOWIEC, MARCIN MAKOWSKI, AND YURIKO AOKI,
          HIROTOSHI MORI AND EISAKU MIYOSHI
     PENNSYLVANIA STATE UNIVERSITY:
          TZVETELIN IORDANOV, CHET SWALINA, JONATHAN SKONE,
          SHARON HAMMES-SCHIFFER
     WASEDA UNIVERSITY:
          MASATO KOBAYASHI, TOMOKO AKAMA, TSUGUKI TOUMA,
          TAKESHI YOSHIKAWA, YASUHIRO IKABATA, JUNJI SEINO,
          YUYA NAKAJIMA, HIROMI NAKAI
     NANJING UNIVERSITY: SHUHUA LI
     UNIVERSITY OF NEBRASKA:
          PEIFENG SU, DEJUN SI, NANDUN THELLAMUREGE, YALI WANG, HUI LI
     UNIVERSITY OF ZURICH: ROBERTO PEVERATI, KIM BALDRIDGE
     N. COPERNICUS UNIVERSITY AND JACKSON STATE UNIVERSITY:
          MARIA BARYSZ
     UNIVERSITY OF COPENHAGEN: Jimmy Kromann, CASPER STEINMANN
     TOKYO INSTITUTE OF TECHNOLOGY: HIROYA NAKATA
     NAGOYA UNIVERSITY: YOSHIO NISHIMOTO, STEPHAN IRLE
     MOSCOW STATE UNIVERSITY: VLADIMIR MIRONOV

 EXECUTION OF GAMESS BEGUN Wed Nov 16 18:46:29 2022

            ECHO OF THE FIRST FEW INPUT CARDS -
 INPUT CARD> $system kdiag=3 mwords=100 memddi=1000 parall=.t. $end                         
 INPUT CARD> $contrl runtyp=energy ispher=1 $end                                            
 INPUT CARD> $contrl icut=9 itol=20 inttyp=rysquad qmttol=1.0d-05 nosym=1 $end              
 INPUT CARD> $scf    npunch=2 conv=1.0d-06 dirscf=.t.      $end                             
 INPUT CARD> $contrl scftyp=mcscf  mult=2 maxit=200 icharg=1 mplevl=2 $end                  
 INPUT CARD> $guess  guess=moread norb=29 purify=.t. $end                                   
 INPUT CARD> $basis  gbasis=ccd $end                                                        
 INPUT CARD> $mcscf  cistep=gmcci fullnr=.t. finci=mos                                      
 INPUT CARD>         acurcy=1.d-6 maxit=100 $end                                            
 INPUT CARD> $trans  dirtrf=.t. $end                                                        
 INPUT CARD> $mrmp   mrpt=gmcpt rdvecs=.f. $end                                             
 INPUT CARD> $gmcpt  nmofzc=0 nmodoc=1 nmoact=7 nelact=7 stsym(1)=A                         
 INPUT CARD>         reftyp=ormas nspace=1 mstart(1)=2 mine(1)=7 maxe(1)=7                  
 INPUT CARD>         kstate(1)=1,1,1                                                        
 INPUT CARD>         wstate(1)=1,1,1                                                        
 INPUT CARD>         iwgt=0 thrwgt=-1.0 krot=.f. kszdoe=.f. knospn=.f.                      
 INPUT CARD>         thrde=-1.0 edshft=0.02 $end                                            
 INPUT CARD> $data                                                                          
 INPUT CARD> NH3+ 3 states calculation at NH3 structure.                                    
 INPUT CARD> c1                                                                             
 INPUT CARD>N 7.0 -0.018686754000000003 0.031144515 -0.1693808462                           
 INPUT CARD>H 1.0 -0.50365026 0.8866651048 0.10256122710000001                              
 INPUT CARD>H 1.0 -0.121523681 -0.9545499518 0.33116859610000005                            
 INPUT CARD>H 1.0 0.884831414 -0.364878714 0.33565334210000003                              
 INPUT CARD>$end                                                                            
 INPUT CARD>--- OPTIMIZED RHF      MO-S --- GENERATED AT Mon Nov 14 16:47:08 2022           
 INPUT CARD>E=      -56.3825050291, E(NUC)=   11.8429239490                                 
 INPUT CARD> $VEC                                                                           
 INPUT CARD> 1  1-1.00134066E+00-2.25158504E-03 3.44925845E-03 0.00000000E+00 0.00000000E+00
 INPUT CARD> 1  2-2.13170927E-03 0.00000000E+00 0.00000000E+00 6.57129898E-04-6.87950443E-05
 INPUT CARD> 1  3-6.87950443E-05 1.37590089E-04 0.00000000E+00 0.00000000E+00 0.00000000E+00
 INPUT CARD> 1  4 3.25502815E-04-4.84772356E-04 3.62525460E-04-6.27912517E-04-3.45956485E-04
 INPUT CARD> 1  5 3.25502815E-04-4.84772356E-04 3.62525460E-04 6.27912517E-04-3.45956485E-04
 INPUT CARD> 1  6 3.25502815E-04-4.84772356E-04-7.25050921E-04 0.00000000E+00-3.45956485E-04
 INPUT CARD> 2  1 1.31286642E-02-4.05911371E-01-2.82090992E-01 0.00000000E+00 0.00000000E+00
 INPUT CARD> 2  2-7.71489043E-02 0.00000000E+00 0.00000000E+00 9.73717494E-03 6.62450916E-04
 INPUT CARD> 2  3 6.62450916E-04-1.32490183E-03 0.00000000E+00 0.00000000E+00 0.00000000E+00
 INPUT CARD> 2  4-1.96090317E-01-1.96656153E-02-1.74855877E-02 3.02859263E-02 8.68214399E-03
 INPUT CARD> 2  5-1.96090317E-01-1.96656153E-02-1.74855877E-02-3.02859263E-02 8.68214399E-03
 INPUT CARD> 2  6-1.96090317E-01-1.96656153E-02 3.49711754E-02 0.00000000E+00 8.68214399E-03
 INPUT CARD> 3  1 0.00000000E+00 0.00000000E+00 0.00000000E+00 4.48608762E-01 0.00000000E+00
 INPUT CARD> 3  2 0.00000000E+00 2.18692520E-01 0.00000000E+00 0.00000000E+00 1.30198027E-02
 INPUT CARD> 3  3-1.30198027E-02 0.00000000E+00 0.00000000E+00 2.71832968E-02 0.00000000E+00
 INPUT CARD> 3  4-1.85332726E-01-7.03958951E-02 8.47929477E-03 1.95242443E-02 8.32835058E-03
 INPUT CARD> 3  5-1.85332726E-01-7.03958951E-02 8.47929477E-03-1.95242443E-02 8.32835058E-03
 INPUT CARD> 3  6 3.70665453E-01 1.40791790E-01-2.53376884E-02 0.00000000E+00-1.66567012E-02
 INPUT CARD> 4  1 0.00000000E+00 0.00000000E+00 0.00000000E+00 0.00000000E+00 4.48608762E-01
 INPUT CARD> 4  2 0.00000000E+00 0.00000000E+00 2.18692520E-01 0.00000000E+00 0.00000000E+00
 INPUT CARD> 4  3 0.00000000E+00 0.00000000E+00-1.50339731E-02 0.00000000E+00 2.71832968E-02
 INPUT CARD> 4  4 3.21005698E-01 1.21929267E-01 1.95242443E-02-1.40653607E-02-1.44251263E-02
  100000000 WORDS OF MEMORY AVAILABLE

     BASIS OPTIONS
     -------------
     GBASIS=CCD          IGAUSS=       0      POLAR=NONE    
     NDFUNC=       0     NFFUNC=       0     DIFFSP=       F
     NPFUNC=       0      DIFFS=       F     BASNAM=        


     RUN TITLE
     ---------
  NH3+ 3 states calculation at NH3 structure.                                    

 THE POINT GROUP OF THE MOLECULE IS C1      
 THE ORDER OF THE PRINCIPAL AXIS IS     0

 ATOM      ATOMIC                      COORDINATES (BOHR)
           CHARGE         X                   Y                   Z
 N           7.0    -0.0353128447        0.0588545994       -0.3200833869
 H           1.0    -0.9517609850        1.6755540909        0.1938126162
 H           1.0    -0.2296464581       -1.8038378505        0.6258179024
 H           1.0     1.6720889178       -0.6895207882        0.6342928434

          INTERNUCLEAR DISTANCES (ANGS.)
          ------------------------------

                1 N          2 H          3 H          4 H     

   1 N       0.0000000    1.0203223 *  1.1102787 *  1.1082595 *
   2 H       1.0203223 *  0.0000000    1.8942954 *  1.8837662 *
   3 H       1.1102787 *  1.8942954 *  0.0000000    1.1663974 *
   4 H       1.1082595 *  1.8837662 *  1.1663974 *  0.0000000  

  * ... LESS THAN  3.000


     ATOMIC BASIS SET
     ----------------
 THE CONTRACTED PRIMITIVE FUNCTIONS HAVE BEEN UNNORMALIZED
 THE CONTRACTED BASIS FUNCTIONS ARE NOW NORMALIZED TO UNITY

  SHELL TYPE  PRIMITIVE        EXPONENT          CONTRACTION COEFFICIENT(S)

 N         

      1   S       1          9046.0000000    0.000699617413
      1   S       2          1357.0000000    0.005386054630
      1   S       3           309.3000000    0.027391021189
      1   S       4            87.7300000    0.103150591982
      1   S       5            28.5600000    0.278570663317
      1   S       6            10.2100000    0.448294849454
      1   S       7             3.8380000    0.278085928395
      1   S       8             0.7466000    0.015431561233

      2   S       9          9046.0000000   -0.000304990096
      2   S      10          1357.0000000   -0.002408026379
      2   S      11           309.3000000   -0.011944448725
      2   S      12            87.7300000   -0.048925992909
      2   S      13            28.5600000   -0.134472724725
      2   S      14            10.2100000   -0.315112577700
      2   S      15             3.8380000   -0.242857832550
      2   S      16             0.7466000    1.094382206854

      3   S      17             0.2248000    1.000000000000

      4   P      18            13.5500000    0.058905676772
      4   P      19             2.9170000    0.320461106714
      4   P      20             0.7973000    0.753042061792

      5   P      21             0.2185000    1.000000000000

      6   D      22             0.8170000    1.000000000000

 H         

      7   S      23            13.0100000    0.033498726390
      7   S      24             1.9620000    0.234800801174
      7   S      25             0.4446000    0.813682957883

      8   S      26             0.1220000    1.000000000000

      9   P      27             0.7270000    1.000000000000

 H         

     10   S      28            13.0100000    0.033498726390
     10   S      29             1.9620000    0.234800801174
     10   S      30             0.4446000    0.813682957883

     11   S      31             0.1220000    1.000000000000

     12   P      32             0.7270000    1.000000000000

 H         

     13   S      33            13.0100000    0.033498726390
     13   S      34             1.9620000    0.234800801174
     13   S      35             0.4446000    0.813682957883

     14   S      36             0.1220000    1.000000000000

     15   P      37             0.7270000    1.000000000000

 TOTAL NUMBER OF BASIS SET SHELLS             =   15
 NUMBER OF CARTESIAN GAUSSIAN BASIS FUNCTIONS =   30
 NOTE: THIS RUN WILL RESTRICT THE MO VARIATION SPACE TO SPHERICAL HARMONICS.
 THE NUMBER OF ORBITALS KEPT IN THE VARIATIONAL SPACE WILL BE PRINTED LATER.
 NUMBER OF ELECTRONS                          =    9
 CHARGE OF MOLECULE                           =    1
 SPIN MULTIPLICITY                            =    2
 NUMBER OF OCCUPIED ORBITALS (ALPHA)          =    5
 NUMBER OF OCCUPIED ORBITALS (BETA )          =    4
 TOTAL NUMBER OF ATOMS                        =    4
 THE NUCLEAR REPULSION ENERGY IS       11.3231253471

     $CONTRL OPTIONS
     ---------------
 SCFTYP=MCSCF        RUNTYP=ENERGY       EXETYP=RUN     
 MPLEVL=       2     CITYP =NONE         CCTYP =NONE         VBTYP =NONE    
 DFTTYP=NONE         TDDFT =NONE    
 MULT  =       2     ICHARG=       1     NZVAR =       0     COORD =UNIQUE  
 PP    =NONE         RELWFN=NONE         LOCAL =NONE         NUMGRD=       F
 ISPHER=       1     NOSYM =       1     MAXIT =     200     UNITS =ANGS    
 PLTORB=       F     MOLPLT=       F     AIMPAC=       F     FRIEND=        
 NPRINT=       7     IREST =       0     GEOM  =INPUT   
 NORMF =       0     NORMP =       0     ITOL  =      20     ICUT  =       9
 INTTYP=RYSQUAD      GRDTYP=BEST         QMTTOL= 1.0E-05

     $SYSTEM OPTIONS
     ---------------
  REPLICATED MEMORY=   100000000 WORDS (ON EVERY NODE).
 DISTRIBUTED MEMDDI=        1000 MILLION WORDS IN AGGREGATE,
 MEMDDI DISTRIBUTED OVER   1 PROCESSORS IS  1000000000 WORDS/PROCESSOR.
 TOTAL MEMORY REQUESTED ON EACH PROCESSOR=  1100000000 WORDS.
 TIMLIM=      525600.00 MINUTES, OR     365.0 DAYS.
 PARALL= T  BALTYP=  DLB     KDIAG=    3  COREFL= F
 MXSEQ2=     300 MXSEQ3=     150  mem10=         0

          ----------------
          PROPERTIES INPUT
          ----------------

     MOMENTS            FIELD           POTENTIAL          DENSITY
 IEMOM =       1   IEFLD =       0   IEPOT =       0   IEDEN =       0
 WHERE =COMASS     WHERE =NUCLEI     WHERE =NUCLEI     WHERE =NUCLEI  
 OUTPUT=BOTH       OUTPUT=BOTH       OUTPUT=BOTH       OUTPUT=BOTH    
 IEMINT=       0   IEFINT=       0                     IEDINT=       0
                                                       MORB  =       0

     -------------------------------
     INTEGRAL TRANSFORMATION OPTIONS
     -------------------------------
     NWORD  =            0
     CUTOFF = 1.0E-09     MPTRAN =       0
     DIRTRF =       T     AOINTS =DUP     

          ----------------------
          MCSCF INPUT PARAMETERS
          ----------------------
 CONVERGER SELECTION: FOCAS = F  SOSCF = F  FULLNR = T  QUD = F  JACOBI = F
 SECULAR EQUATION METHOD CISTEP = GMCCI   
 --- GENERAL INPUT OPTIONS:
 MAXIT =     100  MICIT =       1  ACURCY= 1.000E-06
 DAMP  =   0.000  CANONC=       T  ENGTOL= 1.000E-10
 EKT   =       F  NPUNCH=       2  NWORD =         0
 REGENERATE CI AFTER CONVERGENCE = NONE    
 DIABATIZATION AFTER CONVERGENCE =        F
 --- INPUT FOR FULLNR CONVERGER:
 METHOD=DM2       FORS  =       F  DROPC =       T
 LINSER=       F  FCORE =       F  NORB  =      30

          ----------------------
          INTEGRAL INPUT OPTIONS
          ----------------------
 NOPK  =       1 NORDER=       0 SCHWRZ=       T

 ------------------------------------------
 MULTIREFERENCE PERTURBATION THEORY CONTROL
 ------------------------------------------
 MRPT=GMCPT    READ CONVERGED MCSCF VECTORS= F


     ------------------------------------------
     THE POINT GROUP IS C1 , NAXIS= 1, ORDER= 1
     ------------------------------------------

 -- VARIATIONAL SPACE WILL BE RESTRICTED TO PURE SPHERICAL HARMONICS ONLY --
 AFTER EXCLUDING CONTAMINANT COMBINATIONS FROM THE CARTESIAN GAUSSIAN BASIS
 SET, THE NUMBER OF SPHERICAL HARMONICS KEPT IN THE VARIATION SPACE IS   29

     DIMENSIONS OF THE SYMMETRY SUBSPACES ARE
 A   =   29

 ..... DONE SETTING UP THE RUN .....
 CPU     0: STEP CPU TIME=     0.04 TOTAL CPU TIME=          0.0 (      0.0 MIN)
 TOTAL WALL CLOCK TIME=          0.0 SECONDS, CPU UTILIZATION IS   100.00%

          ********************
          1 ELECTRON INTEGRALS
          ********************
 TIME TO DO   DIPOLE INTEGRALS=      0.00
 ...... END OF ONE-ELECTRON INTEGRALS ......
 CPU     0: STEP CPU TIME=     0.00 TOTAL CPU TIME=          0.0 (      0.0 MIN)
 TOTAL WALL CLOCK TIME=          0.0 SECONDS, CPU UTILIZATION IS   100.00%

          -------------
          GUESS OPTIONS
          -------------
          GUESS =MOREAD            NORB  =      29          NORDER=       0
          MIX   =       F          PRTMO =       F          PUNMO =       F
          TOLZ  = 1.0E-08          TOLE  = 1.0E-05
          SYMDEN=       F          PURIFY=       T

 INITIAL GUESS ORBITALS GENERATED BY MOREAD   ROUTINE.

 STATISTICS FOR GENERATION OF SYMMETRY ORBITAL -Q- MATRIX
 NUMBER OF CARTESIAN ATOMIC ORBITALS=         30
 NUMBER OF SPHERICAL CONTAMINANTS DROPPED=     1
 NUMBER OF LINEARLY DEPENDENT MOS DROPPED=     0
 TOTAL NUMBER OF MOS IN VARIATION SPACE=      29
 ORBITAL PURIFICATION WILL OCCUR

 SYMMETRIES FOR INITIAL GUESS ORBITALS FOLLOW.   BOTH SET(S).
     5 ORBITALS ARE OCCUPIED (    1 CORE ORBITALS).
     1=A        2=A        3=A        4=A        5=A        6=A        7=A   
     8=A        9=A       10=A       11=A       12=A       13=A       14=A   
    15=A       16=A       17=A       18=A       19=A       20=A       21=A   
    22=A       23=A       24=A       25=A       26=A       27=A       28=A   
    29=A   
 ...... END OF INITIAL ORBITAL SELECTION ......
 CPU     0: STEP CPU TIME=     0.00 TOTAL CPU TIME=          0.0 (      0.0 MIN)
 TOTAL WALL CLOCK TIME=          0.1 SECONDS, CPU UTILIZATION IS    80.00%

                    ----------------------
                    AO INTEGRAL TECHNOLOGY
                    ----------------------
     S,P,L SHELL ROTATED AXIS INTEGRALS, REPROGRAMMED BY
        KAZUYA ISHIMURA (IMS) AND JOSE SIERRA (SYNSTAR).
     S,P,D,L SHELL ROTATED AXIS INTEGRALS PROGRAMMED BY
        KAZUYA ISHIMURA (INSTITUTE FOR MOLECULAR SCIENCE).
     S,P,D,F,G SHELL TO TOTAL QUARTET ANGULAR MOMENTUM SUM 5,
        ERIC PROGRAM BY GRAHAM FLETCHER (ELORET AND NASA ADVANCED
        SUPERCOMPUTING DIVISION, AMES RESEARCH CENTER).
     S,P,D,F,G,L SHELL GENERAL RYS QUADRATURE PROGRAMMED BY
        MICHEL DUPUIS (PACIFIC NORTHWEST NATIONAL LABORATORY).

          --------------------
          2 ELECTRON INTEGRALS
          --------------------

 DIRECT SCF METHOD SKIPS INTEGRAL STORAGE ON DISK.
 DIRECT TRANSFORMATION SKIPS AO INTEGRAL STORAGE ON DISK.
  ...... END OF TWO-ELECTRON INTEGRALS .....
 STEP CPU TIME =     0.02 TOTAL CPU TIME =          0.1 (      0.0 MIN)
 TOTAL WALL CLOCK TIME=          0.1 SECONDS, CPU UTILIZATION IS    75.00%
 DDI: Creating Array [0] - 900 x 36 = 32400 words.
 DDI: Creating Array [1] - 21 x 288 = 6048 words.
 DDI: Creating Array [2] - 36 x 36 = 1296 words.
 DDI: Creating Array [3] - 465 x 36 = 16740 words.

          -----------------
          MCSCF CALCULATION
          -----------------

 ----- NUCLEAR ENERGY ----- =        11.3231253471

     -------------------------------------------------
     GMC-PT/GMC-QDPT or general MCSCF input parameters
     -------------------------------------------------
 # of frozen core orbs. =         0 ->         0
 # of doubly occ. orbs. =         1
 # of active      orbs. =         7
 # of virtual     orbs. =        21
 # of active electrons  =         7
 # of states in CI      =         3
 Highest state in CI    =         3
 kstate =  1 1 1
 avecoe =  0.333 0.333 0.333
 State symmetry           = A           
 Assigned symmetry number = 1

 <<<Act. MO sym.: 1111111

 <<<Division of 1-ext.:  0
 <<<Division of 2-ext.:  0

 *** Reference space

 Reference type: ORMAS (= Occupation restricted multiple active space)
 # of orbitals          =  7
 # of minimum electrons =  7
 # of maximum electrons =  7
 State symmetry    =    1 (input)
 2*Sz              =    1 (input)
 Spin multiplicity =    2 (input)
 Dimension of reference space =      1225  (from      3432 walks)

 Dimension of reference space =      1225  (from      1225 walks)

 <<<Ionized spaces for Ref-CI:
      0:         1225 /   -1-0:         1960 /  0-1-0:         2891

 EVALUATING EXCHANGE INTEGRALS FOR DIRECT INTEGRAL TRANSFORMATION
 SCHWARZ INEQUALITY OVERHEAD:       465 INTEGRALS, T=        0.00

     --------------------------------------------
     PARTIAL TWO ELECTRON INTEGRAL TRANSFORMATION
     --------------------------------------------

 NUMBER OF CORE MOLECULAR ORBITALS     =    1
 NUMBER OF OCCUPIED MOLECULAR ORBITALS =    8
 TOTAL NUMBER OF MOLECULAR ORBITALS    =   29
 TOTAL NUMBER OF ATOMIC ORBITALS       =   30
 THRESHOLD FOR KEEPING TRANSFORMED 2E- INTEGRALS = 1.000E-09

 -------------------------------     ------------------------------
 DISTRIBUTED DATA TRANSFORMATION     PROGRAM WRITTEN BY G. FLETCHER
 -------------------------------     ------------------------------

 THE DISTRIBUTED MEMORY REQUIRED FOR THIS STEP IS MEMDDI=         1 MWORDS
 CREATING DISTRIBUTED STORAGE FOR [VIR OCC|VIR OCC] INTEGRALS
 CREATING DISTRIBUTED STORAGE FOR [VIR OCC|OCC OCC] INTEGRALS
 CREATING DISTRIBUTED STORAGE FOR [OCC OCC|OCC OCC] INTEGRALS
 CREATING DISTRIBUTED STORAGE FOR [VIR VIR|OCC OCC] INTEGRALS
 FOR    1 PROCESSORS, THE REPLICATED MEMORY NEEDED IS       73700 WORDS.
 SCHWARZ INEQUALITY OVERHEAD:       465 INTEGRALS, T=        0.00

      DIRECT 4-INDEX TRANSFORMATION 
      SCHWARZ INEQUALITY TEST SKIPPED          0 INTEGRAL BLOCKS
 ----- FROZEN CORE ENERGY =       -47.6774896036
 ... END OF INTEGRAL TRANSFORMATION ...
 CPU     0: STEP CPU TIME=     0.22 TOTAL CPU TIME=          0.3 (      0.0 MIN)
 TOTAL WALL CLOCK TIME=          0.3 SECONDS, CPU UTILIZATION IS    93.33%

     --------------------------------     -----------------------------
     MCHF NEWTON-RAPHSON OPTIMIZATION     CODE WRITTEN BY MICHEL DUPUIS
     --------------------------------     -----------------------------
     PARALLEL VERSION WRITTEN BY G. FLETCHER (ELORET)
     NASA ADVANCED SUPERCOMPUTING DIVISION, AMES RESEARCH CENTER

 NUMBER OF INDEPENDENT ORBITAL ROTATION PARAMETERS =   175
 ..... DONE SOLVING NEWTON-RAPHSON EQUATIONS .....
 CPU     0: STEP CPU TIME=     0.89 TOTAL CPU TIME=          1.2 (      0.0 MIN)
 TOTAL WALL CLOCK TIME=          1.2 SECONDS, CPU UTILIZATION IS    99.15%
 ..... DONE WITH NTN-RPH ORBITAL ROTATIONS ..... 
 CPU     0: STEP CPU TIME=     0.00 TOTAL CPU TIME=          1.2 (      0.0 MIN)
 TOTAL WALL CLOCK TIME=          1.2 SECONDS, CPU UTILIZATION IS    98.32%
 MAXIMUM MEMORY USED BY NTN-RPH CODE WAS     57645 WORDS.

 ITER     TOTAL ENERGY      DEL(E)  LAGRANGIAN ASYMMETRY   SQCDF  MICIT   DAMP
   1      -55.617405684 -0.617405684  0.116732   12    5 1.252E-01  1   0.0000
   2      -55.665811708 -0.048406024  0.021259   12    5 4.526E-01  1   0.0000
   3      -55.700743280 -0.034931572  0.013134   11    6 2.321E-01  1   0.0220
   4      -55.716148592 -0.015405312  0.004479   11    6 4.731E-02  1   0.0052
   5      -55.718259224 -0.002110632  0.000817   12    5 1.509E-03  1   0.0000
   6      -55.718325492 -0.000066268  0.000275   24    5 1.443E-04  1   0.0000
   7      -55.718332879 -0.000007387  0.000115   12    5 2.517E-05  1   0.0000
   8      -55.718334231 -0.000001352  0.000050   23    5 5.139E-06  1   0.0000
   9      -55.718334516 -0.000000284  0.000026   23    5 1.204E-06  1   0.0000
  10      -55.718334584 -0.000000068  0.000014   23    5 3.264E-07  1   0.0000
  11      -55.718334603 -0.000000019  0.000008   23    5 1.012E-07  1   0.0000
  12      -55.718334609 -0.000000006  0.000005   23    5 3.469E-08  1   0.0000
  13      -55.718334611 -0.000000002  0.000003   23    5 1.267E-08  1   0.0000
  14      -55.718334612 -0.000000001  0.000002   23    5 4.807E-09  1   0.0000
  15      -55.718334612 -0.000000000  0.000001   23    5 1.858E-09  1   0.0000
  16      -55.718334612 -0.000000000  0.000001   23    5 7.190E-10  1   0.0000

          --------------------
          LAGRANGIAN CONVERGED
          --------------------

 FINAL MCSCF ENERGY IS      -55.7183346120 AFTER  16 ITERATIONS

 -MCCI- BASED ON OPTIMIZED ORBITALS
 ----------------------------------

 PLEASE NOTE: IF THE ACTIVE ORBITALS ARE CANONICALIZED BELOW,
 THE FOLLOWING CI EXPANSION COEFFICIENTS AND THE DENSITY DO NOT
 CORRESPOND TO THE PRINTED ORBITALS.  THE PRINTED EXPANSIONS MATCH
 THE ORBITALS USED DURING THE LAST ITERATION.  IF YOU WISH TO SEE
 CI EXPANSIONS BASED ON THE CANONICAL (OR NATURAL) ORBITALS, YOU
 MUST RUN A CI CALCULATION WITH THAT ORBITAL CHOICE READ IN $VEC.

 Averaged energy =     -55.718334612

 State #    1  Energy =     -55.853251887  S =  0.500

      Det      Coef    Occupancy (Ignoring core)
      ---      ----    --------- --------- -----
        1   -0.944051  11110001110000
        5    0.067277  01111001110000
        8    0.129355  10110101110000
       17    0.132785  11010011110000
       36    0.084097  11110001101000
       71    0.067192  11110001011000
      211   -0.051375  11110000110100
      386   -0.097922  11110001010010
      393   -0.064968  10110101010010
      701   -0.105956  11110001100001
      717   -0.055099  11010011100001

 State #    2  Energy =     -55.750371974  S =  0.500

      Det      Coef    Occupancy (Ignoring core)
      ---      ----    --------- --------- -----
       36   -0.544786  11110001101000
       43    0.056292  10110101101000
       52    0.051435  11010011101000
       71    0.795994  11110001011000
       75   -0.055507  01111001011000
       78   -0.073330  10110101011000
       87   -0.085863  11010011011000
      456   -0.061642  11110001001010
      806   -0.082312  11110001001001

 State #    3  Energy =     -55.551379975  S =  0.500

      Det      Coef    Occupancy (Ignoring core)
      ---      ----    --------- --------- -----
        1   -0.105896  11110001110000
       36   -0.792478  11110001101000
       43    0.064526  10110101101000
       52    0.051155  11010011101000
       71   -0.541164  11110001011000
      281   -0.063064  11110000101100
      456   -0.072541  11110001001010
      463   -0.059366  10110101001010
      806    0.053700  11110001001001

 DENSITY MATRIX OVER ACTIVE MO-S

             1           2           3           4           5

    1    1.9755140
    2    0.0052954   1.6311645
    3   -0.0067471  -0.0027297   1.6333181
    4    0.0022604   0.0002774  -0.0002006   1.6543110
    5    0.1034411  -0.0158698   0.0206883   0.0034487   0.0307196
    6   -0.0062506  -0.1429458   0.0181117   0.0165673   0.0002768
    7   -0.0087669  -0.0062333   0.1508948   0.0200168  -0.0000390

             6           7

    6    0.0383138
    7   -0.0025008   0.0366590

 FORMING THE "STANDARD FOCK OPERATOR" IN DIRECT AO INTEGRAL MODE...
 ONLY THE    1 CORE AND   21 VIRTUAL ORBITALS WILL BE CANONICALIZED

          ----------------------
          MCSCF NATURAL ORBITALS
          ----------------------

                      1          2          3          4          5
                  -15.9867     1.9813     1.6559     1.6500     1.6406
                     A          A          A          A          A   
    1  N  1  S    1.001178   0.008172  -0.009549   0.003947  -0.000091
    2  N  1  S   -0.001805   0.435090  -0.138654   0.133572  -0.001542
    3  N  1  S   -0.006242   0.319790  -0.233098   0.181006  -0.002367
    4  N  1  X   -0.000095   0.013096  -0.131355  -0.195537   0.471842
    5  N  1  Y    0.000173  -0.020634   0.225712   0.339481   0.271686
    6  N  1  Z    0.001187   0.089019   0.530467  -0.250956  -0.000250
    7  N  1  X   -0.000022   0.001746  -0.061250  -0.056311   0.264615
    8  N  1  Y    0.000040  -0.003091   0.103458   0.097469   0.152053
    9  N  1  Z   -0.000549   0.015610   0.356321  -0.145619  -0.000884
   10  N  1 XX   -0.000093  -0.001923  -0.011689   0.003788   0.009333
   11  N  1 YY    0.000330   0.001786  -0.009173   0.007293  -0.009322
   12  N  1 ZZ   -0.000238   0.000137   0.020862  -0.011080  -0.000011
   13  N  1 XY   -0.000412  -0.003622  -0.002299  -0.003085  -0.005987
   14  N  1 XZ    0.000034   0.001451  -0.004587  -0.009890   0.021445
   15  N  1 YZ   -0.000052  -0.002475   0.008067   0.016986   0.012324
   16  H  2  S   -0.002089   0.173818   0.258008   0.287304   0.000935
   17  H  2  S    0.000682  -0.001630   0.039842   0.024861  -0.000219
   18  H  2  X   -0.000551   0.017218   0.013892   0.014397   0.016991
   19  H  2  Y    0.000969  -0.030152  -0.024678  -0.025634   0.009383
   20  H  2  Z    0.000372  -0.003071   0.011919  -0.020383  -0.000032
   21  H  3  S   -0.001623   0.187595   0.010045  -0.256551  -0.285287
   22  H  3  S    0.000311   0.003097   0.017308  -0.035952  -0.094703
   23  H  3  X   -0.000140   0.004690  -0.001340  -0.019368   0.009298
   24  H  3  Y   -0.000816   0.032365   0.008354  -0.022540  -0.025907
   25  H  3  Z    0.000459  -0.011097   0.023276   0.002721   0.014840
   26  H  4  S   -0.001630   0.188906   0.011067  -0.256740   0.285889
   27  H  4  S    0.000308   0.003439   0.017316  -0.036020   0.094838
   28  H  4  X    0.000780  -0.030578  -0.006981   0.029004  -0.017772
   29  H  4  Y   -0.000284   0.012006   0.005407   0.005995   0.020695
   30  H  4  Z    0.000463  -0.011389   0.023222   0.002845  -0.015152

                      6          7          8
                    0.0289     0.0254     0.0180
                     A          A          A   
    1  N  1  S   -0.006090   0.174982  -0.150960
    2  N  1  S   -0.020825   0.619018  -0.439983
    3  N  1  S   -0.003177   0.208062   0.039394
    4  N  1  X    0.694948   0.198191   0.424625
    5  N  1  Y    0.403014  -0.299752  -0.756522
    6  N  1  Z   -0.014158   0.609767  -0.162907
    7  N  1  X   -0.036200   0.048593   0.049998
    8  N  1  Y   -0.019150  -0.083777  -0.088153
    9  N  1  Z    0.001777  -0.038258   0.069916
   10  N  1 XX   -0.034592   0.023448   0.006481
   11  N  1 YY    0.034690  -0.021677   0.009043
   12  N  1 ZZ   -0.000098  -0.001770  -0.015524
   13  N  1 XY    0.020385   0.046766  -0.000664
   14  N  1 XZ   -0.017476  -0.023570  -0.019501
   15  N  1 YZ   -0.011144   0.038877   0.035617
   16  H  2  S    0.014895  -0.279929   0.867290
   17  H  2  S    0.001790  -0.011513   0.147690
   18  H  2  X   -0.007038  -0.020603   0.043280
   19  H  2  Y   -0.005799   0.035865  -0.076153
   20  H  2  Z   -0.000121  -0.001347   0.019725
   21  H  3  S    0.631996  -0.509959  -0.174212
   22  H  3  S    0.199361  -0.068039  -0.045971
   23  H  3  X   -0.009831  -0.038486  -0.025270
   24  H  3  Y    0.052103  -0.049672   0.003686
   25  H  3  Z   -0.016936  -0.018911  -0.005861
   26  H  4  S   -0.609782  -0.542205  -0.162209
   27  H  4  S   -0.196749  -0.077868  -0.041789
   28  H  4  X    0.037096   0.064225   0.008115
   29  H  4  Y   -0.033838   0.007619   0.024987
   30  H  4  Z    0.018205  -0.017494  -0.005823

          ------------------------
          MCSCF OPTIMIZED ORBITALS
          ------------------------

                      1          2          3          4          5
                  -15.9867     0.0000     0.0000     0.0000     0.0000
                     A          A          A          A          A   
    1  N  1  S    1.001178  -0.002436   0.007942  -0.011303  -0.012194
    2  N  1  S   -0.001805   0.400235  -0.006192   0.008468  -0.186175
    3  N  1  S   -0.006242   0.312101  -0.033518   0.045089  -0.286101
    4  N  1  X   -0.000095   0.002018   0.445913   0.078892  -0.022102
    5  N  1  Y    0.000173  -0.002688   0.011147   0.402000   0.037214
    6  N  1  Z    0.001187   0.051595  -0.000457   0.001174   0.586149
    7  N  1  X   -0.000022  -0.002350   0.260370   0.092073  -0.028696
    8  N  1  Y    0.000040   0.003067   0.056374   0.188269   0.047168
    9  N  1  Z   -0.000549   0.016325  -0.020430   0.028193   0.384859
   10  N  1 XX   -0.000093  -0.003111   0.010507   0.006172  -0.012029
   11  N  1 YY    0.000330   0.003210  -0.011729  -0.004400  -0.011335
   12  N  1 ZZ   -0.000238  -0.000099   0.001222  -0.001773   0.023364
   13  N  1 XY   -0.000412  -0.006116  -0.004567  -0.007014  -0.000575
   14  N  1 XZ    0.000034   0.002174   0.026250   0.002185  -0.000046
   15  N  1 YZ   -0.000052  -0.003738  -0.002053   0.026195   0.000233
   16  H  2  S   -0.002089   0.204875  -0.253979   0.369876   0.116135
   17  H  2  S    0.000682   0.001213  -0.031072   0.044592   0.026769
   18  H  2  X   -0.000551   0.019073   0.001661   0.028595   0.006710
   19  H  2  Y    0.000969  -0.033482   0.030785  -0.027569  -0.011904
   20  H  2  Z    0.000372  -0.003247   0.006135  -0.008930   0.020070
   21  H  3  S   -0.001623   0.207401  -0.134317  -0.397659   0.121741
   22  H  3  S    0.000311   0.005840  -0.074561  -0.087331   0.030886
   23  H  3  X   -0.000140   0.005942   0.020208  -0.011465   0.007005
   24  H  3  Y   -0.000816   0.034548  -0.014925  -0.031314   0.017769
   25  H  3  Z    0.000459  -0.010019   0.006425   0.019264   0.019356
   26  H  4  S   -0.001630   0.207809   0.419704  -0.015561   0.121720
   27  H  4  S    0.000308   0.005863   0.108250   0.038617   0.030603
   28  H  4  X    0.000780  -0.033048  -0.031443   0.008733  -0.019119
   29  H  4  Y   -0.000284   0.011922   0.013656   0.021540   0.002611
   30  H  4  Z    0.000463  -0.010288  -0.020684   0.000752   0.019289

                      6          7          8          9         10
                    0.0000     0.0000     0.0000     0.1221     0.1951
                     A          A          A          A          A   
    1  N  1  S    0.210163  -0.057498   0.076148  -0.106607   0.020806
    2  N  1  S    0.739593  -0.149832   0.197908  -0.154100   0.021841
    3  N  1  S    0.206050   0.059588  -0.076133   1.180216  -0.333129
    4  N  1  X    0.049571   0.877520   0.052737  -0.017889  -0.063976
    5  N  1  Y   -0.083100  -0.170359   0.930581   0.029088   0.115313
    6  N  1  Z    0.636081   0.004300  -0.001246  -0.144217   0.010742
    7  N  1  X    0.032177   0.031212  -0.063324   0.108006   0.379052
    8  N  1  Y   -0.053281  -0.079167   0.092335  -0.181677  -0.667249
    9  N  1  Z   -0.054131   0.028310  -0.037976   0.345084   0.010818
   10  N  1 XX    0.021472  -0.018650  -0.030306  -0.014068   0.013856
   11  N  1 YY   -0.024113   0.028069   0.017818   0.054949  -0.045421
   12  N  1 ZZ    0.002640  -0.009420   0.012488  -0.040881   0.031565
   13  N  1 XY    0.044218   0.024448   0.002468  -0.067965   0.056713
   14  N  1 XZ   -0.016857  -0.027325   0.009628   0.028622   0.049893
   15  N  1 YZ    0.027906   0.018316  -0.039964  -0.047659  -0.087385
   16  H  2  S   -0.493180   0.429135  -0.570914   0.308314  -0.539456
   17  H  2  S   -0.051334   0.080401  -0.106700  -0.595236   1.932613
   18  H  2  X   -0.030315   0.015103  -0.030925  -0.039596   0.062011
   19  H  2  Y    0.053431  -0.038485   0.045562   0.068423  -0.109901
   20  H  2  Z   -0.007106   0.011384  -0.015718  -0.023912  -0.076066
   21  H  3  S   -0.451622   0.303028   0.585258   0.356408   0.188337
   22  H  3  S   -0.058085   0.114852   0.162231  -0.880451  -0.684795
   23  H  3  X   -0.029700  -0.027757   0.020617   0.058317  -0.000873
   24  H  3  Y   -0.048606   0.033504   0.035979  -0.077008  -0.019890
   25  H  3  Z   -0.016388  -0.020377   0.000343   0.045337   0.065957
   26  H  4  S   -0.452380  -0.647642  -0.130792   0.353740   0.189871
   27  H  4  S   -0.058000  -0.187611  -0.066192  -0.878605  -0.688853
   28  H  4  X    0.057099   0.043729   0.003535   0.038526   0.017489
   29  H  4  Y    0.002063  -0.010410  -0.039408  -0.089623  -0.008312
   30  H  4  Z   -0.015987   0.005903   0.019527   0.045872   0.065218

                     11         12         13         14         15
                    0.2391     0.5286     0.5675     0.6358     0.8483
                     A          A          A          A          A   
    1  N  1  S    0.000728  -0.105888  -0.000818   0.004931  -0.538177
    2  N  1  S    0.001569  -0.107348   0.002155  -0.052928  -1.206888
    3  N  1  S   -0.004735   0.977917   0.022408  -0.195724   2.147000
    4  N  1  X    0.014241   0.127431  -0.599133   0.192164  -0.045395
    5  N  1  Y    0.010247  -0.186518  -0.342425  -0.351982   0.079176
    6  N  1  Z    0.000905  -0.659022  -0.016232   0.287453   0.298224
    7  N  1  X   -0.382881  -0.349727   1.346319  -0.931048   0.060495
    8  N  1  Y   -0.227385   0.550926   0.763178   1.660136  -0.105318
    9  N  1  Z   -0.003280   1.011582   0.033118  -0.685131  -0.096409
   10  N  1 XX   -0.069807  -0.000663  -0.014880  -0.008518   0.048015
   11  N  1 YY    0.069976  -0.023586   0.014022   0.002473  -0.014815
   12  N  1 ZZ   -0.000170   0.024249   0.000858   0.006046  -0.033200
   13  N  1 XY    0.046325   0.024558   0.012076  -0.008072   0.067393
   14  N  1 XZ   -0.053050  -0.002138   0.005265   0.025700  -0.011647
   15  N  1 YZ   -0.030586   0.002871   0.002877  -0.045857   0.023946
   16  H  2  S    0.002137  -0.666140  -0.013263  -0.462859  -0.173421
   17  H  2  S   -0.001421  -0.436439   0.006094  -0.768312  -0.466761
   18  H  2  X    0.039584  -0.048384   0.078240  -0.089240  -0.035797
   19  H  2  Y    0.021487   0.086578   0.044553   0.162003   0.072774
   20  H  2  Z   -0.000221   0.055073   0.001645  -0.133035   0.175154
   21  H  3  S    0.595903  -0.215266   0.361957   0.570895   0.008030
   22  H  3  S   -2.009563  -0.007185   0.893514   0.364087  -0.357392
   23  H  3  X   -0.055462  -0.107773  -0.036329   0.052561  -0.325019
   24  H  3  Y   -0.067574   0.021725   0.080870   0.204843  -0.112509
   25  H  3  Z    0.019928   0.094506  -0.062464   0.061272   0.033335
   26  H  4  S   -0.596909  -0.206178  -0.387557   0.557018   0.008812
   27  H  4  S    2.012893   0.028414  -0.905192   0.346705  -0.353237
   28  H  4  X   -0.086420   0.030868   0.059027  -0.202669   0.256351
   29  H  4  Y   -0.014359   0.106044  -0.066239   0.050947   0.228362
   30  H  4  Z   -0.020713   0.091264   0.068071   0.060014   0.037790

                     16         17         18         19         20
                    1.0159     1.1066     1.2699     1.3195     1.4866
                     A          A          A          A          A   
    1  N  1  S   -0.298944   0.010383  -0.249526  -0.016421  -0.494904
    2  N  1  S   -0.619455   0.021666  -0.523126  -0.034753  -1.039874
    3  N  1  S    1.259706  -0.048132   1.008750   0.063107   1.712551
    4  N  1  X   -0.034164   0.080324   0.088297   0.113029  -0.079927
    5  N  1  Y    0.059103   0.049577  -0.166423   0.063302   0.141012
    6  N  1  Z    0.086949  -0.001243  -0.017975  -0.000241  -0.064967
    7  N  1  X    0.229004  -0.367086  -0.627043  -0.278299   0.349668
    8  N  1  Y   -0.390274  -0.230618   1.111399  -0.122527  -0.581075
    9  N  1  Z   -0.133533  -0.011687   0.257272   0.021948   0.835321
   10  N  1 XX   -0.174886  -0.162990   0.057337  -0.011333   0.041755
   11  N  1 YY   -0.084682   0.160412   0.046188   0.019654   0.095305
   12  N  1 ZZ    0.259568   0.002579  -0.103525  -0.008321  -0.137061
   13  N  1 XY   -0.090219   0.109508   0.013079   0.015244  -0.053056
   14  N  1 XZ   -0.016227   0.257887  -0.002460  -0.135568   0.002792
   15  N  1 YZ    0.026862   0.147127   0.026818  -0.079098  -0.014351
   16  H  2  S   -0.005962   0.016891  -0.807877  -0.028318  -0.190800
   17  H  2  S   -0.111642   0.012951  -0.441817  -0.015464  -0.061912
   18  H  2  X    0.021267   0.535236   0.080274   0.515582  -0.071363
   19  H  2  Y   -0.037198   0.300984  -0.155566   0.288034   0.098932
   20  H  2  Z    0.275302  -0.004914   0.357549   0.002605  -0.819271
   21  H  3  S   -0.397751  -0.155126   0.113912  -0.213681  -0.698083
   22  H  3  S   -0.141351  -0.096409   0.048257   0.013147  -0.119171
   23  H  3  X    0.294395   0.041289   0.376511  -0.273793   0.148777
   24  H  3  Y    0.089394  -0.104524  -0.268656   0.426870   0.084578
   25  H  3  Z    0.379998  -0.379506  -0.423182   0.269552  -0.148218
   26  H  4  S   -0.397513   0.163134   0.091543   0.195953  -0.701488
   27  H  4  S   -0.142860   0.102596   0.046453  -0.014853  -0.133166
   28  H  4  X   -0.226899  -0.080500   0.030828   0.235602  -0.145719
   29  H  4  Y   -0.211548   0.099939  -0.414291  -0.490859  -0.077509
   30  H  4  Z    0.380196   0.390923  -0.390522  -0.304184  -0.113819

                     21         22         23         24         25
                    1.6120     1.8648     1.8955     2.0134     2.0578
                     A          A          A          A          A   
    1  N  1  S   -0.007130  -0.018724   0.076097   0.019980   0.003121
    2  N  1  S   -0.014612   0.055448   0.232562   0.092461   0.006744
    3  N  1  S    0.026234   0.823002   0.953627   0.774696   0.001836
    4  N  1  X   -0.196697   0.309466  -0.116769  -0.095527   0.133162
    5  N  1  Y   -0.104014  -0.537099   0.213796   0.161858   0.083086
    6  N  1  Z   -0.001597   0.220784   0.171826   0.101705   0.002597
    7  N  1  X   -0.404410   0.116917   0.065609  -0.106930  -0.161015
    8  N  1  Y   -0.263903  -0.217363  -0.114959   0.173989  -0.088904
    9  N  1  Z    0.012486   0.345417   0.271186   0.493661   0.004238
   10  N  1 XX    0.071194  -0.070950   0.390530  -0.524570  -0.228275
   11  N  1 YY   -0.063747  -0.005319  -0.085272  -0.249281   0.212167
   12  N  1 ZZ   -0.007447   0.076269  -0.305258   0.773851   0.016108
   13  N  1 XY   -0.040782  -0.069383   0.470475  -0.289979   0.140269
   14  N  1 XZ    0.265408  -0.113482  -0.039362   0.093223  -0.035212
   15  N  1 YZ    0.153134   0.187525   0.040470  -0.177648  -0.023452
   16  H  2  S    0.006880  -0.120268  -0.093806  -0.298466  -0.003858
   17  H  2  S   -0.000559   0.202416  -0.330802  -0.349474  -0.002989
   18  H  2  X    0.389168   0.137116  -0.437242  -0.336535  -0.050003
   19  H  2  Y    0.232668  -0.223823   0.769341   0.621185  -0.013978
   20  H  2  Z   -0.015623  -0.559799   0.044765  -0.101432   0.000964
   21  H  3  S    0.045626  -0.152327  -0.241734  -0.139535   0.219446
   22  H  3  S   -0.400968  -0.349545  -0.127069  -0.043013   0.345199
   23  H  3  X    0.224274   0.024449   0.276759  -0.062042   0.953716
   24  H  3  Y   -0.343217  -0.678370  -0.280442  -0.308593   0.486642
   25  H  3  Z    0.582690   0.362008   0.151687  -0.333280   0.093345
   26  H  4  S   -0.076562  -0.150590  -0.242925  -0.129677  -0.217888
   27  H  4  S    0.395728  -0.344832  -0.124702  -0.019030  -0.344613
   28  H  4  X   -0.195764   0.575090   0.102785   0.264421   0.900042
   29  H  4  Y    0.362239  -0.346606  -0.366720  -0.108348   0.591333
   30  H  4  Z   -0.580551   0.361547   0.175985  -0.329709  -0.098842

                     26         27         28         29
                    2.1984     2.6495     2.7917     2.8155
                     A          A          A          A   
    1  N  1  S   -0.003580  -0.131758   0.024021   0.008390
    2  N  1  S   -0.004427  -0.157326   0.172012   0.063137
    3  N  1  S    0.049673   1.323113   1.658123   0.616218
    4  N  1  X    0.047079   0.207381  -0.103709  -0.359989
    5  N  1  Y    0.027765  -0.357998   0.427481  -0.019033
    6  N  1  Z    0.005553   0.176669   0.234411   0.084322
    7  N  1  X    0.465758   0.661983  -0.160890  -0.629000
    8  N  1  Y    0.266624  -1.149855   0.727068  -0.048611
    9  N  1  Z    0.023923   0.407391   0.226781   0.079223
   10  N  1 XX   -0.339720   0.090532   0.175043  -0.945256
   11  N  1 YY    0.330152   0.221915   0.491263   1.198581
   12  N  1 ZZ    0.009569  -0.312447  -0.666306  -0.253326
   13  N  1 XY    0.237668  -0.125191  -1.179624   0.228985
   14  N  1 XZ    0.766033   0.655017   0.049488  -0.557043
   15  N  1 YZ    0.441993  -1.133247   0.363933  -0.189988
   16  H  2  S   -0.014315   0.456027  -1.501500  -0.572158
   17  H  2  S   -0.007655   0.247519  -0.473476  -0.178087
   18  H  2  X   -0.578337   0.159018  -0.489622  -0.412205
   19  H  2  Y   -0.307989  -0.288885   1.040395   0.265081
   20  H  2  Z   -0.011648   0.246708   0.466506   0.179828
   21  H  3  S    0.117431  -0.940686   0.137340  -0.917884
   22  H  3  S    0.210060  -0.309123   0.103947  -0.347389
   23  H  3  X   -0.284860  -0.085637  -0.056867  -0.177879
   24  H  3  Y    0.325927  -0.596356   0.176014  -0.833363
   25  H  3  Z    0.175439   0.328201   0.057238   0.506470
   26  H  4  S   -0.146510  -0.938798  -0.499335   0.796136
   27  H  4  S   -0.222126  -0.309076  -0.158170   0.330547
   28  H  4  X    0.161928   0.558206   0.436362  -0.700169
   29  H  4  Y   -0.437110  -0.213342  -0.070562   0.279747
   30  H  4  Z   -0.178589   0.330871   0.375688  -0.356586
 .....DONE WITH MCSCF ITERATIONS.....
 CPU     0: STEP CPU TIME=    10.35 TOTAL CPU TIME=         11.5 (      0.2 MIN)
 TOTAL WALL CLOCK TIME=         11.5 SECONDS, CPU UTILIZATION IS    99.91%

     ----------------------------------------------------------------
     PROPERTY VALUES FOR THE MCSCF SELF-CONSISTENT FIELD WAVEFUNCTION
     ----------------------------------------------------------------

          -----------------
          ENERGY COMPONENTS
          -----------------

         WAVEFUNCTION NORMALIZATION =       1.0000000000

                ONE ELECTRON ENERGY =     -94.1036885266
                TWO ELECTRON ENERGY =      27.0622285675
           NUCLEAR REPULSION ENERGY =      11.3231253471
                                      ------------------
                       TOTAL ENERGY =     -55.7183346120

 ELECTRON-ELECTRON POTENTIAL ENERGY =      27.0622285675
  NUCLEUS-ELECTRON POTENTIAL ENERGY =    -149.8725159832
   NUCLEUS-NUCLEUS POTENTIAL ENERGY =      11.3231253471
                                      ------------------
             TOTAL POTENTIAL ENERGY =    -111.4871620687
               TOTAL KINETIC ENERGY =      55.7688274566
                 VIRIAL RATIO (V/T) =       1.9990946045

          ---------------------------------------
          MULLIKEN AND LOWDIN POPULATION ANALYSES
          ---------------------------------------

     ATOMIC MULLIKEN POPULATION IN EACH MOLECULAR ORBITAL

                      1          2          3          4          5

                  2.000000   1.981271   1.655886   1.650037   1.640567

    1             2.000782   1.346103   1.447574   0.932720   1.158204
    2            -0.000353   0.185066   0.190978   0.287394   0.008100
    3            -0.000213   0.223541   0.008615   0.215010   0.237148
    4            -0.000217   0.226560   0.008718   0.214912   0.237115

                      6          7          8

                  0.028862   0.025358   0.018021

    1             0.013225   0.013255   0.009463
    2            -0.000025   0.001333   0.007972
    3             0.008150   0.005084   0.000313
    4             0.007511   0.005685   0.000274
 WARNING! MCSCF POPULATIONS SHOWN ABOVE ARE FOR THE NATURAL ORBITALS.
 IGNORE THE ABOVE DATA FOR MCSCF FUNCTIONS WHICH ARE NOT OF -FORS- TYPE.
 THE FOLLOWING POPULATIONS ARE CORRECT FOR ANY MCSCF WAVEFUNCTION.

               ----- POPULATIONS IN EACH AO -----
                             MULLIKEN      LOWDIN
              1  N  1  S      2.00243     1.90016
              2  N  1  S      0.81925     0.57717
              3  N  1  S      0.67955     0.40345
              4  N  1  X      0.71959     0.65472
              5  N  1  Y      0.66288     0.58460
              6  N  1  Z      0.86083     0.80864
              7  N  1  X      0.36903     0.44325
              8  N  1  Y      0.27026     0.39157
              9  N  1  Z      0.52149     0.55775
             10  N  1 XX      0.00045     0.15969
             11  N  1 YY      0.00275     0.18089
             12  N  1 ZZ      0.00185     0.14225
             13  N  1 XY      0.00500     0.00769
             14  N  1 XZ      0.00597     0.00824
             15  N  1 YZ      0.00000     0.01211
             16  H  2  S      0.59921     0.46452
             17  H  2  S      0.02446     0.14373
             18  H  2  X      0.01520     0.03339
             19  H  2  Y      0.03018     0.05516
             20  H  2  Z      0.01141     0.03293
             21  H  3  S      0.58973     0.45091
             22  H  3  S      0.05223     0.14819
             23  H  3  X      0.01059     0.03563
             24  H  3  Y      0.02997     0.04896
             25  H  3  Z      0.01514     0.03425
             26  H  4  S      0.59231     0.45251
             27  H  4  S      0.05236     0.14810
             28  H  4  X      0.02841     0.05329
             29  H  4  Y      0.01213     0.03156
             30  H  4  Z      0.01534     0.03470

          ----- MULLIKEN ATOMIC OVERLAP POPULATIONS -----
          (OFF-DIAGONAL ELEMENTS NEED TO BE MULTIPLIED BY 2)

             1           2           3           4

    1    6.0686147
    2    0.3165898   0.3747524
    3    0.2677743  -0.0054597   0.4459333
    4    0.2683479  -0.0054170  -0.0105992   0.4482275

          TOTAL MULLIKEN AND LOWDIN ATOMIC POPULATIONS
       ATOM         MULL.POP.    CHARGE          LOW.POP.     CHARGE
    1 N             6.921327    0.078673         6.832181    0.167819
    2 H             0.680465    0.319535         0.729729    0.270271
    3 H             0.697649    0.302351         0.717936    0.282064
    4 H             0.700559    0.299441         0.720155    0.279845

          MULLIKEN SPHERICAL HARMONIC POPULATIONS
       ATOM           S       P       D      F      G      H      I    TOTAL
    1 N             3.50    3.40    0.02   0.00   0.00   0.00   0.00    6.92
    2 H             0.62    0.06    0.00   0.00   0.00   0.00   0.00    0.68
    3 H             0.64    0.06    0.00   0.00   0.00   0.00   0.00    0.70
    4 H             0.64    0.06    0.00   0.00   0.00   0.00   0.00    0.70

          ---------------------
          ELECTROSTATIC MOMENTS
          ---------------------

 POINT   1           X           Y           Z (BOHR)    CHARGE
                 0.000002   -0.000003   -0.177185        1.00 (A.U.)
         DX          DY          DZ         /D/  (DEBYE)
     0.349726   -0.583334    2.183808    2.287270
 ...... END OF PROPERTY EVALUATION ......
 CPU     0: STEP CPU TIME=     0.01 TOTAL CPU TIME=         11.5 (      0.2 MIN)
 TOTAL WALL CLOCK TIME=         11.5 SECONDS, CPU UTILIZATION IS    99.91%

     -------------------------------------------------
     GMC-PT/GMC-QDPT or general MCSCF input parameters
     -------------------------------------------------
 # of frozen core orbs. =         0 ->         0
 # of doubly occ. orbs. =         1
 # of active      orbs. =         7
 # of virtual     orbs. =        21
 # of active electrons  =         7
 # of states in CI      =         3
 Highest state in CI    =         3
 kstate =  1 1 1
 avecoe =  0.333 0.333 0.333
 State symmetry           = A           
 Assigned symmetry number = 1

 <<<Act. MO sym.: 1111111

 <<<Division of 1-ext.:  0
 <<<Division of 2-ext.:  0

     ------------------------
     Orbital canonicalization
     ------------------------

 MOs are canonicalized for core, virtual, and invariant-active orbital spaces.
 This is a part of the GMC-QDPT calculation.
 SCHWARZ INEQUALITY OVERHEAD:       465 INTEGRALS, T=        0.00
 DIRECT TRANSFORMATION SKIPS AO INTEGRAL STORAGE ON DISK.

 Averaged energy =     -55.718334612

 State #    1  Energy =     -55.853251887  S =  0.500
 State #    2  Energy =     -55.750371974  S =  0.500
 State #    3  Energy =     -55.551379975  S =  0.500

 Orbital energies for filled orbital space
  -15.986721
 Orbital energies for active orbital space
   -1.511238  -0.807222  -1.016888  -0.745403   0.243764
    0.236144   0.421186
 Orbital energies for external orbital space
    0.122111   0.195149   0.239120   0.528559   0.567516
    0.635812   0.848317   1.015903   1.106567   1.269854
    1.319526   1.486587   1.611972   1.864784   1.895455
    2.013416   2.057777   2.198401   2.649492   2.791713
    2.815490

 Zero values mean non-canonical orbitals.
 ... done with orbital canonicalization ...
 CPU     0: STEP CPU TIME=     0.60 TOTAL CPU TIME=         12.1 (      0.2 MIN)
 TOTAL WALL CLOCK TIME=         12.1 SECONDS, CPU UTILIZATION IS    99.92%

     --------------------------------------------
     PARTIAL TWO ELECTRON INTEGRAL TRANSFORMATION
     --------------------------------------------

 NUMBER OF CORE MOLECULAR ORBITALS     =    0
 NUMBER OF OCCUPIED MOLECULAR ORBITALS =    8
 TOTAL NUMBER OF MOLECULAR ORBITALS    =   29
 TOTAL NUMBER OF ATOMIC ORBITALS       =   30
 THRESHOLD FOR KEEPING TRANSFORMED 2E- INTEGRALS = 1.000E-09
 AO INTEGRALS WILL BE CALCULATED IN DIRECT MODE...
 DIRECT TRANSFORMATION SKIPS AO INTEGRAL STORAGE ON DISK.
 SCHWARZ INEQUALITY OVERHEAD:       465 INTEGRALS, T=        0.00

 PLAN A: REQUIREMENTS FOR FULLY IN-MEMORY TRANSFORMATION:
 # OF WORDS AVAILABLE =            100000000
 # OF WORDS NEEDED    =               221798

 PARALLEL ONLY WORKS WITH THE SEGMENTED ALGORITHM.
 ADJUSTING MEMORY TO USE SEGMENTED ALGORITHM.


 PLAN B: REQUIREMENTS FOR THE SEGMENTED TRANSFORMATION:
       MINIMUM=         124148 WORDS FOR 1 MOLECULAR ORBITAL PER PASS
       MAXIMUM=         221798 WORDS FOR ALL MOLECULAR ORBITALS IN 1 PASS
              (          13950 EXTRA WORDS INCLUDES 1 EXTRA ORBITAL/PASS)
 THIS RUN USES=         221798 WORDS,
 DISTRIBUTING   1 PASSES EACH CONTAINING     8 ORBITALS OVER   1 PROCESSORS.

 CHOOSING SEGMENTED PARTIAL TRANSFORMATION...
 DIRECT TRANSFORMATION SKIPS AO INTEGRAL STORAGE ON DISK.
 PASS #   1 TOOK        0.04 SECONDS.
 TOTAL NUMBER OF TRANSFORMED 2E- INTEGRALS KEPT =        29226
 ... END OF INTEGRAL TRANSFORMATION ...
 CPU     0: STEP CPU TIME=     0.04 TOTAL CPU TIME=         12.2 (      0.2 MIN)
 TOTAL WALL CLOCK TIME=         12.2 SECONDS, CPU UTILIZATION IS    99.92%

     --------     ------------------------------------------
     GMC-QDPT     Program written by H.Nakano (Kyushu Univ.)
     --------     ------------------------------------------

 *** Reference space

 Reference type: ORMAS (= Occupation restricted multiple active space)
 # of orbitals          =  7
 # of minimum electrons =  7
 # of maximum electrons =  7
 State symmetry    =    1 (input)
 2*Sz              =    1 (input)
 Spin multiplicity =    2 (input)
 Dimension of reference space =      1225  (from      3432 walks)

 Dimension of reference space =      1225  (from      1225 walks)

 <<<Ionized spaces for Ref-CI:
      0:         1225 /   -1-0:         1960 /  0-1-0:         2891

 ***                    ***
 *** Reference space CI ***
 ***                    ***

 Converged after   29 iterations

 Reference wavefunctions:

 State #    1  Energy =     -55.853251887  S =  0.500

      Det      Coef    Occupancy (Ignoring core)
      ---      ----    --------- --------- -----
        1   -0.976803  11110001110000
      393   -0.084881  10110101010010
      717   -0.059879  11010011100001

 State #    2  Energy =     -55.750371974  S =  0.500

      Det      Coef    Occupancy (Ignoring core)
      ---      ----    --------- --------- -----
       71    0.983227  11110001011000
      822   -0.059462  11010011001001

 State #    3  Energy =     -55.551379975  S =  0.500

      Det      Coef    Occupancy (Ignoring core)
      ---      ----    --------- --------- -----
       36    0.976640  11110001101000
      463    0.086372  10110101001010

 Davidson method: CPU/Wall time =           0.42 /           0.41 sec.

 Oscillator strength (invalid if E(1)/=E(GS)):
 -----------------------------------------
   State                        f
 -----------------------------------------
     2     F(REF-CI)=        0.0002270765
     3     F(REF-CI)=        0.0036922488
 -----------------------------------------

 Dipole moment matrix elements, x, y, z, in A.U.

 Dimension of ionized spaces for PT:
 (N-2) space:         1715 /  (N-1) space:         2842 /  N space:         2891
 (N+1) space:         2842 /  (N+2) space:         1715

 <<<Ionized spaces for internal:
         0:         1225 /      -1-0:         1960 /     0-1-0:         2891
  -1-0-1-0:         2842 / 0-1-0-1-0:         3381

 Diagonal elements of averaged one-particle density matrix:
       2       3       4       5       6       7       8
  0.9931  0.9846  0.9881  0.9922  0.0144  0.0170  0.0106
  0.9880  0.6558  0.6625  0.6630  0.0112  0.0118  0.0076

 Orbital energies:
 -------- Doubly-occupied orbitals (highest several orbs.) -------
             1
 -1.598672D+01
 -------- Active orbitals ----------------------------------------
             2            3            4            5            6
 -1.511238D+00-8.072224D-01-1.016888D+00-7.454026D-01 2.437639D-01
             7            8
  2.361439D-01 4.211859D-01
 -------- External orbitals (lowest several orbs.) ---------------
             9           10           11           12           13
  1.221113D-01 1.951495D-01 2.391197D-01 5.285587D-01 5.675161D-01
            14           15           16           17           18
  6.358121D-01 8.483167D-01 1.015903D+00 1.106567D+00 1.269854D+00

 *** Quasi-degeneracy checking

 === Det (|Ci| > 1.0D-01 and dE < 5.0D-03)

 # of small denominators (single excitations)
 State       dEmin  dE < 5.0D-03  dE < 5.0D-04  dE < 5.0D-05  dE < 5.0D-06
 ----- ----------- ------------- ------------- ------------- -------------
     1    5.00D-03             0             0             0             0
     2    5.00D-03             0             0             0             0
     3    5.00D-03             0             0             0             0

 # of small denominators (double excitations)
 State       dEmin  dE < 5.0D-03  dE < 5.0D-04  dE < 5.0D-05  dE < 5.0D-06
 ----- ----------- ------------- ------------- ------------- -------------
     1    5.00D-03             0             0             0             0
     2    5.00D-03             0             0             0             0
     3    5.00D-03             0             0             0             0

 *** Zeroth-Order Setup (Granovsky's zeroth-order vectors)
 Zeroth-order effective Hamiltonian
  (= Sum_i e(i)*<I|a+(i)a(i)|J> ):
                   1            2            3
     1 -7.310065D+00
     2 -5.082446D-04-7.272023D+00
     3 -1.198388D-03 1.610758D-04-7.047119D+00

 Zeroth-order vectors:
 State #    1
       MC st            1           2           3
       Coeff    9.999D-01   1.333D-02   4.549D-03
 State #    2
       MC st            2           1           3
       Coeff    9.999D-01  -1.333D-02  -7.872D-04
 State #    3
       MC st            3           1           2
       Coeff    1.000D+00  -4.559D-03   7.265D-04

 *** GMC-QDPT computation

 (Integral reading:  CPU/Wall time =           0.00 /           0.00 sec.)

 One-external:
   0 -ionized terms: CPU/Wall time =           0.03 /           0.03 sec.
 (-1)-ionized terms: CPU/Wall time =           0.09 /           0.09 sec.
 (+1)-ionized terms: CPU/Wall time =           0.02 /           0.02 sec.
 (+1)-ionized terms: CPU/Wall time =           0.01 /           0.00 sec.
 (+2)-ionized terms: CPU/Wall time =           0.00 /           0.01 sec.

 Internal:
 # of macro loops for internal contribution =         1 (input)
 Loop:    1
 Dimension of internal CISD space     =         0  (after screening)
 Space construction: CPU/Wall time =           0.02 /           0.01 sec.
 Internal terms:     CPU/Wall time =           0.00 /           0.00 sec.

 Two-external:
   0 -ionized terms: CPU/Wall time =           0.05 /           0.06 sec.
 (-1)-ionized terms: CPU/Wall time =           0.99 /           0.98 sec.
 (-2)-ionized terms: CPU/Wall time =           0.16 /           0.17 sec.

 Total time:         CPU/Wall time =           1.37 /           1.37 sec.

 ***                  ***
 *** GMC-QDPT Results ***
 ***                  ***

 Diagonal elements of effective Hamiltonian:
 Heff(  1) =   -55.95186024
 Heff(  2) =   -55.85812349
 Heff(  3) =   -55.66294418

 Off-diagonal elements of effective Hamiltonian:
                   1            2
     2  1.216900D-03
     3  9.063158D-04-1.495204D-04

 ******** GMC-QDPT energies ********
 ----------------------------------------------------------------------------
   State                        1st order                           2nd order
 ----------------------------------------------------------------------------
     1     E(REF-CI)=      -55.8532518873   E(GMC-QDPT2)=      -55.9518788907
     2     E(REF-CI)=      -55.7503719739   E(GMC-QDPT2)=      -55.8581077876
     3     E(REF-CI)=      -55.5513799749   E(GMC-QDPT2)=      -55.6629412272
 ----------------------------------------------------------------------------

 Excitation energies (invalid if E(1)/=E(GS)):
 ----------------------------------------------------------------------------
   State                        1st order                           2nd order
 ----------------------------------------------------------------------------

     TZ Sorted GMC-PT ENERGIES:
         1      -55.9518788907
         2      -55.8581077876
         3      -55.6629412272
     2     E(REF-CI)=        2.7995065 eV   E(GMC-QDPT2)=        2.5516430 eV
     3     E(REF-CI)=        8.2143574 eV   E(GMC-QDPT2)=        7.8623983 eV
 ----------------------------------------------------------------------------

 Main characters of perturbed GMC-QDPT states:

 State #    1  Energy =     -55.951878891  S =  0.500

      Det      Coef    Occupancy (Ignoring core)
      ---      ----    --------- --------- -----
        1   -0.976800  11110001110000
      393   -0.084875  10110101010010
      717   -0.059852  11010011100001

 State #    2  Energy =     -55.858107788  S =  0.500

      Det      Coef    Occupancy (Ignoring core)
      ---      ----    --------- --------- -----
       71    0.983229  11110001011000
      822   -0.059462  11010011001001

 State #    3  Energy =     -55.662941227  S =  0.500

      Det      Coef    Occupancy (Ignoring core)
      ---      ----    --------- --------- -----
       36    0.976635  11110001101000
      463    0.086374  10110101001010

 <<<Max |V/de| = 2.974D-02  Thresh = 1.000D+00

 Oscillator strength (invalid if E(1)/=E(GS)):
 ----------------------------------------------------------------------------
   State                        1st order                           2nd order
 ----------------------------------------------------------------------------
     2     F(REF-CI)=        0.0002270765     F(GMC-PT2)=        0.0002084333
     3     F(REF-CI)=        0.0036922488     F(GMC-PT2)=        0.0035723267
 ----------------------------------------------------------------------------

 Dipole moment matrix elements, x, y, z, in A.U.
States    1    1        0.1598440989       -0.2693792556        0.7319314418
States    1    2       -0.0504790787       -0.0276074497       -0.0048860108
States    1    3        0.0560106871       -0.0991390521       -0.0746976540
States    2    1       -0.0504790787       -0.0276074497       -0.0048860108
States    2    2        0.0618963874       -0.0902032162        0.2645692738
States    2    3       -0.1152452043       -0.0689928455       -0.0000148545
States    3    1        0.0560106871       -0.0991390521       -0.0746976540
States    3    2       -0.1152452043       -0.0689928455       -0.0000148545
States    3    3        0.3078742238       -0.5225765022        0.2380696574

 Oscillator strength (valid only when positive): 
 ----------------------------------------------------------------------------
  States                        1st order                           2nd order
 ----------------------------------------------------------------------------
  1  1     F(REF-CI)=        0.0000000000     F(GMC-PT2)=        0.0000000000
  1  2     F(REF-CI)=       -0.0002270765     F(GMC-PT2)=       -0.0002084333
  1  3     F(REF-CI)=       -0.0036922488     F(GMC-PT2)=       -0.0035723267
  2  1     F(REF-CI)=        0.0002270765     F(GMC-PT2)=        0.0002084333
  2  2     F(REF-CI)=        0.0000000000     F(GMC-PT2)=        0.0000000000
  2  3     F(REF-CI)=       -0.0023963461     F(GMC-PT2)=       -0.0023473944
  3  1     F(REF-CI)=        0.0036922488     F(GMC-PT2)=        0.0035723267
  3  2     F(REF-CI)=        0.0023963461     F(GMC-PT2)=        0.0023473944
  3  3     F(REF-CI)=        0.0000000000     F(GMC-PT2)=        0.0000000000
 CPU     0: STEP CPU TIME=     1.86 TOTAL CPU TIME=         14.0 (      0.2 MIN)
 TOTAL WALL CLOCK TIME=         14.0 SECONDS, CPU UTILIZATION IS    99.93%

     !!! DIABATIZATION FOR REF CI STATES !!!

 *******************************************************
          $DMO GROUP FOUND IN THE INPUT.
        DIABATIZATION OF ADIABATIC STATES BEGINS.
     PROGRAMMED BY TAO ZENG (CARLETON UNIVERSITY).
               Email: toby.zeng@carleton.ca
     See T. Zeng, J. Chem. Phys. 2017, 146, 144103
 *******************************************************

 *************************************************************************
     STEP 1: TRANSFORMATION OF ADIABATIC STATES TO THE DMO REPRESENTATION
         See Atchity and Ruedenberg, J. Chem. Phys. 1999, 111, 2910
 *************************************************************************

Read in Diabatic Molecualr Orbitals:

                      1          2          3          4          5

    1  N  1  S    0.008609   0.000000   0.000000  -0.013219   0.279491
    2  N  1  S    0.442914  -0.000000   0.000000  -0.184329   0.867803
    3  N  1  S    0.276913   0.000000  -0.000000  -0.288315   0.144236
    4  N  1  X   -0.000000   0.493155  -0.024636  -0.000000  -0.000000
    5  N  1  Y    0.000000   0.024636   0.493155  -0.000000   0.000000
    6  N  1  Z    0.090197   0.000000   0.000000   0.593421   0.705309
    7  N  1  X   -0.000000   0.210628  -0.010522   0.000000   0.000000
    8  N  1  Y    0.000000   0.010522   0.210628  -0.000000  -0.000000
    9  N  1  Z   -0.004381   0.000000   0.000000   0.381592  -0.106092
   10  N  1 XX   -0.000457   0.010719  -0.000535  -0.012387   0.006153
   11  N  1 YY   -0.000457  -0.010719   0.000535  -0.012387   0.006153
   12  N  1 ZZ    0.000914  -0.000000   0.000000   0.024773  -0.012306
   13  N  1 XY    0.000000  -0.000618  -0.012377  -0.000000   0.000000
   14  N  1 XZ   -0.000000   0.026529  -0.001325  -0.000000   0.000000
   15  N  1 YZ    0.000000   0.001325   0.026529  -0.000000   0.000000
   16  H  2  S    0.194462  -0.176074   0.343485   0.112865  -0.523343
   17  H  2  S    0.003574  -0.023812   0.046452   0.024014  -0.054445
   18  H  2  X    0.018760   0.009101   0.022834   0.009336  -0.039151
   19  H  2  Y   -0.032493   0.022287  -0.020044  -0.016171   0.067811
   20  H  2  Z   -0.009251   0.008464  -0.016511   0.018769  -0.010566
   21  H  3  S    0.194462  -0.209430  -0.324227   0.112865  -0.523343
   22  H  3  S    0.003574  -0.028322  -0.043847   0.024014  -0.054445
   23  H  3  X    0.018760   0.006781  -0.023627   0.009336  -0.039151
   24  H  3  Y    0.032493  -0.024174  -0.017723   0.016171  -0.067811
   25  H  3  Z   -0.009251   0.010067   0.015585   0.018769  -0.010566
   26  H  4  S    0.194462   0.385503  -0.019258   0.112865  -0.523343
   27  H  4  S    0.003574   0.052134  -0.002604   0.024014  -0.054445
   28  H  4  X   -0.037519  -0.032295   0.001613  -0.018672   0.078302
   29  H  4  Y    0.000000   0.001067   0.021353  -0.000000   0.000000
   30  H  4  Z   -0.009251  -0.018530   0.000926   0.018769  -0.010566

                      6          7

    1  N  1  S    0.000000  -0.000000
    2  N  1  S    0.000000  -0.000000
    3  N  1  S   -0.000000   0.000000
    4  N  1  X   -0.930415  -0.002083
    5  N  1  Y   -0.002083   0.930415
    6  N  1  Z   -0.000000   0.000000
    7  N  1  X   -0.046866  -0.000105
    8  N  1  Y   -0.000105   0.046866
    9  N  1  Z   -0.000000   0.000000
   10  N  1 XX    0.001538   0.000003
   11  N  1 YY   -0.001538  -0.000003
   12  N  1 ZZ   -0.000000   0.000000
   13  N  1 XY   -0.000004   0.001776
   14  N  1 XZ    0.039985   0.000090
   15  N  1 YZ    0.000090  -0.039985
   16  H  2  S   -0.362630  -0.631354
   17  H  2  S   -0.065964  -0.114846
   18  H  2  X    0.002763  -0.037520
   19  H  2  Y    0.037435   0.040736
   20  H  2  Z    0.001882   0.003276
   21  H  3  S   -0.365454   0.629724
   22  H  3  S   -0.066477   0.114549
   23  H  3  X    0.002595   0.037532
   24  H  3  Y   -0.037617   0.040567
   25  H  3  Z    0.001896  -0.003268
   26  H  4  S    0.728084   0.001630
   27  H  4  S    0.132441   0.000297
   28  H  4  X   -0.062317  -0.000140
   29  H  4  Y    0.000055  -0.024345
   30  H  4  Z   -0.003778  -0.000008

NUMBER OF SUB ACTIVE SPACES:   1
ROTATE ACTIVE MOS TO DMOS IN EACH SUB-SPACE

SPACE  1:

OVERLAP BETWEEN ORTHONORMAL AND PRE-ORTHONORMAL REF. DMOS

             1           2           3           4           5

    1    0.9853851   0.0082972  -0.0146352  -0.0054268  -0.0035525
    2    0.0082972   0.9245857  -0.0619852   0.0161090  -0.0343734
    3   -0.0146352  -0.0619852   1.0156834  -0.0297712   0.0650290
    4   -0.0054268   0.0161090  -0.0297712   0.9955095  -0.0064965
    5   -0.0035525  -0.0343734   0.0650290  -0.0064965   1.1083895
    6   -0.0018068  -0.0516169  -0.0574113   0.0253553  -0.0275212
    7   -0.0031728   0.0580665  -0.0248120   0.0429825  -0.0506688

             6           7

    1   -0.0018068  -0.0031728
    2   -0.0516169   0.0580665
    3   -0.0574113  -0.0248120
    4    0.0253553   0.0429825
    5   -0.0275212  -0.0506688
    6    1.0378464  -0.0112010
    7   -0.0112010   1.0236380
REFERENCE DMOS AFTER ORTHONORMALIZATION:

                      1          2          3          4          5

    1  N  1  S    0.009337   0.008156  -0.015323  -0.012867   0.254000
    2  N  1  S    0.450646   0.023964  -0.045367  -0.181926   0.789453
    3  N  1  S    0.279764   0.006055  -0.011392  -0.288770   0.131330
    4  N  1  X   -0.006412   0.483654  -0.044527   0.014850  -0.005947
    5  N  1  Y    0.010461   0.005736   0.509104  -0.025533   0.013321
    6  N  1  Z    0.096768   0.010877  -0.021218   0.599705   0.642057
    7  N  1  X   -0.001995   0.227055   0.000824  -0.002204   0.005543
    8  N  1  Y    0.003117   0.022762   0.211426   0.003459  -0.009099
    9  N  1  Z   -0.002455  -0.008576   0.015694   0.384451  -0.095870
   10  N  1 XX   -0.000615   0.012146  -0.000400  -0.012687   0.005945
   11  N  1 YY   -0.000429  -0.011423  -0.000928  -0.012271   0.005200
   12  N  1 ZZ    0.001044  -0.000722   0.001329   0.024958  -0.011146
   13  N  1 XY   -0.000166  -0.001600  -0.012346  -0.000389   0.000726
   14  N  1 XZ   -0.000154   0.031280   0.002701  -0.001397   0.001756
   15  N  1 YZ    0.000216   0.005526   0.025842   0.002316  -0.003082
   16  H  2  S    0.199999  -0.172945   0.333269   0.160457  -0.533588
   17  H  2  S    0.003920  -0.022146   0.042625   0.032030  -0.058995
   18  H  2  X    0.019118   0.012388   0.025498   0.011404  -0.038014
   19  H  2  Y   -0.033153   0.025352  -0.020232  -0.019825   0.065828
   20  H  2  Z   -0.009597   0.007587  -0.014800   0.018112  -0.008281
   21  H  3  S    0.195552  -0.326791  -0.312788   0.091720  -0.445270
   22  H  3  S    0.003546  -0.046362  -0.043735   0.020322  -0.044568
   23  H  3  X    0.018760   0.002419  -0.019674   0.007141  -0.032405
   24  H  3  Y    0.032940  -0.034632  -0.016138   0.015528  -0.060412
   25  H  3  Z   -0.009175   0.011849   0.017182   0.019200  -0.010245
   26  H  4  S    0.194885   0.444833   0.081606   0.090270  -0.446062
   27  H  4  S    0.003450   0.062673   0.011981   0.020089  -0.044742
   28  H  4  X   -0.037851  -0.036042  -0.009320  -0.016895   0.068590
   29  H  4  Y    0.000204   0.003994   0.020935   0.001543  -0.002150
   30  H  4  Z   -0.009147  -0.020938   0.000411   0.019235  -0.010267

                      6          7

    1  N  1  S    0.006758   0.012382
    2  N  1  S    0.025341   0.045931
    3  N  1  S    0.010900   0.018993
    4  N  1  X   -0.875870  -0.041072
    5  N  1  Y    0.037398   0.923118
    6  N  1  Z    0.001973   0.005790
    7  N  1  X   -0.033761  -0.012971
    8  N  1  Y    0.012937   0.049173
    9  N  1  Z   -0.011715  -0.020157
   10  N  1 XX    0.002532   0.000157
   11  N  1 YY   -0.001649   0.001375
   12  N  1 ZZ   -0.000882  -0.001533
   13  N  1 XY   -0.000721   0.001570
   14  N  1 XZ    0.040302  -0.001035
   15  N  1 YZ    0.001232  -0.038985
   16  H  2  S   -0.364151  -0.635401
   17  H  2  S   -0.065882  -0.114878
   18  H  2  X    0.003015  -0.039006
   19  H  2  Y    0.038840   0.042279
   20  H  2  Z    0.000706   0.001219
   21  H  3  S   -0.392952   0.596553
   22  H  3  S   -0.069267   0.109667
   23  H  3  X    0.000901   0.034215
   24  H  3  Y   -0.040382   0.037222
   25  H  3  Z    0.002559  -0.004762
   26  H  4  S    0.714054  -0.039115
   27  H  4  S    0.129670  -0.004604
   28  H  4  X   -0.060133   0.005012
   29  H  4  Y    0.001059  -0.023661
   30  H  4  Z   -0.005419  -0.000214

 -------------------------------------------
       MAXIMIZING MORMO OVERLAP TERM        
 -------------------------------------------
   SWEEP    VALUE       PROGRESS
     0     5.61656
     1     6.95252     1.33596477
     2     6.96711     0.01458363
     3     6.96711     0.00000070
     4     6.96711     0.00000000
     5     6.96711     0.00000000
 THE ROTATION IS DONE
ACTIVE ORBITALS AFTER MORMO:

                      1          2          3          4          5

    1  N  1  S    0.008071   0.010178  -0.018708  -0.012279   0.216186
    2  N  1  S    0.435123   0.020307  -0.036589  -0.186697   0.740509
    3  N  1  S    0.317936  -0.003411   0.003273  -0.278774   0.190042
    4  N  1  X   -0.005995   0.451894  -0.058222   0.017286  -0.011698
    5  N  1  Y    0.010556  -0.010356   0.497014  -0.028687   0.022528
    6  N  1  Z    0.087322   0.017452  -0.033029   0.600778   0.616896
    7  N  1  X   -0.003630   0.276191   0.046395  -0.020814   0.019662
    8  N  1  Y    0.004910   0.070379   0.199160   0.034117  -0.032340
    9  N  1  Z    0.018102  -0.023442   0.042969   0.384066  -0.062781
   10  N  1 XX   -0.002432   0.014626   0.001622  -0.010558   0.020345
   11  N  1 YY    0.002000  -0.014274  -0.002320  -0.011875  -0.023804
   12  N  1 ZZ    0.000432  -0.000352   0.000699   0.022433   0.003459
   13  N  1 XY   -0.004286  -0.003592  -0.012090   0.001582   0.042686
   14  N  1 XZ    0.001423   0.024641   0.003705  -0.001639  -0.015725
   15  N  1 YZ   -0.002545   0.005803   0.018452   0.003044   0.025776
   16  H  2  S    0.182848  -0.179558   0.348509   0.132259  -0.528416
   17  H  2  S   -0.001483  -0.019227   0.036292   0.032170  -0.059108
   18  H  2  X    0.017722   0.006509   0.026346   0.007152  -0.032301
   19  H  2  Y   -0.031138   0.025508  -0.027852  -0.012650   0.056842
   20  H  2  Z   -0.003803   0.005324  -0.010493   0.021439  -0.009956
   21  H  3  S    0.186475  -0.250605  -0.310378   0.097162  -0.454145
   22  H  3  S    0.003738  -0.100451  -0.067014   0.026340  -0.055132
   23  H  3  X    0.004640   0.015318  -0.006636   0.004674  -0.028572
   24  H  3  Y    0.032239  -0.023839  -0.024509   0.016079  -0.050780
   25  H  3  Z   -0.010168   0.007629   0.022275   0.017792  -0.013932
   26  H  4  S    0.186426   0.398754   0.022337   0.096612  -0.456067
   27  H  4  S    0.003614   0.113261   0.042249   0.025940  -0.055474
   28  H  4  X   -0.030368  -0.027285   0.003529  -0.016474   0.058515
   29  H  4  Y    0.011892   0.019459   0.016750   0.003821  -0.000097
   30  H  4  Z   -0.010400  -0.022965   0.006640   0.017765  -0.013503

                      6          7

    1  N  1  S    0.039331   0.068304
    2  N  1  S    0.085609   0.148161
    3  N  1  S   -0.070790  -0.119469
    4  N  1  X   -0.878818  -0.021098
    5  N  1  Y    0.017273   0.903415
    6  N  1  Z   -0.010820  -0.014844
    7  N  1  X   -0.030680  -0.053946
    8  N  1  Y    0.054009   0.093385
    9  N  1  Z   -0.011576  -0.021516
   10  N  1 XX    0.020701  -0.029220
   11  N  1 YY   -0.029149   0.014563
   12  N  1 ZZ    0.008448   0.014656
   13  N  1 XY   -0.025585  -0.003183
   14  N  1 XZ    0.026345   0.015973
   15  N  1 YZ   -0.016164  -0.045828
   16  H  2  S   -0.360222  -0.629676
   17  H  2  S   -0.066623  -0.116190
   18  H  2  X   -0.011973  -0.032315
   19  H  2  Y    0.032267   0.050539
   20  H  2  Z   -0.007478  -0.013795
   21  H  3  S   -0.321794   0.599313
   22  H  3  S   -0.124354   0.152530
   23  H  3  X    0.027159   0.028736
   24  H  3  Y   -0.032869   0.036963
   25  H  3  Z    0.019735   0.003668
   26  H  4  S    0.680780   0.023191
   27  H  4  S    0.194354  -0.031202
   28  H  4  X   -0.047252  -0.010027
   29  H  4  Y    0.013629  -0.038262
   30  H  4  Z   -0.007324   0.018623

Actually Used Diabatic Molecualr Orbitals:

                      1          2          3          4          5

    1  N  1  S    0.008071   0.010178  -0.018708  -0.012279   0.216186
    2  N  1  S    0.435123   0.020307  -0.036589  -0.186697   0.740509
    3  N  1  S    0.317936  -0.003411   0.003273  -0.278774   0.190042
    4  N  1  X   -0.005995   0.451894  -0.058222   0.017286  -0.011698
    5  N  1  Y    0.010556  -0.010356   0.497014  -0.028687   0.022528
    6  N  1  Z    0.087322   0.017452  -0.033029   0.600778   0.616896
    7  N  1  X   -0.003630   0.276191   0.046395  -0.020814   0.019662
    8  N  1  Y    0.004910   0.070379   0.199160   0.034117  -0.032340
    9  N  1  Z    0.018102  -0.023442   0.042969   0.384066  -0.062781
   10  N  1 XX   -0.002432   0.014626   0.001622  -0.010558   0.020345
   11  N  1 YY    0.002000  -0.014274  -0.002320  -0.011875  -0.023804
   12  N  1 ZZ    0.000432  -0.000352   0.000699   0.022433   0.003459
   13  N  1 XY   -0.004286  -0.003592  -0.012090   0.001582   0.042686
   14  N  1 XZ    0.001423   0.024641   0.003705  -0.001639  -0.015725
   15  N  1 YZ   -0.002545   0.005803   0.018452   0.003044   0.025776
   16  H  2  S    0.182848  -0.179558   0.348509   0.132259  -0.528416
   17  H  2  S   -0.001483  -0.019227   0.036292   0.032170  -0.059108
   18  H  2  X    0.017722   0.006509   0.026346   0.007152  -0.032301
[...]
       76   -0.023573   -0.023573  2+2-0+0
      716    0.022670    0.022670  22+0002
      145   -0.022323   -0.022323  -2++200
        8    0.021987   -0.021987  2-2+0+0
      457   -0.021851    0.021851  2++-+-0
      250    0.021636    0.021636  -++2200
       52    0.021533   -0.021533  220200+
      771    0.021095    0.021095  +22+00-
      107    0.020679   -0.020679  +22-+00
      108   -0.020544   -0.020544  +2-2+00
      111    0.020372   -0.020372  +22-0+0

 ---------------------------------------
    -DIABATIC STATES IN PROTOTYPES-     
 ---------------------------------------

     STATE:    1
 Group Ref#    Coefficients
     1    1    0.963918
     2    2   -0.000681
     3    3    0.001874

WEIGHT OF LISTED PROTOTYPES:   92.91%

     STATE:    2
 Group Ref#    Coefficients
     1    1   -0.000681
     2    2    0.963852
     3    3    0.001067

WEIGHT OF LISTED PROTOTYPES:   92.90%

     STATE:    3
 Group Ref#    Coefficients
     1    1    0.001874
     2    2    0.001067
     3    3    0.963457

WEIGHT OF LISTED PROTOTYPES:   92.83%

 --------------------------------------------------
 IN DIRECT MAX. DIABATIZATION FOR GMC-QDPT

 DIRECT MAXIMIZATION (DM) WITHOUT TRUNCATING ADIABATS
 EXPANSIONS INTO THE REFERENCE CONFIGURATION SPACE
 --------------------------------------------------

 -------------------------------------------
 - DM DIABT PT HAMILTONIAN MATRIX ELEMENTS -
 -------------------------------------------
                                            
 --- DIABATIC ENERGIES (DIAGONAL ELEMENT) ---       HARTREE            EV
 STATE #  1'S GMC-PT-LEVEL DIABATIC ENERGY=     -55.945115549       0.000000000
 STATE #  2'S GMC-PT-LEVEL DIABATIC ENERGY=     -55.812088967       3.619837673
 STATE #  3'S GMC-PT-LEVEL DIABATIC ENERGY=     -55.715723389       6.242078622

 --- DIABATIC COUPLINGS (OFF DIAGONAL ELEMENTS)---  HATREE            EV
 STATE #  1 &  2'S GMC-PT-LEVEL COUPLING  =      -0.022375942      -0.608880406
 STATE #  1 &  3'S GMC-PT-LEVEL COUPLING  =       0.037498294       1.020380565
 STATE #  2 &  3'S GMC-PT-LEVEL COUPLING  =      -0.080956769      -2.202945889

 ---------------------------------------
     - ROTATION TO DIABATIC STATES -    
 ---------------------------------------
 ROWS=ADIABATIC, COLUMNS=DIABATIC STATES

             1           2           3

    1    0.9881963   0.0839787  -0.1281234
    2   -0.0094560   0.8681973   0.4961290
    3   -0.1529006   0.4890613  -0.8587435

 ---------------------------------------
          - DIABATIC STATES -           
 ---------------------------------------

 State #    1  Energy =     -55.945115549

      Det      Coef        Coefp    Occupancy (Ignoring core)
      ---      ----        ----    --------- --------- -----
        1    0.944675   -0.944675  222+000
        8   -0.120560    0.120560  2-2+0+0
      386    0.090032   -0.090032  2+2+0-0
        3    0.089073    0.089073  22-++00
      141   -0.086584   -0.086584  22++-00
       18    0.073033   -0.073033  2-2+00+
      393   -0.072093   -0.072093  202+020
      736   -0.067759    0.067759  2+2+00-
      717   -0.066924   -0.066924  220+002
        7   -0.066883   -0.066883  22-+0+0
      351    0.064268    0.064268  22++0-0
       16    0.055281   -0.055281  222000+
        4   -0.047878    0.047878  2-2++00
      176    0.046509   -0.046509  2+2+-00
      708    0.040714   -0.040714  2-++0+-
      402    0.038309   -0.038309  2+-+0-+
      215   -0.037663   -0.037663  022+200
      218    0.035163   -0.035163  +-2+-+0
      390    0.034488   -0.034488  -+2++-0
      705   -0.033682   -0.033682  -2+++0-
      227   -0.033652   -0.033652  +2-+-0+
        6    0.033332   -0.033332  22200+0
       76    0.030529    0.030529  2+2-0+0
      212    0.029902    0.029902  +220200
      113   -0.027770    0.027770  +-220+0
       17    0.027673    0.027673  22-+00+
      387   -0.025536    0.025536  2+20+-0
     1051   -0.025450   -0.025450  2+++0--
       51   -0.025365    0.025365  22+-00+
      179   -0.025161   -0.025161  202+200
      424   -0.025144   -0.025144  +-2++-0
       13   -0.024473   -0.024473  2--+++0
      184   -0.024366   -0.024366  -+2+-+0
      773    0.024024   -0.024024  +2-++0-
      122    0.023985    0.023985  +2-200+
      159    0.022936   -0.022936  -2++-0+
      702    0.022867    0.022867  22+0+0-
      143   -0.022607   -0.022607  220+200
       29   -0.022549   -0.022549  2--+0++
      561   -0.021132   -0.021132  2+++--0

 State #    2  Energy =     -55.812088967

      Det      Coef        Coefp    Occupancy (Ignoring core)
      ---      ----        ----    --------- --------- -----
       71   -0.947788    0.947788  2+22000
      246   -0.097660   -0.097660  2++2-00
       73    0.094712   -0.094712  2+-2+00
       74    0.076626   -0.076626  2022+00
       77   -0.076281    0.076281  2+-20+0
      456    0.076278    0.076278  2++20-0
      736   -0.068806    0.068806  2+2+00-
       78    0.068693   -0.068693  20220+0
       88   -0.066636    0.066636  202200+
      822    0.066347   -0.066347  2+02002
       86    0.066163    0.066163  2+2-00+
       76    0.062316    0.062316  2+2-0+0
      386   -0.048539    0.048539  2+2+0-0
       36    0.046850    0.046850  22+2000
      813    0.044999   -0.044999  20+20+-
      320    0.037611    0.037611  0+22200
      323   -0.036570    0.036570  +022-+0
      810   -0.034451   -0.034451  -++2+0-
      111    0.034085   -0.034085  +22-0+0
       99   -0.033437    0.033437  20-20++
      332   -0.032215    0.032215  ++-2-0+
      180   -0.031682    0.031682  -+2+200
      183   -0.031432    0.031432  202+-+0
      317    0.031393   -0.031393  ++2-200
       72   -0.030973   -0.030973  2+2-+00
      177    0.030782   -0.030782  2+20200
      113    0.030728   -0.030728  +-220+0
       81    0.027415    0.027415  202-++0
      106    0.025438    0.025438  +222000
      526   -0.024783   -0.024783  ++220-0
       83   -0.024505    0.024505  20-2++0
      807   -0.024480    0.024480  2++-+0-
      192   -0.023873    0.023873  2+-+-0+
      878    0.023358    0.023358  ++-2+0-
      529    0.023145    0.023145  +022+-0
      264    0.022571   -0.022571  -++2-0+
      248    0.022514   -0.022514  2+02200
        6    0.022336   -0.022336  22200+0
      391    0.022333   -0.022333  2+20020
       38   -0.021467    0.021467  2202+00
      252   -0.021078   -0.021078  2+02-+0
      534    0.020439    0.020439  0+22020

 State #    3  Energy =     -55.715723389

      Det      Coef        Coefp    Occupancy (Ignoring core)
      ---      ----        ----    --------- --------- -----
       36   -0.949310   -0.949310  22+2000
       38   -0.086013    0.086013  2202+00
      456   -0.084829   -0.084829  2++20-0
       43    0.078599    0.078599  2-+20+0
       53   -0.076595   -0.076595  2-+200+
      463    0.075978   -0.075978  20+2020
      806    0.075228    0.075228  2++200-
       51    0.067916   -0.067916  22+-00+
      701   -0.063593   -0.063593  22++00-
       42    0.063313   -0.063313  22020+0
      246   -0.058601   -0.058601  2++2-00
      472   -0.045048   -0.045048  2+020-+
       71   -0.044619    0.044619  2+22000
      106   -0.041137   -0.041137  +222000
      121   -0.039890    0.039890  +22-00+
      285    0.038309   -0.038309  02+2200
       73    0.037042   -0.037042  2+-2+00
      460   -0.036851   -0.036851  -++2+-0
      288   -0.035996   -0.035996  +-+2-+0
       64    0.033655   -0.033655  2-020++
      297    0.033639   -0.033639  +202-0+
      112   -0.033548   -0.033548  +2-20+0
      282    0.032497    0.032497  +2+-200
      145   -0.031776   -0.031776  -2++200
       52    0.031401   -0.031401  220200+
       37   -0.031137    0.031137  22+-+00
      351   -0.031109   -0.031109  22++0-0
      142    0.030694    0.030694  22+0200
      457   -0.030130    0.030130  2++-+-0
      148   -0.029133   -0.029133  2-++-+0
      249    0.028755   -0.028755  20+2200
      254    0.025766   -0.025766  -++2-+0
       16   -0.025499    0.025499  222000+
      494    0.025148   -0.025148  +-+2+-0
       86    0.025011    0.025011  2+2-00+
      123    0.024847   -0.024847  +-2200+
      157    0.024338   -0.024338  220+-0+
       44    0.021909   -0.021909  -2+20+0
       46    0.021843   -0.021843  2-+-++0
       39    0.021558    0.021558  2-+2+00
      113   -0.020923    0.020923  +-220+0
      716    0.020916    0.020916  22+0002
      843   -0.020668   -0.020668  +202+0-
      771    0.020032    0.020032  +22+00-

 ---------------------------------------
      - DIABATIC STATES IN CMO -        
 ---------------------------------------

 State #    1  Energy =     -55.945115549

      Det      Coef        Coefp    Occupancy (Ignoring core)
      ---      ----        ----    --------- --------- -----
        1    0.965827   -0.965827  222+000
       36   -0.144838   -0.144838  22+2000
      393   -0.084263   -0.084263  202+020
      717   -0.062142   -0.062142  220+002
        8   -0.039304    0.039304  2-2+0+0
       17    0.038708    0.038708  22-+00+
      215   -0.035970   -0.035970  022+200
      106   -0.033401   -0.033401  +222000
      179   -0.032831   -0.032831  202+200
      390    0.032348   -0.032348  -+2++-0
      402    0.031562   -0.031562  2+-+0-+
       76    0.031520    0.031520  2+2-0+0
      388    0.031416    0.031416  2+-++-0
      218    0.030985   -0.030985  +-2+-+0
      708    0.030095   -0.030095  2-++0+-
      143   -0.029065   -0.029065  220+200
        2    0.029024   -0.029024  2220+00
      113   -0.028896    0.028896  +-220+0
      148    0.025410    0.025410  2-++-+0
      387   -0.025315    0.025315  2+20+-0
      705   -0.024663   -0.024663  -2+++0-
      212    0.023278    0.023278  +220200
      227   -0.023262   -0.023262  +2-+-0+
       51   -0.022411    0.022411  22+-00+
      716    0.022329    0.022329  22+0002
      787    0.021698   -0.021698  +2-+002
      424   -0.021214   -0.021214  +-2++-0
      122    0.021148    0.021148  +2-200+
      719   -0.020761   -0.020761  -2++002
        3   -0.020703   -0.020703  22-++00
      357   -0.020168   -0.020168  220+020
      184   -0.020140   -0.020140  -+2+-+0

 State #    2  Energy =     -55.812088967

      Det      Coef        Coefp    Occupancy (Ignoring core)
      ---      ----        ----    --------- --------- -----
       71   -0.853059    0.853059  2+22000
       36    0.478384    0.478384  22+2000
        1    0.084000   -0.084000  222+000
      463   -0.053121    0.053121  20+2020
      822    0.051892   -0.051892  2+02002
      320    0.031332    0.031332  0+22200
      177    0.030731   -0.030731  2+20200
      813    0.030058   -0.030058  20+20+-
      323   -0.027979    0.027979  +022-+0
      462    0.026753   -0.026753  2+02020
      183   -0.026671    0.026671  202+-+0
      113    0.026050   -0.026050  +-220+0
      112   -0.024406   -0.024406  +2-20+0
      248    0.023840   -0.023840  2+02200
       83   -0.023158    0.023158  20-2++0
      253    0.023096    0.023096  20+2-+0
      108    0.022123    0.022123  +2-2+00
       73    0.022014   -0.022014  2+-2+00
       81    0.021814    0.021814  202-++0
      180   -0.021558    0.021558  -+2+200
      751    0.021143   -0.021143  2+20002
      107   -0.020848    0.020848  +22-+00
        6    0.020724   -0.020724  22200+0
      810   -0.020669   -0.020669  -++2+0-

 State #    3  Energy =     -55.715723389

      Det      Coef        Coefp    Occupancy (Ignoring core)
      ---      ----        ----    --------- --------- -----
       36   -0.839051   -0.839051  22+2000
       71   -0.488740    0.488740  2+22000
        1   -0.119572    0.119572  222+000
      463    0.067782   -0.067782  20+2020
      113   -0.037211    0.037211  +-220+0
      249    0.035943   -0.035943  20+2200
      121   -0.035572    0.035572  +22-00+
       74   -0.032744    0.032744  2022+00
      285    0.031521   -0.031521  02+2200
      253    0.031283    0.031283  20+2-+0
      822    0.029026   -0.029026  2+02002
      248    0.027877   -0.027877  2+02200
      472   -0.027453   -0.027453  2+020-+
      142    0.027449    0.027449  22+0200
      460   -0.027032   -0.027032  -++2+-0
      288   -0.026996   -0.026996  +-+2-+0
      148   -0.024866   -0.024866  2-++-+0
      458   -0.024673    0.024673  2+02+-0
       51   -0.023928    0.023928  22+-00+
      112   -0.023832   -0.023832  +2-20+0
       76   -0.023573   -0.023573  2+2-0+0
      716    0.022670    0.022670  22+0002
      145   -0.022323   -0.022323  -2++200
        8    0.021987   -0.021987  2-2+0+0
      457   -0.021851    0.021851  2++-+-0
      250    0.021636    0.021636  -++2200
       52    0.021533   -0.021533  220200+
      771    0.021095    0.021095  +22+00-
      107    0.020679   -0.020679  +22-+00
      108   -0.020544   -0.020544  +2-2+00
      111    0.020372   -0.020372  +22-0+0

 ---------------------------------------
    -DIABATIC STATES IN PROTOTYPES-     
 ---------------------------------------

     STATE:    1
 Group Ref#    Coefficients
     1    1    0.963918
     2    2   -0.000681
     3    3    0.001873

WEIGHT OF LISTED PROTOTYPES:   92.91%

     STATE:    2
 Group Ref#    Coefficients
     1    1   -0.000681
     2    2    0.963852
     3    3    0.001067

WEIGHT OF LISTED PROTOTYPES:   92.90%

     STATE:    3
 Group Ref#    Coefficients
     1    1    0.001874
     2    2    0.001067
     3    3    0.963457

WEIGHT OF LISTED PROTOTYPES:   92.83%

     DIRECT MAX. DIABATIZATION FINISHED    
 CPU     0: STEP CPU TIME=     0.25 TOTAL CPU TIME=         14.3 (      0.2 MIN)
 TOTAL WALL CLOCK TIME=         14.3 SECONDS, CPU UTILIZATION IS   100.00%

DIABATS FOR SPIN-ORBIT CALCULATION ARE READY

TRANSITION DIPOLES BETWEEN ADIABATS (in A.U.):

STATE PAIR      X         Y         Z
    1    1  0.159844 -0.269379  0.731931
    2    1 -0.050479 -0.027607 -0.004886
    2    2  0.061896 -0.090203  0.264569
    3    1  0.056011 -0.099139 -0.074698
    3    2 -0.115245 -0.068993 -0.000015
    3    3  0.307874 -0.522577  0.238070


TRANSITION DIPOLES BETWEEN DIABATS (in A.U.):

STATE PAIR      X         Y         Z
    1    1  0.146980 -0.245007  0.743008
    2    1 -0.011352 -0.043363  0.001439
    2    2  0.020794 -0.265640  0.254666
    3    1 -0.043541  0.039207 -0.003128
    3    2 -0.050437  0.233496  0.016515
    3    3  0.361841 -0.371511  0.236896

TRANSITION DIPOLES BETWEEN DIRECT MAX. DIABATS (in A.U.):

STATE PAIR      X         Y         Z
    1    1  0.146980 -0.245007  0.743008
    2    1 -0.011352 -0.043363  0.001439
    2    2  0.020794 -0.265640  0.254666
    3    1 -0.043541  0.039207 -0.003127
    3    2 -0.050437  0.233496  0.016515
    3    3  0.361841 -0.371511  0.236896
 No $TRANST Group Found.
 Quit without doing spin-orbit coupling
 ..... DONE WITH MP2 ENERGY .....
 CPU     0: STEP CPU TIME=     0.00 TOTAL CPU TIME=         14.3 (      0.2 MIN)
 TOTAL WALL CLOCK TIME=         14.3 SECONDS, CPU UTILIZATION IS    99.93%
            100000000  WORDS OF DYNAMIC MEMORY USED
 EXECUTION OF GAMESS TERMINATED NORMALLY Wed Nov 16 18:46:44 2022
 DDI: 715512 bytes (0.7 MB / 0 MWords) used by master data server.

 ----------------------------------------
 CPU timing information for all processes
 ========================================
 0: 13.907 + 0.380 = 14.287
 ----------------------------------------
Note: The following floating-point exceptions are signalling: IEEE_DENORMAL
 ddikick.x: exited gracefully.
unset echo
----- accounting info -----
Files used on the master node io002 were:
-rw-r--r-- 1 bsonghao nooijen   20709 Nov 16 18:46 /scratch/bsonghao/nh3_diabatization_2d_at_mode_7_8_dist-0.5_0.3.F05
-rw-r--r-- 1 bsonghao nooijen  363520 Nov 16 18:46 /scratch/bsonghao/nh3_diabatization_2d_at_mode_7_8_dist-0.5_0.3.F09
-rw-r--r-- 1 bsonghao nooijen 1995920 Nov 16 18:46 /scratch/bsonghao/nh3_diabatization_2d_at_mode_7_8_dist-0.5_0.3.F10
-rw-r--r-- 1 bsonghao nooijen  131264 Nov 16 18:46 /scratch/bsonghao/nh3_diabatization_2d_at_mode_7_8_dist-0.5_0.3.F13
-rw-r--r-- 1 bsonghao nooijen  180312 Nov 16 18:46 /scratch/bsonghao/nh3_diabatization_2d_at_mode_7_8_dist-0.5_0.3.F15
-rw-r--r-- 1 bsonghao nooijen       0 Nov 16 18:46 /scratch/bsonghao/nh3_diabatization_2d_at_mode_7_8_dist-0.5_0.3.F16
-rw-r--r-- 1 bsonghao nooijen    9808 Nov 16 18:46 /scratch/bsonghao/nh3_diabatization_2d_at_mode_7_8_dist-0.5_0.3.F70
-rw-r--r-- 1 bsonghao nooijen    9808 Nov 16 18:46 /scratch/bsonghao/nh3_diabatization_2d_at_mode_7_8_dist-0.5_0.3.F71
-rw-r--r-- 1 bsonghao nooijen   19608 Nov 16 18:46 /scratch/bsonghao/nh3_diabatization_2d_at_mode_7_8_dist-0.5_0.3.F72
-rw-r--r-- 1 bsonghao nooijen   19608 Nov 16 18:46 /scratch/bsonghao/nh3_diabatization_2d_at_mode_7_8_dist-0.5_0.3.F73
-rw-r--r-- 1 bsonghao nooijen 1920824 Nov 16 18:46 /scratch/bsonghao/nh3_diabatization_2d_at_mode_7_8_dist-0.5_0.3.F74
-rw-r--r-- 1 bsonghao nooijen       0 Nov 16 18:46 /scratch/bsonghao/nh3_diabatization_2d_at_mode_7_8_dist-0.5_0.3.F75
-rw-r--r-- 1 bsonghao nooijen   58848 Nov 16 18:46 /scratch/bsonghao/nh3_diabatization_2d_at_mode_7_8_dist-0.5_0.3.F76
-rw-r--r-- 1 bsonghao nooijen       0 Nov 16 18:46 /scratch/bsonghao/nh3_diabatization_2d_at_mode_7_8_dist-0.5_0.3.F77
-rw-r--r-- 1 bsonghao nooijen    1864 Nov 16 18:46 /scratch/bsonghao/nh3_diabatization_2d_at_mode_7_8_dist-0.5_0.3.F78
-rw-r--r-- 1 bsonghao nooijen   39208 Nov 16 18:46 /scratch/bsonghao/nh3_diabatization_2d_at_mode_7_8_dist-0.5_0.3.F79
-rw-r--r-- 1 bsonghao nooijen     104 Nov 16 18:46 /scratch/bsonghao/nh3_diabatization_2d_at_mode_7_8_dist-0.5_0.3.F80
-rw-r--r-- 1 bsonghao nooijen   13472 Nov 16 18:46 /scratch/bsonghao/nh3_diabatization_2d_at_mode_7_8_dist-0.5_0.3.F81
-rw-r--r-- 1 bsonghao nooijen      16 Nov 16 18:46 /scratch/bsonghao/nh3_diabatization_2d_at_mode_7_8_dist-0.5_0.3.F82
-rw-r--r-- 1 bsonghao nooijen   19216 Nov 16 18:46 /scratch/bsonghao/nh3_diabatization_2d_at_mode_7_8_dist-0.5_0.3.F83
-rw-r--r-- 1 bsonghao nooijen   29712 Nov 16 18:46 /scratch/bsonghao/nh3_diabatization_2d_at_mode_7_8_dist-0.5_0.3.F84
-rw-r--r-- 1 bsonghao nooijen  401576 Nov 16 18:46 /scratch/bsonghao/nh3_diabatization_2d_at_mode_7_8_dist-0.5_0.3.F85
-rw-r--r-- 1 bsonghao nooijen  903672 Nov 16 18:46 /scratch/bsonghao/nh3_diabatization_2d_at_mode_7_8_dist-0.5_0.3.F86
-rw-r--r-- 1 bsonghao nooijen     656 Nov 16 18:46 /scratch/bsonghao/nh3_diabatization_2d_at_mode_7_8_dist-0.5_0.3.F87
-rw-r--r-- 1 bsonghao nooijen   29712 Nov 16 18:46 /scratch/bsonghao/nh3_diabatization_2d_at_mode_7_8_dist-0.5_0.3.F88
-rw-r--r-- 1 bsonghao nooijen     240 Nov 16 18:46 /scratch/bsonghao/nh3_diabatization_2d_at_mode_7_8_dist-0.5_0.3.F89
-rw-r--r-- 1 bsonghao nooijen       0 Nov 16 18:46 /scratch/bsonghao/nh3_diabatization_2d_at_mode_7_8_dist-0.5_0.3.F90
-rw-r--r-- 1 bsonghao nooijen   13760 Nov 16 18:46 /scratch/bsonghao/nh3_diabatization_2d_at_mode_7_8_dist-0.5_0.3.F91
-rw-r--r-- 1 bsonghao nooijen   22776 Nov 16 18:46 /scratch/bsonghao/nh3_diabatization_2d_at_mode_7_8_dist-0.5_0.3.F92
-rw-r--r-- 1 bsonghao nooijen   23168 Nov 16 18:46 /scratch/bsonghao/nh3_diabatization_2d_at_mode_7_8_dist-0.5_0.3.F93
-rw-r--r-- 1 bsonghao nooijen   22776 Nov 16 18:46 /scratch/bsonghao/nh3_diabatization_2d_at_mode_7_8_dist-0.5_0.3.F94
-rw-r--r-- 1 bsonghao nooijen   13760 Nov 16 18:46 /scratch/bsonghao/nh3_diabatization_2d_at_mode_7_8_dist-0.5_0.3.F95
-rw-r--r-- 1 bsonghao nooijen   29440 Nov 16 18:46 /scratch/bsonghao/nh3_diabatization_2d_at_mode_7_8_dist-0.5_0.3.F96
-rw-r--r-- 1 bsonghao nooijen    1184 Nov 16 18:46 /scratch/bsonghao/nh3_diabatization_2d_at_mode_7_8_dist-0.5_0.3.F97
-rw-r--r-- 1 bsonghao nooijen    9808 Nov 16 18:46 /scratch/bsonghao/nh3_diabatization_2d_at_mode_7_8_dist-0.5_0.3.F98
-rw-r--r-- 1 bsonghao nooijen   30264 Nov 16 18:46 /scratch/bsonghao/nh3_diabatization_2d_at_mode_7_8_dist-0.5_0.3.F99
ls: No match.
ls: No match.
ls: No match.
Wed 16 Nov 2022 06:46:47 PM EST
0.305u 0.034s 0:17.67 1.8%	0+0k 48+224io 0pf+0w
