----- GAMESS execution script 'rungms' -----
This job is running on host io002
under operating system Linux at Wed 16 Nov 2022 06:27:52 PM EST
Available scratch disk space (Kbyte units) at beginning of the job is
Filesystem       1K-blocks       Used   Available Use% Mounted on
/dev/sdc1      15378471580 3278917120 11318349060  23% /scratch
GAMESS temporary binary files will be written to /scratch/bsonghao
GAMESS supplementary output files will be written to /home/bsonghao/.gamess_ascii_files/267638
Copying input file nh3_diabatization_2d_at_mode_7_8_dist-0.7_-0.2.inp to your run's scratch directory...
cp nh3_diabatization_2d_at_mode_7_8_dist-0.7_-0.2.inp /scratch/bsonghao/nh3_diabatization_2d_at_mode_7_8_dist-0.7_-0.2.F05
unset echo
/home/bjb2chen/gamess/ddikick.x /home/bjb2chen/gamess/gamess.00.x nh3_diabatization_2d_at_mode_7_8_dist-0.7_-0.2 -ddi 1 1 io002 -scr /scratch/bsonghao

 Distributed Data Interface kickoff program.
 Initiating 1 compute processes on 1 nodes to run the following command:
 /home/bjb2chen/gamess/gamess.00.x nh3_diabatization_2d_at_mode_7_8_dist-0.7_-0.2 

          ******************************************************
          *         GAMESS VERSION = 02 AUG 2018 (R2)         *
          *             FROM IOWA STATE UNIVERSITY             *
          * M.W.SCHMIDT, K.K.BALDRIDGE, J.A.BOATZ, S.T.ELBERT, *
          *   M.S.GORDON, J.H.JENSEN, S.KOSEKI, N.MATSUNAGA,   *
          *          K.A.NGUYEN, S.J.SU, T.L.WINDUS,           *
          *       TOGETHER WITH M.DUPUIS, J.A.MONTGOMERY       *
          *         J.COMPUT.CHEM.  14, 1347-1363(1993)        *
          **************** 64 BIT LINUX VERSION ****************

  SINCE 1993, STUDENTS AND POSTDOCS WORKING AT IOWA STATE UNIVERSITY
  AND ALSO IN THEIR VARIOUS JOBS AFTER LEAVING ISU HAVE MADE IMPORTANT
  CONTRIBUTIONS TO THE CODE:
     IVANA ADAMOVIC, CHRISTINE AIKENS, YURI ALEXEEV, POOJA ARORA,
     ANDREY ASADCHEV, ROB BELL, PRADIPTA BANDYOPADHYAY, JONATHAN BENTZ,
     BRETT BODE, KURT BRORSEN, CALEB CARLIN, GALINA CHABAN, WEI CHEN,
     CHEOL HO CHOI, PAUL DAY, ALBERT DEFUSCO, NUWAN DESILVA, TIM DUDLEY,
     DMITRI FEDOROV, ALEX FINDLATER, GRAHAM FLETCHER, MARK FREITAG,
     KURT GLAESEMANN, ANASTASIA GUININA,
     DAN KEMP, GRANT MERRILL, NORIYUKI MINEZAWA, JONATHAN MULLIN,
     TAKESHI NAGATA, SEAN NEDD, HEATHER NETZLOFF, BOSILJKA NJEGIC, RYAN OLSON,
     MIKE PAK, BUU PHAM,
     SPENCER PRUITT, LUKE ROSKOP, JIM SHOEMAKER, LYUDMILA SLIPCHENKO,
     TONY SMITH, SAROM SOK LEANG, JIE SONG, TETSUYA TAKETSUGU, SIMON WEBB,
     PENG XU, SOOHAENG YOO, FEDERICO ZAHARIEV

  ADDITIONAL CODE HAS BEEN PROVIDED BY COLLABORATORS IN OTHER GROUPS:
     IOWA STATE UNIVERSITY:
          JOE IVANIC, AARON WEST, LAIMUTIS BYTAUTAS, KLAUS RUEDENBERG
     UNIVERSITY OF TOKYO: KIMIHIKO HIRAO, TAKAHITO NAKAJIMA,
          TAKAO TSUNEDA, MUNEAKI KAMIYA, SUSUMU YANAGISAWA,
          KIYOSHI YAGI, MAHITO CHIBA, SEIKEN TOKURA, NAOAKI KAWAKAMI
     UNIVERSITY OF AARHUS: FRANK JENSEN
     UNIVERSITY OF IOWA: VISVALDAS KAIRYS, HUI LI
     NATIONAL INST. OF STANDARDS AND TECHNOLOGY: WALT STEVENS, DAVID GARMER
     UNIVERSITY OF PISA: BENEDETTA MENNUCCI, JACOPO TOMASI
     UNIVERSITY OF MEMPHIS: HENRY KURTZ, PRAKASHAN KORAMBATH
     UNIVERSITY OF ALBERTA: TOBY ZENG, MARIUSZ KLOBUKOWSKI
     UNIVERSITY OF NEW ENGLAND: MARK SPACKMAN
     MIE UNIVERSITY: HIROAKI UMEDA
     NAT. INST. OF ADVANCED INDUSTRIAL SCIENCE AND TECHNOLOGY: KAZUO KITAURA
     MICHIGAN STATE UNIVERSITY:
          KAROL KOWALSKI, MARTA WLOCH, JEFFREY GOUR, JESSE LUTZ,
          WEI LI, JUN SHEN, J. EMILIANO DEUSTUA, PIOTR PIECUCH
     UNIVERSITY OF MINNESOTA:
          YINAN SHU
     UNIVERSITY OF SILESIA: MONIKA MUSIAL, STANISLAW KUCHARSKI
     FACULTES UNIVERSITAIRES NOTRE-DAME DE LA PAIX:
          OLIVIER QUINET, BENOIT CHAMPAGNE
     UNIVERSITY OF CALIFORNIA - SANTA BARBARA: BERNARD KIRTMAN
     INSTITUTE FOR MOLECULAR SCIENCE:
          KAZUYA ISHIMURA, MICHIO KATOUDA, AND SHIGERU NAGASE
     UNIVERSITY OF NOTRE DAME: ANNA POMOGAEVA, DAN CHIPMAN
     KYUSHU UNIVERSITY:
          HARUYUKI NAKANO,
          FENG LONG GU, JACEK KORCHOWIEC, MARCIN MAKOWSKI, AND YURIKO AOKI,
          HIROTOSHI MORI AND EISAKU MIYOSHI
     PENNSYLVANIA STATE UNIVERSITY:
          TZVETELIN IORDANOV, CHET SWALINA, JONATHAN SKONE,
          SHARON HAMMES-SCHIFFER
     WASEDA UNIVERSITY:
          MASATO KOBAYASHI, TOMOKO AKAMA, TSUGUKI TOUMA,
          TAKESHI YOSHIKAWA, YASUHIRO IKABATA, JUNJI SEINO,
          YUYA NAKAJIMA, HIROMI NAKAI
     NANJING UNIVERSITY: SHUHUA LI
     UNIVERSITY OF NEBRASKA:
          PEIFENG SU, DEJUN SI, NANDUN THELLAMUREGE, YALI WANG, HUI LI
     UNIVERSITY OF ZURICH: ROBERTO PEVERATI, KIM BALDRIDGE
     N. COPERNICUS UNIVERSITY AND JACKSON STATE UNIVERSITY:
          MARIA BARYSZ
     UNIVERSITY OF COPENHAGEN: Jimmy Kromann, CASPER STEINMANN
     TOKYO INSTITUTE OF TECHNOLOGY: HIROYA NAKATA
     NAGOYA UNIVERSITY: YOSHIO NISHIMOTO, STEPHAN IRLE
     MOSCOW STATE UNIVERSITY: VLADIMIR MIRONOV

 EXECUTION OF GAMESS BEGUN Wed Nov 16 18:27:52 2022

            ECHO OF THE FIRST FEW INPUT CARDS -
 INPUT CARD> $system kdiag=3 mwords=100 memddi=1000 parall=.t. $end                         
 INPUT CARD> $contrl runtyp=energy ispher=1 $end                                            
 INPUT CARD> $contrl icut=9 itol=20 inttyp=rysquad qmttol=1.0d-05 nosym=1 $end              
 INPUT CARD> $scf    npunch=2 conv=1.0d-06 dirscf=.t.      $end                             
 INPUT CARD> $contrl scftyp=mcscf  mult=2 maxit=200 icharg=1 mplevl=2 $end                  
 INPUT CARD> $guess  guess=moread norb=29 purify=.t. $end                                   
 INPUT CARD> $basis  gbasis=ccd $end                                                        
 INPUT CARD> $mcscf  cistep=gmcci fullnr=.t. finci=mos                                      
 INPUT CARD>         acurcy=1.d-6 maxit=100 $end                                            
 INPUT CARD> $trans  dirtrf=.t. $end                                                        
 INPUT CARD> $mrmp   mrpt=gmcpt rdvecs=.f. $end                                             
 INPUT CARD> $gmcpt  nmofzc=0 nmodoc=1 nmoact=7 nelact=7 stsym(1)=A                         
 INPUT CARD>         reftyp=ormas nspace=1 mstart(1)=2 mine(1)=7 maxe(1)=7                  
 INPUT CARD>         kstate(1)=1,1,1                                                        
 INPUT CARD>         wstate(1)=1,1,1                                                        
 INPUT CARD>         iwgt=0 thrwgt=-1.0 krot=.f. kszdoe=.f. knospn=.f.                      
 INPUT CARD>         thrde=-1.0 edshft=0.02 $end                                            
 INPUT CARD> $data                                                                          
 INPUT CARD> NH3+ 3 states calculation at NH3 structure.                                    
 INPUT CARD> c1                                                                             
 INPUT CARD>N 7.0 0.012457835999999996 0.043602321000000006 -0.1693805762                   
 INPUT CARD>H 1.0 -0.834641899 0.6820249418000001 0.12283193609999998                       
 INPUT CARD>H 1.0 -0.29966467599999996 -0.7770637338 0.44288226510000006                    
 INPUT CARD>H 1.0 0.961201624 -0.510830212 0.20366482910000003                              
 INPUT CARD>$end                                                                            
 INPUT CARD>--- OPTIMIZED RHF      MO-S --- GENERATED AT Mon Nov 14 16:47:08 2022           
 INPUT CARD>E=      -56.3825050291, E(NUC)=   11.8429239490                                 
 INPUT CARD> $VEC                                                                           
 INPUT CARD> 1  1-1.00134066E+00-2.25158504E-03 3.44925845E-03 0.00000000E+00 0.00000000E+00
 INPUT CARD> 1  2-2.13170927E-03 0.00000000E+00 0.00000000E+00 6.57129898E-04-6.87950443E-05
 INPUT CARD> 1  3-6.87950443E-05 1.37590089E-04 0.00000000E+00 0.00000000E+00 0.00000000E+00
 INPUT CARD> 1  4 3.25502815E-04-4.84772356E-04 3.62525460E-04-6.27912517E-04-3.45956485E-04
 INPUT CARD> 1  5 3.25502815E-04-4.84772356E-04 3.62525460E-04 6.27912517E-04-3.45956485E-04
 INPUT CARD> 1  6 3.25502815E-04-4.84772356E-04-7.25050921E-04 0.00000000E+00-3.45956485E-04
 INPUT CARD> 2  1 1.31286642E-02-4.05911371E-01-2.82090992E-01 0.00000000E+00 0.00000000E+00
 INPUT CARD> 2  2-7.71489043E-02 0.00000000E+00 0.00000000E+00 9.73717494E-03 6.62450916E-04
 INPUT CARD> 2  3 6.62450916E-04-1.32490183E-03 0.00000000E+00 0.00000000E+00 0.00000000E+00
 INPUT CARD> 2  4-1.96090317E-01-1.96656153E-02-1.74855877E-02 3.02859263E-02 8.68214399E-03
 INPUT CARD> 2  5-1.96090317E-01-1.96656153E-02-1.74855877E-02-3.02859263E-02 8.68214399E-03
 INPUT CARD> 2  6-1.96090317E-01-1.96656153E-02 3.49711754E-02 0.00000000E+00 8.68214399E-03
 INPUT CARD> 3  1 0.00000000E+00 0.00000000E+00 0.00000000E+00 4.48608762E-01 0.00000000E+00
 INPUT CARD> 3  2 0.00000000E+00 2.18692520E-01 0.00000000E+00 0.00000000E+00 1.30198027E-02
 INPUT CARD> 3  3-1.30198027E-02 0.00000000E+00 0.00000000E+00 2.71832968E-02 0.00000000E+00
 INPUT CARD> 3  4-1.85332726E-01-7.03958951E-02 8.47929477E-03 1.95242443E-02 8.32835058E-03
 INPUT CARD> 3  5-1.85332726E-01-7.03958951E-02 8.47929477E-03-1.95242443E-02 8.32835058E-03
 INPUT CARD> 3  6 3.70665453E-01 1.40791790E-01-2.53376884E-02 0.00000000E+00-1.66567012E-02
 INPUT CARD> 4  1 0.00000000E+00 0.00000000E+00 0.00000000E+00 0.00000000E+00 4.48608762E-01
 INPUT CARD> 4  2 0.00000000E+00 0.00000000E+00 2.18692520E-01 0.00000000E+00 0.00000000E+00
 INPUT CARD> 4  3 0.00000000E+00 0.00000000E+00-1.50339731E-02 0.00000000E+00 2.71832968E-02
 INPUT CARD> 4  4 3.21005698E-01 1.21929267E-01 1.95242443E-02-1.40653607E-02-1.44251263E-02
  100000000 WORDS OF MEMORY AVAILABLE

     BASIS OPTIONS
     -------------
     GBASIS=CCD          IGAUSS=       0      POLAR=NONE    
     NDFUNC=       0     NFFUNC=       0     DIFFSP=       F
     NPFUNC=       0      DIFFS=       F     BASNAM=        


     RUN TITLE
     ---------
  NH3+ 3 states calculation at NH3 structure.                                    

 THE POINT GROUP OF THE MOLECULE IS C1      
 THE ORDER OF THE PRINCIPAL AXIS IS     0

 ATOM      ATOMIC                      COORDINATES (BOHR)
           CHARGE         X                   Y                   Z
 N           7.0     0.0235418964        0.0823964391       -0.3200828767
 H           1.0    -1.5772444870        1.2888402568        0.2321187018
 H           1.0    -0.5662841258       -1.4684375319        0.8369261259
 H           1.0     1.8164076883       -0.9653291269        0.3848707203

          INTERNUCLEAR DISTANCES (ANGS.)
          ------------------------------

                1 N          2 H          3 H          4 H     

   1 N       0.0000000    1.1002498 *  1.0704107 *  1.1604624 *
   2 H       1.1002498 *  0.0000000    1.5866860 *  2.1574270 *
   3 H       1.0704107 *  1.5866860 *  0.0000000    1.3106827 *
   4 H       1.1604624 *  2.1574270 *  1.3106827 *  0.0000000  

  * ... LESS THAN  3.000


     ATOMIC BASIS SET
     ----------------
 THE CONTRACTED PRIMITIVE FUNCTIONS HAVE BEEN UNNORMALIZED
 THE CONTRACTED BASIS FUNCTIONS ARE NOW NORMALIZED TO UNITY

  SHELL TYPE  PRIMITIVE        EXPONENT          CONTRACTION COEFFICIENT(S)

 N         

      1   S       1          9046.0000000    0.000699617413
      1   S       2          1357.0000000    0.005386054630
      1   S       3           309.3000000    0.027391021189
      1   S       4            87.7300000    0.103150591982
      1   S       5            28.5600000    0.278570663317
      1   S       6            10.2100000    0.448294849454
      1   S       7             3.8380000    0.278085928395
      1   S       8             0.7466000    0.015431561233

      2   S       9          9046.0000000   -0.000304990096
      2   S      10          1357.0000000   -0.002408026379
      2   S      11           309.3000000   -0.011944448725
      2   S      12            87.7300000   -0.048925992909
      2   S      13            28.5600000   -0.134472724725
      2   S      14            10.2100000   -0.315112577700
      2   S      15             3.8380000   -0.242857832550
      2   S      16             0.7466000    1.094382206854

      3   S      17             0.2248000    1.000000000000

      4   P      18            13.5500000    0.058905676772
      4   P      19             2.9170000    0.320461106714
      4   P      20             0.7973000    0.753042061792

      5   P      21             0.2185000    1.000000000000

      6   D      22             0.8170000    1.000000000000

 H         

      7   S      23            13.0100000    0.033498726390
      7   S      24             1.9620000    0.234800801174
      7   S      25             0.4446000    0.813682957883

      8   S      26             0.1220000    1.000000000000

      9   P      27             0.7270000    1.000000000000

 H         

     10   S      28            13.0100000    0.033498726390
     10   S      29             1.9620000    0.234800801174
     10   S      30             0.4446000    0.813682957883

     11   S      31             0.1220000    1.000000000000

     12   P      32             0.7270000    1.000000000000

 H         

     13   S      33            13.0100000    0.033498726390
     13   S      34             1.9620000    0.234800801174
     13   S      35             0.4446000    0.813682957883

     14   S      36             0.1220000    1.000000000000

     15   P      37             0.7270000    1.000000000000

 TOTAL NUMBER OF BASIS SET SHELLS             =   15
 NUMBER OF CARTESIAN GAUSSIAN BASIS FUNCTIONS =   30
 NOTE: THIS RUN WILL RESTRICT THE MO VARIATION SPACE TO SPHERICAL HARMONICS.
 THE NUMBER OF ORBITALS KEPT IN THE VARIATIONAL SPACE WILL BE PRINTED LATER.
 NUMBER OF ELECTRONS                          =    9
 CHARGE OF MOLECULE                           =    1
 SPIN MULTIPLICITY                            =    2
 NUMBER OF OCCUPIED ORBITALS (ALPHA)          =    5
 NUMBER OF OCCUPIED ORBITALS (BETA )          =    4
 TOTAL NUMBER OF ATOMS                        =    4
 THE NUCLEAR REPULSION ENERGY IS       11.0018789444

     $CONTRL OPTIONS
     ---------------
 SCFTYP=MCSCF        RUNTYP=ENERGY       EXETYP=RUN     
 MPLEVL=       2     CITYP =NONE         CCTYP =NONE         VBTYP =NONE    
 DFTTYP=NONE         TDDFT =NONE    
 MULT  =       2     ICHARG=       1     NZVAR =       0     COORD =UNIQUE  
 PP    =NONE         RELWFN=NONE         LOCAL =NONE         NUMGRD=       F
 ISPHER=       1     NOSYM =       1     MAXIT =     200     UNITS =ANGS    
 PLTORB=       F     MOLPLT=       F     AIMPAC=       F     FRIEND=        
 NPRINT=       7     IREST =       0     GEOM  =INPUT   
 NORMF =       0     NORMP =       0     ITOL  =      20     ICUT  =       9
 INTTYP=RYSQUAD      GRDTYP=BEST         QMTTOL= 1.0E-05

     $SYSTEM OPTIONS
     ---------------
  REPLICATED MEMORY=   100000000 WORDS (ON EVERY NODE).
 DISTRIBUTED MEMDDI=        1000 MILLION WORDS IN AGGREGATE,
 MEMDDI DISTRIBUTED OVER   1 PROCESSORS IS  1000000000 WORDS/PROCESSOR.
 TOTAL MEMORY REQUESTED ON EACH PROCESSOR=  1100000000 WORDS.
 TIMLIM=      525600.00 MINUTES, OR     365.0 DAYS.
 PARALL= T  BALTYP=  DLB     KDIAG=    3  COREFL= F
 MXSEQ2=     300 MXSEQ3=     150  mem10=         0

          ----------------
          PROPERTIES INPUT
          ----------------

     MOMENTS            FIELD           POTENTIAL          DENSITY
 IEMOM =       1   IEFLD =       0   IEPOT =       0   IEDEN =       0
 WHERE =COMASS     WHERE =NUCLEI     WHERE =NUCLEI     WHERE =NUCLEI  
 OUTPUT=BOTH       OUTPUT=BOTH       OUTPUT=BOTH       OUTPUT=BOTH    
 IEMINT=       0   IEFINT=       0                     IEDINT=       0
                                                       MORB  =       0

     -------------------------------
     INTEGRAL TRANSFORMATION OPTIONS
     -------------------------------
     NWORD  =            0
     CUTOFF = 1.0E-09     MPTRAN =       0
     DIRTRF =       T     AOINTS =DUP     

          ----------------------
          MCSCF INPUT PARAMETERS
          ----------------------
 CONVERGER SELECTION: FOCAS = F  SOSCF = F  FULLNR = T  QUD = F  JACOBI = F
 SECULAR EQUATION METHOD CISTEP = GMCCI   
 --- GENERAL INPUT OPTIONS:
 MAXIT =     100  MICIT =       1  ACURCY= 1.000E-06
 DAMP  =   0.000  CANONC=       T  ENGTOL= 1.000E-10
 EKT   =       F  NPUNCH=       2  NWORD =         0
 REGENERATE CI AFTER CONVERGENCE = NONE    
 DIABATIZATION AFTER CONVERGENCE =        F
 --- INPUT FOR FULLNR CONVERGER:
 METHOD=DM2       FORS  =       F  DROPC =       T
 LINSER=       F  FCORE =       F  NORB  =      30

          ----------------------
          INTEGRAL INPUT OPTIONS
          ----------------------
 NOPK  =       1 NORDER=       0 SCHWRZ=       T

 ------------------------------------------
 MULTIREFERENCE PERTURBATION THEORY CONTROL
 ------------------------------------------
 MRPT=GMCPT    READ CONVERGED MCSCF VECTORS= F


     ------------------------------------------
     THE POINT GROUP IS C1 , NAXIS= 1, ORDER= 1
     ------------------------------------------

 -- VARIATIONAL SPACE WILL BE RESTRICTED TO PURE SPHERICAL HARMONICS ONLY --
 AFTER EXCLUDING CONTAMINANT COMBINATIONS FROM THE CARTESIAN GAUSSIAN BASIS
 SET, THE NUMBER OF SPHERICAL HARMONICS KEPT IN THE VARIATION SPACE IS   29

     DIMENSIONS OF THE SYMMETRY SUBSPACES ARE
 A   =   29

 ..... DONE SETTING UP THE RUN .....
 CPU     0: STEP CPU TIME=     0.04 TOTAL CPU TIME=          0.0 (      0.0 MIN)
 TOTAL WALL CLOCK TIME=          0.0 SECONDS, CPU UTILIZATION IS   100.00%

          ********************
          1 ELECTRON INTEGRALS
          ********************
 TIME TO DO   DIPOLE INTEGRALS=      0.00
 ...... END OF ONE-ELECTRON INTEGRALS ......
 CPU     0: STEP CPU TIME=     0.00 TOTAL CPU TIME=          0.0 (      0.0 MIN)
 TOTAL WALL CLOCK TIME=          0.0 SECONDS, CPU UTILIZATION IS   100.00%

          -------------
          GUESS OPTIONS
          -------------
          GUESS =MOREAD            NORB  =      29          NORDER=       0
          MIX   =       F          PRTMO =       F          PUNMO =       F
          TOLZ  = 1.0E-08          TOLE  = 1.0E-05
          SYMDEN=       F          PURIFY=       T

 INITIAL GUESS ORBITALS GENERATED BY MOREAD   ROUTINE.

 STATISTICS FOR GENERATION OF SYMMETRY ORBITAL -Q- MATRIX
 NUMBER OF CARTESIAN ATOMIC ORBITALS=         30
 NUMBER OF SPHERICAL CONTAMINANTS DROPPED=     1
 NUMBER OF LINEARLY DEPENDENT MOS DROPPED=     0
 TOTAL NUMBER OF MOS IN VARIATION SPACE=      29
 ORBITAL PURIFICATION WILL OCCUR

 SYMMETRIES FOR INITIAL GUESS ORBITALS FOLLOW.   BOTH SET(S).
     5 ORBITALS ARE OCCUPIED (    1 CORE ORBITALS).
     1=A        2=A        3=A        4=A        5=A        6=A        7=A   
     8=A        9=A       10=A       11=A       12=A       13=A       14=A   
    15=A       16=A       17=A       18=A       19=A       20=A       21=A   
    22=A       23=A       24=A       25=A       26=A       27=A       28=A   
    29=A   
 ...... END OF INITIAL ORBITAL SELECTION ......
 CPU     0: STEP CPU TIME=     0.00 TOTAL CPU TIME=          0.0 (      0.0 MIN)
 TOTAL WALL CLOCK TIME=          0.0 SECONDS, CPU UTILIZATION IS    80.00%

                    ----------------------
                    AO INTEGRAL TECHNOLOGY
                    ----------------------
     S,P,L SHELL ROTATED AXIS INTEGRALS, REPROGRAMMED BY
        KAZUYA ISHIMURA (IMS) AND JOSE SIERRA (SYNSTAR).
     S,P,D,L SHELL ROTATED AXIS INTEGRALS PROGRAMMED BY
        KAZUYA ISHIMURA (INSTITUTE FOR MOLECULAR SCIENCE).
     S,P,D,F,G SHELL TO TOTAL QUARTET ANGULAR MOMENTUM SUM 5,
        ERIC PROGRAM BY GRAHAM FLETCHER (ELORET AND NASA ADVANCED
        SUPERCOMPUTING DIVISION, AMES RESEARCH CENTER).
     S,P,D,F,G,L SHELL GENERAL RYS QUADRATURE PROGRAMMED BY
        MICHEL DUPUIS (PACIFIC NORTHWEST NATIONAL LABORATORY).

          --------------------
          2 ELECTRON INTEGRALS
          --------------------

 DIRECT SCF METHOD SKIPS INTEGRAL STORAGE ON DISK.
 DIRECT TRANSFORMATION SKIPS AO INTEGRAL STORAGE ON DISK.
  ...... END OF TWO-ELECTRON INTEGRALS .....
 STEP CPU TIME =     0.03 TOTAL CPU TIME =          0.1 (      0.0 MIN)
 TOTAL WALL CLOCK TIME=          0.1 SECONDS, CPU UTILIZATION IS   100.00%
 DDI: Creating Array [0] - 900 x 36 = 32400 words.
 DDI: Creating Array [1] - 21 x 288 = 6048 words.
 DDI: Creating Array [2] - 36 x 36 = 1296 words.
 DDI: Creating Array [3] - 465 x 36 = 16740 words.

          -----------------
          MCSCF CALCULATION
          -----------------

 ----- NUCLEAR ENERGY ----- =        11.0018789444

     -------------------------------------------------
     GMC-PT/GMC-QDPT or general MCSCF input parameters
     -------------------------------------------------
 # of frozen core orbs. =         0 ->         0
 # of doubly occ. orbs. =         1
 # of active      orbs. =         7
 # of virtual     orbs. =        21
 # of active electrons  =         7
 # of states in CI      =         3
 Highest state in CI    =         3
 kstate =  1 1 1
 avecoe =  0.333 0.333 0.333
 State symmetry           = A           
 Assigned symmetry number = 1

 <<<Act. MO sym.: 1111111

 <<<Division of 1-ext.:  0
 <<<Division of 2-ext.:  0

 *** Reference space

 Reference type: ORMAS (= Occupation restricted multiple active space)
 # of orbitals          =  7
 # of minimum electrons =  7
 # of maximum electrons =  7
 State symmetry    =    1 (input)
 2*Sz              =    1 (input)
 Spin multiplicity =    2 (input)
 Dimension of reference space =      1225  (from      3432 walks)

 Dimension of reference space =      1225  (from      1225 walks)

 <<<Ionized spaces for Ref-CI:
      0:         1225 /   -1-0:         1960 /  0-1-0:         2891

 EVALUATING EXCHANGE INTEGRALS FOR DIRECT INTEGRAL TRANSFORMATION
 SCHWARZ INEQUALITY OVERHEAD:       465 INTEGRALS, T=        0.01

     --------------------------------------------
     PARTIAL TWO ELECTRON INTEGRAL TRANSFORMATION
     --------------------------------------------

 NUMBER OF CORE MOLECULAR ORBITALS     =    1
 NUMBER OF OCCUPIED MOLECULAR ORBITALS =    8
 TOTAL NUMBER OF MOLECULAR ORBITALS    =   29
 TOTAL NUMBER OF ATOMIC ORBITALS       =   30
 THRESHOLD FOR KEEPING TRANSFORMED 2E- INTEGRALS = 1.000E-09

 -------------------------------     ------------------------------
 DISTRIBUTED DATA TRANSFORMATION     PROGRAM WRITTEN BY G. FLETCHER
 -------------------------------     ------------------------------

 THE DISTRIBUTED MEMORY REQUIRED FOR THIS STEP IS MEMDDI=         1 MWORDS
 CREATING DISTRIBUTED STORAGE FOR [VIR OCC|VIR OCC] INTEGRALS
 CREATING DISTRIBUTED STORAGE FOR [VIR OCC|OCC OCC] INTEGRALS
 CREATING DISTRIBUTED STORAGE FOR [OCC OCC|OCC OCC] INTEGRALS
 CREATING DISTRIBUTED STORAGE FOR [VIR VIR|OCC OCC] INTEGRALS
 FOR    1 PROCESSORS, THE REPLICATED MEMORY NEEDED IS       73700 WORDS.
 SCHWARZ INEQUALITY OVERHEAD:       465 INTEGRALS, T=        0.00

      DIRECT 4-INDEX TRANSFORMATION 
      SCHWARZ INEQUALITY TEST SKIPPED          0 INTEGRAL BLOCKS
 ----- FROZEN CORE ENERGY =       -47.5946261768
 ... END OF INTEGRAL TRANSFORMATION ...
 CPU     0: STEP CPU TIME=     0.22 TOTAL CPU TIME=          0.3 (      0.0 MIN)
 TOTAL WALL CLOCK TIME=          0.3 SECONDS, CPU UTILIZATION IS   100.00%

     --------------------------------     -----------------------------
     MCHF NEWTON-RAPHSON OPTIMIZATION     CODE WRITTEN BY MICHEL DUPUIS
     --------------------------------     -----------------------------
     PARALLEL VERSION WRITTEN BY G. FLETCHER (ELORET)
     NASA ADVANCED SUPERCOMPUTING DIVISION, AMES RESEARCH CENTER

 NUMBER OF INDEPENDENT ORBITAL ROTATION PARAMETERS =   175
 ..... DONE SOLVING NEWTON-RAPHSON EQUATIONS .....
 CPU     0: STEP CPU TIME=     0.78 TOTAL CPU TIME=          1.1 (      0.0 MIN)
 TOTAL WALL CLOCK TIME=          1.1 SECONDS, CPU UTILIZATION IS    99.07%
 ..... DONE WITH NTN-RPH ORBITAL ROTATIONS ..... 
 CPU     0: STEP CPU TIME=     0.00 TOTAL CPU TIME=          1.1 (      0.0 MIN)
 TOTAL WALL CLOCK TIME=          1.1 SECONDS, CPU UTILIZATION IS    99.07%
 MAXIMUM MEMORY USED BY NTN-RPH CODE WAS     57645 WORDS.

 ITER     TOTAL ENERGY      DEL(E)  LAGRANGIAN ASYMMETRY   SQCDF  MICIT   DAMP
   1      -55.600066479 -0.600066479  0.108103   12    5 1.014E-01  1   0.0000
   2      -55.659280532 -0.059214053  0.019678   12    5 4.616E-01  1   0.0000
   3      -55.695712942 -0.036432410  0.014081   11    6 2.245E-01  1   0.0185
   4      -55.712195567 -0.016482625  0.004889   11    6 4.236E-02  1   0.0058
   5      -55.714359442 -0.002163875  0.001041   14    5 1.061E-03  1   0.0000
   6      -55.714426762 -0.000067320  0.000445   23    5 8.500E-05  1   0.0000
   7      -55.714434301 -0.000007538  0.000199   23    5 1.770E-05  1   0.0000
   8      -55.714435873 -0.000001572  0.000096   23    5 4.444E-06  1   0.0000
   9      -55.714436252 -0.000000379  0.000048   23    5 1.215E-06  1   0.0000
  10      -55.714436351 -0.000000099  0.000025   23    5 3.511E-07  1   0.0000
  11      -55.714436379 -0.000000028  0.000013   23    5 1.053E-07  1   0.0000
  12      -55.714436387 -0.000000008  0.000007   23    5 3.252E-08  1   0.0000
  13      -55.714436389 -0.000000002  0.000004   23    5 1.032E-08  1   0.0000
  14      -55.714436390 -0.000000001  0.000002   23    5 3.326E-09  1   0.0000
  15      -55.714436390 -0.000000000  0.000001   23    5 1.088E-09  1   0.0000
  16      -55.714436390 -0.000000000  0.000001   23    5 3.565E-10  1   0.0000

          --------------------
          LAGRANGIAN CONVERGED
          --------------------

 FINAL MCSCF ENERGY IS      -55.7144363904 AFTER  16 ITERATIONS

 -MCCI- BASED ON OPTIMIZED ORBITALS
 ----------------------------------

 PLEASE NOTE: IF THE ACTIVE ORBITALS ARE CANONICALIZED BELOW,
 THE FOLLOWING CI EXPANSION COEFFICIENTS AND THE DENSITY DO NOT
 CORRESPOND TO THE PRINTED ORBITALS.  THE PRINTED EXPANSIONS MATCH
 THE ORBITALS USED DURING THE LAST ITERATION.  IF YOU WISH TO SEE
 CI EXPANSIONS BASED ON THE CANONICAL (OR NATURAL) ORBITALS, YOU
 MUST RUN A CI CALCULATION WITH THAT ORBITAL CHOICE READ IN $VEC.

 Averaged energy =     -55.714436390

 State #    1  Energy =     -55.853238100  S =  0.500

      Det      Coef    Occupancy (Ignoring core)
      ---      ----    --------- --------- -----
        1   -0.879294  11110001110000
        2   -0.056531  11101001110000
        5    0.073099  01111001110000
        8    0.128516  10110101110000
       17    0.144825  11010011110000
       36    0.297131  11110001101000
       71   -0.152556  11110001011000
      211   -0.052932  11110000110100
      386   -0.100577  11110001010010
      393   -0.052983  10110101010010
      701   -0.096120  11110001100001
      717   -0.066123  11010011100001

 State #    2  Energy =     -55.716112785  S =  0.500

      Det      Coef    Occupancy (Ignoring core)
      ---      ----    --------- --------- -----
        1   -0.317028  11110001110000
        8    0.053389  10110101110000
       36   -0.677058  11110001101000
       38    0.062911  11011001101000
       40    0.052895  01111001101000
       43    0.079044  10110101101000
       52    0.081843  11010011101000
       71    0.581528  11110001011000
       73   -0.050886  11011001011000
       78   -0.060097  10110101011000
       87   -0.074283  11010011011000
      106   -0.051777  11110000111000
      456   -0.062906  11110001001010
      701   -0.083361  11110001100001
      806   -0.058341  11110001001001

 State #    3  Energy =     -55.573958286  S =  0.500

      Det      Coef    Occupancy (Ignoring core)
      ---      ----    --------- --------- -----
        1   -0.072690  11110001110000
       36   -0.595683  11110001101000
       43    0.054880  10110101101000
       52    0.053539  11010011101000
       71   -0.741977  11110001011000
       87    0.074014  11010011011000
      246    0.057740  11110001001100
      316   -0.065506  11110000011100
      456   -0.066241  11110001001010
      806    0.106611  11110001001001
      822    0.057814  11010011001001

 DENSITY MATRIX OVER ACTIVE MO-S

             1           2           3           4           5

    1    1.9725928
    2   -0.0135898   1.6274233
    3   -0.0286469  -0.0090172   1.6213011
    4   -0.0034716  -0.0063337  -0.0104560   1.6476874
    5    0.1125843   0.0355572   0.0768802   0.0390515   0.0385141
    6   -0.0123072  -0.1495194  -0.0080378  -0.0358479  -0.0091943
    7    0.0101115   0.0280868   0.1772713   0.0848206   0.0159313

             6           7

    6    0.0388691
    7   -0.0108742   0.0536121

 FORMING THE "STANDARD FOCK OPERATOR" IN DIRECT AO INTEGRAL MODE...
 ONLY THE    1 CORE AND   21 VIRTUAL ORBITALS WILL BE CANONICALIZED

          ----------------------
          MCSCF NATURAL ORBITALS
          ----------------------

                      1          2          3          4          5
                  -15.9776     1.9811     1.6542     1.6467     1.6392
                     A          A          A          A          A   
    1  N  1  S    1.001061   0.009643  -0.008424   0.002079   0.003711
    2  N  1  S   -0.002018   0.434394  -0.160250   0.076620   0.086758
    3  N  1  S   -0.006380   0.329315  -0.258070   0.105306   0.132618
    4  N  1  X   -0.000131  -0.025978  -0.009866  -0.277497   0.415588
    5  N  1  Y   -0.000051  -0.052692   0.145106   0.362920   0.331036
    6  N  1  Z    0.001061   0.086314   0.580283  -0.086691  -0.008032
    7  N  1  X   -0.000007   0.000235   0.017297  -0.102956   0.225230
    8  N  1  Y    0.000025  -0.006287   0.111243   0.147837   0.189475
    9  N  1  Z   -0.000522   0.014173   0.388887  -0.037800   0.032777
   10  N  1 XX    0.000069   0.000166  -0.010445   0.006466   0.008030
   11  N  1 YY    0.000050   0.000024  -0.012262  -0.002366  -0.007305
   12  N  1 ZZ   -0.000119  -0.000190   0.022707  -0.004100  -0.000725
   13  N  1 XY   -0.000227  -0.003214  -0.001756  -0.005642  -0.015711
   14  N  1 XZ   -0.000089  -0.000203  -0.003580  -0.009990   0.017674
   15  N  1 YZ   -0.000152  -0.003359  -0.000543   0.016769   0.015177
   16  H  2  S   -0.001600   0.160615   0.145483   0.337778  -0.010245
   17  H  2  S    0.000562  -0.000034   0.037513   0.051090   0.017936
   18  H  2  X   -0.000665   0.022818   0.015051   0.032062   0.007716
   19  H  2  Y    0.000557  -0.021858  -0.008761  -0.020348   0.020724
   20  H  2  Z    0.000281  -0.003127   0.019061  -0.013084  -0.000578
   21  H  3  S   -0.001813   0.218333   0.110866  -0.184976  -0.324296
   22  H  3  S    0.000280   0.009478   0.027279  -0.032992  -0.101068
   23  H  3  X   -0.000314   0.012241   0.008615  -0.025392   0.002308
   24  H  3  Y   -0.000801   0.030700   0.020180  -0.002394  -0.021101
   25  H  3  Z    0.000564  -0.018828   0.018492   0.008368   0.022322
   26  H  4  S   -0.001384   0.157945   0.057497  -0.266881   0.235499
   27  H  4  S    0.000400  -0.001038   0.026395  -0.038180   0.081235
   28  H  4  X    0.000647  -0.025966  -0.005983   0.034325  -0.010907
   29  H  4  Y   -0.000333   0.012265   0.005469  -0.005929   0.026513
   30  H  4  Z    0.000312  -0.005127   0.022338   0.005177  -0.007328

                      6          7          8
                    0.0350     0.0235     0.0203
                     A          A          A   
    1  N  1  S   -0.129308  -0.134233  -0.088175
    2  N  1  S   -0.436877  -0.485986  -0.278441
    3  N  1  S    0.012876  -0.206514  -0.027031
    4  N  1  X   -0.417500   0.027188   0.771022
    5  N  1  Y   -0.442834   0.549119  -0.424357
    6  N  1  Z   -0.179048  -0.597843  -0.199085
    7  N  1  X    0.044509  -0.005994   0.065651
    8  N  1  Y    0.048578   0.098328  -0.027329
    9  N  1  Z    0.068103   0.052846   0.057397
   10  N  1 XX    0.029193  -0.017264   0.044327
   11  N  1 YY   -0.023784   0.016708  -0.037269
   12  N  1 ZZ   -0.005409   0.000556  -0.007057
   13  N  1 XY   -0.073178  -0.018274   0.012646
   14  N  1 XZ    0.005825  -0.004605  -0.051015
   15  N  1 YZ   -0.007314  -0.053563   0.010286
   16  H  2  S    0.422577   0.087006   0.696137
   17  H  2  S    0.086956  -0.016727   0.149789
   18  H  2  X    0.043046   0.012340   0.051634
   19  H  2  Y   -0.011164  -0.016082  -0.052147
   20  H  2  Z   -0.001869   0.009881   0.028834
   21  H  3  S   -0.381026   0.733838   0.134514
   22  H  3  S   -0.156009   0.147341   0.038532
   23  H  3  X    0.008740   0.047181  -0.033545
   24  H  3  Y   -0.008775   0.043038   0.037189
   25  H  3  Z    0.024078  -0.000840  -0.001490
   26  H  4  S    0.597193   0.317976  -0.386668
   27  H  4  S    0.163012   0.034970  -0.120375
   28  H  4  X   -0.042168  -0.045688   0.034600
   29  H  4  Y    0.046709  -0.002422  -0.006257
   30  H  4  Z    0.001561   0.030665  -0.011033

          ------------------------
          MCSCF OPTIMIZED ORBITALS
          ------------------------

                      1          2          3          4          5
                  -15.9776     0.0000     0.0000     0.0000     0.0000
                     A          A          A          A          A   
    1  N  1  S    1.001061  -0.002091  -0.002278  -0.013004  -0.015895
    2  N  1  S   -0.002018   0.397851   0.000942   0.012762  -0.196775
    3  N  1  S   -0.006380   0.329017   0.045357   0.112102  -0.272456
    4  N  1  X   -0.000131  -0.012797   0.411786   0.063000   0.005012
    5  N  1  Y   -0.000051  -0.018712   0.000141   0.421417   0.037578
    6  N  1  Z    0.001061   0.050831  -0.007641  -0.012634   0.579397
    7  N  1  X   -0.000007   0.013739   0.232409   0.081240   0.030761
    8  N  1  Y    0.000025   0.016434   0.041403   0.248289   0.081659
    9  N  1  Z   -0.000522   0.022985   0.015061   0.053289   0.392042
   10  N  1 XX    0.000069   0.001743   0.001717   0.014489  -0.009198
   11  N  1 YY    0.000050  -0.001245  -0.001901  -0.013067  -0.013442
   12  N  1 ZZ   -0.000119  -0.000498   0.000184  -0.001422   0.022640
   13  N  1 XY   -0.000227  -0.007797  -0.013962  -0.020994  -0.004485
   14  N  1 XZ   -0.000089  -0.000048   0.023820   0.001637  -0.002452
   15  N  1 YZ   -0.000152  -0.004376  -0.000993   0.023446  -0.003447
   16  H  2  S   -0.001600   0.199136  -0.261264   0.330719   0.119248
   17  H  2  S    0.000562   0.007370  -0.027178   0.071962   0.034907
   18  H  2  X   -0.000665   0.027098  -0.017445   0.036120   0.012289
   19  H  2  Y    0.000557  -0.022922   0.032737  -0.004815  -0.006841
   20  H  2  Z    0.000281  -0.002692   0.004471  -0.006136   0.020948
   21  H  3  S   -0.001813   0.211320  -0.169318  -0.397795   0.118109
   22  H  3  S    0.000280   0.003213  -0.069396  -0.104995   0.024315
   23  H  3  X   -0.000314   0.013587   0.020289  -0.018908   0.012239
   24  H  3  Y   -0.000801   0.031314  -0.019738  -0.014821   0.020139
   25  H  3  Z    0.000564  -0.016126   0.011919   0.026872   0.017684
   26  H  4  S   -0.001384   0.196208   0.410049  -0.011813   0.122422
   27  H  4  S    0.000400   0.009294   0.103008   0.038155   0.038315
   28  H  4  X    0.000647  -0.028716  -0.034789   0.017646  -0.012879
   29  H  4  Y   -0.000333   0.015338   0.026521   0.017432   0.008389
   30  H  4  Z    0.000312  -0.004032  -0.009649   0.001180   0.021011

                      6          7          8          9         10
                    0.0000     0.0000     0.0000     0.1526     0.2080
                     A          A          A          A          A   
    1  N  1  S    0.199440  -0.014625   0.047688  -0.130311   0.014208
    2  N  1  S    0.718105  -0.032088   0.135929  -0.198685   0.011953
    3  N  1  S    0.188220  -0.031822  -0.117136   1.288824  -0.205672
    4  N  1  X   -0.009937   0.919847   0.008284   0.016206  -0.152268
    5  N  1  Y   -0.078818  -0.136448   0.859451   0.050087   0.089572
    6  N  1  Z    0.651208  -0.079561  -0.109379  -0.201224   0.023035
    7  N  1  X   -0.025409   0.057844  -0.047060  -0.043711   0.663942
    8  N  1  Y   -0.081140  -0.039298   0.067218  -0.221026  -0.528324
    9  N  1  Z   -0.080136   0.027454  -0.013977   0.437267  -0.012869
   10  N  1 XX   -0.012776   0.023786  -0.047969   0.022021  -0.027853
   11  N  1 YY    0.007997  -0.020877   0.039834   0.018491   0.009199
   12  N  1 ZZ    0.004779  -0.002909   0.008135  -0.040512   0.018654
   13  N  1 XY    0.047181   0.045802   0.033174  -0.061705   0.037035
   14  N  1 XZ    0.015573  -0.045226   0.014790  -0.018774   0.068543
   15  N  1 YZ    0.045297   0.011794  -0.027906  -0.070784  -0.062302
   16  H  2  S   -0.458526   0.377611  -0.497559   0.316390  -0.531630
   17  H  2  S   -0.068901   0.085404  -0.124039  -0.686093   1.850743
   18  H  2  X   -0.043410   0.022654  -0.040177  -0.051643   0.093699
   19  H  2  Y    0.032434  -0.037339   0.019679   0.061173  -0.056155
   20  H  2  Z   -0.014976   0.027023  -0.004349  -0.007704  -0.068841
   21  H  3  S   -0.446524   0.304396   0.602977   0.257738   0.157622
   22  H  3  S   -0.056193   0.107232   0.169034  -0.816209  -0.503278
   23  H  3  X   -0.032902  -0.030755   0.034204   0.018684   0.004033
   24  H  3  Y   -0.039749   0.036143   0.015209  -0.098010  -0.013929
   25  H  3  Z   -0.010225  -0.011798  -0.012913   0.073509   0.025177
   26  H  4  S   -0.435507  -0.588749  -0.064356   0.410026   0.288922
   27  H  4  S   -0.073182  -0.175148  -0.037244  -0.918148  -0.990818
   28  H  4  X    0.047345   0.046948  -0.010586   0.036422   0.040425
   29  H  4  Y   -0.017800  -0.025985  -0.028988  -0.059634  -0.040523
   30  H  4  Z   -0.022562  -0.010395   0.022382   0.035559   0.065827

                     11         12         13         14         15
                    0.2391     0.5332     0.6130     0.7077     0.7883
                     A          A          A          A          A   
    1  N  1  S    0.029332  -0.088093   0.033496  -0.072421  -0.252728
    2  N  1  S    0.066062  -0.136200   0.201797  -0.176884  -0.594044
    3  N  1  S   -0.158418   0.424291   0.396807   0.181189   0.869729
    4  N  1  X   -0.041622  -0.341685   0.119700  -0.438831   0.091162
    5  N  1  Y    0.026690  -0.546086   0.230837   0.197080  -0.035508
    6  N  1  Z    0.038917  -0.437876  -0.543643   0.065794   0.234546
    7  N  1  X    0.412553   0.515976  -0.324811   1.629604  -0.273860
    8  N  1  Y    0.173119   0.994326  -0.965026  -0.911337   0.283654
    9  N  1  Z   -0.163626   0.467573   1.072445  -0.019992  -0.292301
   10  N  1 XX    0.055053   0.003755   0.018834  -0.008944   0.158819
   11  N  1 YY   -0.039767  -0.023360  -0.051606   0.033739  -0.145133
   12  N  1 ZZ   -0.015286   0.019605   0.032772  -0.024795  -0.013687
   13  N  1 XY   -0.068286  -0.002497   0.053052   0.000863   0.076046
   14  N  1 XZ    0.052189   0.008339   0.000158  -0.109662  -0.034227
   15  N  1 YZ    0.053256   0.015265   0.030832   0.046076  -0.039985
   16  H  2  S    0.194130  -0.334773  -0.297216   0.672096  -0.219620
   17  H  2  S   -0.495678  -0.360703   0.409554   0.468277  -0.356833
   18  H  2  X   -0.000766  -0.022191  -0.018593   0.178028  -0.204736
   19  H  2  Y   -0.024261   0.019545  -0.114008  -0.100804  -0.238978
   20  H  2  Z   -0.006401   0.050032   0.087468   0.174857   0.074053
   21  H  3  S   -0.627350   0.111635  -0.751295   0.053157   0.197621
   22  H  3  S    2.149661   0.635096  -0.622886   0.017183  -0.073678
   23  H  3  X    0.043061  -0.007745  -0.172123  -0.189485  -0.385151
   24  H  3  Y    0.074220   0.092270  -0.026494  -0.020865   0.168586
   25  H  3  Z   -0.057326  -0.032037   0.084847  -0.035351   0.086459
   26  H  4  S    0.508093  -0.245788  -0.269759  -0.585241   0.324429
   27  H  4  S   -1.657931  -0.406585   0.308294  -0.626317  -0.165494
   28  H  4  X    0.051206   0.038363   0.133719   0.219719   0.265669
   29  H  4  Y   -0.004653   0.034994   0.079666  -0.120884   0.290471
   30  H  4  Z    0.001917   0.069616  -0.003771  -0.195058  -0.049103

                     16         17         18         19         20
                    1.0087     1.0457     1.1630     1.3424     1.3826
                     A          A          A          A          A   
    1  N  1  S   -0.540836  -0.333798  -0.042522  -0.220618  -0.317772
    2  N  1  S   -1.145786  -0.704667  -0.091870  -0.475521  -0.674025
    3  N  1  S    2.215191   1.500729   0.197685   0.730573   1.195408
    4  N  1  X   -0.006720   0.114334  -0.270498  -0.002650  -0.020555
    5  N  1  Y    0.102584  -0.031814   0.146119   0.049779  -0.056138
    6  N  1  Z    0.132907   0.050980   0.026112  -0.045703  -0.041845
    7  N  1  X   -0.109570  -0.589592   0.864688   0.097689  -0.231552
    8  N  1  Y   -0.543925   0.006847  -0.722882   0.428036  -0.278724
    9  N  1  Z    0.052143   0.489173   0.157422   0.300073   0.643350
   10  N  1 XX   -0.146445  -0.039090   0.100872   0.121469   0.006624
   11  N  1 YY   -0.072540   0.193506  -0.054524   0.052347   0.014983
   12  N  1 ZZ    0.218984  -0.154416  -0.046348  -0.173816  -0.021607
   13  N  1 XY   -0.039966   0.083958   0.086214   0.089026  -0.100241
   14  N  1 XZ    0.038060   0.119384   0.158258  -0.031562   0.062478
   15  N  1 YZ    0.070148   0.145806   0.000345  -0.034153   0.051337
   16  H  2  S   -0.196974  -0.422905   0.498217  -0.226755  -0.363111
   17  H  2  S   -0.253115  -0.323200   0.224044  -0.145694  -0.024558
   18  H  2  X    0.003569   0.134194  -0.260441  -0.473782   0.081151
   19  H  2  Y    0.078108   0.384408  -0.034016  -0.574565   0.065747
   20  H  2  Z    0.270856   0.030495  -0.449341  -0.004711  -0.608821
   21  H  3  S   -0.519898  -0.314902  -0.105136  -0.160030  -0.373935
   22  H  3  S   -0.349649  -0.248331  -0.070782   0.025520  -0.320480
   23  H  3  X    0.208546  -0.178584   0.086928   0.141980   0.006712
   24  H  3  Y    0.040358  -0.427572  -0.242962  -0.127860  -0.053419
   25  H  3  Z    0.312373  -0.448205  -0.055770  -0.386066   0.395207
   26  H  4  S   -0.392746   0.045146  -0.597714  -0.120020  -0.343309
   27  H  4  S   -0.222139  -0.049479  -0.179329  -0.068170   0.102160
   28  H  4  X   -0.063735   0.168407  -0.007987  -0.249179  -0.089620
   29  H  4  Y   -0.108370   0.018099   0.476988  -0.474414  -0.047140
   30  H  4  Z    0.350229  -0.036014   0.374577  -0.102056  -0.651168

                     21         22         23         24         25
                    1.6355     1.7541     1.8478     1.9694     2.0992
                     A          A          A          A          A   
    1  N  1  S   -0.055842  -0.136884  -0.113040  -0.148758  -0.022441
    2  N  1  S   -0.053221  -0.377179  -0.271713  -0.324850  -0.036204
    3  N  1  S    0.706459  -0.526806   0.023891   0.128726   0.147571
    4  N  1  X    0.054543   0.172242  -0.243043   0.343453  -0.007363
    5  N  1  Y    0.046734   0.087735   0.487341   0.017137   0.029518
    6  N  1  Z    0.030284  -0.171243  -0.175802  -0.125695  -0.000306
    7  N  1  X    0.664262   0.394262  -0.312174  -0.064516   0.126547
    8  N  1  Y   -0.410655  -0.374298   0.057690  -0.153593   0.126483
    9  N  1  Z    0.297187  -0.146759   0.036774   0.106899   0.305835
   10  N  1 XX   -0.077110   0.063727   0.008867  -0.199212  -0.543463
   11  N  1 YY    0.087142   0.084939   0.050474   0.218577  -0.273558
   12  N  1 ZZ   -0.010031  -0.148666  -0.059341  -0.019365   0.817021
   13  N  1 XY    0.080424  -0.110763   0.058376  -0.036524  -0.554013
   14  N  1 XZ   -0.061411  -0.188357   0.081105  -0.176029  -0.038458
   15  N  1 YZ    0.029755  -0.104939  -0.243587  -0.084317  -0.222131
   16  H  2  S    0.227760   0.207048  -0.080875  -0.000177  -0.063126
   17  H  2  S   -0.102287   0.412968  -0.414887   0.085435  -0.058976
   18  H  2  X   -0.329653   0.678072  -0.339033   0.244778  -0.239869
   19  H  2  Y    0.348580  -0.268138   0.523158  -0.309872  -0.080787
   20  H  2  Z   -0.522023  -0.279385   0.282535  -0.225569  -0.174535
   21  H  3  S   -0.281162  -0.045691  -0.120684  -0.035090  -0.039512
   22  H  3  S    0.223809  -0.025676   0.357167   0.323344   0.031891
   23  H  3  X   -0.308621  -0.378304   0.162510   0.788032  -0.349866
   24  H  3  Y    0.415472   0.432162   0.633816   0.264360  -0.241980
   25  H  3  Z    0.007356  -0.293109  -0.348003  -0.255060  -0.543812
   26  H  4  S   -0.260562  -0.120563   0.018914  -0.137522  -0.076776
   27  H  4  S   -0.542502   0.135672   0.190596  -0.351219  -0.008807
   28  H  4  X    0.403046  -0.501521  -0.300677   0.817063   0.045726
   29  H  4  Y   -0.603748   0.121645   0.338571   0.282044   0.035758
   30  H  4  Z    0.335051   0.390584  -0.433499  -0.054689  -0.125296

                     26         27         28         29
                    2.2390     2.5102     2.6228     3.0986
                     A          A          A          A   
    1  N  1  S    0.082603   0.021985  -0.189948   0.105700
    2  N  1  S    0.159853   0.003033  -0.216983   0.118305
    3  N  1  S   -0.309524  -0.667682   2.326077  -1.023004
    4  N  1  X   -0.077272   0.325403  -0.081997  -0.037447
    5  N  1  Y   -0.002189  -0.128341  -0.303838  -0.318138
    6  N  1  Z    0.026242  -0.086414   0.306645  -0.009182
    7  N  1  X    0.113181   1.177948  -0.087693  -0.011464
    8  N  1  Y    0.113783  -0.482314  -0.955800  -0.462192
    9  N  1  Z   -0.260107  -0.216560   0.744725  -0.025189
   10  N  1 XX   -0.673594   0.065472   0.078322  -0.881679
   11  N  1 YY    0.967099  -0.158286   0.346997   0.295880
   12  N  1 ZZ   -0.293505   0.092814  -0.425318   0.585799
   13  N  1 XY   -0.299207   0.074473  -0.222774   1.277322
   14  N  1 XZ    0.254673   1.127892  -0.174253  -0.176229
   15  N  1 YZ    0.222136  -0.339422  -1.117210  -0.422354
   16  H  2  S    0.062193   0.963613  -0.361153   0.989662
   17  H  2  S   -0.022227   0.413512  -0.002286   0.288276
   18  H  2  X   -0.384946   0.638322  -0.087308   0.676089
   19  H  2  Y   -0.367530  -0.500045   0.244353  -0.521280
   20  H  2  Z    0.171494   0.062676   0.187759  -0.387725
   21  H  3  S    0.123353   0.318814  -1.396014  -0.708253
   22  H  3  S    0.000854   0.171763  -0.556303  -0.182579
   23  H  3  X   -0.346750  -0.140053  -0.317957  -0.255781
   24  H  3  Y    0.234372   0.346448  -0.807885  -0.534241
   25  H  3  Z    0.305271  -0.134239   0.611748   0.419815
   26  H  4  S    0.120456  -0.594895  -0.715551   0.719275
   27  H  4  S    0.098322  -0.357994  -0.128916   0.201967
   28  H  4  X   -0.105229   0.444791   0.417756  -0.676380
   29  H  4  Y    0.264590  -0.422747  -0.164091   0.347108
   30  H  4  Z    0.049369   0.007395   0.205544  -0.364704
 .....DONE WITH MCSCF ITERATIONS.....
 CPU     0: STEP CPU TIME=    11.63 TOTAL CPU TIME=         12.7 (      0.2 MIN)
 TOTAL WALL CLOCK TIME=         12.7 SECONDS, CPU UTILIZATION IS    99.92%

     ----------------------------------------------------------------
     PROPERTY VALUES FOR THE MCSCF SELF-CONSISTENT FIELD WAVEFUNCTION
     ----------------------------------------------------------------

          -----------------
          ENERGY COMPONENTS
          -----------------

         WAVEFUNCTION NORMALIZATION =       1.0000000000

                ONE ELECTRON ENERGY =     -93.6234666812
                TWO ELECTRON ENERGY =      26.9071513464
           NUCLEAR REPULSION ENERGY =      11.0018789444
                                      ------------------
                       TOTAL ENERGY =     -55.7144363904

 ELECTRON-ELECTRON POTENTIAL ENERGY =      26.9071513464
  NUCLEUS-ELECTRON POTENTIAL ENERGY =    -149.2796413000
   NUCLEUS-NUCLEUS POTENTIAL ENERGY =      11.0018789444
                                      ------------------
             TOTAL POTENTIAL ENERGY =    -111.3706110092
               TOTAL KINETIC ENERGY =      55.6561746189
                 VIRIAL RATIO (V/T) =       2.0010468160

          ---------------------------------------
          MULLIKEN AND LOWDIN POPULATION ANALYSES
          ---------------------------------------

     ATOMIC MULLIKEN POPULATION IN EACH MOLECULAR ORBITAL

                      1          2          3          4          5

                  2.000000   1.981134   1.654200   1.646659   1.639188

    1             2.000596   1.364030   1.529694   0.900332   1.152231
    2            -0.000183   0.162928   0.063721   0.390209   0.008686
    3            -0.000288   0.294102   0.046405   0.111936   0.290133
    4            -0.000125   0.160074   0.014380   0.244182   0.188138

                      6          7          8

                  0.034994   0.023515   0.020310

    1             0.014531   0.012677   0.011151
    2             0.005582   0.000059   0.006827
    3             0.003453   0.008766   0.000319
    4             0.011428   0.002014   0.002012
 WARNING! MCSCF POPULATIONS SHOWN ABOVE ARE FOR THE NATURAL ORBITALS.
 IGNORE THE ABOVE DATA FOR MCSCF FUNCTIONS WHICH ARE NOT OF -FORS- TYPE.
 THE FOLLOWING POPULATIONS ARE CORRECT FOR ANY MCSCF WAVEFUNCTION.

               ----- POPULATIONS IN EACH AO -----
                             MULLIKEN      LOWDIN
              1  N  1  S      2.00223     1.90465
              2  N  1  S      0.81928     0.57897
              3  N  1  S      0.71005     0.41944
              4  N  1  X      0.67135     0.60007
              5  N  1  Y      0.69741     0.63236
              6  N  1  Z      0.85994     0.80961
              7  N  1  X      0.33736     0.43172
              8  N  1  Y      0.34173     0.43442
              9  N  1  Z      0.52868     0.56859
             10  N  1 XX      0.00068     0.17605
             11  N  1 YY      0.00173     0.16313
             12  N  1 ZZ      0.00463     0.14511
             13  N  1 XY      0.00421     0.01068
             14  N  1 XZ      0.00595     0.00715
             15  N  1 YZ      0.00000     0.01254
             16  H  2  S      0.54435     0.42691
             17  H  2  S      0.03907     0.15137
             18  H  2  X      0.02477     0.04447
             19  H  2  Y      0.01920     0.03357
             20  H  2  Z      0.01044     0.02689
             21  H  3  S      0.63586     0.49151
             22  H  3  S      0.05803     0.15028
             23  H  3  X      0.01510     0.03362
             24  H  3  Y      0.02537     0.04476
             25  H  3  Z      0.02047     0.04406
             26  H  4  S      0.51831     0.40388
             27  H  4  S      0.05222     0.15359
             28  H  4  X      0.02684     0.04635
             29  H  4  Y      0.01394     0.02859
             30  H  4  Z      0.01079     0.02565

          ----- MULLIKEN ATOMIC OVERLAP POPULATIONS -----
          (OFF-DIAGONAL ELEMENTS NEED TO BE MULTIPLIED BY 2)

             1           2           3           4

    1    6.1642968
    2    0.2883398   0.3605613
    3    0.2736425  -0.0056193   0.4964003
    4    0.2589630  -0.0054519  -0.0095986   0.3781904

          TOTAL MULLIKEN AND LOWDIN ATOMIC POPULATIONS
       ATOM         MULL.POP.    CHARGE          LOW.POP.     CHARGE
    1 N             6.985242    0.014758         6.894497    0.105503
    2 H             0.637830    0.362170         0.683211    0.316789
    3 H             0.754825    0.245175         0.764227    0.235773
    4 H             0.622103    0.377897         0.658065    0.341935

          MULLIKEN SPHERICAL HARMONIC POPULATIONS
       ATOM           S       P       D      F      G      H      I    TOTAL
    1 N             3.53    3.44    0.02   0.00   0.00   0.00   0.00    6.99
    2 H             0.58    0.05    0.00   0.00   0.00   0.00   0.00    0.64
    3 H             0.69    0.06    0.00   0.00   0.00   0.00   0.00    0.75
    4 H             0.57    0.05    0.00   0.00   0.00   0.00   0.00    0.62

          ---------------------
          ELECTROSTATIC MOMENTS
          ---------------------

 POINT   1           X           Y           Z (BOHR)    CHARGE
                -0.000001   -0.000005   -0.177185        1.00 (A.U.)
         DX          DY          DZ         /D/  (DEBYE)
    -0.237974   -0.872586    2.121681    2.306419
 ...... END OF PROPERTY EVALUATION ......
 CPU     0: STEP CPU TIME=     0.01 TOTAL CPU TIME=         12.7 (      0.2 MIN)
 TOTAL WALL CLOCK TIME=         12.7 SECONDS, CPU UTILIZATION IS    99.92%

     -------------------------------------------------
     GMC-PT/GMC-QDPT or general MCSCF input parameters
     -------------------------------------------------
 # of frozen core orbs. =         0 ->         0
 # of doubly occ. orbs. =         1
 # of active      orbs. =         7
 # of virtual     orbs. =        21
 # of active electrons  =         7
 # of states in CI      =         3
 Highest state in CI    =         3
 kstate =  1 1 1
 avecoe =  0.333 0.333 0.333
 State symmetry           = A           
 Assigned symmetry number = 1

 <<<Act. MO sym.: 1111111

 <<<Division of 1-ext.:  0
 <<<Division of 2-ext.:  0

     ------------------------
     Orbital canonicalization
     ------------------------

 MOs are canonicalized for core, virtual, and invariant-active orbital spaces.
 This is a part of the GMC-QDPT calculation.
 SCHWARZ INEQUALITY OVERHEAD:       465 INTEGRALS, T=        0.00
 DIRECT TRANSFORMATION SKIPS AO INTEGRAL STORAGE ON DISK.

 Averaged energy =     -55.714436390

 State #    1  Energy =     -55.853238100  S =  0.500
 State #    2  Energy =     -55.716112785  S =  0.500
 State #    3  Energy =     -55.573958286  S =  0.500

 Orbital energies for filled orbital space
  -15.977643
 Orbital energies for active orbital space
   -1.490335  -0.960290  -0.823598  -0.717410   0.314304
    0.373781   0.122326
 Orbital energies for external orbital space
    0.152621   0.207953   0.239135   0.533246   0.613050
    0.707715   0.788324   1.008716   1.045678   1.163037
    1.342366   1.382561   1.635467   1.754135   1.847827
    1.969352   2.099155   2.238970   2.510192   2.622764
    3.098637

 Zero values mean non-canonical orbitals.
 ... done with orbital canonicalization ...
 CPU     0: STEP CPU TIME=     0.70 TOTAL CPU TIME=         13.4 (      0.2 MIN)
 TOTAL WALL CLOCK TIME=         13.4 SECONDS, CPU UTILIZATION IS   100.00%

     --------------------------------------------
     PARTIAL TWO ELECTRON INTEGRAL TRANSFORMATION
     --------------------------------------------

 NUMBER OF CORE MOLECULAR ORBITALS     =    0
 NUMBER OF OCCUPIED MOLECULAR ORBITALS =    8
 TOTAL NUMBER OF MOLECULAR ORBITALS    =   29
 TOTAL NUMBER OF ATOMIC ORBITALS       =   30
 THRESHOLD FOR KEEPING TRANSFORMED 2E- INTEGRALS = 1.000E-09
 AO INTEGRALS WILL BE CALCULATED IN DIRECT MODE...
 DIRECT TRANSFORMATION SKIPS AO INTEGRAL STORAGE ON DISK.
 SCHWARZ INEQUALITY OVERHEAD:       465 INTEGRALS, T=        0.00

 PLAN A: REQUIREMENTS FOR FULLY IN-MEMORY TRANSFORMATION:
 # OF WORDS AVAILABLE =            100000000
 # OF WORDS NEEDED    =               221798

 PARALLEL ONLY WORKS WITH THE SEGMENTED ALGORITHM.
 ADJUSTING MEMORY TO USE SEGMENTED ALGORITHM.


 PLAN B: REQUIREMENTS FOR THE SEGMENTED TRANSFORMATION:
       MINIMUM=         124148 WORDS FOR 1 MOLECULAR ORBITAL PER PASS
       MAXIMUM=         221798 WORDS FOR ALL MOLECULAR ORBITALS IN 1 PASS
              (          13950 EXTRA WORDS INCLUDES 1 EXTRA ORBITAL/PASS)
 THIS RUN USES=         221798 WORDS,
 DISTRIBUTING   1 PASSES EACH CONTAINING     8 ORBITALS OVER   1 PROCESSORS.

 CHOOSING SEGMENTED PARTIAL TRANSFORMATION...
 DIRECT TRANSFORMATION SKIPS AO INTEGRAL STORAGE ON DISK.
 PASS #   1 TOOK        0.04 SECONDS.
 TOTAL NUMBER OF TRANSFORMED 2E- INTEGRALS KEPT =        29226
 ... END OF INTEGRAL TRANSFORMATION ...
 CPU     0: STEP CPU TIME=     0.04 TOTAL CPU TIME=         13.4 (      0.2 MIN)
 TOTAL WALL CLOCK TIME=         13.5 SECONDS, CPU UTILIZATION IS    99.93%

     --------     ------------------------------------------
     GMC-QDPT     Program written by H.Nakano (Kyushu Univ.)
     --------     ------------------------------------------

 *** Reference space

 Reference type: ORMAS (= Occupation restricted multiple active space)
 # of orbitals          =  7
 # of minimum electrons =  7
 # of maximum electrons =  7
 State symmetry    =    1 (input)
 2*Sz              =    1 (input)
 Spin multiplicity =    2 (input)
 Dimension of reference space =      1225  (from      3432 walks)

 Dimension of reference space =      1225  (from      1225 walks)

 <<<Ionized spaces for Ref-CI:
      0:         1225 /   -1-0:         1960 /  0-1-0:         2891

 ***                    ***
 *** Reference space CI ***
 ***                    ***

 Converged after   36 iterations

 Reference wavefunctions:

 State #    1  Energy =     -55.853238100  S =  0.500

      Det      Coef    Occupancy (Ignoring core)
      ---      ----    --------- --------- -----
        1    0.971706  11110001110000
       36    0.087048  11110001101000
      143    0.052494  11011001100100
      393    0.051995  10110101010010
      717    0.054413  11010011100001

 State #    2  Energy =     -55.716112785  S =  0.500

      Det      Coef    Occupancy (Ignoring core)
      ---      ----    --------- --------- -----
        1   -0.091603  11110001110000
       36    0.974959  11110001101000
      463    0.053699  10110101001010
      823    0.050724  10110011001001

 State #    3  Energy =     -55.573958286  S =  0.500

      Det      Coef    Occupancy (Ignoring core)
      ---      ----    --------- --------- -----
       71   -0.975546  11110001011000
      248    0.054201  11011001001100
      822    0.055884  11010011001001

 Davidson method: CPU/Wall time =           0.48 /           0.48 sec.

 Oscillator strength (invalid if E(1)/=E(GS)):
 -----------------------------------------
   State                        f
 -----------------------------------------
     2     F(REF-CI)=        0.0030368417
     3     F(REF-CI)=        0.0041924455
 -----------------------------------------

 Dipole moment matrix elements, x, y, z, in A.U.

 Dimension of ionized spaces for PT:
 (N-2) space:         1715 /  (N-1) space:         2842 /  N space:         2891
 (N+1) space:         2842 /  (N+2) space:         1715

 <<<Ionized spaces for internal:
         0:         1225 /      -1-0:         1960 /     0-1-0:         2891
  -1-0-1-0:         2842 / 0-1-0-1-0:         3381

 Diagonal elements of averaged one-particle density matrix:
       2       3       4       5       6       7       8
  0.9930  0.9860  0.9845  0.9906  0.0134  0.0120  0.0205
  0.9880  0.6604  0.6570  0.6613  0.0104  0.0086  0.0143

 Orbital energies:
 -------- Doubly-occupied orbitals (highest several orbs.) -------
             1
 -1.597764D+01
 -------- Active orbitals ----------------------------------------
             2            3            4            5            6
 -1.490335D+00-9.602899D-01-8.235976D-01-7.174097D-01 3.143038D-01
             7            8
  3.737813D-01 1.223258D-01
 -------- External orbitals (lowest several orbs.) ---------------
             9           10           11           12           13
  1.526213D-01 2.079528D-01 2.391351D-01 5.332459D-01 6.130496D-01
            14           15           16           17           18
  7.077148D-01 7.883242D-01 1.008716D+00 1.045678D+00 1.163037D+00

 *** Quasi-degeneracy checking

 === Det (|Ci| > 1.0D-01 and dE < 5.0D-03)

 # of small denominators (single excitations)
 State       dEmin  dE < 5.0D-03  dE < 5.0D-04  dE < 5.0D-05  dE < 5.0D-06
 ----- ----------- ------------- ------------- ------------- -------------
     1    5.00D-03             0             0             0             0
     2    5.00D-03             0             0             0             0
     3    5.00D-03             0             0             0             0

 # of small denominators (double excitations)
 State       dEmin  dE < 5.0D-03  dE < 5.0D-04  dE < 5.0D-05  dE < 5.0D-06
 ----- ----------- ------------- ------------- ------------- -------------
     1    5.00D-03             0             0             0             0
     2    5.00D-03             0             0             0             0
     3    5.00D-03             0             0             0             0

 *** Zeroth-Order Setup (Granovsky's zeroth-order vectors)
 Zeroth-order effective Hamiltonian
  (= Sum_i e(i)*<I|a+(i)a(i)|J> ):
                   1            2            3
     1 -7.157123D+00
     2  1.687288D-02-7.069461D+00
     3 -8.508974D-04-5.502379D-03-6.926142D+00

 Zeroth-order vectors:
 State #    1
       MC st            1           2           3
       Coeff    9.832D-01  -1.827D-01  -7.217D-04
 State #    2
       MC st            2           1           3
       Coeff   -9.824D-01  -1.826D-01  -3.961D-02
 State #    3
       MC st            3           2           1
       Coeff    9.992D-01  -3.907D-02  -6.529D-03

 *** GMC-QDPT computation

 (Integral reading:  CPU/Wall time =           0.00 /           0.00 sec.)

 One-external:
   0 -ionized terms: CPU/Wall time =           0.03 /           0.03 sec.
 (-1)-ionized terms: CPU/Wall time =           0.09 /           0.09 sec.
 (+1)-ionized terms: CPU/Wall time =           0.02 /           0.02 sec.
 (+1)-ionized terms: CPU/Wall time =           0.00 /           0.01 sec.
 (+2)-ionized terms: CPU/Wall time =           0.01 /           0.00 sec.

 Internal:
 # of macro loops for internal contribution =         1 (input)
 Loop:    1
 Dimension of internal CISD space     =         0  (after screening)
 Space construction: CPU/Wall time =           0.01 /           0.02 sec.
 Internal terms:     CPU/Wall time =           0.00 /           0.00 sec.

 Two-external:
   0 -ionized terms: CPU/Wall time =           0.07 /           0.06 sec.
 (-1)-ionized terms: CPU/Wall time =           1.00 /           1.00 sec.
 (-2)-ionized terms: CPU/Wall time =           0.17 /           0.17 sec.

 Total time:         CPU/Wall time =           1.40 /           1.40 sec.

 ***                  ***
 *** GMC-QDPT Results ***
 ***                  ***

 Diagonal elements of effective Hamiltonian:
 Heff(  1) =   -55.94809026
 Heff(  2) =   -55.82770151
 Heff(  3) =   -55.68508078

 Off-diagonal elements of effective Hamiltonian:
                   1            2
     2  2.188711D-02
     3  2.973108D-04-5.475701D-03

 ******** GMC-QDPT energies ********
 ----------------------------------------------------------------------------
   State                        1st order                           2nd order
 ----------------------------------------------------------------------------
     1     E(REF-CI)=      -55.8532380999   E(GMC-QDPT2)=      -55.9519517199
     2     E(REF-CI)=      -55.7161127850   E(GMC-QDPT2)=      -55.8240511010
     3     E(REF-CI)=      -55.5739582862   E(GMC-QDPT2)=      -55.6848697262
 ----------------------------------------------------------------------------

 Excitation energies (invalid if E(1)/=E(GS)):
 ----------------------------------------------------------------------------
   State                        1st order                           2nd order
 ----------------------------------------------------------------------------

     TZ Sorted GMC-PT ENERGIES:
         1      -55.9519517199
         2      -55.8240511010
         3      -55.6848697262
     2     E(REF-CI)=        3.7313718 eV   E(GMC-QDPT2)=        3.4803549 eV
     3     E(REF-CI)=        7.5995947 eV   E(GMC-QDPT2)=        7.2676750 eV
 ----------------------------------------------------------------------------

 Main characters of perturbed GMC-QDPT states:

 State #    1  Energy =     -55.951951720  S =  0.500

      Det      Coef    Occupancy (Ignoring core)
      ---      ----    --------- --------- -----
        1    0.972500  11110001110000
       36    0.078151  11110001101000
      143    0.052612  11011001100100
      393    0.052006  10110101010010
      717    0.054203  11010011100001

 State #    2  Energy =     -55.824051101  S =  0.500

      Det      Coef    Occupancy (Ignoring core)
      ---      ----    --------- --------- -----
        1   -0.082699  11110001110000
       36    0.975734  11110001101000
      463    0.053731  10110101001010
      823    0.050743  10110011001001

 State #    3  Energy =     -55.684869726  S =  0.500

      Det      Coef    Occupancy (Ignoring core)
      ---      ----    --------- --------- -----
       71   -0.975562  11110001011000
      248    0.054183  11011001001100
      822    0.055893  11010011001001

 <<<Max |V/de| = 2.507D-02  Thresh = 1.000D+00

 Oscillator strength (invalid if E(1)/=E(GS)):
 ----------------------------------------------------------------------------
   State                        1st order                           2nd order
 ----------------------------------------------------------------------------
     2     F(REF-CI)=        0.0030368417     F(GMC-PT2)=        0.0029271108
     3     F(REF-CI)=        0.0041924455     F(GMC-PT2)=        0.0041260698
 ----------------------------------------------------------------------------

 Dipole moment matrix elements, x, y, z, in A.U.
States    1    1       -0.0823240446       -0.3268304509        0.6616202040
States    1    2        0.0246529208       -0.0064808540        0.1835182964
States    1    3        0.1107374656       -0.0918471425       -0.0497430113
States    2    1        0.0246529208       -0.0064808540        0.1835182964
States    2    2       -0.2290448393       -0.2829323926        0.3467421402
States    2    3       -0.2000202140        0.0636081606        0.0020495637
States    3    1        0.1107374656       -0.0918471425       -0.0497430113
States    3    2       -0.2000202140        0.0636081606        0.0020495637
States    3    3       -0.0359492372       -0.5591603359        0.2996184007

 Oscillator strength (valid only when positive): 
 ----------------------------------------------------------------------------
  States                        1st order                           2nd order
 ----------------------------------------------------------------------------
  1  1     F(REF-CI)=        0.0000000000     F(GMC-PT2)=        0.0000000000
  1  2     F(REF-CI)=       -0.0030368417     F(GMC-PT2)=       -0.0029271108
  1  3     F(REF-CI)=       -0.0041924455     F(GMC-PT2)=       -0.0041260698
  2  1     F(REF-CI)=        0.0030368417     F(GMC-PT2)=        0.0029271108
  2  2     F(REF-CI)=        0.0000000000     F(GMC-PT2)=        0.0000000000
  2  3     F(REF-CI)=       -0.0042303717     F(GMC-PT2)=       -0.0040880618
  3  1     F(REF-CI)=        0.0041924455     F(GMC-PT2)=        0.0041260698
  3  2     F(REF-CI)=        0.0042303717     F(GMC-PT2)=        0.0040880618
  3  3     F(REF-CI)=        0.0000000000     F(GMC-PT2)=        0.0000000000
 CPU     0: STEP CPU TIME=     1.93 TOTAL CPU TIME=         15.4 (      0.3 MIN)
 TOTAL WALL CLOCK TIME=         15.4 SECONDS, CPU UTILIZATION IS    99.87%

     !!! DIABATIZATION FOR REF CI STATES !!!

 *******************************************************
          $DMO GROUP FOUND IN THE INPUT.
        DIABATIZATION OF ADIABATIC STATES BEGINS.
     PROGRAMMED BY TAO ZENG (CARLETON UNIVERSITY).
               Email: toby.zeng@carleton.ca
     See T. Zeng, J. Chem. Phys. 2017, 146, 144103
 *******************************************************

 *************************************************************************
     STEP 1: TRANSFORMATION OF ADIABATIC STATES TO THE DMO REPRESENTATION
         See Atchity and Ruedenberg, J. Chem. Phys. 1999, 111, 2910
 *************************************************************************

Read in Diabatic Molecualr Orbitals:

                      1          2          3          4          5

    1  N  1  S    0.008609   0.000000   0.000000  -0.013219   0.279491
    2  N  1  S    0.442914  -0.000000   0.000000  -0.184329   0.867803
    3  N  1  S    0.276913   0.000000  -0.000000  -0.288315   0.144236
    4  N  1  X   -0.000000   0.493155  -0.024636  -0.000000  -0.000000
    5  N  1  Y    0.000000   0.024636   0.493155  -0.000000   0.000000
    6  N  1  Z    0.090197   0.000000   0.000000   0.593421   0.705309
    7  N  1  X   -0.000000   0.210628  -0.010522   0.000000   0.000000
    8  N  1  Y    0.000000   0.010522   0.210628  -0.000000  -0.000000
    9  N  1  Z   -0.004381   0.000000   0.000000   0.381592  -0.106092
   10  N  1 XX   -0.000457   0.010719  -0.000535  -0.012387   0.006153
   11  N  1 YY   -0.000457  -0.010719   0.000535  -0.012387   0.006153
   12  N  1 ZZ    0.000914  -0.000000   0.000000   0.024773  -0.012306
   13  N  1 XY    0.000000  -0.000618  -0.012377  -0.000000   0.000000
   14  N  1 XZ   -0.000000   0.026529  -0.001325  -0.000000   0.000000
   15  N  1 YZ    0.000000   0.001325   0.026529  -0.000000   0.000000
   16  H  2  S    0.194462  -0.176074   0.343485   0.112865  -0.523343
   17  H  2  S    0.003574  -0.023812   0.046452   0.024014  -0.054445
   18  H  2  X    0.018760   0.009101   0.022834   0.009336  -0.039151
   19  H  2  Y   -0.032493   0.022287  -0.020044  -0.016171   0.067811
   20  H  2  Z   -0.009251   0.008464  -0.016511   0.018769  -0.010566
   21  H  3  S    0.194462  -0.209430  -0.324227   0.112865  -0.523343
   22  H  3  S    0.003574  -0.028322  -0.043847   0.024014  -0.054445
   23  H  3  X    0.018760   0.006781  -0.023627   0.009336  -0.039151
   24  H  3  Y    0.032493  -0.024174  -0.017723   0.016171  -0.067811
   25  H  3  Z   -0.009251   0.010067   0.015585   0.018769  -0.010566
   26  H  4  S    0.194462   0.385503  -0.019258   0.112865  -0.523343
   27  H  4  S    0.003574   0.052134  -0.002604   0.024014  -0.054445
   28  H  4  X   -0.037519  -0.032295   0.001613  -0.018672   0.078302
   29  H  4  Y    0.000000   0.001067   0.021353  -0.000000   0.000000
   30  H  4  Z   -0.009251  -0.018530   0.000926   0.018769  -0.010566

                      6          7

    1  N  1  S    0.000000  -0.000000
    2  N  1  S    0.000000  -0.000000
    3  N  1  S   -0.000000   0.000000
    4  N  1  X   -0.930415  -0.002083
    5  N  1  Y   -0.002083   0.930415
    6  N  1  Z   -0.000000   0.000000
    7  N  1  X   -0.046866  -0.000105
    8  N  1  Y   -0.000105   0.046866
    9  N  1  Z   -0.000000   0.000000
   10  N  1 XX    0.001538   0.000003
   11  N  1 YY   -0.001538  -0.000003
   12  N  1 ZZ   -0.000000   0.000000
   13  N  1 XY   -0.000004   0.001776
   14  N  1 XZ    0.039985   0.000090
   15  N  1 YZ    0.000090  -0.039985
   16  H  2  S   -0.362630  -0.631354
   17  H  2  S   -0.065964  -0.114846
   18  H  2  X    0.002763  -0.037520
   19  H  2  Y    0.037435   0.040736
   20  H  2  Z    0.001882   0.003276
   21  H  3  S   -0.365454   0.629724
   22  H  3  S   -0.066477   0.114549
   23  H  3  X    0.002595   0.037532
   24  H  3  Y   -0.037617   0.040567
   25  H  3  Z    0.001896  -0.003268
   26  H  4  S    0.728084   0.001630
   27  H  4  S    0.132441   0.000297
   28  H  4  X   -0.062317  -0.000140
   29  H  4  Y    0.000055  -0.024345
   30  H  4  Z   -0.003778  -0.000008

NUMBER OF SUB ACTIVE SPACES:   1
ROTATE ACTIVE MOS TO DMOS IN EACH SUB-SPACE

SPACE  1:

OVERLAP BETWEEN ORTHONORMAL AND PRE-ORTHONORMAL REF. DMOS

             1           2           3           4           5

    1    0.9728787  -0.0206038  -0.0350060  -0.0088786   0.0072911
    2   -0.0206038   0.9638337  -0.0680945  -0.0186909   0.0159624
    3   -0.0350060  -0.0680945   0.9592753  -0.0441966   0.0678313
    4   -0.0088786  -0.0186909  -0.0441966   0.9947195  -0.0125111
    5    0.0072911   0.0159624   0.0678313  -0.0125111   1.1314449
    6   -0.0018681  -0.0071517  -0.0485424  -0.0089162  -0.0512379
    7    0.0004635   0.0638532   0.0118981   0.0476654   0.0229910

             6           7

    1   -0.0018681   0.0004635
    2   -0.0071517   0.0638532
    3   -0.0485424   0.0118981
    4   -0.0089162   0.0476654
    5   -0.0512379   0.0229910
    6    1.0549463  -0.0179190
    7   -0.0179190   1.0748725
REFERENCE DMOS AFTER ORTHONORMALIZATION:

                      1          2          3          4          5

    1  N  1  S    0.006171  -0.005077  -0.017592  -0.010686   0.248576
    2  N  1  S    0.446206  -0.008938  -0.044717  -0.173179   0.766706
    3  N  1  S    0.280601  -0.003100  -0.011851  -0.286839   0.123210
    4  N  1  X    0.008324   0.506942  -0.030268   0.001967  -0.044422
    5  N  1  Y    0.018250   0.005437   0.508609  -0.018732  -0.046883
    6  N  1  Z    0.093331   0.005458  -0.010688   0.607222   0.632441
    7  N  1  X    0.004774   0.219646   0.003343   0.004540  -0.004952
    8  N  1  Y    0.008733   0.024702   0.223057   0.008465  -0.014020
    9  N  1  Z    0.000853   0.011827   0.025206   0.384594  -0.090879
   10  N  1 XX   -0.000413   0.010766  -0.000658  -0.012194   0.005272
   11  N  1 YY   -0.000926  -0.011660  -0.001362  -0.012738   0.005462
   12  N  1 ZZ    0.001339   0.000894   0.002020   0.024932  -0.010734
   13  N  1 XY   -0.000525  -0.001741  -0.013183  -0.000710   0.000746
   14  N  1 XZ    0.000761   0.028075   0.002551   0.001056   0.001212
   15  N  1 YZ    0.001223   0.006041   0.028858   0.003222  -0.000980
   16  H  2  S    0.216317  -0.103289   0.389203   0.149556  -0.488455
   17  H  2  S    0.005819  -0.012879   0.050830   0.030160  -0.051409
   18  H  2  X    0.021061   0.015188   0.029291   0.012448  -0.035757
   19  H  2  Y   -0.034501   0.017073  -0.024711  -0.018006   0.062156
   20  H  2  Z   -0.009676   0.007824  -0.015576   0.018039  -0.008257
   21  H  3  S    0.184862  -0.271600  -0.341352   0.056506  -0.468156
   22  H  3  S    0.001407  -0.039398  -0.048946   0.014812  -0.049672
   23  H  3  X    0.018906   0.004288  -0.021331   0.006569  -0.034127
   24  H  3  Y    0.032695  -0.027230  -0.016776   0.012274  -0.061179
   25  H  3  Z   -0.008309   0.012462   0.018641   0.019971  -0.010159
   26  H  4  S    0.217942   0.426473   0.089774   0.128378  -0.443071
   27  H  4  S    0.006137   0.057341   0.012213   0.026451  -0.043737
   28  H  4  X   -0.040549  -0.037133  -0.011034  -0.020011   0.067846
   29  H  4  Y    0.000963   0.004362   0.023097   0.002225  -0.000923
   30  H  4  Z   -0.009664  -0.018948   0.000541   0.018281  -0.009028

                      6          7

    1  N  1  S    0.011079  -0.004165
    2  N  1  S    0.034322  -0.007314
    3  N  1  S    0.003666   0.010340
    4  N  1  X   -0.882811  -0.045576
    5  N  1  Y    0.033704   0.862040
    6  N  1  Z    0.034878  -0.040120
    7  N  1  X   -0.043213  -0.014001
    8  N  1  Y    0.010413   0.039759
    9  N  1  Z   -0.000195  -0.016096
   10  N  1 XX    0.001650  -0.000173
   11  N  1 YY   -0.001424   0.001129
   12  N  1 ZZ   -0.000225  -0.000956
   13  N  1 XY   -0.000560   0.001908
   14  N  1 XZ    0.038262  -0.001048
   15  N  1 YZ    0.000790  -0.037988
   16  H  2  S   -0.358595  -0.587804
   17  H  2  S   -0.064342  -0.107956
   18  H  2  X    0.001866  -0.035898
   19  H  2  Y    0.037902   0.037273
   20  H  2  Z    0.000891   0.002151
   21  H  3  S   -0.375591   0.606939
   22  H  3  S   -0.065972   0.108757
   23  H  3  X    0.000539   0.035338
   24  H  3  Y   -0.038750   0.039649
   25  H  3  Z    0.002322  -0.004613
   26  H  4  S    0.676968  -0.009836
   27  H  4  S    0.124580  -0.001429
   28  H  4  X   -0.056764   0.000706
   29  H  4  Y    0.000725  -0.023231
   30  H  4  Z   -0.003979   0.000432

 -------------------------------------------
       MAXIMIZING MORMO OVERLAP TERM        
 -------------------------------------------
   SWEEP    VALUE       PROGRESS
     0     3.95837
     1     6.82951     2.87113912
     2     6.95015     0.12063936
     3     6.95024     0.00009349
     4     6.95024     0.00000000
     5     6.95024     0.00000000
     6     6.95024     0.00000000
 THE ROTATION IS DONE
ACTIVE ORBITALS AFTER MORMO:

                      1          2          3          4          5

    1  N  1  S    0.004302  -0.012919  -0.027925  -0.012480   0.199150
    2  N  1  S    0.420281  -0.036404  -0.067534  -0.190374   0.708842
    3  N  1  S    0.335148   0.050348   0.059069  -0.268716   0.189819
    4  N  1  X   -0.005407   0.475352  -0.055049  -0.015147  -0.029693
    5  N  1  Y    0.000996  -0.017550   0.471066  -0.043798  -0.016716
    6  N  1  Z    0.080803  -0.008331  -0.039232   0.603788   0.631147
    7  N  1  X    0.019711   0.248008   0.047908   0.023889  -0.019423
    8  N  1  Y    0.025574   0.068342   0.255599   0.060847  -0.057816
    9  N  1  Z    0.028353   0.033941   0.075204   0.385354  -0.085892
   10  N  1 XX    0.001415   0.008896   0.010777  -0.007291  -0.013174
   11  N  1 YY   -0.001431  -0.008450  -0.010727  -0.014937   0.008759
   12  N  1 ZZ    0.000016  -0.000446  -0.000051   0.022228   0.004414
   13  N  1 XY   -0.007119  -0.016892  -0.024977  -0.004349   0.044492
   14  N  1 XZ    0.001041   0.019168   0.001067  -0.003098   0.017860
   15  N  1 YZ   -0.002166   0.004105   0.017001  -0.001492   0.046289
   16  H  2  S    0.189941  -0.143066   0.348756   0.120773  -0.464525
   17  H  2  S    0.006985  -0.000194   0.070205   0.037070  -0.069338
   18  H  2  X    0.026591  -0.007281   0.037864   0.011585  -0.043190
   19  H  2  Y   -0.021374   0.027281  -0.007710  -0.006909   0.034976
   20  H  2  Z   -0.003114   0.006534  -0.006206   0.020744  -0.016770
   21  H  3  S    0.182766  -0.237438  -0.326722   0.081875  -0.488180
   22  H  3  S   -0.002589  -0.086354  -0.088763   0.016782  -0.066402
   23  H  3  X    0.012465   0.013504  -0.014242   0.009635  -0.033082
   24  H  3  Y    0.029369  -0.019534  -0.010522   0.018248  -0.043589
   25  H  3  Z   -0.015021   0.016340   0.027621   0.016903  -0.007341
   26  H  4  S    0.189183   0.375820   0.016190   0.109812  -0.420602
   27  H  4  S    0.010448   0.099770   0.044083   0.036238  -0.064250
   28  H  4  X   -0.027235  -0.028709   0.013850  -0.011085   0.047731
   29  H  4  Y    0.015773   0.029143   0.015966   0.008460  -0.016385
   30  H  4  Z   -0.004431  -0.010805   0.007378   0.019017  -0.021907

                      6          7

    1  N  1  S    0.005555   0.043398
    2  N  1  S    0.002908   0.105448
    3  N  1  S    0.038569  -0.138540
    4  N  1  X   -0.888020  -0.036083
    5  N  1  Y    0.030280   0.847063
    6  N  1  Z    0.061847  -0.077450
    7  N  1  X   -0.042048  -0.032357
    8  N  1  Y    0.020793   0.069378
    9  N  1  Z   -0.032644   0.010496
   10  N  1 XX   -0.019387  -0.050306
   11  N  1 YY    0.017675   0.040527
   12  N  1 ZZ    0.001712   0.009780
   13  N  1 XY   -0.049325   0.027382
   14  N  1 XZ    0.044568   0.019955
   15  N  1 YZ   -0.011805  -0.030929
   16  H  2  S   -0.355491  -0.544967
   17  H  2  S   -0.078133  -0.131730
   18  H  2  X   -0.021134  -0.043198
   19  H  2  Y    0.036884   0.024668
   20  H  2  Z   -0.025635  -0.004187
   21  H  3  S   -0.333820   0.590044
   22  H  3  S   -0.119002   0.159610
   23  H  3  X    0.030562   0.040497
   24  H  3  Y   -0.036846   0.012945
   25  H  3  Z    0.011969  -0.010441
   26  H  4  S    0.628038   0.038840
   27  H  4  S    0.182972  -0.010666
   28  H  4  X   -0.050119  -0.019977
   29  H  4  Y    0.029523  -0.024094
   30  H  4  Z    0.007737   0.024043

Actually Used Diabatic Molecualr Orbitals:

                      1          2          3          4          5

    1  N  1  S    0.004302  -0.012919  -0.027925  -0.012480   0.199150
    2  N  1  S    0.420281  -0.036404  -0.067534  -0.190374   0.708842
    3  N  1  S    0.335148   0.050348   0.059069  -0.268716   0.189819
    4  N  1  X   -0.005407   0.475352  -0.055049  -0.015147  -0.029693
    5  N  1  Y    0.000996  -0.017550   0.471066  -0.043798  -0.016716
    6  N  1  Z    0.080803  -0.008331  -0.039232   0.603788   0.631147
    7  N  1  X    0.019711   0.248008   0.047908   0.023889  -0.019423
    8  N  1  Y    0.025574   0.068342   0.255599   0.060847  -0.057816
[...]
       77   -0.020492    0.020492  2+-20+0
      754    0.020220   -0.020220  -+2+002

 ---------------------------------------
    -DIABATIC STATES IN PROTOTYPES-     
 ---------------------------------------

     STATE:    1
 Group Ref#    Coefficients
     1    1    0.950241
     2    2   -0.006179
     3    3   -0.004366

WEIGHT OF LISTED PROTOTYPES:   90.30%

     STATE:    2
 Group Ref#    Coefficients
     1    1   -0.006179
     2    2    0.942635
     3    3    0.004673

WEIGHT OF LISTED PROTOTYPES:   88.86%

     STATE:    3
 Group Ref#    Coefficients
     1    1   -0.004366
     2    2    0.004673
     3    3    0.944608

WEIGHT OF LISTED PROTOTYPES:   89.23%

 --------------------------------------------------
 IN DIRECT MAX. DIABATIZATION FOR GMC-QDPT

 DIRECT MAXIMIZATION (DM) WITHOUT TRUNCATING ADIABATS
 EXPANSIONS INTO THE REFERENCE CONFIGURATION SPACE
 --------------------------------------------------

 -------------------------------------------
 - DM DIABT PT HAMILTONIAN MATRIX ELEMENTS -
 -------------------------------------------
                                            
 --- DIABATIC ENERGIES (DIAGONAL ELEMENT) ---       HARTREE            EV
 STATE #  1'S GMC-PT-LEVEL DIABATIC ENERGY=     -55.928777521       0.000000000
 STATE #  2'S GMC-PT-LEVEL DIABATIC ENERGY=     -55.756285167       4.693756009
 STATE #  3'S GMC-PT-LEVEL DIABATIC ENERGY=     -55.775809859       4.162462099

 --- DIABATIC COUPLINGS (OFF DIAGONAL ELEMENTS)---  HATREE            EV
 STATE #  1 &  2'S GMC-PT-LEVEL COUPLING  =       0.013760840       0.374451517
 STATE #  1 &  3'S GMC-PT-LEVEL COUPLING  =       0.051234743       1.394168357
 STATE #  2 &  3'S GMC-PT-LEVEL COUPLING  =      -0.078148071      -2.126517334

 ---------------------------------------
     - ROTATION TO DIABATIC STATES -    
 ---------------------------------------
 ROWS=ADIABATIC, COLUMNS=DIABATIC STATES

             1           2           3

    1   -0.9111267   0.2065206   0.3566474
    2   -0.3992822  -0.6567084  -0.6397716
    3    0.1020873  -0.7253160   0.6808046

 ---------------------------------------
          - DIABATIC STATES -           
 ---------------------------------------

 State #    1  Energy =     -55.928777521

      Det      Coef        Coefp    Occupancy (Ignoring core)
      ---      ----        ----    --------- --------- -----
        1    0.929515   -0.929515  222+000
        3    0.122792    0.122792  22-++00
      141   -0.118198   -0.118198  22++-00
       18    0.098165   -0.098165  2-2+00+
      736   -0.093903    0.093903  2+2+00-
       16    0.092828   -0.092828  222000+
       17    0.091481    0.091481  22-+00+
        8   -0.075935    0.075935  2-2+0+0
      717   -0.074415   -0.074415  220+002
      393   -0.072737   -0.072737  202+020
        7   -0.068773   -0.068773  22-+0+0
      351    0.067416    0.067416  22++0-0
      701   -0.062457   -0.062457  22++00-
        4    0.046903   -0.046903  2-2++00
      386    0.044578   -0.044578  2+2+0-0
      176   -0.044271    0.044271  2+2+-00
      402    0.037518   -0.037518  2+-+0-+
      215   -0.037270   -0.037270  022+200
      708    0.036925   -0.036925  2-++0+-
        5    0.036910    0.036910  -22++00
      390    0.034537   -0.034537  -+2++-0
        6   -0.034283    0.034283  22200+0
      218    0.034231   -0.034231  +-2+-+0
      705   -0.032554   -0.032554  -2+++0-
      227   -0.031924   -0.031924  +2-+-0+
       76    0.031357    0.031357  2+2-0+0
      212    0.030202    0.030202  +220200
       51   -0.029023    0.029023  22+-00+
      179   -0.028429   -0.028429  202+200
      122    0.026565    0.026565  +2-200+
     1051   -0.026401   -0.026401  2+++0--
        2    0.025114   -0.025114  2220+00
      773    0.025109   -0.025109  +2-++0-
      113   -0.024783    0.024783  +-220+0
      738   -0.024766   -0.024766  2+-++0-
      387   -0.024466    0.024466  2+20+-0
      702    0.024459    0.024459  22+0+0-
      158   -0.024363   -0.024363  2-++-0+
      424   -0.023497   -0.023497  +-2++-0
       20   -0.023430   -0.023430  22-0+0+
      184   -0.022791   -0.022791  -+2+-+0
       29   -0.022716   -0.022716  2--+0++
      159    0.022226   -0.022226  -2++-0+
      751   -0.021091    0.021091  2+20002
      211   -0.021050   -0.021050  +22+-00

 State #    2  Energy =     -55.756285167

      Det      Coef        Coefp    Occupancy (Ignoring core)
      ---      ----        ----    --------- --------- -----
       71   -0.929895    0.929895  2+22000
      246   -0.136418   -0.136418  2++2-00
       73    0.132035   -0.132035  2+-2+00
      736   -0.109584    0.109584  2+2+00-
       86    0.105222    0.105222  2+2-00+
       77   -0.085328    0.085328  2+-20+0
       88   -0.083524    0.083524  202200+
      456    0.078316    0.078316  2++20-0
      822    0.077337   -0.077337  2+02002
      806   -0.062126   -0.062126  2++200-
       87    0.049534   -0.049534  2+-200+
       36    0.044463    0.044463  22+2000
      813    0.044358   -0.044358  20+20+-
      106   -0.038072   -0.038072  +222000
      320    0.037935    0.037935  0+22200
       99   -0.035105    0.035105  20-20++
      810   -0.034842   -0.034842  -++2+0-
      316    0.034201    0.034201  ++22-00
      111    0.034177   -0.034177  +22-0+0
      332   -0.034041    0.034041  ++-2-0+
      323   -0.033293    0.033293  +022-+0
      317    0.032246   -0.032246  ++2-200
      177    0.032238   -0.032238  2+20200
      180   -0.032090    0.032090  -+2+200
       90    0.030898    0.030898  2+--+0+
      386    0.029523   -0.029523  2+2+0-0
      122    0.028775    0.028775  +2-200+
      807   -0.028683    0.028683  2++-+0-
      911    0.028304    0.028304  2+++-0-
      183   -0.027744    0.027744  202+-+0
      108    0.027725    0.027725  +2-2+00
      192   -0.027678    0.027678  2+-+-0+
        6    0.027653   -0.027653  22200+0
      878    0.025603    0.025603  ++-2+0-
      263   -0.025033   -0.025033  20+2-0+
      264    0.024789   -0.024789  -++2-0+
      391    0.023874   -0.023874  2+20020
       75   -0.023166   -0.023166  -+22+00
      526   -0.022468   -0.022468  ++220-0
      753    0.022435    0.022435  202+002
       38   -0.020833    0.020833  2202+00

 State #    3  Energy =     -55.775809859

      Det      Coef        Coefp    Occupancy (Ignoring core)
      ---      ----        ----    --------- --------- -----
       36   -0.926818   -0.926818  22+2000
       38   -0.123154    0.123154  2202+00
       53   -0.116829   -0.116829  2-+200+
       51    0.110679   -0.110679  22+-00+
      701   -0.106122   -0.106122  22++00-
      806    0.101321    0.101321  2++200-
      106   -0.084740   -0.084740  +222000
       39   -0.081779   -0.081779  2-+2+00
      463    0.073882   -0.073882  20+2020
       42    0.060459   -0.060459  22020+0
       41   -0.057503    0.057503  22+-0+0
      351    0.048458    0.048458  22++0-0
       71   -0.044663    0.044663  2+22000
      472   -0.043244   -0.043244  2+020-+
      246    0.042399    0.042399  2++2-00
      123    0.042335   -0.042335  +-2200+
       73    0.039380   -0.039380  2+-2+00
       52   -0.039279    0.039279  220200+
       43    0.037956    0.037956  2-+20+0
      288   -0.037227   -0.037227  +-+2-+0
      285    0.036995   -0.036995  02+2200
      460   -0.036480   -0.036480  -++2+-0
       64    0.034573   -0.034573  2-020++
      297    0.034144   -0.034144  +202-0+
      145   -0.032924   -0.032924  -2++200
      282    0.032756    0.032756  +2+-200
      142    0.031881    0.031881  22+0200
       55   -0.031432   -0.031432  220-+0+
      249    0.030903   -0.030903  20+2200
      456   -0.030558   -0.030558  2++20-0
       40   -0.029942    0.029942  -2+2+00
      109    0.029073   -0.029073  +-22+00
       86    0.028933    0.028933  2+2-00+
      157    0.028419   -0.028419  220+-0+
      457   -0.027178    0.027178  2++-+-0
      148   -0.026176   -0.026176  2-++-+0
      876   -0.025828   -0.025828  ++2200-
      718    0.025812   -0.025812  2-++002
       16   -0.024908    0.024908  222000+
      494    0.024904   -0.024904  +-+2+-0
      121   -0.024752    0.024752  +22-00+
      808    0.023355   -0.023355  2+02+0-
      254    0.023265   -0.023265  -++2-+0
      112   -0.022849   -0.022849  +2-20+0
      821   -0.022240    0.022240  2++-002
      281    0.020811   -0.020811  +2+2-00
      859    0.020637   -0.020637  02+2002
      843   -0.020409   -0.020409  +202+0-
      113   -0.020112    0.020112  +-220+0

 ---------------------------------------
      - DIABATIC STATES IN CMO -        
 ---------------------------------------

 State #    1  Energy =     -55.928777521

      Det      Coef        Coefp    Occupancy (Ignoring core)
      ---      ----        ----    --------- --------- -----
        1    0.853427   -0.853427  222+000
       36   -0.458199   -0.458199  22+2000
       71    0.107882   -0.107882  2+22000
      717   -0.058610   -0.058610  220+002
      393   -0.047367   -0.047367  202+020
      716    0.043094    0.043094  22+0002
      143   -0.042886   -0.042886  220+200
      753   -0.039659   -0.039659  202+002
        8   -0.033578    0.033578  2-2+0+0
      703    0.033336    0.033336  220++0-
      106   -0.033102   -0.033102  +222000
      708    0.032150   -0.032150  2-++0+-
        3   -0.031963   -0.031963  22-++00
       16    0.031371   -0.031371  222000+
      719   -0.030295   -0.030295  -2++002
      704   -0.027460    0.027460  2-+++0-
      463    0.027001   -0.027001  20+2020
      215   -0.025753   -0.025753  022+200
        4    0.025010   -0.025010  2-2++00
      157   -0.024012    0.024012  220+-0+
      401    0.023651    0.023651  2+200-+
      786    0.023637    0.023637  +220002
      122    0.023217    0.023217  +2-200+
      823    0.023210   -0.023210  20+2002
      778   -0.022311   -0.022311  +-2+0+-
      108   -0.021815   -0.021815  +2-2+00
      707    0.021554    0.021554  220+0+-
      404   -0.021457   -0.021457  -+2+0-+
      741   -0.021332    0.021332  2+200+-
       52   -0.021067    0.021067  220200+
        7   -0.020882   -0.020882  22-+0+0
      179   -0.020604   -0.020604  202+200
       76    0.020506    0.020506  2+2-0+0
       37    0.020166   -0.020166  22+-+00

 State #    2  Energy =     -55.756285167

      Det      Coef        Coefp    Occupancy (Ignoring core)
      ---      ----        ----    --------- --------- -----
       71   -0.691207    0.691207  2+22000
       36   -0.643100   -0.643100  22+2000
        1   -0.257822    0.257822  222+000
      248    0.053856   -0.053856  2+02200
      123   -0.046249    0.046249  +-2200+
      262    0.040972    0.040972  2+02-0+
       18    0.036545   -0.036545  2-2+00+
       86   -0.034260   -0.034260  2+2-00+
      822    0.033935   -0.033935  2+02002
      249    0.032879   -0.032879  20+2200
      111    0.032645   -0.032645  +22-0+0
      751    0.030593   -0.030593  2+20002
      823    0.027443   -0.027443  20+2002
      808   -0.026458    0.026458  2+02+0-
      250    0.026311    0.026311  -++2200
       89    0.025535    0.025535  -+2200+
       53    0.024552    0.024552  2-+200+
      253    0.023666    0.023666  20+2-+0
      463    0.023619   -0.023619  20+2020
      743    0.021669    0.021669  202+0+-
      876    0.020714    0.020714  ++2200-
      716    0.020654    0.020654  22+0002
       78   -0.020295    0.020295  20220+0
      320    0.020149    0.020149  0+22200
       42    0.020058   -0.020058  22020+0

 State #    3  Energy =     -55.775809859

      Det      Coef        Coefp    Occupancy (Ignoring core)
      ---      ----        ----    --------- --------- -----
       71    0.680379   -0.680379  2+22000
       36   -0.579041   -0.579041  22+2000
        1   -0.397240    0.397240  222+000
      122    0.044844    0.044844  +2-200+
      822   -0.044401    0.044401  2+02002
      463    0.042889   -0.042889  20+2020
      823    0.036658   -0.036658  20+2002
       16   -0.035945    0.035945  222000+
      108   -0.031921   -0.031921  +2-2+00
      751   -0.030692    0.030692  2+20002
       88    0.029864   -0.029864  202200+
      143    0.026705    0.026705  220+200
      107    0.026595   -0.026595  +22-+00
      472   -0.025523   -0.025523  2+020-+
       51    0.024884   -0.024884  22+-00+
      462   -0.024426    0.024426  2+02020
      753    0.024049    0.024049  202+002
      752   -0.023729   -0.023729  2+-+002
      471    0.023674    0.023674  2++-0-+
       54   -0.023599    0.023599  -2+200+
      248   -0.022950    0.022950  2+02200
      821    0.022859   -0.022859  2++-002
       18   -0.021825    0.021825  2-2+00+
      458   -0.021555    0.021555  2+02+-0
      320   -0.021486   -0.021486  0+22200
      841   -0.021245    0.021245  +2+200-
       77   -0.020492    0.020492  2+-20+0
      754    0.020220   -0.020220  -+2+002

 ---------------------------------------
    -DIABATIC STATES IN PROTOTYPES-     
 ---------------------------------------

     STATE:    1
 Group Ref#    Coefficients
     1    1    0.950241
     2    2   -0.006154
     3    3   -0.004353

WEIGHT OF LISTED PROTOTYPES:   90.30%

     STATE:    2
 Group Ref#    Coefficients
     1    1   -0.006203
     2    2    0.942635
     3    3    0.004678

WEIGHT OF LISTED PROTOTYPES:   88.86%

     STATE:    3
 Group Ref#    Coefficients
     1    1   -0.004379
     2    2    0.004668
     3    3    0.944608

WEIGHT OF LISTED PROTOTYPES:   89.23%

     DIRECT MAX. DIABATIZATION FINISHED    
 CPU     0: STEP CPU TIME=     0.26 TOTAL CPU TIME=         15.6 (      0.3 MIN)
 TOTAL WALL CLOCK TIME=         15.6 SECONDS, CPU UTILIZATION IS   100.00%

DIABATS FOR SPIN-ORBIT CALCULATION ARE READY

TRANSITION DIPOLES BETWEEN ADIABATS (in A.U.):

STATE PAIR      X         Y         Z
    1    1 -0.082324 -0.326830  0.661620
    2    1  0.024653 -0.006481  0.183518
    2    2 -0.229045 -0.282932  0.346742
    3    1  0.110737 -0.091847 -0.049743
    3    2 -0.200020  0.063608  0.002050
    3    3 -0.035949 -0.559160  0.299618


TRANSITION DIPOLES BETWEEN DIABATS (in A.U.):

STATE PAIR      X         Y         Z
    1    1 -0.091588 -0.315067  0.750261
    2    1  0.001819 -0.023108  0.005461
    2    2 -0.351612 -0.340257  0.302457
    3    1 -0.020619  0.024394  0.003607
    3    2 -0.110043  0.147466 -0.014859
    3    3  0.095882 -0.513599  0.255263

TRANSITION DIPOLES BETWEEN DIRECT MAX. DIABATS (in A.U.):

STATE PAIR      X         Y         Z
    1    1 -0.091589 -0.315068  0.750261
    2    1  0.001811 -0.023107  0.005449
    2    2 -0.351613 -0.340254  0.302457
    3    1 -0.020619  0.024395  0.003600
    3    2 -0.110041  0.147465 -0.014860
    3    3  0.095883 -0.513601  0.255263
 No $TRANST Group Found.
 Quit without doing spin-orbit coupling
 ..... DONE WITH MP2 ENERGY .....
 CPU     0: STEP CPU TIME=     0.00 TOTAL CPU TIME=         15.6 (      0.3 MIN)
 TOTAL WALL CLOCK TIME=         15.6 SECONDS, CPU UTILIZATION IS    99.94%
            100000000  WORDS OF DYNAMIC MEMORY USED
 EXECUTION OF GAMESS TERMINATED NORMALLY Wed Nov 16 18:28:08 2022
 DDI: 715512 bytes (0.7 MB / 0 MWords) used by master data server.

 ----------------------------------------
 CPU timing information for all processes
 ========================================
 0: 15.265 + 0.383 = 15.649
 ----------------------------------------
Note: The following floating-point exceptions are signalling: IEEE_DENORMAL
 ddikick.x: exited gracefully.
unset echo
----- accounting info -----
Files used on the master node io002 were:
-rw-r--r-- 1 bsonghao nooijen   20732 Nov 16 18:27 /scratch/bsonghao/nh3_diabatization_2d_at_mode_7_8_dist-0.7_-0.2.F05
-rw-r--r-- 1 bsonghao nooijen  363520 Nov 16 18:28 /scratch/bsonghao/nh3_diabatization_2d_at_mode_7_8_dist-0.7_-0.2.F09
-rw-r--r-- 1 bsonghao nooijen 1995920 Nov 16 18:28 /scratch/bsonghao/nh3_diabatization_2d_at_mode_7_8_dist-0.7_-0.2.F10
-rw-r--r-- 1 bsonghao nooijen  131264 Nov 16 18:28 /scratch/bsonghao/nh3_diabatization_2d_at_mode_7_8_dist-0.7_-0.2.F13
-rw-r--r-- 1 bsonghao nooijen  180312 Nov 16 18:28 /scratch/bsonghao/nh3_diabatization_2d_at_mode_7_8_dist-0.7_-0.2.F15
-rw-r--r-- 1 bsonghao nooijen       0 Nov 16 18:27 /scratch/bsonghao/nh3_diabatization_2d_at_mode_7_8_dist-0.7_-0.2.F16
-rw-r--r-- 1 bsonghao nooijen    9808 Nov 16 18:28 /scratch/bsonghao/nh3_diabatization_2d_at_mode_7_8_dist-0.7_-0.2.F70
-rw-r--r-- 1 bsonghao nooijen    9808 Nov 16 18:28 /scratch/bsonghao/nh3_diabatization_2d_at_mode_7_8_dist-0.7_-0.2.F71
-rw-r--r-- 1 bsonghao nooijen   19608 Nov 16 18:28 /scratch/bsonghao/nh3_diabatization_2d_at_mode_7_8_dist-0.7_-0.2.F72
-rw-r--r-- 1 bsonghao nooijen   19608 Nov 16 18:28 /scratch/bsonghao/nh3_diabatization_2d_at_mode_7_8_dist-0.7_-0.2.F73
-rw-r--r-- 1 bsonghao nooijen 1920824 Nov 16 18:28 /scratch/bsonghao/nh3_diabatization_2d_at_mode_7_8_dist-0.7_-0.2.F74
-rw-r--r-- 1 bsonghao nooijen       0 Nov 16 18:27 /scratch/bsonghao/nh3_diabatization_2d_at_mode_7_8_dist-0.7_-0.2.F75
-rw-r--r-- 1 bsonghao nooijen   58848 Nov 16 18:28 /scratch/bsonghao/nh3_diabatization_2d_at_mode_7_8_dist-0.7_-0.2.F76
-rw-r--r-- 1 bsonghao nooijen       0 Nov 16 18:27 /scratch/bsonghao/nh3_diabatization_2d_at_mode_7_8_dist-0.7_-0.2.F77
-rw-r--r-- 1 bsonghao nooijen    1864 Nov 16 18:28 /scratch/bsonghao/nh3_diabatization_2d_at_mode_7_8_dist-0.7_-0.2.F78
-rw-r--r-- 1 bsonghao nooijen   39208 Nov 16 18:28 /scratch/bsonghao/nh3_diabatization_2d_at_mode_7_8_dist-0.7_-0.2.F79
-rw-r--r-- 1 bsonghao nooijen     104 Nov 16 18:28 /scratch/bsonghao/nh3_diabatization_2d_at_mode_7_8_dist-0.7_-0.2.F80
-rw-r--r-- 1 bsonghao nooijen   13472 Nov 16 18:28 /scratch/bsonghao/nh3_diabatization_2d_at_mode_7_8_dist-0.7_-0.2.F81
-rw-r--r-- 1 bsonghao nooijen      16 Nov 16 18:28 /scratch/bsonghao/nh3_diabatization_2d_at_mode_7_8_dist-0.7_-0.2.F82
-rw-r--r-- 1 bsonghao nooijen   19216 Nov 16 18:28 /scratch/bsonghao/nh3_diabatization_2d_at_mode_7_8_dist-0.7_-0.2.F83
-rw-r--r-- 1 bsonghao nooijen   29712 Nov 16 18:28 /scratch/bsonghao/nh3_diabatization_2d_at_mode_7_8_dist-0.7_-0.2.F84
-rw-r--r-- 1 bsonghao nooijen  401576 Nov 16 18:28 /scratch/bsonghao/nh3_diabatization_2d_at_mode_7_8_dist-0.7_-0.2.F85
-rw-r--r-- 1 bsonghao nooijen  903672 Nov 16 18:28 /scratch/bsonghao/nh3_diabatization_2d_at_mode_7_8_dist-0.7_-0.2.F86
-rw-r--r-- 1 bsonghao nooijen     656 Nov 16 18:28 /scratch/bsonghao/nh3_diabatization_2d_at_mode_7_8_dist-0.7_-0.2.F87
-rw-r--r-- 1 bsonghao nooijen   41104 Nov 16 18:28 /scratch/bsonghao/nh3_diabatization_2d_at_mode_7_8_dist-0.7_-0.2.F88
-rw-r--r-- 1 bsonghao nooijen     240 Nov 16 18:28 /scratch/bsonghao/nh3_diabatization_2d_at_mode_7_8_dist-0.7_-0.2.F89
-rw-r--r-- 1 bsonghao nooijen       0 Nov 16 18:27 /scratch/bsonghao/nh3_diabatization_2d_at_mode_7_8_dist-0.7_-0.2.F90
-rw-r--r-- 1 bsonghao nooijen   13760 Nov 16 18:28 /scratch/bsonghao/nh3_diabatization_2d_at_mode_7_8_dist-0.7_-0.2.F91
-rw-r--r-- 1 bsonghao nooijen   22776 Nov 16 18:28 /scratch/bsonghao/nh3_diabatization_2d_at_mode_7_8_dist-0.7_-0.2.F92
-rw-r--r-- 1 bsonghao nooijen   23168 Nov 16 18:28 /scratch/bsonghao/nh3_diabatization_2d_at_mode_7_8_dist-0.7_-0.2.F93
-rw-r--r-- 1 bsonghao nooijen   22776 Nov 16 18:28 /scratch/bsonghao/nh3_diabatization_2d_at_mode_7_8_dist-0.7_-0.2.F94
-rw-r--r-- 1 bsonghao nooijen   13760 Nov 16 18:28 /scratch/bsonghao/nh3_diabatization_2d_at_mode_7_8_dist-0.7_-0.2.F95
-rw-r--r-- 1 bsonghao nooijen   29440 Nov 16 18:28 /scratch/bsonghao/nh3_diabatization_2d_at_mode_7_8_dist-0.7_-0.2.F96
-rw-r--r-- 1 bsonghao nooijen    1184 Nov 16 18:28 /scratch/bsonghao/nh3_diabatization_2d_at_mode_7_8_dist-0.7_-0.2.F97
-rw-r--r-- 1 bsonghao nooijen    9808 Nov 16 18:28 /scratch/bsonghao/nh3_diabatization_2d_at_mode_7_8_dist-0.7_-0.2.F98
-rw-r--r-- 1 bsonghao nooijen   30264 Nov 16 18:28 /scratch/bsonghao/nh3_diabatization_2d_at_mode_7_8_dist-0.7_-0.2.F99
ls: No match.
ls: No match.
ls: No match.
Wed 16 Nov 2022 06:28:11 PM EST
0.310u 0.031s 0:19.03 1.7%	0+0k 48+224io 0pf+0w
