----- GAMESS execution script 'rungms' -----
This job is running on host io002
under operating system Linux at Wed 16 Nov 2022 06:42:19 PM EST
Available scratch disk space (Kbyte units) at beginning of the job is
Filesystem       1K-blocks       Used   Available Use% Mounted on
/dev/sdc1      15378471580 3278917120 11318349060  23% /scratch
GAMESS temporary binary files will be written to /scratch/bsonghao
GAMESS supplementary output files will be written to /home/bsonghao/.gamess_ascii_files/267638
Copying input file nh3_diabatization_2d_at_mode_7_8_dist-0.5_-0.6.inp to your run's scratch directory...
cp nh3_diabatization_2d_at_mode_7_8_dist-0.5_-0.6.inp /scratch/bsonghao/nh3_diabatization_2d_at_mode_7_8_dist-0.5_-0.6.F05
unset echo
/home/bjb2chen/gamess/ddikick.x /home/bjb2chen/gamess/gamess.00.x nh3_diabatization_2d_at_mode_7_8_dist-0.5_-0.6 -ddi 1 1 io002 -scr /scratch/bsonghao

 Distributed Data Interface kickoff program.
 Initiating 1 compute processes on 1 nodes to run the following command:
 /home/bjb2chen/gamess/gamess.00.x nh3_diabatization_2d_at_mode_7_8_dist-0.5_-0.6 

          ******************************************************
          *         GAMESS VERSION = 02 AUG 2018 (R2)         *
          *             FROM IOWA STATE UNIVERSITY             *
          * M.W.SCHMIDT, K.K.BALDRIDGE, J.A.BOATZ, S.T.ELBERT, *
          *   M.S.GORDON, J.H.JENSEN, S.KOSEKI, N.MATSUNAGA,   *
          *          K.A.NGUYEN, S.J.SU, T.L.WINDUS,           *
          *       TOGETHER WITH M.DUPUIS, J.A.MONTGOMERY       *
          *         J.COMPUT.CHEM.  14, 1347-1363(1993)        *
          **************** 64 BIT LINUX VERSION ****************

  SINCE 1993, STUDENTS AND POSTDOCS WORKING AT IOWA STATE UNIVERSITY
  AND ALSO IN THEIR VARIOUS JOBS AFTER LEAVING ISU HAVE MADE IMPORTANT
  CONTRIBUTIONS TO THE CODE:
     IVANA ADAMOVIC, CHRISTINE AIKENS, YURI ALEXEEV, POOJA ARORA,
     ANDREY ASADCHEV, ROB BELL, PRADIPTA BANDYOPADHYAY, JONATHAN BENTZ,
     BRETT BODE, KURT BRORSEN, CALEB CARLIN, GALINA CHABAN, WEI CHEN,
     CHEOL HO CHOI, PAUL DAY, ALBERT DEFUSCO, NUWAN DESILVA, TIM DUDLEY,
     DMITRI FEDOROV, ALEX FINDLATER, GRAHAM FLETCHER, MARK FREITAG,
     KURT GLAESEMANN, ANASTASIA GUININA,
     DAN KEMP, GRANT MERRILL, NORIYUKI MINEZAWA, JONATHAN MULLIN,
     TAKESHI NAGATA, SEAN NEDD, HEATHER NETZLOFF, BOSILJKA NJEGIC, RYAN OLSON,
     MIKE PAK, BUU PHAM,
     SPENCER PRUITT, LUKE ROSKOP, JIM SHOEMAKER, LYUDMILA SLIPCHENKO,
     TONY SMITH, SAROM SOK LEANG, JIE SONG, TETSUYA TAKETSUGU, SIMON WEBB,
     PENG XU, SOOHAENG YOO, FEDERICO ZAHARIEV

  ADDITIONAL CODE HAS BEEN PROVIDED BY COLLABORATORS IN OTHER GROUPS:
     IOWA STATE UNIVERSITY:
          JOE IVANIC, AARON WEST, LAIMUTIS BYTAUTAS, KLAUS RUEDENBERG
     UNIVERSITY OF TOKYO: KIMIHIKO HIRAO, TAKAHITO NAKAJIMA,
          TAKAO TSUNEDA, MUNEAKI KAMIYA, SUSUMU YANAGISAWA,
          KIYOSHI YAGI, MAHITO CHIBA, SEIKEN TOKURA, NAOAKI KAWAKAMI
     UNIVERSITY OF AARHUS: FRANK JENSEN
     UNIVERSITY OF IOWA: VISVALDAS KAIRYS, HUI LI
     NATIONAL INST. OF STANDARDS AND TECHNOLOGY: WALT STEVENS, DAVID GARMER
     UNIVERSITY OF PISA: BENEDETTA MENNUCCI, JACOPO TOMASI
     UNIVERSITY OF MEMPHIS: HENRY KURTZ, PRAKASHAN KORAMBATH
     UNIVERSITY OF ALBERTA: TOBY ZENG, MARIUSZ KLOBUKOWSKI
     UNIVERSITY OF NEW ENGLAND: MARK SPACKMAN
     MIE UNIVERSITY: HIROAKI UMEDA
     NAT. INST. OF ADVANCED INDUSTRIAL SCIENCE AND TECHNOLOGY: KAZUO KITAURA
     MICHIGAN STATE UNIVERSITY:
          KAROL KOWALSKI, MARTA WLOCH, JEFFREY GOUR, JESSE LUTZ,
          WEI LI, JUN SHEN, J. EMILIANO DEUSTUA, PIOTR PIECUCH
     UNIVERSITY OF MINNESOTA:
          YINAN SHU
     UNIVERSITY OF SILESIA: MONIKA MUSIAL, STANISLAW KUCHARSKI
     FACULTES UNIVERSITAIRES NOTRE-DAME DE LA PAIX:
          OLIVIER QUINET, BENOIT CHAMPAGNE
     UNIVERSITY OF CALIFORNIA - SANTA BARBARA: BERNARD KIRTMAN
     INSTITUTE FOR MOLECULAR SCIENCE:
          KAZUYA ISHIMURA, MICHIO KATOUDA, AND SHIGERU NAGASE
     UNIVERSITY OF NOTRE DAME: ANNA POMOGAEVA, DAN CHIPMAN
     KYUSHU UNIVERSITY:
          HARUYUKI NAKANO,
          FENG LONG GU, JACEK KORCHOWIEC, MARCIN MAKOWSKI, AND YURIKO AOKI,
          HIROTOSHI MORI AND EISAKU MIYOSHI
     PENNSYLVANIA STATE UNIVERSITY:
          TZVETELIN IORDANOV, CHET SWALINA, JONATHAN SKONE,
          SHARON HAMMES-SCHIFFER
     WASEDA UNIVERSITY:
          MASATO KOBAYASHI, TOMOKO AKAMA, TSUGUKI TOUMA,
          TAKESHI YOSHIKAWA, YASUHIRO IKABATA, JUNJI SEINO,
          YUYA NAKAJIMA, HIROMI NAKAI
     NANJING UNIVERSITY: SHUHUA LI
     UNIVERSITY OF NEBRASKA:
          PEIFENG SU, DEJUN SI, NANDUN THELLAMUREGE, YALI WANG, HUI LI
     UNIVERSITY OF ZURICH: ROBERTO PEVERATI, KIM BALDRIDGE
     N. COPERNICUS UNIVERSITY AND JACKSON STATE UNIVERSITY:
          MARIA BARYSZ
     UNIVERSITY OF COPENHAGEN: Jimmy Kromann, CASPER STEINMANN
     TOKYO INSTITUTE OF TECHNOLOGY: HIROYA NAKATA
     NAGOYA UNIVERSITY: YOSHIO NISHIMOTO, STEPHAN IRLE
     MOSCOW STATE UNIVERSITY: VLADIMIR MIRONOV

 EXECUTION OF GAMESS BEGUN Wed Nov 16 18:42:19 2022

            ECHO OF THE FIRST FEW INPUT CARDS -
 INPUT CARD> $system kdiag=3 mwords=100 memddi=1000 parall=.t. $end                         
 INPUT CARD> $contrl runtyp=energy ispher=1 $end                                            
 INPUT CARD> $contrl icut=9 itol=20 inttyp=rysquad qmttol=1.0d-05 nosym=1 $end              
 INPUT CARD> $scf    npunch=2 conv=1.0d-06 dirscf=.t.      $end                             
 INPUT CARD> $contrl scftyp=mcscf  mult=2 maxit=200 icharg=1 mplevl=2 $end                  
 INPUT CARD> $guess  guess=moread norb=29 purify=.t. $end                                   
 INPUT CARD> $basis  gbasis=ccd $end                                                        
 INPUT CARD> $mcscf  cistep=gmcci fullnr=.t. finci=mos                                      
 INPUT CARD>         acurcy=1.d-6 maxit=100 $end                                            
 INPUT CARD> $trans  dirtrf=.t. $end                                                        
 INPUT CARD> $mrmp   mrpt=gmcpt rdvecs=.f. $end                                             
 INPUT CARD> $gmcpt  nmofzc=0 nmodoc=1 nmoact=7 nelact=7 stsym(1)=A                         
 INPUT CARD>         reftyp=ormas nspace=1 mstart(1)=2 mine(1)=7 maxe(1)=7                  
 INPUT CARD>         kstate(1)=1,1,1                                                        
 INPUT CARD>         wstate(1)=1,1,1                                                        
 INPUT CARD>         iwgt=0 thrwgt=-1.0 krot=.f. kszdoe=.f. knospn=.f.                      
 INPUT CARD>         thrde=-1.0 edshft=0.02 $end                                            
 INPUT CARD> $data                                                                          
 INPUT CARD> NH3+ 3 states calculation at NH3 structure.                                    
 INPUT CARD> c1                                                                             
 INPUT CARD>N 7.0 0.03737350800000001 0.031144515 -0.1693803602                             
 INPUT CARD>H 1.0 -0.961869645 0.5427513538000001 0.22134716010000002                       
 INPUT CARD>H 1.0 -0.5797430480000001 -0.6106362098 0.44995454710000005                     
 INPUT CARD>H 1.0 1.022297792 -0.364878732 0.0980740151                                     
 INPUT CARD>$end                                                                            
 INPUT CARD>--- OPTIMIZED RHF      MO-S --- GENERATED AT Mon Nov 14 16:47:08 2022           
 INPUT CARD>E=      -56.3825050291, E(NUC)=   11.8429239490                                 
 INPUT CARD> $VEC                                                                           
 INPUT CARD> 1  1-1.00134066E+00-2.25158504E-03 3.44925845E-03 0.00000000E+00 0.00000000E+00
 INPUT CARD> 1  2-2.13170927E-03 0.00000000E+00 0.00000000E+00 6.57129898E-04-6.87950443E-05
 INPUT CARD> 1  3-6.87950443E-05 1.37590089E-04 0.00000000E+00 0.00000000E+00 0.00000000E+00
 INPUT CARD> 1  4 3.25502815E-04-4.84772356E-04 3.62525460E-04-6.27912517E-04-3.45956485E-04
 INPUT CARD> 1  5 3.25502815E-04-4.84772356E-04 3.62525460E-04 6.27912517E-04-3.45956485E-04
 INPUT CARD> 1  6 3.25502815E-04-4.84772356E-04-7.25050921E-04 0.00000000E+00-3.45956485E-04
 INPUT CARD> 2  1 1.31286642E-02-4.05911371E-01-2.82090992E-01 0.00000000E+00 0.00000000E+00
 INPUT CARD> 2  2-7.71489043E-02 0.00000000E+00 0.00000000E+00 9.73717494E-03 6.62450916E-04
 INPUT CARD> 2  3 6.62450916E-04-1.32490183E-03 0.00000000E+00 0.00000000E+00 0.00000000E+00
 INPUT CARD> 2  4-1.96090317E-01-1.96656153E-02-1.74855877E-02 3.02859263E-02 8.68214399E-03
 INPUT CARD> 2  5-1.96090317E-01-1.96656153E-02-1.74855877E-02-3.02859263E-02 8.68214399E-03
 INPUT CARD> 2  6-1.96090317E-01-1.96656153E-02 3.49711754E-02 0.00000000E+00 8.68214399E-03
 INPUT CARD> 3  1 0.00000000E+00 0.00000000E+00 0.00000000E+00 4.48608762E-01 0.00000000E+00
 INPUT CARD> 3  2 0.00000000E+00 2.18692520E-01 0.00000000E+00 0.00000000E+00 1.30198027E-02
 INPUT CARD> 3  3-1.30198027E-02 0.00000000E+00 0.00000000E+00 2.71832968E-02 0.00000000E+00
 INPUT CARD> 3  4-1.85332726E-01-7.03958951E-02 8.47929477E-03 1.95242443E-02 8.32835058E-03
 INPUT CARD> 3  5-1.85332726E-01-7.03958951E-02 8.47929477E-03-1.95242443E-02 8.32835058E-03
 INPUT CARD> 3  6 3.70665453E-01 1.40791790E-01-2.53376884E-02 0.00000000E+00-1.66567012E-02
 INPUT CARD> 4  1 0.00000000E+00 0.00000000E+00 0.00000000E+00 0.00000000E+00 4.48608762E-01
 INPUT CARD> 4  2 0.00000000E+00 0.00000000E+00 2.18692520E-01 0.00000000E+00 0.00000000E+00
 INPUT CARD> 4  3 0.00000000E+00 0.00000000E+00-1.50339731E-02 0.00000000E+00 2.71832968E-02
 INPUT CARD> 4  4 3.21005698E-01 1.21929267E-01 1.95242443E-02-1.40653607E-02-1.44251263E-02
  100000000 WORDS OF MEMORY AVAILABLE

     BASIS OPTIONS
     -------------
     GBASIS=CCD          IGAUSS=       0      POLAR=NONE    
     NDFUNC=       0     NFFUNC=       0     DIFFSP=       F
     NPFUNC=       0      DIFFS=       F     BASNAM=        


     RUN TITLE
     ---------
  NH3+ 3 states calculation at NH3 structure.                                    

 THE POINT GROUP OF THE MOLECULE IS C1      
 THE ORDER OF THE PRINCIPAL AXIS IS     0

 ATOM      ATOMIC                      COORDINATES (BOHR)
           CHARGE         X                   Y                   Z
 N           7.0     0.0706256893        0.0588545994       -0.3200824685
 H           1.0    -1.8176700650        1.0256513381        0.4182854807
 H           1.0    -1.0955555040       -1.1539351147        0.8502908009
 H           1.0     1.9318627047       -0.6895208222        0.1853330151

          INTERNUCLEAR DISTANCES (ANGS.)
          ------------------------------

                1 N          2 H          3 H          4 H     

   1 N       0.0000000    1.1886532 *  1.0845695 *  1.0947338 *
   2 H       1.1886532 *  0.0000000    1.2363596 *  2.1853853 *
   3 H       1.0845695 *  1.2363596 *  0.0000000    1.6585390 *
   4 H       1.0947338 *  2.1853853 *  1.6585390 *  0.0000000  

  * ... LESS THAN  3.000


     ATOMIC BASIS SET
     ----------------
 THE CONTRACTED PRIMITIVE FUNCTIONS HAVE BEEN UNNORMALIZED
 THE CONTRACTED BASIS FUNCTIONS ARE NOW NORMALIZED TO UNITY

  SHELL TYPE  PRIMITIVE        EXPONENT          CONTRACTION COEFFICIENT(S)

 N         

      1   S       1          9046.0000000    0.000699617413
      1   S       2          1357.0000000    0.005386054630
      1   S       3           309.3000000    0.027391021189
      1   S       4            87.7300000    0.103150591982
      1   S       5            28.5600000    0.278570663317
      1   S       6            10.2100000    0.448294849454
      1   S       7             3.8380000    0.278085928395
      1   S       8             0.7466000    0.015431561233

      2   S       9          9046.0000000   -0.000304990096
      2   S      10          1357.0000000   -0.002408026379
      2   S      11           309.3000000   -0.011944448725
      2   S      12            87.7300000   -0.048925992909
      2   S      13            28.5600000   -0.134472724725
      2   S      14            10.2100000   -0.315112577700
      2   S      15             3.8380000   -0.242857832550
      2   S      16             0.7466000    1.094382206854

      3   S      17             0.2248000    1.000000000000

      4   P      18            13.5500000    0.058905676772
      4   P      19             2.9170000    0.320461106714
      4   P      20             0.7973000    0.753042061792

      5   P      21             0.2185000    1.000000000000

      6   D      22             0.8170000    1.000000000000

 H         

      7   S      23            13.0100000    0.033498726390
      7   S      24             1.9620000    0.234800801174
      7   S      25             0.4446000    0.813682957883

      8   S      26             0.1220000    1.000000000000

      9   P      27             0.7270000    1.000000000000

 H         

     10   S      28            13.0100000    0.033498726390
     10   S      29             1.9620000    0.234800801174
     10   S      30             0.4446000    0.813682957883

     11   S      31             0.1220000    1.000000000000

     12   P      32             0.7270000    1.000000000000

 H         

     13   S      33            13.0100000    0.033498726390
     13   S      34             1.9620000    0.234800801174
     13   S      35             0.4446000    0.813682957883

     14   S      36             0.1220000    1.000000000000

     15   P      37             0.7270000    1.000000000000

 TOTAL NUMBER OF BASIS SET SHELLS             =   15
 NUMBER OF CARTESIAN GAUSSIAN BASIS FUNCTIONS =   30
 NOTE: THIS RUN WILL RESTRICT THE MO VARIATION SPACE TO SPHERICAL HARMONICS.
 THE NUMBER OF ORBITALS KEPT IN THE VARIATIONAL SPACE WILL BE PRINTED LATER.
 NUMBER OF ELECTRONS                          =    9
 CHARGE OF MOLECULE                           =    1
 SPIN MULTIPLICITY                            =    2
 NUMBER OF OCCUPIED ORBITALS (ALPHA)          =    5
 NUMBER OF OCCUPIED ORBITALS (BETA )          =    4
 TOTAL NUMBER OF ATOMS                        =    4
 THE NUCLEAR REPULSION ENERGY IS       10.9046453577

     $CONTRL OPTIONS
     ---------------
 SCFTYP=MCSCF        RUNTYP=ENERGY       EXETYP=RUN     
 MPLEVL=       2     CITYP =NONE         CCTYP =NONE         VBTYP =NONE    
 DFTTYP=NONE         TDDFT =NONE    
 MULT  =       2     ICHARG=       1     NZVAR =       0     COORD =UNIQUE  
 PP    =NONE         RELWFN=NONE         LOCAL =NONE         NUMGRD=       F
 ISPHER=       1     NOSYM =       1     MAXIT =     200     UNITS =ANGS    
 PLTORB=       F     MOLPLT=       F     AIMPAC=       F     FRIEND=        
 NPRINT=       7     IREST =       0     GEOM  =INPUT   
 NORMF =       0     NORMP =       0     ITOL  =      20     ICUT  =       9
 INTTYP=RYSQUAD      GRDTYP=BEST         QMTTOL= 1.0E-05

     $SYSTEM OPTIONS
     ---------------
  REPLICATED MEMORY=   100000000 WORDS (ON EVERY NODE).
 DISTRIBUTED MEMDDI=        1000 MILLION WORDS IN AGGREGATE,
 MEMDDI DISTRIBUTED OVER   1 PROCESSORS IS  1000000000 WORDS/PROCESSOR.
 TOTAL MEMORY REQUESTED ON EACH PROCESSOR=  1100000000 WORDS.
 TIMLIM=      525600.00 MINUTES, OR     365.0 DAYS.
 PARALL= T  BALTYP=  DLB     KDIAG=    3  COREFL= F
 MXSEQ2=     300 MXSEQ3=     150  mem10=         0

          ----------------
          PROPERTIES INPUT
          ----------------

     MOMENTS            FIELD           POTENTIAL          DENSITY
 IEMOM =       1   IEFLD =       0   IEPOT =       0   IEDEN =       0
 WHERE =COMASS     WHERE =NUCLEI     WHERE =NUCLEI     WHERE =NUCLEI  
 OUTPUT=BOTH       OUTPUT=BOTH       OUTPUT=BOTH       OUTPUT=BOTH    
 IEMINT=       0   IEFINT=       0                     IEDINT=       0
                                                       MORB  =       0

     -------------------------------
     INTEGRAL TRANSFORMATION OPTIONS
     -------------------------------
     NWORD  =            0
     CUTOFF = 1.0E-09     MPTRAN =       0
     DIRTRF =       T     AOINTS =DUP     

          ----------------------
          MCSCF INPUT PARAMETERS
          ----------------------
 CONVERGER SELECTION: FOCAS = F  SOSCF = F  FULLNR = T  QUD = F  JACOBI = F
 SECULAR EQUATION METHOD CISTEP = GMCCI   
 --- GENERAL INPUT OPTIONS:
 MAXIT =     100  MICIT =       1  ACURCY= 1.000E-06
 DAMP  =   0.000  CANONC=       T  ENGTOL= 1.000E-10
 EKT   =       F  NPUNCH=       2  NWORD =         0
 REGENERATE CI AFTER CONVERGENCE = NONE    
 DIABATIZATION AFTER CONVERGENCE =        F
 --- INPUT FOR FULLNR CONVERGER:
 METHOD=DM2       FORS  =       F  DROPC =       T
 LINSER=       F  FCORE =       F  NORB  =      30

          ----------------------
          INTEGRAL INPUT OPTIONS
          ----------------------
 NOPK  =       1 NORDER=       0 SCHWRZ=       T

 ------------------------------------------
 MULTIREFERENCE PERTURBATION THEORY CONTROL
 ------------------------------------------
 MRPT=GMCPT    READ CONVERGED MCSCF VECTORS= F


     ------------------------------------------
     THE POINT GROUP IS C1 , NAXIS= 1, ORDER= 1
     ------------------------------------------

 -- VARIATIONAL SPACE WILL BE RESTRICTED TO PURE SPHERICAL HARMONICS ONLY --
 AFTER EXCLUDING CONTAMINANT COMBINATIONS FROM THE CARTESIAN GAUSSIAN BASIS
 SET, THE NUMBER OF SPHERICAL HARMONICS KEPT IN THE VARIATION SPACE IS   29

     DIMENSIONS OF THE SYMMETRY SUBSPACES ARE
 A   =   29

 ..... DONE SETTING UP THE RUN .....
 CPU     0: STEP CPU TIME=     0.03 TOTAL CPU TIME=          0.0 (      0.0 MIN)
 TOTAL WALL CLOCK TIME=          0.0 SECONDS, CPU UTILIZATION IS    75.00%

          ********************
          1 ELECTRON INTEGRALS
          ********************
 TIME TO DO   DIPOLE INTEGRALS=      0.01
 ...... END OF ONE-ELECTRON INTEGRALS ......
 CPU     0: STEP CPU TIME=     0.01 TOTAL CPU TIME=          0.0 (      0.0 MIN)
 TOTAL WALL CLOCK TIME=          0.0 SECONDS, CPU UTILIZATION IS   100.00%

          -------------
          GUESS OPTIONS
          -------------
          GUESS =MOREAD            NORB  =      29          NORDER=       0
          MIX   =       F          PRTMO =       F          PUNMO =       F
          TOLZ  = 1.0E-08          TOLE  = 1.0E-05
          SYMDEN=       F          PURIFY=       T

 INITIAL GUESS ORBITALS GENERATED BY MOREAD   ROUTINE.

 STATISTICS FOR GENERATION OF SYMMETRY ORBITAL -Q- MATRIX
 NUMBER OF CARTESIAN ATOMIC ORBITALS=         30
 NUMBER OF SPHERICAL CONTAMINANTS DROPPED=     1
 NUMBER OF LINEARLY DEPENDENT MOS DROPPED=     0
 TOTAL NUMBER OF MOS IN VARIATION SPACE=      29
 ORBITAL PURIFICATION WILL OCCUR

 SYMMETRIES FOR INITIAL GUESS ORBITALS FOLLOW.   BOTH SET(S).
     5 ORBITALS ARE OCCUPIED (    1 CORE ORBITALS).
     1=A        2=A        3=A        4=A        5=A        6=A        7=A   
     8=A        9=A       10=A       11=A       12=A       13=A       14=A   
    15=A       16=A       17=A       18=A       19=A       20=A       21=A   
    22=A       23=A       24=A       25=A       26=A       27=A       28=A   
    29=A   
 ...... END OF INITIAL ORBITAL SELECTION ......
 CPU     0: STEP CPU TIME=     0.01 TOTAL CPU TIME=          0.0 (      0.0 MIN)
 TOTAL WALL CLOCK TIME=          0.1 SECONDS, CPU UTILIZATION IS   100.00%

                    ----------------------
                    AO INTEGRAL TECHNOLOGY
                    ----------------------
     S,P,L SHELL ROTATED AXIS INTEGRALS, REPROGRAMMED BY
        KAZUYA ISHIMURA (IMS) AND JOSE SIERRA (SYNSTAR).
     S,P,D,L SHELL ROTATED AXIS INTEGRALS PROGRAMMED BY
        KAZUYA ISHIMURA (INSTITUTE FOR MOLECULAR SCIENCE).
     S,P,D,F,G SHELL TO TOTAL QUARTET ANGULAR MOMENTUM SUM 5,
        ERIC PROGRAM BY GRAHAM FLETCHER (ELORET AND NASA ADVANCED
        SUPERCOMPUTING DIVISION, AMES RESEARCH CENTER).
     S,P,D,F,G,L SHELL GENERAL RYS QUADRATURE PROGRAMMED BY
        MICHEL DUPUIS (PACIFIC NORTHWEST NATIONAL LABORATORY).

          --------------------
          2 ELECTRON INTEGRALS
          --------------------

 DIRECT SCF METHOD SKIPS INTEGRAL STORAGE ON DISK.
 DIRECT TRANSFORMATION SKIPS AO INTEGRAL STORAGE ON DISK.
  ...... END OF TWO-ELECTRON INTEGRALS .....
 STEP CPU TIME =     0.02 TOTAL CPU TIME =          0.1 (      0.0 MIN)
 TOTAL WALL CLOCK TIME=          0.1 SECONDS, CPU UTILIZATION IS   100.00%
 DDI: Creating Array [0] - 900 x 36 = 32400 words.
 DDI: Creating Array [1] - 21 x 288 = 6048 words.
 DDI: Creating Array [2] - 36 x 36 = 1296 words.
 DDI: Creating Array [3] - 465 x 36 = 16740 words.

          -----------------
          MCSCF CALCULATION
          -----------------

 ----- NUCLEAR ENERGY ----- =        10.9046453577

     -------------------------------------------------
     GMC-PT/GMC-QDPT or general MCSCF input parameters
     -------------------------------------------------
 # of frozen core orbs. =         0 ->         0
 # of doubly occ. orbs. =         1
 # of active      orbs. =         7
 # of virtual     orbs. =        21
 # of active electrons  =         7
 # of states in CI      =         3
 Highest state in CI    =         3
 kstate =  1 1 1
 avecoe =  0.333 0.333 0.333
 State symmetry           = A           
 Assigned symmetry number = 1

 <<<Act. MO sym.: 1111111

 <<<Division of 1-ext.:  0
 <<<Division of 2-ext.:  0

 *** Reference space

 Reference type: ORMAS (= Occupation restricted multiple active space)
 # of orbitals          =  7
 # of minimum electrons =  7
 # of maximum electrons =  7
 State symmetry    =    1 (input)
 2*Sz              =    1 (input)
 Spin multiplicity =    2 (input)
 Dimension of reference space =      1225  (from      3432 walks)

 Dimension of reference space =      1225  (from      1225 walks)

 <<<Ionized spaces for Ref-CI:
      0:         1225 /   -1-0:         1960 /  0-1-0:         2891

 EVALUATING EXCHANGE INTEGRALS FOR DIRECT INTEGRAL TRANSFORMATION
 SCHWARZ INEQUALITY OVERHEAD:       465 INTEGRALS, T=        0.00

     --------------------------------------------
     PARTIAL TWO ELECTRON INTEGRAL TRANSFORMATION
     --------------------------------------------

 NUMBER OF CORE MOLECULAR ORBITALS     =    1
 NUMBER OF OCCUPIED MOLECULAR ORBITALS =    8
 TOTAL NUMBER OF MOLECULAR ORBITALS    =   29
 TOTAL NUMBER OF ATOMIC ORBITALS       =   30
 THRESHOLD FOR KEEPING TRANSFORMED 2E- INTEGRALS = 1.000E-09

 -------------------------------     ------------------------------
 DISTRIBUTED DATA TRANSFORMATION     PROGRAM WRITTEN BY G. FLETCHER
 -------------------------------     ------------------------------

 THE DISTRIBUTED MEMORY REQUIRED FOR THIS STEP IS MEMDDI=         1 MWORDS
 CREATING DISTRIBUTED STORAGE FOR [VIR OCC|VIR OCC] INTEGRALS
 CREATING DISTRIBUTED STORAGE FOR [VIR OCC|OCC OCC] INTEGRALS
 CREATING DISTRIBUTED STORAGE FOR [OCC OCC|OCC OCC] INTEGRALS
 CREATING DISTRIBUTED STORAGE FOR [VIR VIR|OCC OCC] INTEGRALS
 FOR    1 PROCESSORS, THE REPLICATED MEMORY NEEDED IS       73700 WORDS.
 SCHWARZ INEQUALITY OVERHEAD:       465 INTEGRALS, T=        0.00

      DIRECT 4-INDEX TRANSFORMATION 
      SCHWARZ INEQUALITY TEST SKIPPED          0 INTEGRAL BLOCKS
 ----- FROZEN CORE ENERGY =       -47.5649095558
 ... END OF INTEGRAL TRANSFORMATION ...
 CPU     0: STEP CPU TIME=     0.22 TOTAL CPU TIME=          0.3 (      0.0 MIN)
 TOTAL WALL CLOCK TIME=          0.3 SECONDS, CPU UTILIZATION IS   100.00%

     --------------------------------     -----------------------------
     MCHF NEWTON-RAPHSON OPTIMIZATION     CODE WRITTEN BY MICHEL DUPUIS
     --------------------------------     -----------------------------
     PARALLEL VERSION WRITTEN BY G. FLETCHER (ELORET)
     NASA ADVANCED SUPERCOMPUTING DIVISION, AMES RESEARCH CENTER

 NUMBER OF INDEPENDENT ORBITAL ROTATION PARAMETERS =   175
 ..... DONE SOLVING NEWTON-RAPHSON EQUATIONS .....
 CPU     0: STEP CPU TIME=     0.69 TOTAL CPU TIME=          1.0 (      0.0 MIN)
 TOTAL WALL CLOCK TIME=          1.0 SECONDS, CPU UTILIZATION IS    98.99%
 ..... DONE WITH NTN-RPH ORBITAL ROTATIONS ..... 
 CPU     0: STEP CPU TIME=     0.00 TOTAL CPU TIME=          1.0 (      0.0 MIN)
 TOTAL WALL CLOCK TIME=          1.0 SECONDS, CPU UTILIZATION IS    98.99%
 MAXIMUM MEMORY USED BY NTN-RPH CODE WAS     57645 WORDS.

 ITER     TOTAL ENERGY      DEL(E)  LAGRANGIAN ASYMMETRY   SQCDF  MICIT   DAMP
   1      -55.582265410 -0.582265410  0.132661   10    4 9.554E-02  1   0.0000
   2      -55.646690131 -0.064424721  0.019664   12    5 4.609E-01  1   0.0000
   3      -55.683677343 -0.036987212  0.014405   11    6 2.287E-01  1   0.0171
   4      -55.700725973 -0.017048630  0.005008   11    6 4.485E-02  1   0.0062
   5      -55.703060351 -0.002334379  0.001192   14    5 1.248E-03  1   0.0000
   6      -55.703141448 -0.000081097  0.000511   14    5 1.174E-04  1   0.0000
   7      -55.703151570 -0.000010121  0.000224   14    5 2.637E-05  1   0.0000
   8      -55.703153815 -0.000002245  0.000102   14    5 6.945E-06  1   0.0000
   9      -55.703154383 -0.000000569  0.000048   22    5 1.967E-06  1   0.0000
  10      -55.703154538 -0.000000155  0.000026   22    5 5.840E-07  1   0.0000
  11      -55.703154582 -0.000000044  0.000014   22    5 1.797E-07  1   0.0000
  12      -55.703154595 -0.000000013  0.000008   22    5 5.699E-08  1   0.0000
  13      -55.703154599 -0.000000004  0.000004   22    5 1.856E-08  1   0.0000
  14      -55.703154601 -0.000000001  0.000002   22    5 6.191E-09  1   0.0000
  15      -55.703154601 -0.000000000  0.000001   22    5 2.045E-09  1   0.0000
  16      -55.703154601 -0.000000000  0.000001   13    3 7.511E-10  1   0.0000
  17      -55.703154601 -0.000000000  0.000000   12    7 2.608E-10  1   0.0000

          --------------------
          LAGRANGIAN CONVERGED
          --------------------

 FINAL MCSCF ENERGY IS      -55.7031546014 AFTER  17 ITERATIONS

 -MCCI- BASED ON OPTIMIZED ORBITALS
 ----------------------------------

 PLEASE NOTE: IF THE ACTIVE ORBITALS ARE CANONICALIZED BELOW,
 THE FOLLOWING CI EXPANSION COEFFICIENTS AND THE DENSITY DO NOT
 CORRESPOND TO THE PRINTED ORBITALS.  THE PRINTED EXPANSIONS MATCH
 THE ORBITALS USED DURING THE LAST ITERATION.  IF YOU WISH TO SEE
 CI EXPANSIONS BASED ON THE CANONICAL (OR NATURAL) ORBITALS, YOU
 MUST RUN A CI CALCULATION WITH THAT ORBITAL CHOICE READ IN $VEC.

 Averaged energy =     -55.703154601

 State #    1  Energy =     -55.841022994  S =  0.500

      Det      Coef    Occupancy (Ignoring core)
      ---      ----    --------- --------- -----
        1   -0.869648  11110001110000
        2   -0.051726  11101001110000
        5    0.074501  01111001110000
        8    0.124867  10110101110000
       17    0.150542  11010011110000
       36    0.319368  11110001101000
       51    0.053321  11100011101000
       71   -0.147875  11110001011000
      211   -0.053592  11110000110100
      386   -0.099322  11110001010010
      701   -0.097221  11110001100001
      717   -0.071484  11010011100001

 State #    2  Energy =     -55.716504040  S =  0.500

      Det      Coef    Occupancy (Ignoring core)
      ---      ----    --------- --------- -----
        1   -0.328329  11110001110000
       17    0.051650  11010011110000
       36   -0.878219  11110001101000
       38    0.070207  11011001101000
       39   -0.054917  10111001101000
       40    0.070172  01111001101000
       43    0.097208  10110101101000
       52    0.119283  11010011101000
       71    0.110205  11110001011000
      281   -0.055370  11110000101100
      456   -0.085610  11110001001010
      463   -0.052001  10110101001010
      701   -0.091305  11110001100001

 State #    3  Energy =     -55.551936770  S =  0.500

      Det      Coef    Occupancy (Ignoring core)
      ---      ----    --------- --------- -----
        1   -0.100098  11110001110000
       36    0.162224  11110001101000
       71    0.931109  11110001011000
       78   -0.063553  10110101011000
       87   -0.101225  11010011011000
      246   -0.062026  11110001001100
      316    0.082608  11110000011100
      736    0.051585  11110001010001
      806   -0.122069  11110001001001
      822   -0.079139  11010011001001

 DENSITY MATRIX OVER ACTIVE MO-S

             1           2           3           4           5

    1    1.9713753
    2   -0.0153808   1.6325853
    3   -0.0293675  -0.0057200   1.6109063
    4   -0.0039734  -0.0042001  -0.0124950   1.6467078
    5    0.1147140   0.0481140   0.0847896   0.0279504   0.0420025
    6    0.0019054  -0.1482406  -0.0296679  -0.0489775  -0.0066745
    7    0.0187373   0.0107517   0.1869154   0.0844092   0.0189625

             6           7

    6    0.0374395
    7   -0.0102957   0.0589834

 FORMING THE "STANDARD FOCK OPERATOR" IN DIRECT AO INTEGRAL MODE...
 ONLY THE    1 CORE AND   21 VIRTUAL ORBITALS WILL BE CANONICALIZED

          ----------------------
          MCSCF NATURAL ORBITALS
          ----------------------

                      1          2          3          4          5
                  -15.9771     1.9803     1.6537     1.6469     1.6371
                     A          A          A          A          A   
    1  N  1  S    1.001037   0.009483  -0.008051   0.003112   0.003517
    2  N  1  S   -0.002014   0.433341  -0.149260   0.109679   0.074943
    3  N  1  S   -0.006384   0.335447  -0.244645   0.150308   0.116257
    4  N  1  X    0.000055  -0.033792   0.185838   0.432129   0.031439
    5  N  1  Y   -0.000168  -0.048571   0.052200  -0.010372   0.538177
    6  N  1  Z    0.001070   0.083679   0.566059  -0.144565   0.010084
    7  N  1  X    0.000050  -0.008100   0.112582   0.164035   0.028286
    8  N  1  Y    0.000029  -0.004352   0.063640   0.005565   0.307509
    9  N  1  Z   -0.000550   0.015515   0.383191  -0.072197   0.040872
   10  N  1 XX    0.000248   0.003330  -0.009831   0.005360   0.007527
   11  N  1 YY   -0.000131  -0.002825  -0.012048   0.001140  -0.007768
   12  N  1 ZZ   -0.000117  -0.000505   0.021880  -0.006500   0.000241
   13  N  1 XY   -0.000086  -0.001783  -0.002608  -0.008551  -0.014205
   14  N  1 XZ   -0.000075  -0.003316   0.003423   0.019360   0.001922
   15  N  1 YZ   -0.000138  -0.001650  -0.003701   0.002323   0.022771
   16  H  2  S   -0.001269   0.155838   0.030118  -0.246954   0.253831
   17  H  2  S    0.000346  -0.000994   0.022153  -0.033553   0.097019
   18  H  2  X   -0.000572   0.023399   0.004869  -0.021092   0.030173
   19  H  2  Y    0.000328  -0.014558   0.000351   0.025679   0.002802
   20  H  2  Z    0.000301  -0.005299   0.022964   0.002161  -0.006832
   21  H  3  S   -0.001739   0.217040   0.093016  -0.241710  -0.288710
   22  H  3  S    0.000284   0.009795   0.027518  -0.044633  -0.105604
   23  H  3  X   -0.000567   0.021892   0.013680   0.004752  -0.020173
   24  H  3  Y   -0.000622   0.024674   0.015193  -0.026164  -0.003372
   25  H  3  Z    0.000557  -0.018921   0.019309   0.009632   0.021255
   26  H  4  S   -0.001588   0.159636   0.180965   0.316167  -0.046101
   27  H  4  S    0.000593   0.000133   0.041815   0.044661   0.011179
   28  H  4  X    0.000818  -0.030414  -0.018127  -0.031164   0.016999
   29  H  4  Y   -0.000293   0.008194   0.010392   0.017915   0.015441
   30  H  4  Z    0.000261  -0.002497   0.017662  -0.014135   0.001016

                      6          7          8
                    0.0364     0.0253     0.0203
                     A          A          A   
    1  N  1  S   -0.129918  -0.110117   0.104533
    2  N  1  S   -0.447815  -0.418542   0.325687
    3  N  1  S   -0.005530  -0.219117   0.018466
    4  N  1  X   -0.095116   0.472913   0.757935
    5  N  1  Y   -0.567704   0.343672  -0.416598
    6  N  1  Z   -0.214571  -0.568658   0.207204
    7  N  1  X    0.023885   0.102182   0.060250
    8  N  1  Y    0.080484   0.026935  -0.035434
    9  N  1  Z    0.066372   0.028229  -0.073275
   10  N  1 XX    0.049456   0.020360   0.017766
   11  N  1 YY   -0.043487  -0.020632  -0.029755
   12  N  1 ZZ   -0.005969   0.000272   0.011989
   13  N  1 XY   -0.062307   0.016064   0.035567
   14  N  1 XZ   -0.014342  -0.043328  -0.031096
   15  N  1 YZ    0.000837  -0.026722   0.038375
   16  H  2  S    0.634973   0.245095   0.348698
   17  H  2  S    0.191744   0.008821   0.118676
   18  H  2  X    0.064641   0.010667   0.019514
   19  H  2  Y   -0.012447  -0.039632  -0.024021
   20  H  2  Z    0.004492   0.031821   0.009496
   21  H  3  S   -0.329459   0.753578  -0.110444
   22  H  3  S   -0.161358   0.167593  -0.043015
   23  H  3  X   -0.015365   0.010240  -0.046302
   24  H  3  Y    0.011442   0.058661   0.010809
   25  H  3  Z    0.025317  -0.002741   0.002286
   26  H  4  S    0.391319   0.066223  -0.721548
   27  H  4  S    0.077099  -0.020784  -0.153527
   28  H  4  X   -0.029001  -0.017594   0.071829
   29  H  4  Y    0.029045   0.002011  -0.020199
   30  H  4  Z   -0.001707   0.006885  -0.030352

          ------------------------
          MCSCF OPTIMIZED ORBITALS
          ------------------------

                      1          2          3          4          5
                  -15.9771     0.0000     0.0000     0.0000     0.0000
                     A          A          A          A          A   
    1  N  1  S    1.001037  -0.001839  -0.011289  -0.010451  -0.014730
    2  N  1  S   -0.002014   0.397172   0.010406   0.004200  -0.194251
    3  N  1  S   -0.006384   0.333719   0.065372   0.102767  -0.271837
    4  N  1  X    0.000055  -0.008826   0.384137   0.032848   0.036506
    5  N  1  Y   -0.000168  -0.021190  -0.005558   0.449715   0.019654
    6  N  1  Z    0.001070   0.050385  -0.006281  -0.016357   0.581205
    7  N  1  X    0.000050   0.005237   0.179810   0.034830   0.062345
    8  N  1  Y    0.000029   0.019854   0.017020   0.313721   0.065374
    9  N  1  Z   -0.000550   0.024981   0.038558   0.042835   0.391807
   10  N  1 XX    0.000248   0.006566   0.002030   0.013636  -0.008727
   11  N  1 YY   -0.000131  -0.005711  -0.000336  -0.012978  -0.013556
   12  N  1 ZZ   -0.000117  -0.000855  -0.001694  -0.000657   0.022284
   13  N  1 XY   -0.000086  -0.005445  -0.014074  -0.022151  -0.004650
   14  N  1 XZ   -0.000075  -0.004449   0.022573   0.001331  -0.001326
   15  N  1 YZ   -0.000138  -0.001826  -0.002244   0.023782  -0.003864
   16  H  2  S   -0.001269   0.194645  -0.254955   0.314621   0.122390
   17  H  2  S    0.000346   0.010896  -0.032971   0.120877   0.040119
   18  H  2  X   -0.000572   0.027362  -0.020347   0.036042   0.013620
   19  H  2  Y    0.000328  -0.015264   0.027580   0.003384  -0.005996
   20  H  2  Z    0.000301  -0.003945   0.007273  -0.006377   0.020866
   21  H  3  S   -0.001739   0.209810  -0.223230  -0.365928   0.116934
   22  H  3  S    0.000284   0.002758  -0.037902  -0.131195   0.025255
   23  H  3  X   -0.000567   0.021308   0.011307  -0.023986   0.011125
   24  H  3  Y   -0.000622   0.026387  -0.023571  -0.005334   0.020669
   25  H  3  Z    0.000557  -0.016056   0.015102   0.025807   0.017619
   26  H  4  S   -0.001588   0.198731   0.422483  -0.005860   0.117524
   27  H  4  S    0.000593   0.007378   0.070119   0.020865   0.034981
   28  H  4  X    0.000818  -0.033523  -0.041087   0.015302  -0.010945
   29  H  4  Y   -0.000293   0.011434   0.021867   0.018734   0.007056
   30  H  4  Z    0.000261  -0.002103  -0.006378  -0.000044   0.020902

                      6          7          8          9         10
                    0.0000     0.0000     0.0000     0.1442     0.2066
                     A          A          A          A          A   
    1  N  1  S    0.188536   0.062214   0.015328  -0.116974   0.025423
    2  N  1  S    0.695244   0.167297   0.050393  -0.176538   0.026610
    3  N  1  S    0.200583  -0.081416  -0.099541   1.192399  -0.331073
    4  N  1  X   -0.074807   0.935200   0.017754   0.038787   0.152759
    5  N  1  Y   -0.039330  -0.114085   0.831328   0.035178  -0.085251
    6  N  1  Z    0.634695  -0.020630  -0.129859  -0.175316   0.041418
    7  N  1  X   -0.065945   0.114493   0.013158  -0.200454  -0.773048
    8  N  1  Y   -0.056870  -0.022508   0.000767  -0.128328   0.281012
    9  N  1  Z   -0.069016  -0.046420   0.012404   0.390836  -0.039662
   10  N  1 XX   -0.037702   0.017091  -0.036692   0.070965  -0.037896
   11  N  1 YY    0.030725  -0.029290   0.035072  -0.033475   0.011198
   12  N  1 ZZ    0.006976   0.012199   0.001621  -0.037490   0.026698
   13  N  1 XY    0.031538   0.046817   0.041994  -0.021609   0.046767
   14  N  1 XZ    0.033002  -0.042587   0.003942  -0.058184  -0.083067
   15  N  1 YZ    0.032464   0.021950  -0.024560  -0.044731   0.025119
   16  H  2  S   -0.426169   0.302784  -0.495288   0.434172   0.245349
   17  H  2  S   -0.074483   0.078650  -0.181101  -0.909479  -0.812388
   18  H  2  X   -0.036172   0.010904  -0.050249  -0.064798  -0.046716
   19  H  2  Y    0.030672  -0.034616   0.001326  -0.017010   0.004395
   20  H  2  Z   -0.024335   0.023149   0.007560   0.041255   0.061609
   21  H  3  S   -0.438299   0.269516   0.616427   0.307838   0.169252
   22  H  3  S   -0.057626   0.057864   0.209782  -0.877228  -0.526948
   23  H  3  X   -0.012194  -0.032969   0.032620  -0.108417  -0.011510
   24  H  3  Y   -0.047708   0.032418   0.013779  -0.012840  -0.000835
   25  H  3  Z   -0.010427  -0.000846  -0.018905   0.068890   0.027758
   26  H  4  S   -0.459298  -0.628954  -0.009779   0.294234  -0.549912
   27  H  4  S   -0.068591  -0.149583  -0.010238  -0.569723   1.896392
   28  H  4  X    0.048561   0.056469  -0.010533   0.074294  -0.104946
   29  H  4  Y   -0.021534  -0.019036  -0.012429  -0.004048   0.054797
   30  H  4  Z   -0.013183  -0.023430   0.016905  -0.017618  -0.066316

                     11         12         13         14         15
                    0.2489     0.5314     0.5998     0.7114     0.8221
                     A          A          A          A          A   
    1  N  1  S    0.024069  -0.094187   0.000677   0.077576  -0.370467
    2  N  1  S    0.055856  -0.146089   0.123890   0.185047  -0.851790
    3  N  1  S   -0.134634   0.473493   0.501721  -0.187887   1.325726
    4  N  1  X    0.047908  -0.284388   0.159323  -0.393716  -0.010592
    5  N  1  Y   -0.032509  -0.557641   0.266061   0.299155   0.048915
    6  N  1  Z    0.027697  -0.472952  -0.530210  -0.032095   0.266562
    7  N  1  X   -0.105829   0.581271  -0.714527   1.603400   0.203120
    8  N  1  Y    0.453100   0.861449  -0.809610  -0.903677  -0.079924
    9  N  1  Z   -0.141815   0.522754   1.057837  -0.064646  -0.279771
   10  N  1 XX    0.029280  -0.020465  -0.068002  -0.031766  -0.119200
   11  N  1 YY   -0.015042  -0.001060   0.041717   0.001324   0.121596
   12  N  1 ZZ   -0.014238   0.021525   0.026285   0.030442  -0.002396
   13  N  1 XY   -0.080119  -0.011825  -0.012317  -0.038887  -0.109351
   14  N  1 XZ    0.017743   0.003640   0.016496  -0.095871  -0.020782
   15  N  1 YZ    0.066330   0.008787   0.006293   0.069961  -0.057406
   16  H  2  S    0.546497  -0.237161  -0.218902   0.585688   0.224415
   17  H  2  S   -1.812379  -0.380189   0.308488   0.597205  -0.258413
   18  H  2  X   -0.029152   0.021280  -0.017536   0.225293   0.089191
   19  H  2  Y    0.057574   0.057582   0.157838  -0.087622   0.369169
   20  H  2  Z   -0.002875   0.081125   0.007337   0.193431  -0.009174
   21  H  3  S   -0.631910   0.098084  -0.713520  -0.017243   0.156329
   22  H  3  S    2.152459   0.541178  -0.717760  -0.003607  -0.153286
   23  H  3  X    0.034811   0.089780   0.026405  -0.007181   0.286303
   24  H  3  Y    0.077803   0.023253  -0.159569   0.188247  -0.239957
   25  H  3  Z   -0.050144  -0.006976   0.106404   0.054654   0.141851
   26  H  4  S    0.161251  -0.360960  -0.275821  -0.659810  -0.185598
   27  H  4  S   -0.373818  -0.325508   0.386817  -0.467219  -0.401404
   28  H  4  X   -0.027494   0.030811  -0.080655   0.154607  -0.060793
   29  H  4  Y   -0.014577  -0.013315  -0.079229  -0.122760  -0.274024
   30  H  4  Z   -0.003157   0.041445   0.080907  -0.168853   0.076757

                     16         17         18         19         20
                    1.0281     1.0526     1.1676     1.3187     1.3818
                     A          A          A          A          A   
    1  N  1  S   -0.411640  -0.404175   0.102674   0.206023  -0.303525
    2  N  1  S   -0.867730  -0.853095   0.219940   0.445130  -0.649094
    3  N  1  S    1.659563   1.750923  -0.440429  -0.702735   1.089879
    4  N  1  X    0.122198  -0.129487  -0.231636  -0.026331  -0.024081
    5  N  1  Y    0.009776   0.127602   0.126922   0.012781  -0.022108
    6  N  1  Z    0.102731   0.043826  -0.033125   0.036462  -0.057609
    7  N  1  X   -0.555738   0.543054   0.974880  -0.348208  -0.104955
    8  N  1  Y   -0.223693  -0.630678  -0.201233  -0.280765  -0.349686
    9  N  1  Z   -0.033367   0.433789  -0.269612  -0.294438   0.600431
   10  N  1 XX   -0.055444   0.080636   0.041542   0.023488   0.104602
   11  N  1 YY   -0.191030   0.018634  -0.118865  -0.178364  -0.105715
   12  N  1 ZZ    0.246474  -0.099270   0.077324   0.154876   0.001114
   13  N  1 XY    0.009687   0.172585  -0.011531   0.014560  -0.044994
   14  N  1 XZ    0.040929   0.078677   0.074179   0.015061   0.002990
   15  N  1 YZ    0.049889   0.163733  -0.210292   0.035342   0.085175
   16  H  2  S   -0.441262   0.143863   0.573079   0.126343  -0.321487
   17  H  2  S   -0.156914  -0.010761   0.133470   0.029949   0.142882
   18  H  2  X   -0.050407  -0.172142  -0.401901   0.213214   0.006955
   19  H  2  Y   -0.194479   0.026871  -0.231702   0.422516  -0.143244
   20  H  2  Z    0.375291  -0.032251  -0.369463   0.128172  -0.658317
   21  H  3  S   -0.455759  -0.352820   0.192049   0.138429  -0.349229
   22  H  3  S   -0.267383  -0.274538   0.125602  -0.002310  -0.298439
   23  H  3  X   -0.085517  -0.250288   0.317593   0.261807  -0.019957
   24  H  3  Y    0.310866  -0.256209   0.112916  -0.068534   0.027367
   25  H  3  Z    0.366096  -0.388756   0.133212   0.337763   0.388840
   26  H  4  S   -0.038255  -0.580862  -0.388184   0.243076  -0.342606
   27  H  4  S   -0.136370  -0.437059  -0.164980   0.142596  -0.042066
   28  H  4  X    0.028475   0.249813  -0.155635   0.266457   0.031173
   29  H  4  Y    0.031569   0.343348   0.094034   0.715639   0.154273
   30  H  4  Z    0.254178   0.151896   0.458801   0.021284  -0.585331

                     21         22         23         24         25
                    1.6062     1.7487     1.8259     2.0054     2.0722
                     A          A          A          A          A   
    1  N  1  S    0.071345  -0.177695  -0.011301  -0.118587  -0.026468
    2  N  1  S    0.084433  -0.470320  -0.030247  -0.250776  -0.065429
    3  N  1  S   -0.739690  -0.422854   0.111684   0.147074  -0.045652
    4  N  1  X   -0.055474   0.187264   0.533348  -0.127995  -0.029228
    5  N  1  Y   -0.043863   0.223289  -0.061390   0.229065   0.054198
    6  N  1  Z   -0.023615  -0.227295  -0.098589  -0.090708  -0.028497
    7  N  1  X    0.695480  -0.388290   0.411979  -0.052967  -0.061499
    8  N  1  Y   -0.364485   0.060932  -0.207177  -0.035642  -0.225379
    9  N  1  Z   -0.326426  -0.089982   0.035676   0.162002  -0.225580
   10  N  1 XX    0.029185   0.165204  -0.062192   0.172659  -0.011055
   11  N  1 YY   -0.046472  -0.005952   0.009564  -0.398175   0.799449
   12  N  1 ZZ    0.017287  -0.159253   0.052629   0.225516  -0.788394
   13  N  1 XY   -0.126022   0.001579   0.060258   0.218994   0.213859
   14  N  1 XZ   -0.048887  -0.074216  -0.240889  -0.025861   0.130622
   15  N  1 YZ    0.042256  -0.266325   0.062082  -0.150338   0.065633
   16  H  2  S    0.231620  -0.110205   0.045625  -0.211441  -0.019634
   17  H  2  S    0.560461   0.146508   0.154779  -0.357191  -0.078054
   18  H  2  X    0.757234   0.414745   0.315277  -0.191639  -0.027473
   19  H  2  Y    0.006373  -0.305933   0.021784   0.908953   0.235627
   20  H  2  Z   -0.310798   0.217389  -0.521458  -0.135416   0.012050
   21  H  3  S    0.320560  -0.155961  -0.042773   0.064705   0.036722
   22  H  3  S   -0.225750   0.169638   0.336063   0.333667   0.074908
   23  H  3  X   -0.435171   0.691630   0.228280  -0.231359  -0.018523
   24  H  3  Y    0.015241   0.120903   0.386733   0.698734   0.672401
   25  H  3  Z   -0.000520  -0.447778  -0.242949  -0.332631   0.433339
   26  H  4  S   -0.244776   0.156127  -0.127966   0.007166   0.040981
   27  H  4  S    0.107574   0.216939  -0.524744   0.029042   0.036790
   28  H  4  X   -0.459701  -0.356267   0.786377  -0.320829  -0.088592
   29  H  4  Y    0.169385   0.324028  -0.244906  -0.113609   0.226247
   30  H  4  Z    0.512623  -0.153264   0.399227  -0.219448   0.137100

                     26         27         28         29
                    2.2444     2.4767     2.6310     3.0773
                     A          A          A          A   
    1  N  1  S    0.104082   0.018221  -0.189775   0.113380
    2  N  1  S    0.198471  -0.012325  -0.222116   0.128994
    3  N  1  S   -0.416472  -0.775323   2.174469  -1.122299
    4  N  1  X    0.032199  -0.247676  -0.224175  -0.292826
    5  N  1  Y   -0.064499   0.204380  -0.209256  -0.131752
    6  N  1  Z    0.028165  -0.101655   0.288891  -0.019171
    7  N  1  X    0.093967  -0.927739  -0.848936  -0.458492
    8  N  1  Y    0.228528   0.746074  -0.479096  -0.145136
    9  N  1  Z   -0.304534  -0.250473   0.697945  -0.051218
   10  N  1 XX    0.719904  -0.197410   0.509120  -0.976204
   11  N  1 YY   -0.447765   0.092056  -0.119331   0.374882
   12  N  1 ZZ   -0.272139   0.105354  -0.389788   0.601322
   13  N  1 XY    0.641470  -0.121561   0.124470   1.181583
   14  N  1 XZ    0.128071  -0.779843  -0.953289  -0.268390
   15  N  1 YZ    0.406887   0.808493  -0.621864  -0.301367
   16  H  2  S    0.180748  -0.506861  -0.656340   0.667713
   17  H  2  S    0.108317  -0.350268  -0.121446   0.181922
   18  H  2  X    0.248189  -0.584472  -0.363104   0.635260
   19  H  2  Y   -0.082584   0.118022   0.200659  -0.398462
   20  H  2  Z    0.067163   0.020826   0.205705  -0.344794
   21  H  3  S    0.154162   0.358027  -1.343767  -0.635009
   22  H  3  S    0.007213   0.212039  -0.545158  -0.154674
   23  H  3  X    0.419767   0.408780  -0.595655  -0.310917
   24  H  3  Y   -0.261361   0.082776  -0.640625  -0.447119
   25  H  3  Z    0.311283  -0.165922   0.622894   0.382475
   26  H  4  S    0.067786   0.937128  -0.275273   1.065822
   27  H  4  S   -0.004406   0.411837   0.014228   0.313114
   28  H  4  X   -0.147304  -0.767215   0.210647  -0.836158
   29  H  4  Y   -0.546417   0.287692   0.031683   0.317820
   30  H  4  Z    0.173681   0.110193   0.185171  -0.374654
 .....DONE WITH MCSCF ITERATIONS.....
 CPU     0: STEP CPU TIME=    11.98 TOTAL CPU TIME=         13.0 (      0.2 MIN)
 TOTAL WALL CLOCK TIME=         13.0 SECONDS, CPU UTILIZATION IS    99.92%

     ----------------------------------------------------------------
     PROPERTY VALUES FOR THE MCSCF SELF-CONSISTENT FIELD WAVEFUNCTION
     ----------------------------------------------------------------

          -----------------
          ENERGY COMPONENTS
          -----------------

         WAVEFUNCTION NORMALIZATION =       1.0000000000

                ONE ELECTRON ENERGY =     -93.4412038357
                TWO ELECTRON ENERGY =      26.8334038766
           NUCLEAR REPULSION ENERGY =      10.9046453577
                                      ------------------
                       TOTAL ENERGY =     -55.7031546014

 ELECTRON-ELECTRON POTENTIAL ENERGY =      26.8334038766
  NUCLEUS-ELECTRON POTENTIAL ENERGY =    -149.0666567140
   NUCLEUS-NUCLEUS POTENTIAL ENERGY =      10.9046453577
                                      ------------------
             TOTAL POTENTIAL ENERGY =    -111.3286074797
               TOTAL KINETIC ENERGY =      55.6254528783
                 VIRIAL RATIO (V/T) =       2.0013968735

          ---------------------------------------
          MULLIKEN AND LOWDIN POPULATION ANALYSES
          ---------------------------------------

     ATOMIC MULLIKEN POPULATION IN EACH MOLECULAR ORBITAL

                      1          2          3          4          5

                  2.000000   1.980294   1.653704   1.646893   1.637118

    1             2.000545   1.370776   1.511731   0.901393   1.176713
    2            -0.000100   0.157004   0.008366   0.212001   0.218058
    3            -0.000262   0.291784   0.035257   0.184182   0.227591
    4            -0.000182   0.160730   0.098350   0.349317   0.014756

                      6          7          8

                  0.036399   0.025289   0.020302

    1             0.014846   0.013553   0.011095
    2             0.013907   0.001422   0.001633
    3             0.002599   0.010314   0.000244
    4             0.005046  -0.000001   0.007330
 WARNING! MCSCF POPULATIONS SHOWN ABOVE ARE FOR THE NATURAL ORBITALS.
 IGNORE THE ABOVE DATA FOR MCSCF FUNCTIONS WHICH ARE NOT OF -FORS- TYPE.
 THE FOLLOWING POPULATIONS ARE CORRECT FOR ANY MCSCF WAVEFUNCTION.

               ----- POPULATIONS IN EACH AO -----
                             MULLIKEN      LOWDIN
              1  N  1  S      2.00218     1.90554
              2  N  1  S      0.81792     0.57996
              3  N  1  S      0.72064     0.42289
              4  N  1  X      0.62607     0.54769
              5  N  1  Y      0.74342     0.68736
              6  N  1  Z      0.85162     0.80288
              7  N  1  X      0.27333     0.39446
              8  N  1  Y      0.42037     0.48362
              9  N  1  Z      0.52841     0.56851
             10  N  1 XX      0.00066     0.18536
             11  N  1 YY      0.00165     0.15430
             12  N  1 ZZ      0.00454     0.14554
             13  N  1 XY      0.00531     0.01072
             14  N  1 XZ      0.00453     0.01108
             15  N  1 YZ      0.00000     0.00775
             16  H  2  S      0.50457     0.39128
             17  H  2  S      0.05766     0.15502
             18  H  2  X      0.02491     0.04059
             19  H  2  Y      0.01463     0.03435
             20  H  2  Z      0.01052     0.02441
             21  H  3  S      0.63096     0.48554
             22  H  3  S      0.06042     0.15252
             23  H  3  X      0.01768     0.03253
             24  H  3  Y      0.02244     0.04810
             25  H  3  Z      0.02021     0.04238
             26  H  4  S      0.54380     0.42744
             27  H  4  S      0.03727     0.15178
             28  H  4  X      0.03243     0.05388
             29  H  4  Y      0.01179     0.02621
             30  H  4  Z      0.01006     0.02631

          ----- MULLIKEN ATOMIC OVERLAP POPULATIONS -----
          (OFF-DIAGONAL ELEMENTS NEED TO BE MULTIPLIED BY 2)

             1           2           3           4

    1    6.2018522
    2    0.2447549   0.3823063
    3    0.2639028  -0.0094723   0.5020228
    4    0.2901432  -0.0052988  -0.0047428   0.3552449

          TOTAL MULLIKEN AND LOWDIN ATOMIC POPULATIONS
       ATOM         MULL.POP.    CHARGE          LOW.POP.     CHARGE
    1 N             7.000653   -0.000653         6.907653    0.092347
    2 H             0.612290    0.387710         0.645645    0.354355
    3 H             0.751710    0.248290         0.761078    0.238922
    4 H             0.635346    0.364654         0.685624    0.314376

          MULLIKEN SPHERICAL HARMONIC POPULATIONS
       ATOM           S       P       D      F      G      H      I    TOTAL
    1 N             3.54    3.44    0.02   0.00   0.00   0.00   0.00    7.00
    2 H             0.56    0.05    0.00   0.00   0.00   0.00   0.00    0.61
    3 H             0.69    0.06    0.00   0.00   0.00   0.00   0.00    0.75
    4 H             0.58    0.05    0.00   0.00   0.00   0.00   0.00    0.64

          ---------------------
          ELECTROSTATIC MOMENTS
          ---------------------

 POINT   1           X           Y           Z (BOHR)    CHARGE
                -0.000004   -0.000003   -0.177185        1.00 (A.U.)
         DX          DY          DZ         /D/  (DEBYE)
    -0.773234   -0.628504    2.129316    2.350935
 ...... END OF PROPERTY EVALUATION ......
 CPU     0: STEP CPU TIME=     0.01 TOTAL CPU TIME=         13.0 (      0.2 MIN)
 TOTAL WALL CLOCK TIME=         13.0 SECONDS, CPU UTILIZATION IS    99.92%

     -------------------------------------------------
     GMC-PT/GMC-QDPT or general MCSCF input parameters
     -------------------------------------------------
 # of frozen core orbs. =         0 ->         0
 # of doubly occ. orbs. =         1
 # of active      orbs. =         7
 # of virtual     orbs. =        21
 # of active electrons  =         7
 # of states in CI      =         3
 Highest state in CI    =         3
 kstate =  1 1 1
 avecoe =  0.333 0.333 0.333
 State symmetry           = A           
 Assigned symmetry number = 1

 <<<Act. MO sym.: 1111111

 <<<Division of 1-ext.:  0
 <<<Division of 2-ext.:  0

     ------------------------
     Orbital canonicalization
     ------------------------

 MOs are canonicalized for core, virtual, and invariant-active orbital spaces.
 This is a part of the GMC-QDPT calculation.
 SCHWARZ INEQUALITY OVERHEAD:       465 INTEGRALS, T=        0.00
 DIRECT TRANSFORMATION SKIPS AO INTEGRAL STORAGE ON DISK.

 Averaged energy =     -55.703154601

 State #    1  Energy =     -55.841022994  S =  0.500
 State #    2  Energy =     -55.716504040  S =  0.500
 State #    3  Energy =     -55.551936770  S =  0.500

 Orbital energies for filled orbital space
  -15.977143
 Orbital energies for active orbital space
   -1.484081  -0.966903  -0.806833  -0.712940   0.104600
    0.372516   0.279924
 Orbital energies for external orbital space
    0.144187   0.206590   0.248913   0.531352   0.599776
    0.711407   0.822075   1.028069   1.052602   1.167575
    1.318652   1.381768   1.606224   1.748747   1.825896
    2.005358   2.072151   2.244383   2.476686   2.630998
    3.077297

 Zero values mean non-canonical orbitals.
 ... done with orbital canonicalization ...
 CPU     0: STEP CPU TIME=     0.66 TOTAL CPU TIME=         13.6 (      0.2 MIN)
 TOTAL WALL CLOCK TIME=         13.6 SECONDS, CPU UTILIZATION IS    99.93%

     --------------------------------------------
     PARTIAL TWO ELECTRON INTEGRAL TRANSFORMATION
     --------------------------------------------

 NUMBER OF CORE MOLECULAR ORBITALS     =    0
 NUMBER OF OCCUPIED MOLECULAR ORBITALS =    8
 TOTAL NUMBER OF MOLECULAR ORBITALS    =   29
 TOTAL NUMBER OF ATOMIC ORBITALS       =   30
 THRESHOLD FOR KEEPING TRANSFORMED 2E- INTEGRALS = 1.000E-09
 AO INTEGRALS WILL BE CALCULATED IN DIRECT MODE...
 DIRECT TRANSFORMATION SKIPS AO INTEGRAL STORAGE ON DISK.
 SCHWARZ INEQUALITY OVERHEAD:       465 INTEGRALS, T=        0.01

 PLAN A: REQUIREMENTS FOR FULLY IN-MEMORY TRANSFORMATION:
 # OF WORDS AVAILABLE =            100000000
 # OF WORDS NEEDED    =               221798

 PARALLEL ONLY WORKS WITH THE SEGMENTED ALGORITHM.
 ADJUSTING MEMORY TO USE SEGMENTED ALGORITHM.


 PLAN B: REQUIREMENTS FOR THE SEGMENTED TRANSFORMATION:
       MINIMUM=         124148 WORDS FOR 1 MOLECULAR ORBITAL PER PASS
       MAXIMUM=         221798 WORDS FOR ALL MOLECULAR ORBITALS IN 1 PASS
              (          13950 EXTRA WORDS INCLUDES 1 EXTRA ORBITAL/PASS)
 THIS RUN USES=         221798 WORDS,
 DISTRIBUTING   1 PASSES EACH CONTAINING     8 ORBITALS OVER   1 PROCESSORS.

 CHOOSING SEGMENTED PARTIAL TRANSFORMATION...
 DIRECT TRANSFORMATION SKIPS AO INTEGRAL STORAGE ON DISK.
 PASS #   1 TOOK        0.04 SECONDS.
 TOTAL NUMBER OF TRANSFORMED 2E- INTEGRALS KEPT =        29226
 ... END OF INTEGRAL TRANSFORMATION ...
 CPU     0: STEP CPU TIME=     0.05 TOTAL CPU TIME=         13.7 (      0.2 MIN)
 TOTAL WALL CLOCK TIME=         13.7 SECONDS, CPU UTILIZATION IS   100.00%

     --------     ------------------------------------------
     GMC-QDPT     Program written by H.Nakano (Kyushu Univ.)
     --------     ------------------------------------------

 *** Reference space

 Reference type: ORMAS (= Occupation restricted multiple active space)
 # of orbitals          =  7
 # of minimum electrons =  7
 # of maximum electrons =  7
 State symmetry    =    1 (input)
 2*Sz              =    1 (input)
 Spin multiplicity =    2 (input)
 Dimension of reference space =      1225  (from      3432 walks)

 Dimension of reference space =      1225  (from      1225 walks)

 <<<Ionized spaces for Ref-CI:
      0:         1225 /   -1-0:         1960 /  0-1-0:         2891

 ***                    ***
 *** Reference space CI ***
 ***                    ***

 Converged after   35 iterations

 Reference wavefunctions:

 State #    1  Energy =     -55.841022994  S =  0.500

      Det      Coef    Occupancy (Ignoring core)
      ---      ----    --------- --------- -----
        1   -0.969663  11110001110000
       36   -0.101585  11110001101000
      393   -0.050941  10110101010010
      717   -0.057663  11010011100001

 State #    2  Energy =     -55.716504040  S =  0.500

      Det      Coef    Occupancy (Ignoring core)
      ---      ----    --------- --------- -----
        1   -0.106348  11110001110000
       36    0.972872  11110001101000
      463    0.052568  10110101001010

 State #    3  Energy =     -55.551936770  S =  0.500

      Det      Coef    Occupancy (Ignoring core)
      ---      ----    --------- --------- -----
       71    0.973606  11110001011000
      248   -0.050577  11011001001100
      822   -0.059594  11010011001001

 Davidson method: CPU/Wall time =           0.45 /           0.46 sec.

 Oscillator strength (invalid if E(1)/=E(GS)):
 -----------------------------------------
   State                        f
 -----------------------------------------
     2     F(REF-CI)=        0.0027454969
     3     F(REF-CI)=        0.0050750134
 -----------------------------------------

 Dipole moment matrix elements, x, y, z, in A.U.

 Dimension of ionized spaces for PT:
 (N-2) space:         1715 /  (N-1) space:         2842 /  N space:         2891
 (N+1) space:         2842 /  (N+2) space:         1715

 <<<Ionized spaces for internal:
         0:         1225 /      -1-0:         1960 /     0-1-0:         2891
  -1-0-1-0:         2842 / 0-1-0-1-0:         3381

 Diagonal elements of averaged one-particle density matrix:
       2       3       4       5       6       7       8
  0.9927  0.9857  0.9839  0.9899  0.0214  0.0120  0.0146
  0.9874  0.6610  0.6565  0.6607  0.0148  0.0085  0.0111

 Orbital energies:
 -------- Doubly-occupied orbitals (highest several orbs.) -------
             1
 -1.597714D+01
 -------- Active orbitals ----------------------------------------
             2            3            4            5            6
 -1.484081D+00-9.669028D-01-8.068331D-01-7.129401D-01 1.045998D-01
             7            8
  3.725157D-01 2.799244D-01
 -------- External orbitals (lowest several orbs.) ---------------
             9           10           11           12           13
  1.441869D-01 2.065899D-01 2.489134D-01 5.313518D-01 5.997760D-01
            14           15           16           17           18
  7.114073D-01 8.220750D-01 1.028069D+00 1.052602D+00 1.167575D+00

 *** Quasi-degeneracy checking

 === Det (|Ci| > 1.0D-01 and dE < 5.0D-03)

 # of small denominators (single excitations)
 State       dEmin  dE < 5.0D-03  dE < 5.0D-04  dE < 5.0D-05  dE < 5.0D-06
 ----- ----------- ------------- ------------- ------------- -------------
     1    5.00D-03             0             0             0             0
     2    5.00D-03             0             0             0             0
     3    5.00D-03             0             0             0             0

 # of small denominators (double excitations)
 State       dEmin  dE < 5.0D-03  dE < 5.0D-04  dE < 5.0D-05  dE < 5.0D-06
 ----- ----------- ------------- ------------- ------------- -------------
     1    5.00D-03             0             0             0             0
     2    5.00D-03             0             0             0             0
     3    5.00D-03             0             0             0             0

 *** Zeroth-Order Setup (Granovsky's zeroth-order vectors)
 Zeroth-order effective Hamiltonian
  (= Sum_i e(i)*<I|a+(i)a(i)|J> ):
                   1            2            3
     1 -7.118839D+00
     2 -1.720889D-02-7.043703D+00
     3  3.459564D-04-7.431967D-03-6.874544D+00

 Zeroth-order vectors:
 State #    1
       MC st            1           2           3
       Coeff    9.769D-01   2.136D-01   5.036D-03
 State #    2
       MC st            2           1           3
       Coeff   -9.759D-01   2.136D-01  -4.421D-02
 State #    3
       MC st            3           2           1
       Coeff    9.990D-01  -4.427D-02   4.527D-03

 *** GMC-QDPT computation

 (Integral reading:  CPU/Wall time =           0.00 /           0.00 sec.)

 One-external:
   0 -ionized terms: CPU/Wall time =           0.04 /           0.04 sec.
 (-1)-ionized terms: CPU/Wall time =           0.08 /           0.08 sec.
 (+1)-ionized terms: CPU/Wall time =           0.02 /           0.03 sec.
 (+1)-ionized terms: CPU/Wall time =           0.01 /           0.00 sec.
 (+2)-ionized terms: CPU/Wall time =           0.00 /           0.01 sec.

 Internal:
 # of macro loops for internal contribution =         1 (input)
 Loop:    1
 Dimension of internal CISD space     =         0  (after screening)
 Space construction: CPU/Wall time =           0.02 /           0.01 sec.
 Internal terms:     CPU/Wall time =           0.00 /           0.00 sec.

 Two-external:
   0 -ionized terms: CPU/Wall time =           0.06 /           0.06 sec.
 (-1)-ionized terms: CPU/Wall time =           1.00 /           1.00 sec.
 (-2)-ionized terms: CPU/Wall time =           0.17 /           0.17 sec.

 Total time:         CPU/Wall time =           1.40 /           1.40 sec.

 ***                  ***
 *** GMC-QDPT Results ***
 ***                  ***

 Diagonal elements of effective Hamiltonian:
 Heff(  1) =   -55.93519357
 Heff(  2) =   -55.82870940
 Heff(  3) =   -55.66328583

 Off-diagonal elements of effective Hamiltonian:
                   1            2
     2 -2.314340D-02
     3  8.930137D-04-6.975817D-03

 ******** GMC-QDPT energies ********
 ----------------------------------------------------------------------------
   State                        1st order                           2nd order
 ----------------------------------------------------------------------------
     1     E(REF-CI)=      -55.8410229940   E(GMC-QDPT2)=      -55.9400071647
     2     E(REF-CI)=      -55.7165040400   E(GMC-QDPT2)=      -55.8242023860
     3     E(REF-CI)=      -55.5519367701   E(GMC-QDPT2)=      -55.6629792457
 ----------------------------------------------------------------------------

 Excitation energies (invalid if E(1)/=E(GS)):
 ----------------------------------------------------------------------------
   State                        1st order                           2nd order
 ----------------------------------------------------------------------------

     TZ Sorted GMC-PT ENERGIES:
         1      -55.9400071647
         2      -55.8242023860
         3      -55.6629792457
     2     E(REF-CI)=        3.3883351 eV   E(GMC-QDPT2)=        3.1512102 eV
     3     E(REF-CI)=        7.8664409 eV   E(GMC-QDPT2)=        7.5383175 eV
 ----------------------------------------------------------------------------

 Main characters of perturbed GMC-QDPT states:

 State #    1  Energy =     -55.940007165  S =  0.500

      Det      Coef    Occupancy (Ignoring core)
      ---      ----    --------- --------- -----
        1   -0.970682  11110001110000
       36   -0.091723  11110001101000
      393   -0.050957  10110101010010
      717   -0.057795  11010011100001

 State #    2  Energy =     -55.824202386  S =  0.500

      Det      Coef    Occupancy (Ignoring core)
      ---      ----    --------- --------- -----
        1   -0.096463  11110001110000
       36    0.973879  11110001101000
      463    0.052609  10110101001010

 State #    3  Energy =     -55.662979246  S =  0.500

      Det      Coef    Occupancy (Ignoring core)
      ---      ----    --------- --------- -----
       71    0.973620  11110001011000
      248   -0.050591  11011001001100
      822   -0.059566  11010011001001

 <<<Max |V/de| = 2.727D-02  Thresh = 1.000D+00

 Oscillator strength (invalid if E(1)/=E(GS)):
 ----------------------------------------------------------------------------
   State                        1st order                           2nd order
 ----------------------------------------------------------------------------
     2     F(REF-CI)=        0.0027454969     F(GMC-PT2)=        0.0026441804
     3     F(REF-CI)=        0.0050750134     F(GMC-PT2)=        0.0049870640
 ----------------------------------------------------------------------------

 Dipole moment matrix elements, x, y, z, in A.U.
States    1    1       -0.2840393787       -0.2150024375        0.6469256202
States    1    2        0.0264543660       -0.0221130388       -0.1818263124
States    1    3        0.1443241105       -0.0408990726        0.0670884282
States    2    1        0.0264543660       -0.0221130388       -0.1818263124
States    2    2       -0.1512612567       -0.3576696537        0.3580772634
States    2    3        0.1046850499       -0.1229743596        0.0015436355
States    3    1        0.1443241105       -0.0408990726        0.0670884282
States    3    2        0.1046850499       -0.1229743596        0.0015436355
States    3    3       -0.5367834585       -0.2560378684        0.2939254555

 Oscillator strength (valid only when positive): 
 ----------------------------------------------------------------------------
  States                        1st order                           2nd order
 ----------------------------------------------------------------------------
  1  1     F(REF-CI)=        0.0000000000     F(GMC-PT2)=        0.0000000000
  1  2     F(REF-CI)=       -0.0027454969     F(GMC-PT2)=       -0.0026441804
  1  3     F(REF-CI)=       -0.0050750134     F(GMC-PT2)=       -0.0049870640
  2  1     F(REF-CI)=        0.0027454969     F(GMC-PT2)=        0.0026441804
  2  2     F(REF-CI)=        0.0000000000     F(GMC-PT2)=        0.0000000000
  2  3     F(REF-CI)=       -0.0029137239     F(GMC-PT2)=       -0.0028035668
  3  1     F(REF-CI)=        0.0050750134     F(GMC-PT2)=        0.0049870640
  3  2     F(REF-CI)=        0.0029137239     F(GMC-PT2)=        0.0028035668
  3  3     F(REF-CI)=        0.0000000000     F(GMC-PT2)=        0.0000000000
 CPU     0: STEP CPU TIME=     1.92 TOTAL CPU TIME=         15.6 (      0.3 MIN)
 TOTAL WALL CLOCK TIME=         15.6 SECONDS, CPU UTILIZATION IS    99.94%

     !!! DIABATIZATION FOR REF CI STATES !!!

 *******************************************************
          $DMO GROUP FOUND IN THE INPUT.
        DIABATIZATION OF ADIABATIC STATES BEGINS.
     PROGRAMMED BY TAO ZENG (CARLETON UNIVERSITY).
               Email: toby.zeng@carleton.ca
     See T. Zeng, J. Chem. Phys. 2017, 146, 144103
 *******************************************************

 *************************************************************************
     STEP 1: TRANSFORMATION OF ADIABATIC STATES TO THE DMO REPRESENTATION
         See Atchity and Ruedenberg, J. Chem. Phys. 1999, 111, 2910
 *************************************************************************

Read in Diabatic Molecualr Orbitals:

                      1          2          3          4          5

    1  N  1  S    0.008609   0.000000   0.000000  -0.013219   0.279491
    2  N  1  S    0.442914  -0.000000   0.000000  -0.184329   0.867803
    3  N  1  S    0.276913   0.000000  -0.000000  -0.288315   0.144236
    4  N  1  X   -0.000000   0.493155  -0.024636  -0.000000  -0.000000
    5  N  1  Y    0.000000   0.024636   0.493155  -0.000000   0.000000
    6  N  1  Z    0.090197   0.000000   0.000000   0.593421   0.705309
    7  N  1  X   -0.000000   0.210628  -0.010522   0.000000   0.000000
    8  N  1  Y    0.000000   0.010522   0.210628  -0.000000  -0.000000
    9  N  1  Z   -0.004381   0.000000   0.000000   0.381592  -0.106092
   10  N  1 XX   -0.000457   0.010719  -0.000535  -0.012387   0.006153
   11  N  1 YY   -0.000457  -0.010719   0.000535  -0.012387   0.006153
   12  N  1 ZZ    0.000914  -0.000000   0.000000   0.024773  -0.012306
   13  N  1 XY    0.000000  -0.000618  -0.012377  -0.000000   0.000000
   14  N  1 XZ   -0.000000   0.026529  -0.001325  -0.000000   0.000000
   15  N  1 YZ    0.000000   0.001325   0.026529  -0.000000   0.000000
   16  H  2  S    0.194462  -0.176074   0.343485   0.112865  -0.523343
   17  H  2  S    0.003574  -0.023812   0.046452   0.024014  -0.054445
   18  H  2  X    0.018760   0.009101   0.022834   0.009336  -0.039151
   19  H  2  Y   -0.032493   0.022287  -0.020044  -0.016171   0.067811
   20  H  2  Z   -0.009251   0.008464  -0.016511   0.018769  -0.010566
   21  H  3  S    0.194462  -0.209430  -0.324227   0.112865  -0.523343
   22  H  3  S    0.003574  -0.028322  -0.043847   0.024014  -0.054445
   23  H  3  X    0.018760   0.006781  -0.023627   0.009336  -0.039151
   24  H  3  Y    0.032493  -0.024174  -0.017723   0.016171  -0.067811
   25  H  3  Z   -0.009251   0.010067   0.015585   0.018769  -0.010566
   26  H  4  S    0.194462   0.385503  -0.019258   0.112865  -0.523343
   27  H  4  S    0.003574   0.052134  -0.002604   0.024014  -0.054445
   28  H  4  X   -0.037519  -0.032295   0.001613  -0.018672   0.078302
   29  H  4  Y    0.000000   0.001067   0.021353  -0.000000   0.000000
   30  H  4  Z   -0.009251  -0.018530   0.000926   0.018769  -0.010566

                      6          7

    1  N  1  S    0.000000  -0.000000
    2  N  1  S    0.000000  -0.000000
    3  N  1  S   -0.000000   0.000000
    4  N  1  X   -0.930415  -0.002083
    5  N  1  Y   -0.002083   0.930415
    6  N  1  Z   -0.000000   0.000000
    7  N  1  X   -0.046866  -0.000105
    8  N  1  Y   -0.000105   0.046866
    9  N  1  Z   -0.000000   0.000000
   10  N  1 XX    0.001538   0.000003
   11  N  1 YY   -0.001538  -0.000003
   12  N  1 ZZ   -0.000000   0.000000
   13  N  1 XY   -0.000004   0.001776
   14  N  1 XZ    0.039985   0.000090
   15  N  1 YZ    0.000090  -0.039985
   16  H  2  S   -0.362630  -0.631354
   17  H  2  S   -0.065964  -0.114846
   18  H  2  X    0.002763  -0.037520
   19  H  2  Y    0.037435   0.040736
   20  H  2  Z    0.001882   0.003276
   21  H  3  S   -0.365454   0.629724
   22  H  3  S   -0.066477   0.114549
   23  H  3  X    0.002595   0.037532
   24  H  3  Y   -0.037617   0.040567
   25  H  3  Z    0.001896  -0.003268
   26  H  4  S    0.728084   0.001630
   27  H  4  S    0.132441   0.000297
   28  H  4  X   -0.062317  -0.000140
   29  H  4  Y    0.000055  -0.024345
   30  H  4  Z   -0.003778  -0.000008

NUMBER OF SUB ACTIVE SPACES:   1
ROTATE ACTIVE MOS TO DMOS IN EACH SUB-SPACE

SPACE  1:

OVERLAP BETWEEN ORTHONORMAL AND PRE-ORTHONORMAL REF. DMOS

             1           2           3           4           5

    1    0.9699315  -0.0239594  -0.0330442  -0.0099826   0.0064749
    2   -0.0239594   1.0185168  -0.0431951  -0.0365371   0.0650713
    3   -0.0330442  -0.0431951   0.8928123  -0.0337728   0.0367471
    4   -0.0099826  -0.0365371  -0.0337728   0.9938569  -0.0136143
    5    0.0064749   0.0650713   0.0367471  -0.0136143   1.1511795
    6    0.0003208   0.0428199  -0.0421267  -0.0452092   0.0235922
    7    0.0029431   0.0212641   0.0697340   0.0287509   0.0602859

             6           7

    1    0.0003208   0.0029431
    2    0.0428199   0.0212641
    3   -0.0421267   0.0697340
    4   -0.0452092   0.0287509
    5    0.0235922   0.0602859
    6    1.0618667  -0.0162137
    7   -0.0162137   1.0776705
REFERENCE DMOS AFTER ORTHONORMALIZATION:

                      1          2          3          4          5

    1  N  1  S    0.006432  -0.015791  -0.010298  -0.010719   0.244621
    2  N  1  S    0.448156  -0.043012  -0.021346  -0.172954   0.754812
    3  N  1  S    0.281233  -0.011109  -0.006721  -0.286935   0.121438
    4  N  1  X    0.011579   0.520673  -0.043226  -0.022639  -0.008793
    5  N  1  Y    0.015361   0.030511   0.492962  -0.005597  -0.061955
    6  N  1  Z    0.095041  -0.014952   0.004744   0.608210   0.622467
    7  N  1  X    0.005241   0.209945  -0.002930   0.005275  -0.010438
    8  N  1  Y    0.008620   0.020522   0.236205   0.008339  -0.010324
    9  N  1  Z    0.001252   0.019806   0.020645   0.385195  -0.089412
   10  N  1 XX   -0.000412   0.009735  -0.000767  -0.012051   0.004675
   11  N  1 YY   -0.000952  -0.011355  -0.000817  -0.012922   0.005886
   12  N  1 ZZ    0.001364   0.001620   0.001584   0.024973  -0.010561
   13  N  1 XY   -0.000533  -0.001303  -0.014212  -0.000629   0.000398
   14  N  1 XZ    0.000699   0.024815   0.001664   0.002621  -0.002189
   15  N  1 YZ    0.001355   0.003565   0.033110   0.002455   0.000812
   16  H  2  S    0.219342  -0.091585   0.442460   0.124576  -0.425581
   17  H  2  S    0.006320  -0.012356   0.060111   0.025737  -0.041305
   18  H  2  X    0.021228   0.013962   0.031856   0.011949  -0.034013
   19  H  2  Y   -0.034760   0.013597  -0.027381  -0.015884   0.056412
   20  H  2  Z   -0.009694   0.008412  -0.017613   0.018337  -0.009071
   21  H  3  S    0.183735  -0.186765  -0.409529   0.054993  -0.457748
   22  H  3  S    0.001159  -0.026486  -0.059417   0.014525  -0.048365
   23  H  3  X    0.018825   0.007610  -0.026498   0.007495  -0.035667
   24  H  3  Y    0.032688  -0.019193  -0.021539   0.011643  -0.058691
   25  H  3  Z   -0.008300   0.011831   0.019382   0.020027  -0.010014
   26  H  4  S    0.216957   0.393898   0.062520   0.156317  -0.493592
   27  H  4  S    0.005868   0.050861   0.008834   0.031302  -0.052829
   28  H  4  X   -0.040513  -0.035782  -0.007815  -0.022439   0.071649
   29  H  4  Y    0.001045   0.002702   0.026076   0.001736   0.000293
   30  H  4  Z   -0.009698  -0.017164   0.000746   0.017980  -0.007939

                      6          7

    1  N  1  S   -0.005856  -0.012526
    2  N  1  S   -0.023946  -0.036965
    3  N  1  S   -0.014810   0.000525
    4  N  1  X   -0.900024  -0.021887
    5  N  1  Y    0.030246   0.834885
    6  N  1  Z    0.012047  -0.051138
    7  N  1  X   -0.052330  -0.004409
    8  N  1  Y    0.009458   0.028273
    9  N  1  Z    0.018304  -0.006730
   10  N  1 XX    0.000407  -0.000072
   11  N  1 YY   -0.001699   0.000266
   12  N  1 ZZ    0.001292  -0.000194
   13  N  1 XY   -0.000511   0.002581
   14  N  1 XZ    0.036883   0.000091
   15  N  1 YZ    0.000738  -0.039420
   16  H  2  S   -0.314686  -0.597524
   17  H  2  S   -0.058898  -0.109494
   18  H  2  X    0.004018  -0.035566
   19  H  2  Y    0.032267   0.037151
   20  H  2  Z    0.001782   0.004085
   21  H  3  S   -0.330753   0.633185
   22  H  3  S   -0.060490   0.112065
   23  H  3  X    0.002775   0.038177
   24  H  3  Y   -0.033077   0.041802
   25  H  3  Z    0.003088  -0.004425
   26  H  4  S    0.690167   0.022928
   27  H  4  S    0.125570   0.002693
   28  H  4  X   -0.060136  -0.003121
   29  H  4  Y    0.000672  -0.024386
   30  H  4  Z   -0.001888   0.000245

 -------------------------------------------
       MAXIMIZING MORMO OVERLAP TERM        
 -------------------------------------------
   SWEEP    VALUE       PROGRESS
     0     4.52953
     1     6.77571     2.24617877
     2     6.94296     0.16725193
     3     6.94306     0.00010274
     4     6.94306     0.00000000
     5     6.94306     0.00000000
     6     6.94306     0.00000000
 THE ROTATION IS DONE
ACTIVE ORBITALS AFTER MORMO:

                      1          2          3          4          5

    1  N  1  S    0.004233  -0.021659  -0.023053  -0.012518   0.189435
    2  N  1  S    0.418834  -0.048624  -0.061586  -0.191148   0.689218
    3  N  1  S    0.339946   0.027150   0.073021  -0.267065   0.200526
    4  N  1  X    0.005590   0.504814  -0.052167  -0.034759   0.010590
    5  N  1  Y   -0.005859   0.009577   0.432406  -0.033747  -0.036342
    6  N  1  Z    0.080575  -0.037609  -0.020397   0.604462   0.615131
    7  N  1  X    0.010089   0.202303   0.016721   0.045172  -0.045050
    8  N  1  Y    0.030226   0.049283   0.315443   0.049457  -0.040637
    9  N  1  Z    0.031092   0.059140   0.059069   0.386329  -0.075754
   10  N  1 XX    0.005701   0.008749   0.014660  -0.009854  -0.034810
   11  N  1 YY   -0.005480  -0.008949  -0.013947  -0.011850   0.027829
   12  N  1 ZZ   -0.000221   0.000200  -0.000714   0.021703   0.006981
   13  N  1 XY   -0.005129  -0.013602  -0.026198  -0.006777   0.031196
   14  N  1 XZ   -0.003067   0.014103   0.000193   0.001153   0.032153
   15  N  1 YZ    0.000127   0.000130   0.021537  -0.003992   0.035354
   16  H  2  S    0.188335  -0.137554   0.350329   0.106342  -0.406581
   17  H  2  S    0.012742  -0.000413   0.128176   0.037080  -0.062551
   18  H  2  X    0.027103  -0.011371   0.039769   0.012846  -0.035062
   19  H  2  Y   -0.013784   0.020493   0.001658  -0.004004   0.031368
   20  H  2  Z   -0.004318   0.012495  -0.006453   0.018470  -0.023080
   21  H  3  S    0.181345  -0.191359  -0.357420   0.080522  -0.479858
   22  H  3  S   -0.003528  -0.039523  -0.132467   0.017586  -0.069032
   23  H  3  X    0.020272   0.005338  -0.023445   0.011491  -0.016270
   24  H  3  Y    0.024577  -0.015387  -0.003218   0.017320  -0.049264
   25  H  3  Z   -0.014886   0.019488   0.026516   0.016700  -0.007186
   26  H  4  S    0.189472   0.377435   0.014104   0.123124  -0.471317
   27  H  4  S    0.006839   0.059782   0.027938   0.038431  -0.071240
   28  H  4  X   -0.031991  -0.035744   0.014120  -0.011039   0.051028
   29  H  4  Y    0.011791   0.022953   0.019044   0.006300  -0.020112
   30  H  4  Z   -0.002489  -0.007341   0.002929   0.021219  -0.015662

                      6          7

    1  N  1  S   -0.053427   0.013902
    2  N  1  S   -0.120133   0.043900
    3  N  1  S    0.118370  -0.098437
    4  N  1  X   -0.877756  -0.034571
    5  N  1  Y    0.033251   0.847415
    6  N  1  Z    0.025505  -0.089652
    7  N  1  X   -0.097799   0.012131
    8  N  1  Y    0.004255   0.012572
    9  N  1  Z    0.021981   0.033242
   10  N  1 XX   -0.015967  -0.038489
   11  N  1 YY    0.029265   0.036619
   12  N  1 ZZ   -0.013299   0.001870
   13  N  1 XY   -0.048076   0.038236
   14  N  1 XZ    0.046294   0.008038
   15  N  1 YZ   -0.019530  -0.024831
   16  H  2  S   -0.339755  -0.516033
   17  H  2  S   -0.080920  -0.183113
   18  H  2  X   -0.014089  -0.050608
   19  H  2  Y    0.039313   0.004866
   20  H  2  Z   -0.024462   0.006407
   21  H  3  S   -0.347648   0.575583
   22  H  3  S   -0.074637   0.200509
   23  H  3  X    0.031712   0.034485
   24  H  3  Y   -0.039163   0.010611
   25  H  3  Z    0.001389  -0.017093
   26  H  4  S    0.649012   0.037345
   27  H  4  S    0.151184   0.002176
   28  H  4  X   -0.058274  -0.014202
   29  H  4  Y    0.020304  -0.010258
   30  H  4  Z    0.019215   0.018897

Actually Used Diabatic Molecualr Orbitals:

                      1          2          3          4          5

    1  N  1  S    0.004233  -0.021659  -0.023053  -0.012518   0.189435
    2  N  1  S    0.418834  -0.048624  -0.061586  -0.191148   0.689218
    3  N  1  S    0.339946   0.027150   0.073021  -0.267065   0.200526
    4  N  1  X    0.005590   0.504814  -0.052167  -0.034759   0.010590
    5  N  1  Y   -0.005859   0.009577   0.432406  -0.033747  -0.036342
    6  N  1  Z    0.080575  -0.037609  -0.020397   0.604462   0.615131
    7  N  1  X    0.010089   0.202303   0.016721   0.045172  -0.045050
    8  N  1  Y    0.030226   0.049283   0.315443   0.049457  -0.040637
    9  N  1  Z    0.031092   0.059140   0.059069   0.386329  -0.075754
   10  N  1 XX    0.005701   0.008749   0.014660  -0.009854  -0.034810
[...]
 STATE #  3'S GMC-PT-LEVEL DIABATIC ENERGY=     -55.833073638       2.228299478

 --- DIABATIC COUPLINGS (OFF DIAGONAL ELEMENTS)---  HATREE            EV
 STATE #  1 &  2'S GMC-PT-LEVEL COUPLING  =       0.044643272       1.214805304
 STATE #  1 &  3'S GMC-PT-LEVEL COUPLING  =       0.034314529       0.933745891
 STATE #  2 &  3'S GMC-PT-LEVEL COUPLING  =      -0.043053932      -1.171557162

 ---------------------------------------
     - ROTATION TO DIABATIC STATES -    
 ---------------------------------------
 ROWS=ADIABATIC, COLUMNS=DIABATIC STATES

             1           2           3

    1    0.9009463  -0.2162804  -0.3761895
    2   -0.4101250  -0.1412178  -0.9010300
    3    0.1417504   0.9660643  -0.2159317

 ---------------------------------------
          - DIABATIC STATES -           
 ---------------------------------------

 State #    1  Energy =     -55.914962134

      Det      Coef        Coefp    Occupancy (Ignoring core)
      ---      ----        ----    --------- --------- -----
        1    0.918298   -0.918298  222+000
       17    0.170567    0.170567  22-+00+
      701   -0.136773   -0.136773  22++00-
        4    0.108087   -0.108087  2-2++00
      176   -0.104506    0.104506  2+2+-00
        3    0.090726    0.090726  22-++00
      141   -0.086584   -0.086584  22++-00
       16    0.073616   -0.073616  222000+
        6   -0.073308    0.073308  22200+0
      717   -0.066290   -0.066290  220+002
      393   -0.065883   -0.065883  202+020
      351    0.065241    0.065241  22++0-0
        7   -0.063992   -0.063992  22-+0+0
      402    0.045301   -0.045301  2+-+0-+
      708    0.040880   -0.040880  2-++0+-
       18    0.039990   -0.039990  2-2+00+
      736   -0.038480    0.038480  2+2+00-
        5    0.038426    0.038426  -22++00
      215   -0.037842   -0.037842  022+200
      192    0.035977   -0.035977  2+-+-0+
      390    0.035509   -0.035509  -+2++-0
      218    0.034443   -0.034443  +-2+-+0
      704    0.034202   -0.034202  2-+++0-
       51   -0.033794    0.033794  22+-00+
      227   -0.031739   -0.031739  +2-+-0+
      705   -0.031538   -0.031538  -2+++0-
      212    0.030714    0.030714  +220200
      122    0.028565    0.028565  +2-200+
     1051   -0.028425   -0.028425  2+++0--
      706    0.026712    0.026712  22+00+-
      702    0.026543    0.026543  22+0+0-
       76    0.025861    0.025861  2+2-0+0
      773    0.025163   -0.025163  +2-++0-
       29   -0.024526   -0.024526  2--+0++
      424   -0.024096   -0.024096  +-2++-0
      387   -0.023813    0.023813  2+20+-0
       23   -0.023752   -0.023752  2--++0+
       20   -0.023231   -0.023231  22-0+0+
      159    0.023136   -0.023136  -2++-0+
       19    0.022624    0.022624  -22+00+
      113   -0.022616    0.022616  +-220+0
      211   -0.022605   -0.022605  +22+-00
      184   -0.022407   -0.022407  -+2+-+0
      179   -0.021832   -0.021832  202+200
      143   -0.021018   -0.021018  220+200
        2    0.020458   -0.020458  2220+00

 State #    2  Energy =     -55.679153024

      Det      Coef        Coefp    Occupancy (Ignoring core)
      ---      ----        ----    --------- --------- -----
       71   -0.915605    0.915605  2+22000
      806   -0.137754   -0.137754  2++200-
       87    0.125873   -0.125873  2+-200+
       73    0.102985   -0.102985  2+-2+00
      246   -0.102363   -0.102363  2++2-00
      736   -0.086140    0.086140  2+2+00-
       77   -0.083942    0.083942  2+-20+0
       86    0.083400    0.083400  2+2-00+
       74   -0.078849    0.078849  2022+00
      386    0.075674   -0.075674  2+2+0-0
      456    0.073027    0.073027  2++20-0
      822    0.072947   -0.072947  2+02002
       76   -0.071408   -0.071408  2+2-0+0
      106   -0.058379   -0.058379  +222000
      813    0.051198   -0.051198  20+20+-
       78   -0.050979    0.050979  20220+0
      122    0.048664    0.048664  +2-200+
       36    0.046296    0.046296  22+2000
      316    0.039185    0.039185  ++22-00
      320    0.038878    0.038878  0+22200
       99   -0.036933    0.036933  20-20++
      332   -0.036810    0.036810  ++-2-0+
      810   -0.035364   -0.035364  -++2+0-
      111    0.035020   -0.035020  +22-0+0
      317    0.034800   -0.034800  ++2-200
      807   -0.033685    0.033685  2++-+0-
      180   -0.033607    0.033607  -+2+200
      177    0.033361   -0.033361  2+20200
      323   -0.033100    0.033100  +022-+0
       90    0.032971    0.032971  2+--+0+
       38   -0.032510    0.032510  2202+00
      192   -0.031850    0.031850  2+-+-0+
        6    0.029412   -0.029412  22200+0
      809    0.028158   -0.028158  20+2+0-
      841   -0.028056    0.028056  +2+200-
      911    0.027855    0.027855  2+++-0-
      264    0.026919   -0.026919  -++2-0+
      108    0.026677    0.026677  +2-2+00
      811   -0.026075    0.026075  2++-0+-
      878    0.025541    0.025541  ++-2+0-
      248    0.025318   -0.025318  2+02200
      402   -0.024732    0.024732  2+-+0-+
       88   -0.024683    0.024683  202200+
      183   -0.024135    0.024135  202+-+0
      821    0.023264   -0.023264  2++-002
       51    0.023164   -0.023164  22+-00+
      752   -0.022727   -0.022727  2+-+002
       72   -0.022391   -0.022391  2+2-+00
      112   -0.021525   -0.021525  +2-20+0
       54   -0.020608    0.020608  -2+200+

 State #    3  Energy =     -55.833073638

      Det      Coef        Coefp    Occupancy (Ignoring core)
      ---      ----        ----    --------- --------- -----
       36   -0.918437   -0.918437  22+2000
       39   -0.143160   -0.143160  2-+2+00
       52   -0.128220    0.128220  220200+
      246    0.114987    0.114987  2++2-00
       41   -0.103346    0.103346  22+-0+0
      351    0.095973    0.095973  22++0-0
       38   -0.093846    0.093846  2202+00
       51    0.083916   -0.083916  22+-00+
      701   -0.081855   -0.081855  22++00-
      106   -0.072651   -0.072651  +222000
      463    0.063251   -0.063251  20+2020
       42    0.058741   -0.058741  22020+0
       53   -0.054478   -0.054478  2-+200+
      472   -0.050842   -0.050842  2+020-+
       71   -0.041748    0.041748  2+22000
       64    0.037913   -0.037913  2-020++
      806    0.037814    0.037814  2++200-
      285    0.037609   -0.037609  02+2200
       40   -0.037000    0.037000  -2+2+00
      460   -0.036519   -0.036519  -++2+-0
       55   -0.035616   -0.035616  220-+0+
      456    0.035604    0.035604  2++20-0
      262   -0.035561   -0.035561  2+02-0+
      288   -0.035541   -0.035541  +-+2-+0
      123    0.034837   -0.034837  +-2200+
      157    0.034612   -0.034612  220+-0+
      297    0.033857   -0.033857  +202-0+
      145   -0.033593   -0.033593  -2++200
      142    0.033367    0.033367  22+0200
      367    0.032685   -0.032685  220+0-+
      282    0.032557    0.032557  +2+-200
       73    0.028173   -0.028173  2+-2+00
       43   -0.027136   -0.027136  2-+20+0
       58    0.025991   -0.025991  2-02+0+
      494    0.024699   -0.024699  +-+2+-0
      457   -0.024642    0.024642  2++-+-0
      109    0.024076   -0.024076  +-22+00
      148   -0.023991   -0.023991  2-++-+0
       86    0.023969    0.023969  2+2-00+
       54   -0.023229    0.023229  -2+200+
       46    0.023121   -0.023121  2-+-++0
      121   -0.022660    0.022660  +22-00+
      843   -0.022644   -0.022644  +202+0-
      717    0.022439    0.022439  220+002
       61   -0.021867   -0.021867  220-0++
      254    0.021864   -0.021864  -++2-+0
       16   -0.021781    0.021781  222000+
      249    0.020647   -0.020647  20+2200
      859    0.020380   -0.020380  02+2002

 ---------------------------------------
      - DIABATIC STATES IN CMO -        
 ---------------------------------------

 State #    1  Energy =     -55.914962134

      Det      Coef        Coefp    Occupancy (Ignoring core)
      ---      ----        ----    --------- --------- -----
        1    0.836071   -0.836071  222+000
       36   -0.478044   -0.478044  22+2000
       71   -0.144769    0.144769  2+22000
      143   -0.054654   -0.054654  220+200
      142    0.047567    0.047567  22+0200
      717   -0.046899   -0.046899  220+002
      393   -0.046034   -0.046034  202+020
      179   -0.036859   -0.036859  202+200
      106   -0.035293   -0.035293  +222000
      157    0.033403   -0.033403  220+-0+
      145   -0.032462   -0.032462  -2++200
        8   -0.031434    0.031434  2-2+0+0
       17    0.031222    0.031222  22-+00+
        2    0.031125   -0.031125  2220+00
      148   -0.028661   -0.028661  2-++-+0
      463    0.028492   -0.028492  20+2020
      158    0.027114    0.027114  2-++-0+
       18    0.026426   -0.026426  2-2+00+
      212    0.026168    0.026168  +220200
      249    0.024568   -0.024568  20+2200
      752    0.024508    0.024508  2+-+002
      718   -0.024506    0.024506  2-++002
      789   -0.024375   -0.024375  022+002
      753   -0.023750   -0.023750  202+002
      703   -0.023429   -0.023429  220++0-
      387   -0.023208    0.023208  2+20+-0
      122    0.022764    0.022764  +2-200+
       38   -0.022707    0.022707  2202+00
      108    0.022162    0.022162  +2-2+00
      218    0.021909   -0.021909  +-2+-+0
      123    0.021703   -0.021703  +-2200+
        7    0.021533    0.021533  22-+0+0
      390    0.021479   -0.021479  -+2++-0
      215   -0.021470   -0.021470  022+200
       51   -0.020922    0.020922  22+-00+
      147    0.020555   -0.020555  220+-+0
      181    0.020452    0.020452  2+20-+0
      719    0.020292    0.020292  -2++002

 State #    2  Energy =     -55.679153024

      Det      Coef        Coefp    Occupancy (Ignoring core)
      ---      ----        ----    --------- --------- -----
       71   -0.945428    0.945428  2+22000
        1   -0.216064    0.216064  222+000
       36   -0.090390   -0.090390  22+2000
      822    0.053911   -0.053911  2+02002
      248    0.050797   -0.050797  2+02200
      177    0.048139   -0.048139  2+20200
        4    0.037309   -0.037309  2-2++00
      109   -0.036844    0.036844  +-22+00
      122    0.036704    0.036704  +2-200+
       37    0.033574   -0.033574  22+-+00
      178    0.032410    0.032410  2+-+200
      108    0.032363    0.032363  +2-2+00
      180   -0.031699    0.031699  -+2+200
       72   -0.030824   -0.030824  2+2-+00
        2   -0.030268    0.030268  2220+00
      262   -0.029858   -0.029858  2+02-0+
        3   -0.029685   -0.029685  22-++00
      317    0.029635   -0.029635  ++2-200
      247   -0.029583    0.029583  2++-200
      808    0.029234   -0.029234  2+02+0-
      894    0.028832    0.028832  0+22002
      823   -0.026617    0.026617  20+2002
      320    0.026575    0.026575  0+22200
      111    0.025429   -0.025429  +22-0+0
      462    0.023527   -0.023527  2+02020
       99   -0.023412    0.023412  20-20++
       74    0.023378   -0.023378  2022+00
      183   -0.023204    0.023204  202+-+0
      463    0.022979   -0.022979  20+2020
      250   -0.022881   -0.022881  -++2200
      318    0.022668    0.022668  ++-2200
       78   -0.022232    0.022232  20220+0
      121   -0.021962    0.021962  +22-00+
       75    0.021506    0.021506  -+22+00
      107    0.021240   -0.021240  +22-+00
      892   -0.020705   -0.020705  ++-2002
       77   -0.020558    0.020558  2+-20+0
       54   -0.020503    0.020503  -2+200+
      323   -0.020172    0.020172  +022-+0

 State #    3  Energy =     -55.833073638

      Det      Coef        Coefp    Occupancy (Ignoring core)
      ---      ----        ----    --------- --------- -----
       36   -0.849092   -0.849092  22+2000
        1   -0.453752    0.453752  222+000
       71    0.184106   -0.184106  2+22000
      463    0.041817   -0.041817  20+2020
      249    0.041186   -0.041186  20+2200
      822   -0.038418    0.038418  2+02002
      717    0.033262    0.033262  220+002
      109    0.031422   -0.031422  +-22+00
      823    0.030878   -0.030878  20+2002
      108    0.029652    0.029652  +2-2+00
        2   -0.028427    0.028427  2220+00
      808   -0.027277    0.027277  2+02+0-
      142    0.027078    0.027078  22+0200
      859    0.026273   -0.026273  02+2002
      282    0.025666    0.025666  +2+-200
      393    0.024803    0.024803  202+020
      457   -0.023419    0.023419  2++-+-0
      285    0.022602   -0.022602  02+2200
       64    0.022298   -0.022298  2-020++
      179    0.022065    0.022065  202+200
       72    0.021646    0.021646  2+2-+00
      111   -0.021362    0.021362  +22-0+0
       58    0.020916   -0.020916  2-02+0+
      288   -0.020885   -0.020885  +-+2-+0
      813   -0.020418    0.020418  20+20+-
       39   -0.020288   -0.020288  2-+2+00
        4   -0.020249    0.020249  2-2++00
       38   -0.020102    0.020102  2202+00
      703    0.020096    0.020096  220++0-
      251    0.020060    0.020060  2++--+0

 ---------------------------------------
    -DIABATIC STATES IN PROTOTYPES-     
 ---------------------------------------

     STATE:    1
 Group Ref#    Coefficients
     1    1    0.939217
     2    2    0.001314
     3    3   -0.009257

WEIGHT OF LISTED PROTOTYPES:   88.22%

     STATE:    2
 Group Ref#    Coefficients
     1    1    0.001330
     2    2    0.927591
     3    3    0.001700

WEIGHT OF LISTED PROTOTYPES:   86.04%

     STATE:    3
 Group Ref#    Coefficients
     1    1   -0.009277
     2    2    0.001683
     3    3    0.937198

WEIGHT OF LISTED PROTOTYPES:   87.84%

     DIRECT MAX. DIABATIZATION FINISHED    
 CPU     0: STEP CPU TIME=     0.25 TOTAL CPU TIME=         15.9 (      0.3 MIN)
 TOTAL WALL CLOCK TIME=         15.9 SECONDS, CPU UTILIZATION IS    99.94%

DIABATS FOR SPIN-ORBIT CALCULATION ARE READY

TRANSITION DIPOLES BETWEEN ADIABATS (in A.U.):

STATE PAIR      X         Y         Z
    1    1 -0.284039 -0.215002  0.646926
    2    1  0.026454 -0.022113 -0.181826
    2    2 -0.151261 -0.357670  0.358077
    3    1  0.144324 -0.040899  0.067088
    3    2  0.104685 -0.122974  0.001544
    3    3 -0.536783 -0.256038  0.293925


TRANSITION DIPOLES BETWEEN DIABATS (in A.U.):

STATE PAIR      X         Y         Z
    1    1 -0.261642 -0.219630  0.742574
    2    1  0.049676  0.003810 -0.002375
    2    2 -0.604530 -0.206853  0.272155
    3    1 -0.000466 -0.021969  0.006930
    3    2 -0.057467  0.101172 -0.030754
    3    3 -0.105912 -0.402227  0.284200

TRANSITION DIPOLES BETWEEN DIRECT MAX. DIABATS (in A.U.):

STATE PAIR      X         Y         Z
    1    1 -0.261643 -0.219630  0.742574
    2    1  0.049679  0.003811 -0.002371
    2    2 -0.604530 -0.206851  0.272154
    3    1 -0.000464 -0.021972  0.006926
    3    2 -0.057463  0.101170 -0.030754
    3    3 -0.105911 -0.402228  0.284201
 No $TRANST Group Found.
 Quit without doing spin-orbit coupling
 ..... DONE WITH MP2 ENERGY .....
 CPU     0: STEP CPU TIME=     0.00 TOTAL CPU TIME=         15.9 (      0.3 MIN)
 TOTAL WALL CLOCK TIME=         15.9 SECONDS, CPU UTILIZATION IS    99.94%
            100000000  WORDS OF DYNAMIC MEMORY USED
 EXECUTION OF GAMESS TERMINATED NORMALLY Wed Nov 16 18:42:35 2022
 DDI: 715512 bytes (0.7 MB / 0 MWords) used by master data server.

 ----------------------------------------
 CPU timing information for all processes
 ========================================
 0: 15.474 + 0.388 = 15.862
 ----------------------------------------
Note: The following floating-point exceptions are signalling: IEEE_DENORMAL
 ddikick.x: exited gracefully.
unset echo
----- accounting info -----
Files used on the master node io002 were:
-rw-r--r-- 1 bsonghao nooijen   20714 Nov 16 18:42 /scratch/bsonghao/nh3_diabatization_2d_at_mode_7_8_dist-0.5_-0.6.F05
-rw-r--r-- 1 bsonghao nooijen  363520 Nov 16 18:42 /scratch/bsonghao/nh3_diabatization_2d_at_mode_7_8_dist-0.5_-0.6.F09
-rw-r--r-- 1 bsonghao nooijen 1995920 Nov 16 18:42 /scratch/bsonghao/nh3_diabatization_2d_at_mode_7_8_dist-0.5_-0.6.F10
-rw-r--r-- 1 bsonghao nooijen  131264 Nov 16 18:42 /scratch/bsonghao/nh3_diabatization_2d_at_mode_7_8_dist-0.5_-0.6.F13
-rw-r--r-- 1 bsonghao nooijen  180312 Nov 16 18:42 /scratch/bsonghao/nh3_diabatization_2d_at_mode_7_8_dist-0.5_-0.6.F15
-rw-r--r-- 1 bsonghao nooijen       0 Nov 16 18:42 /scratch/bsonghao/nh3_diabatization_2d_at_mode_7_8_dist-0.5_-0.6.F16
-rw-r--r-- 1 bsonghao nooijen    9808 Nov 16 18:42 /scratch/bsonghao/nh3_diabatization_2d_at_mode_7_8_dist-0.5_-0.6.F70
-rw-r--r-- 1 bsonghao nooijen    9808 Nov 16 18:42 /scratch/bsonghao/nh3_diabatization_2d_at_mode_7_8_dist-0.5_-0.6.F71
-rw-r--r-- 1 bsonghao nooijen   19608 Nov 16 18:42 /scratch/bsonghao/nh3_diabatization_2d_at_mode_7_8_dist-0.5_-0.6.F72
-rw-r--r-- 1 bsonghao nooijen   19608 Nov 16 18:42 /scratch/bsonghao/nh3_diabatization_2d_at_mode_7_8_dist-0.5_-0.6.F73
-rw-r--r-- 1 bsonghao nooijen 1920824 Nov 16 18:42 /scratch/bsonghao/nh3_diabatization_2d_at_mode_7_8_dist-0.5_-0.6.F74
-rw-r--r-- 1 bsonghao nooijen       0 Nov 16 18:42 /scratch/bsonghao/nh3_diabatization_2d_at_mode_7_8_dist-0.5_-0.6.F75
-rw-r--r-- 1 bsonghao nooijen   58848 Nov 16 18:42 /scratch/bsonghao/nh3_diabatization_2d_at_mode_7_8_dist-0.5_-0.6.F76
-rw-r--r-- 1 bsonghao nooijen       0 Nov 16 18:42 /scratch/bsonghao/nh3_diabatization_2d_at_mode_7_8_dist-0.5_-0.6.F77
-rw-r--r-- 1 bsonghao nooijen    1864 Nov 16 18:42 /scratch/bsonghao/nh3_diabatization_2d_at_mode_7_8_dist-0.5_-0.6.F78
-rw-r--r-- 1 bsonghao nooijen   39208 Nov 16 18:42 /scratch/bsonghao/nh3_diabatization_2d_at_mode_7_8_dist-0.5_-0.6.F79
-rw-r--r-- 1 bsonghao nooijen     104 Nov 16 18:42 /scratch/bsonghao/nh3_diabatization_2d_at_mode_7_8_dist-0.5_-0.6.F80
-rw-r--r-- 1 bsonghao nooijen   13472 Nov 16 18:42 /scratch/bsonghao/nh3_diabatization_2d_at_mode_7_8_dist-0.5_-0.6.F81
-rw-r--r-- 1 bsonghao nooijen      16 Nov 16 18:42 /scratch/bsonghao/nh3_diabatization_2d_at_mode_7_8_dist-0.5_-0.6.F82
-rw-r--r-- 1 bsonghao nooijen   19216 Nov 16 18:42 /scratch/bsonghao/nh3_diabatization_2d_at_mode_7_8_dist-0.5_-0.6.F83
-rw-r--r-- 1 bsonghao nooijen   29712 Nov 16 18:42 /scratch/bsonghao/nh3_diabatization_2d_at_mode_7_8_dist-0.5_-0.6.F84
-rw-r--r-- 1 bsonghao nooijen  401576 Nov 16 18:42 /scratch/bsonghao/nh3_diabatization_2d_at_mode_7_8_dist-0.5_-0.6.F85
-rw-r--r-- 1 bsonghao nooijen  903672 Nov 16 18:42 /scratch/bsonghao/nh3_diabatization_2d_at_mode_7_8_dist-0.5_-0.6.F86
-rw-r--r-- 1 bsonghao nooijen     656 Nov 16 18:42 /scratch/bsonghao/nh3_diabatization_2d_at_mode_7_8_dist-0.5_-0.6.F87
-rw-r--r-- 1 bsonghao nooijen   42736 Nov 16 18:42 /scratch/bsonghao/nh3_diabatization_2d_at_mode_7_8_dist-0.5_-0.6.F88
-rw-r--r-- 1 bsonghao nooijen     240 Nov 16 18:42 /scratch/bsonghao/nh3_diabatization_2d_at_mode_7_8_dist-0.5_-0.6.F89
-rw-r--r-- 1 bsonghao nooijen       0 Nov 16 18:42 /scratch/bsonghao/nh3_diabatization_2d_at_mode_7_8_dist-0.5_-0.6.F90
-rw-r--r-- 1 bsonghao nooijen   13760 Nov 16 18:42 /scratch/bsonghao/nh3_diabatization_2d_at_mode_7_8_dist-0.5_-0.6.F91
-rw-r--r-- 1 bsonghao nooijen   22776 Nov 16 18:42 /scratch/bsonghao/nh3_diabatization_2d_at_mode_7_8_dist-0.5_-0.6.F92
-rw-r--r-- 1 bsonghao nooijen   23168 Nov 16 18:42 /scratch/bsonghao/nh3_diabatization_2d_at_mode_7_8_dist-0.5_-0.6.F93
-rw-r--r-- 1 bsonghao nooijen   22776 Nov 16 18:42 /scratch/bsonghao/nh3_diabatization_2d_at_mode_7_8_dist-0.5_-0.6.F94
-rw-r--r-- 1 bsonghao nooijen   13760 Nov 16 18:42 /scratch/bsonghao/nh3_diabatization_2d_at_mode_7_8_dist-0.5_-0.6.F95
-rw-r--r-- 1 bsonghao nooijen   29440 Nov 16 18:42 /scratch/bsonghao/nh3_diabatization_2d_at_mode_7_8_dist-0.5_-0.6.F96
-rw-r--r-- 1 bsonghao nooijen    1184 Nov 16 18:42 /scratch/bsonghao/nh3_diabatization_2d_at_mode_7_8_dist-0.5_-0.6.F97
-rw-r--r-- 1 bsonghao nooijen    9808 Nov 16 18:42 /scratch/bsonghao/nh3_diabatization_2d_at_mode_7_8_dist-0.5_-0.6.F98
-rw-r--r-- 1 bsonghao nooijen   30264 Nov 16 18:42 /scratch/bsonghao/nh3_diabatization_2d_at_mode_7_8_dist-0.5_-0.6.F99
ls: No match.
ls: No match.
ls: No match.
Wed 16 Nov 2022 06:42:38 PM EST
0.293u 0.039s 0:19.23 1.6%	0+0k 48+224io 0pf+0w
