----- GAMESS execution script 'rungms' -----
This job is running on host io002
under operating system Linux at Wed 16 Nov 2022 07:07:22 PM EST
Available scratch disk space (Kbyte units) at beginning of the job is
Filesystem       1K-blocks       Used   Available Use% Mounted on
/dev/sdc1      15378471580 3278917120 11318349060  23% /scratch
GAMESS temporary binary files will be written to /scratch/bsonghao
GAMESS supplementary output files will be written to /home/bsonghao/.gamess_ascii_files/267638
Copying input file nh3_diabatization_2d_at_mode_7_8_dist-0.2_-0.2.inp to your run's scratch directory...
cp nh3_diabatization_2d_at_mode_7_8_dist-0.2_-0.2.inp /scratch/bsonghao/nh3_diabatization_2d_at_mode_7_8_dist-0.2_-0.2.F05
unset echo
/home/bjb2chen/gamess/ddikick.x /home/bjb2chen/gamess/gamess.00.x nh3_diabatization_2d_at_mode_7_8_dist-0.2_-0.2 -ddi 1 1 io002 -scr /scratch/bsonghao

 Distributed Data Interface kickoff program.
 Initiating 1 compute processes on 1 nodes to run the following command:
 /home/bjb2chen/gamess/gamess.00.x nh3_diabatization_2d_at_mode_7_8_dist-0.2_-0.2 

          ******************************************************
          *         GAMESS VERSION = 02 AUG 2018 (R2)         *
          *             FROM IOWA STATE UNIVERSITY             *
          * M.W.SCHMIDT, K.K.BALDRIDGE, J.A.BOATZ, S.T.ELBERT, *
          *   M.S.GORDON, J.H.JENSEN, S.KOSEKI, N.MATSUNAGA,   *
          *          K.A.NGUYEN, S.J.SU, T.L.WINDUS,           *
          *       TOGETHER WITH M.DUPUIS, J.A.MONTGOMERY       *
          *         J.COMPUT.CHEM.  14, 1347-1363(1993)        *
          **************** 64 BIT LINUX VERSION ****************

  SINCE 1993, STUDENTS AND POSTDOCS WORKING AT IOWA STATE UNIVERSITY
  AND ALSO IN THEIR VARIOUS JOBS AFTER LEAVING ISU HAVE MADE IMPORTANT
  CONTRIBUTIONS TO THE CODE:
     IVANA ADAMOVIC, CHRISTINE AIKENS, YURI ALEXEEV, POOJA ARORA,
     ANDREY ASADCHEV, ROB BELL, PRADIPTA BANDYOPADHYAY, JONATHAN BENTZ,
     BRETT BODE, KURT BRORSEN, CALEB CARLIN, GALINA CHABAN, WEI CHEN,
     CHEOL HO CHOI, PAUL DAY, ALBERT DEFUSCO, NUWAN DESILVA, TIM DUDLEY,
     DMITRI FEDOROV, ALEX FINDLATER, GRAHAM FLETCHER, MARK FREITAG,
     KURT GLAESEMANN, ANASTASIA GUININA,
     DAN KEMP, GRANT MERRILL, NORIYUKI MINEZAWA, JONATHAN MULLIN,
     TAKESHI NAGATA, SEAN NEDD, HEATHER NETZLOFF, BOSILJKA NJEGIC, RYAN OLSON,
     MIKE PAK, BUU PHAM,
     SPENCER PRUITT, LUKE ROSKOP, JIM SHOEMAKER, LYUDMILA SLIPCHENKO,
     TONY SMITH, SAROM SOK LEANG, JIE SONG, TETSUYA TAKETSUGU, SIMON WEBB,
     PENG XU, SOOHAENG YOO, FEDERICO ZAHARIEV

  ADDITIONAL CODE HAS BEEN PROVIDED BY COLLABORATORS IN OTHER GROUPS:
     IOWA STATE UNIVERSITY:
          JOE IVANIC, AARON WEST, LAIMUTIS BYTAUTAS, KLAUS RUEDENBERG
     UNIVERSITY OF TOKYO: KIMIHIKO HIRAO, TAKAHITO NAKAJIMA,
          TAKAO TSUNEDA, MUNEAKI KAMIYA, SUSUMU YANAGISAWA,
          KIYOSHI YAGI, MAHITO CHIBA, SEIKEN TOKURA, NAOAKI KAWAKAMI
     UNIVERSITY OF AARHUS: FRANK JENSEN
     UNIVERSITY OF IOWA: VISVALDAS KAIRYS, HUI LI
     NATIONAL INST. OF STANDARDS AND TECHNOLOGY: WALT STEVENS, DAVID GARMER
     UNIVERSITY OF PISA: BENEDETTA MENNUCCI, JACOPO TOMASI
     UNIVERSITY OF MEMPHIS: HENRY KURTZ, PRAKASHAN KORAMBATH
     UNIVERSITY OF ALBERTA: TOBY ZENG, MARIUSZ KLOBUKOWSKI
     UNIVERSITY OF NEW ENGLAND: MARK SPACKMAN
     MIE UNIVERSITY: HIROAKI UMEDA
     NAT. INST. OF ADVANCED INDUSTRIAL SCIENCE AND TECHNOLOGY: KAZUO KITAURA
     MICHIGAN STATE UNIVERSITY:
          KAROL KOWALSKI, MARTA WLOCH, JEFFREY GOUR, JESSE LUTZ,
          WEI LI, JUN SHEN, J. EMILIANO DEUSTUA, PIOTR PIECUCH
     UNIVERSITY OF MINNESOTA:
          YINAN SHU
     UNIVERSITY OF SILESIA: MONIKA MUSIAL, STANISLAW KUCHARSKI
     FACULTES UNIVERSITAIRES NOTRE-DAME DE LA PAIX:
          OLIVIER QUINET, BENOIT CHAMPAGNE
     UNIVERSITY OF CALIFORNIA - SANTA BARBARA: BERNARD KIRTMAN
     INSTITUTE FOR MOLECULAR SCIENCE:
          KAZUYA ISHIMURA, MICHIO KATOUDA, AND SHIGERU NAGASE
     UNIVERSITY OF NOTRE DAME: ANNA POMOGAEVA, DAN CHIPMAN
     KYUSHU UNIVERSITY:
          HARUYUKI NAKANO,
          FENG LONG GU, JACEK KORCHOWIEC, MARCIN MAKOWSKI, AND YURIKO AOKI,
          HIROTOSHI MORI AND EISAKU MIYOSHI
     PENNSYLVANIA STATE UNIVERSITY:
          TZVETELIN IORDANOV, CHET SWALINA, JONATHAN SKONE,
          SHARON HAMMES-SCHIFFER
     WASEDA UNIVERSITY:
          MASATO KOBAYASHI, TOMOKO AKAMA, TSUGUKI TOUMA,
          TAKESHI YOSHIKAWA, YASUHIRO IKABATA, JUNJI SEINO,
          YUYA NAKAJIMA, HIROMI NAKAI
     NANJING UNIVERSITY: SHUHUA LI
     UNIVERSITY OF NEBRASKA:
          PEIFENG SU, DEJUN SI, NANDUN THELLAMUREGE, YALI WANG, HUI LI
     UNIVERSITY OF ZURICH: ROBERTO PEVERATI, KIM BALDRIDGE
     N. COPERNICUS UNIVERSITY AND JACKSON STATE UNIVERSITY:
          MARIA BARYSZ
     UNIVERSITY OF COPENHAGEN: Jimmy Kromann, CASPER STEINMANN
     TOKYO INSTITUTE OF TECHNOLOGY: HIROYA NAKATA
     NAGOYA UNIVERSITY: YOSHIO NISHIMOTO, STEPHAN IRLE
     MOSCOW STATE UNIVERSITY: VLADIMIR MIRONOV

 EXECUTION OF GAMESS BEGUN Wed Nov 16 19:07:22 2022

            ECHO OF THE FIRST FEW INPUT CARDS -
 INPUT CARD> $system kdiag=3 mwords=100 memddi=1000 parall=.t. $end                         
 INPUT CARD> $contrl runtyp=energy ispher=1 $end                                            
 INPUT CARD> $contrl icut=9 itol=20 inttyp=rysquad qmttol=1.0d-05 nosym=1 $end              
 INPUT CARD> $scf    npunch=2 conv=1.0d-06 dirscf=.t.      $end                             
 INPUT CARD> $contrl scftyp=mcscf  mult=2 maxit=200 icharg=1 mplevl=2 $end                  
 INPUT CARD> $guess  guess=moread norb=29 purify=.t. $end                                   
 INPUT CARD> $basis  gbasis=ccd $end                                                        
 INPUT CARD> $mcscf  cistep=gmcci fullnr=.t. finci=mos                                      
 INPUT CARD>         acurcy=1.d-6 maxit=100 $end                                            
 INPUT CARD> $trans  dirtrf=.t. $end                                                        
 INPUT CARD> $mrmp   mrpt=gmcpt rdvecs=.f. $end                                             
 INPUT CARD> $gmcpt  nmofzc=0 nmodoc=1 nmoact=7 nelact=7 stsym(1)=A                         
 INPUT CARD>         reftyp=ormas nspace=1 mstart(1)=2 mine(1)=7 maxe(1)=7                  
 INPUT CARD>         kstate(1)=1,1,1                                                        
 INPUT CARD>         wstate(1)=1,1,1                                                        
 INPUT CARD>         iwgt=0 thrwgt=-1.0 krot=.f. kszdoe=.f. knospn=.f.                      
 INPUT CARD>         thrde=-1.0 edshft=0.02 $end                                            
 INPUT CARD> $data                                                                          
 INPUT CARD> NH3+ 3 states calculation at NH3 structure.                                    
 INPUT CARD> c1                                                                             
 INPUT CARD>N 7.0 0.012457835999999996 0.012457805999999998 -0.1693805762                   
 INPUT CARD>H 1.0 -0.6435786139999999 0.7159673618000001 0.23713562610000002                
 INPUT CARD>H 1.0 -0.490727976 -0.7431213038000001 0.3285785801                             
 INPUT CARD>H 1.0 0.961201624 -0.14595149199999996 0.20366482410000003                      
 INPUT CARD>$end                                                                            
 INPUT CARD>--- OPTIMIZED RHF      MO-S --- GENERATED AT Mon Nov 14 16:47:08 2022           
 INPUT CARD>E=      -56.3825050291, E(NUC)=   11.8429239490                                 
 INPUT CARD> $VEC                                                                           
 INPUT CARD> 1  1-1.00134066E+00-2.25158504E-03 3.44925845E-03 0.00000000E+00 0.00000000E+00
 INPUT CARD> 1  2-2.13170927E-03 0.00000000E+00 0.00000000E+00 6.57129898E-04-6.87950443E-05
 INPUT CARD> 1  3-6.87950443E-05 1.37590089E-04 0.00000000E+00 0.00000000E+00 0.00000000E+00
 INPUT CARD> 1  4 3.25502815E-04-4.84772356E-04 3.62525460E-04-6.27912517E-04-3.45956485E-04
 INPUT CARD> 1  5 3.25502815E-04-4.84772356E-04 3.62525460E-04 6.27912517E-04-3.45956485E-04
 INPUT CARD> 1  6 3.25502815E-04-4.84772356E-04-7.25050921E-04 0.00000000E+00-3.45956485E-04
 INPUT CARD> 2  1 1.31286642E-02-4.05911371E-01-2.82090992E-01 0.00000000E+00 0.00000000E+00
 INPUT CARD> 2  2-7.71489043E-02 0.00000000E+00 0.00000000E+00 9.73717494E-03 6.62450916E-04
 INPUT CARD> 2  3 6.62450916E-04-1.32490183E-03 0.00000000E+00 0.00000000E+00 0.00000000E+00
 INPUT CARD> 2  4-1.96090317E-01-1.96656153E-02-1.74855877E-02 3.02859263E-02 8.68214399E-03
 INPUT CARD> 2  5-1.96090317E-01-1.96656153E-02-1.74855877E-02-3.02859263E-02 8.68214399E-03
 INPUT CARD> 2  6-1.96090317E-01-1.96656153E-02 3.49711754E-02 0.00000000E+00 8.68214399E-03
 INPUT CARD> 3  1 0.00000000E+00 0.00000000E+00 0.00000000E+00 4.48608762E-01 0.00000000E+00
 INPUT CARD> 3  2 0.00000000E+00 2.18692520E-01 0.00000000E+00 0.00000000E+00 1.30198027E-02
 INPUT CARD> 3  3-1.30198027E-02 0.00000000E+00 0.00000000E+00 2.71832968E-02 0.00000000E+00
 INPUT CARD> 3  4-1.85332726E-01-7.03958951E-02 8.47929477E-03 1.95242443E-02 8.32835058E-03
 INPUT CARD> 3  5-1.85332726E-01-7.03958951E-02 8.47929477E-03-1.95242443E-02 8.32835058E-03
 INPUT CARD> 3  6 3.70665453E-01 1.40791790E-01-2.53376884E-02 0.00000000E+00-1.66567012E-02
 INPUT CARD> 4  1 0.00000000E+00 0.00000000E+00 0.00000000E+00 0.00000000E+00 4.48608762E-01
 INPUT CARD> 4  2 0.00000000E+00 0.00000000E+00 2.18692520E-01 0.00000000E+00 0.00000000E+00
 INPUT CARD> 4  3 0.00000000E+00 0.00000000E+00-1.50339731E-02 0.00000000E+00 2.71832968E-02
 INPUT CARD> 4  4 3.21005698E-01 1.21929267E-01 1.95242443E-02-1.40653607E-02-1.44251263E-02
  100000000 WORDS OF MEMORY AVAILABLE

     BASIS OPTIONS
     -------------
     GBASIS=CCD          IGAUSS=       0      POLAR=NONE    
     NDFUNC=       0     NFFUNC=       0     DIFFSP=       F
     NPFUNC=       0      DIFFS=       F     BASNAM=        


     RUN TITLE
     ---------
  NH3+ 3 states calculation at NH3 structure.                                    

 THE POINT GROUP OF THE MOLECULE IS C1      
 THE ORDER OF THE PRINCIPAL AXIS IS     0

 ATOM      ATOMIC                      COORDINATES (BOHR)
           CHARGE         X                   Y                   Z
 N           7.0     0.0235418964        0.0235418397       -0.3200828767
 H           1.0    -1.2161872320        1.3529821300        0.4481213553
 H           1.0    -0.9273414091       -1.4042956398        0.6209234818
 H           1.0     1.8164076883       -0.2758083274        0.3848707109

          INTERNUCLEAR DISTANCES (ANGS.)
          ------------------------------

                1 N          2 H          3 H          4 H     

   1 N       0.0000000    1.0443012 *  1.0354029 *  1.0316836 *
   2 H       1.0443012 *  0.0000000    1.4699200 *  1.8219067 *
   3 H       1.0354029 *  1.4699200 *  0.0000000    1.5749015 *
   4 H       1.0316836 *  1.8219067 *  1.5749015 *  0.0000000  

  * ... LESS THAN  3.000


     ATOMIC BASIS SET
     ----------------
 THE CONTRACTED PRIMITIVE FUNCTIONS HAVE BEEN UNNORMALIZED
 THE CONTRACTED BASIS FUNCTIONS ARE NOW NORMALIZED TO UNITY

  SHELL TYPE  PRIMITIVE        EXPONENT          CONTRACTION COEFFICIENT(S)

 N         

      1   S       1          9046.0000000    0.000699617413
      1   S       2          1357.0000000    0.005386054630
      1   S       3           309.3000000    0.027391021189
      1   S       4            87.7300000    0.103150591982
      1   S       5            28.5600000    0.278570663317
      1   S       6            10.2100000    0.448294849454
      1   S       7             3.8380000    0.278085928395
      1   S       8             0.7466000    0.015431561233

      2   S       9          9046.0000000   -0.000304990096
      2   S      10          1357.0000000   -0.002408026379
      2   S      11           309.3000000   -0.011944448725
      2   S      12            87.7300000   -0.048925992909
      2   S      13            28.5600000   -0.134472724725
      2   S      14            10.2100000   -0.315112577700
      2   S      15             3.8380000   -0.242857832550
      2   S      16             0.7466000    1.094382206854

      3   S      17             0.2248000    1.000000000000

      4   P      18            13.5500000    0.058905676772
      4   P      19             2.9170000    0.320461106714
      4   P      20             0.7973000    0.753042061792

      5   P      21             0.2185000    1.000000000000

      6   D      22             0.8170000    1.000000000000

 H         

      7   S      23            13.0100000    0.033498726390
      7   S      24             1.9620000    0.234800801174
      7   S      25             0.4446000    0.813682957883

      8   S      26             0.1220000    1.000000000000

      9   P      27             0.7270000    1.000000000000

 H         

     10   S      28            13.0100000    0.033498726390
     10   S      29             1.9620000    0.234800801174
     10   S      30             0.4446000    0.813682957883

     11   S      31             0.1220000    1.000000000000

     12   P      32             0.7270000    1.000000000000

 H         

     13   S      33            13.0100000    0.033498726390
     13   S      34             1.9620000    0.234800801174
     13   S      35             0.4446000    0.813682957883

     14   S      36             0.1220000    1.000000000000

     15   P      37             0.7270000    1.000000000000

 TOTAL NUMBER OF BASIS SET SHELLS             =   15
 NUMBER OF CARTESIAN GAUSSIAN BASIS FUNCTIONS =   30
 NOTE: THIS RUN WILL RESTRICT THE MO VARIATION SPACE TO SPHERICAL HARMONICS.
 THE NUMBER OF ORBITALS KEPT IN THE VARIATIONAL SPACE WILL BE PRINTED LATER.
 NUMBER OF ELECTRONS                          =    9
 CHARGE OF MOLECULE                           =    1
 SPIN MULTIPLICITY                            =    2
 NUMBER OF OCCUPIED ORBITALS (ALPHA)          =    5
 NUMBER OF OCCUPIED ORBITALS (BETA )          =    4
 TOTAL NUMBER OF ATOMS                        =    4
 THE NUCLEAR REPULSION ENERGY IS       11.7016284168

     $CONTRL OPTIONS
     ---------------
 SCFTYP=MCSCF        RUNTYP=ENERGY       EXETYP=RUN     
 MPLEVL=       2     CITYP =NONE         CCTYP =NONE         VBTYP =NONE    
 DFTTYP=NONE         TDDFT =NONE    
 MULT  =       2     ICHARG=       1     NZVAR =       0     COORD =UNIQUE  
 PP    =NONE         RELWFN=NONE         LOCAL =NONE         NUMGRD=       F
 ISPHER=       1     NOSYM =       1     MAXIT =     200     UNITS =ANGS    
 PLTORB=       F     MOLPLT=       F     AIMPAC=       F     FRIEND=        
 NPRINT=       7     IREST =       0     GEOM  =INPUT   
 NORMF =       0     NORMP =       0     ITOL  =      20     ICUT  =       9
 INTTYP=RYSQUAD      GRDTYP=BEST         QMTTOL= 1.0E-05

     $SYSTEM OPTIONS
     ---------------
  REPLICATED MEMORY=   100000000 WORDS (ON EVERY NODE).
 DISTRIBUTED MEMDDI=        1000 MILLION WORDS IN AGGREGATE,
 MEMDDI DISTRIBUTED OVER   1 PROCESSORS IS  1000000000 WORDS/PROCESSOR.
 TOTAL MEMORY REQUESTED ON EACH PROCESSOR=  1100000000 WORDS.
 TIMLIM=      525600.00 MINUTES, OR     365.0 DAYS.
 PARALL= T  BALTYP=  DLB     KDIAG=    3  COREFL= F
 MXSEQ2=     300 MXSEQ3=     150  mem10=         0

          ----------------
          PROPERTIES INPUT
          ----------------

     MOMENTS            FIELD           POTENTIAL          DENSITY
 IEMOM =       1   IEFLD =       0   IEPOT =       0   IEDEN =       0
 WHERE =COMASS     WHERE =NUCLEI     WHERE =NUCLEI     WHERE =NUCLEI  
 OUTPUT=BOTH       OUTPUT=BOTH       OUTPUT=BOTH       OUTPUT=BOTH    
 IEMINT=       0   IEFINT=       0                     IEDINT=       0
                                                       MORB  =       0

     -------------------------------
     INTEGRAL TRANSFORMATION OPTIONS
     -------------------------------
     NWORD  =            0
     CUTOFF = 1.0E-09     MPTRAN =       0
     DIRTRF =       T     AOINTS =DUP     

          ----------------------
          MCSCF INPUT PARAMETERS
          ----------------------
 CONVERGER SELECTION: FOCAS = F  SOSCF = F  FULLNR = T  QUD = F  JACOBI = F
 SECULAR EQUATION METHOD CISTEP = GMCCI   
 --- GENERAL INPUT OPTIONS:
 MAXIT =     100  MICIT =       1  ACURCY= 1.000E-06
 DAMP  =   0.000  CANONC=       T  ENGTOL= 1.000E-10
 EKT   =       F  NPUNCH=       2  NWORD =         0
 REGENERATE CI AFTER CONVERGENCE = NONE    
 DIABATIZATION AFTER CONVERGENCE =        F
 --- INPUT FOR FULLNR CONVERGER:
 METHOD=DM2       FORS  =       F  DROPC =       T
 LINSER=       F  FCORE =       F  NORB  =      30

          ----------------------
          INTEGRAL INPUT OPTIONS
          ----------------------
 NOPK  =       1 NORDER=       0 SCHWRZ=       T

 ------------------------------------------
 MULTIREFERENCE PERTURBATION THEORY CONTROL
 ------------------------------------------
 MRPT=GMCPT    READ CONVERGED MCSCF VECTORS= F


     ------------------------------------------
     THE POINT GROUP IS C1 , NAXIS= 1, ORDER= 1
     ------------------------------------------

 -- VARIATIONAL SPACE WILL BE RESTRICTED TO PURE SPHERICAL HARMONICS ONLY --
 AFTER EXCLUDING CONTAMINANT COMBINATIONS FROM THE CARTESIAN GAUSSIAN BASIS
 SET, THE NUMBER OF SPHERICAL HARMONICS KEPT IN THE VARIATION SPACE IS   29

     DIMENSIONS OF THE SYMMETRY SUBSPACES ARE
 A   =   29

 ..... DONE SETTING UP THE RUN .....
 CPU     0: STEP CPU TIME=     0.04 TOTAL CPU TIME=          0.0 (      0.0 MIN)
 TOTAL WALL CLOCK TIME=          0.0 SECONDS, CPU UTILIZATION IS   100.00%

          ********************
          1 ELECTRON INTEGRALS
          ********************
 TIME TO DO   DIPOLE INTEGRALS=      0.00
 ...... END OF ONE-ELECTRON INTEGRALS ......
 CPU     0: STEP CPU TIME=     0.00 TOTAL CPU TIME=          0.0 (      0.0 MIN)
 TOTAL WALL CLOCK TIME=          0.1 SECONDS, CPU UTILIZATION IS    80.00%

          -------------
          GUESS OPTIONS
          -------------
          GUESS =MOREAD            NORB  =      29          NORDER=       0
          MIX   =       F          PRTMO =       F          PUNMO =       F
          TOLZ  = 1.0E-08          TOLE  = 1.0E-05
          SYMDEN=       F          PURIFY=       T

 INITIAL GUESS ORBITALS GENERATED BY MOREAD   ROUTINE.

 STATISTICS FOR GENERATION OF SYMMETRY ORBITAL -Q- MATRIX
 NUMBER OF CARTESIAN ATOMIC ORBITALS=         30
 NUMBER OF SPHERICAL CONTAMINANTS DROPPED=     1
 NUMBER OF LINEARLY DEPENDENT MOS DROPPED=     0
 TOTAL NUMBER OF MOS IN VARIATION SPACE=      29
 ORBITAL PURIFICATION WILL OCCUR

 SYMMETRIES FOR INITIAL GUESS ORBITALS FOLLOW.   BOTH SET(S).
     5 ORBITALS ARE OCCUPIED (    1 CORE ORBITALS).
     1=A        2=A        3=A        4=A        5=A        6=A        7=A   
     8=A        9=A       10=A       11=A       12=A       13=A       14=A   
    15=A       16=A       17=A       18=A       19=A       20=A       21=A   
    22=A       23=A       24=A       25=A       26=A       27=A       28=A   
    29=A   
 ...... END OF INITIAL ORBITAL SELECTION ......
 CPU     0: STEP CPU TIME=     0.01 TOTAL CPU TIME=          0.0 (      0.0 MIN)
 TOTAL WALL CLOCK TIME=          0.1 SECONDS, CPU UTILIZATION IS   100.00%

                    ----------------------
                    AO INTEGRAL TECHNOLOGY
                    ----------------------
     S,P,L SHELL ROTATED AXIS INTEGRALS, REPROGRAMMED BY
        KAZUYA ISHIMURA (IMS) AND JOSE SIERRA (SYNSTAR).
     S,P,D,L SHELL ROTATED AXIS INTEGRALS PROGRAMMED BY
        KAZUYA ISHIMURA (INSTITUTE FOR MOLECULAR SCIENCE).
     S,P,D,F,G SHELL TO TOTAL QUARTET ANGULAR MOMENTUM SUM 5,
        ERIC PROGRAM BY GRAHAM FLETCHER (ELORET AND NASA ADVANCED
        SUPERCOMPUTING DIVISION, AMES RESEARCH CENTER).
     S,P,D,F,G,L SHELL GENERAL RYS QUADRATURE PROGRAMMED BY
        MICHEL DUPUIS (PACIFIC NORTHWEST NATIONAL LABORATORY).

          --------------------
          2 ELECTRON INTEGRALS
          --------------------

 DIRECT SCF METHOD SKIPS INTEGRAL STORAGE ON DISK.
 DIRECT TRANSFORMATION SKIPS AO INTEGRAL STORAGE ON DISK.
  ...... END OF TWO-ELECTRON INTEGRALS .....
 STEP CPU TIME =     0.02 TOTAL CPU TIME =          0.1 (      0.0 MIN)
 TOTAL WALL CLOCK TIME=          0.1 SECONDS, CPU UTILIZATION IS   100.00%
 DDI: Creating Array [0] - 900 x 36 = 32400 words.
 DDI: Creating Array [1] - 21 x 288 = 6048 words.
 DDI: Creating Array [2] - 36 x 36 = 1296 words.
 DDI: Creating Array [3] - 465 x 36 = 16740 words.

          -----------------
          MCSCF CALCULATION
          -----------------

 ----- NUCLEAR ENERGY ----- =        11.7016284168

     -------------------------------------------------
     GMC-PT/GMC-QDPT or general MCSCF input parameters
     -------------------------------------------------
 # of frozen core orbs. =         0 ->         0
 # of doubly occ. orbs. =         1
 # of active      orbs. =         7
 # of virtual     orbs. =        21
 # of active electrons  =         7
 # of states in CI      =         3
 Highest state in CI    =         3
 kstate =  1 1 1
 avecoe =  0.333 0.333 0.333
 State symmetry           = A           
 Assigned symmetry number = 1

 <<<Act. MO sym.: 1111111

 <<<Division of 1-ext.:  0
 <<<Division of 2-ext.:  0

 *** Reference space

 Reference type: ORMAS (= Occupation restricted multiple active space)
 # of orbitals          =  7
 # of minimum electrons =  7
 # of maximum electrons =  7
 State symmetry    =    1 (input)
 2*Sz              =    1 (input)
 Spin multiplicity =    2 (input)
 Dimension of reference space =      1225  (from      3432 walks)

 Dimension of reference space =      1225  (from      1225 walks)

 <<<Ionized spaces for Ref-CI:
      0:         1225 /   -1-0:         1960 /  0-1-0:         2891

 EVALUATING EXCHANGE INTEGRALS FOR DIRECT INTEGRAL TRANSFORMATION
 SCHWARZ INEQUALITY OVERHEAD:       465 INTEGRALS, T=        0.00

     --------------------------------------------
     PARTIAL TWO ELECTRON INTEGRAL TRANSFORMATION
     --------------------------------------------

 NUMBER OF CORE MOLECULAR ORBITALS     =    1
 NUMBER OF OCCUPIED MOLECULAR ORBITALS =    8
 TOTAL NUMBER OF MOLECULAR ORBITALS    =   29
 TOTAL NUMBER OF ATOMIC ORBITALS       =   30
 THRESHOLD FOR KEEPING TRANSFORMED 2E- INTEGRALS = 1.000E-09

 -------------------------------     ------------------------------
 DISTRIBUTED DATA TRANSFORMATION     PROGRAM WRITTEN BY G. FLETCHER
 -------------------------------     ------------------------------

 THE DISTRIBUTED MEMORY REQUIRED FOR THIS STEP IS MEMDDI=         1 MWORDS
 CREATING DISTRIBUTED STORAGE FOR [VIR OCC|VIR OCC] INTEGRALS
 CREATING DISTRIBUTED STORAGE FOR [VIR OCC|OCC OCC] INTEGRALS
 CREATING DISTRIBUTED STORAGE FOR [OCC OCC|OCC OCC] INTEGRALS
 CREATING DISTRIBUTED STORAGE FOR [VIR VIR|OCC OCC] INTEGRALS
 FOR    1 PROCESSORS, THE REPLICATED MEMORY NEEDED IS       73700 WORDS.
 SCHWARZ INEQUALITY OVERHEAD:       465 INTEGRALS, T=        0.00

      DIRECT 4-INDEX TRANSFORMATION 
      SCHWARZ INEQUALITY TEST SKIPPED          0 INTEGRAL BLOCKS
 ----- FROZEN CORE ENERGY =       -47.7935977260
 ... END OF INTEGRAL TRANSFORMATION ...
 CPU     0: STEP CPU TIME=     0.22 TOTAL CPU TIME=          0.3 (      0.0 MIN)
 TOTAL WALL CLOCK TIME=          0.3 SECONDS, CPU UTILIZATION IS   100.00%

     --------------------------------     -----------------------------
     MCHF NEWTON-RAPHSON OPTIMIZATION     CODE WRITTEN BY MICHEL DUPUIS
     --------------------------------     -----------------------------
     PARALLEL VERSION WRITTEN BY G. FLETCHER (ELORET)
     NASA ADVANCED SUPERCOMPUTING DIVISION, AMES RESEARCH CENTER

 NUMBER OF INDEPENDENT ORBITAL ROTATION PARAMETERS =   175
 ..... DONE SOLVING NEWTON-RAPHSON EQUATIONS .....
 CPU     0: STEP CPU TIME=     0.92 TOTAL CPU TIME=          1.2 (      0.0 MIN)
 TOTAL WALL CLOCK TIME=          1.2 SECONDS, CPU UTILIZATION IS    98.37%
 ..... DONE WITH NTN-RPH ORBITAL ROTATIONS ..... 
 CPU     0: STEP CPU TIME=     0.00 TOTAL CPU TIME=          1.2 (      0.0 MIN)
 TOTAL WALL CLOCK TIME=          1.2 SECONDS, CPU UTILIZATION IS    98.37%
 MAXIMUM MEMORY USED BY NTN-RPH CODE WAS     57645 WORDS.

 ITER     TOTAL ENERGY      DEL(E)  LAGRANGIAN ASYMMETRY   SQCDF  MICIT   DAMP
   1      -55.675323182 -0.675323182  0.133191   13    3 1.654E-01  1   0.0000
   2      -55.712650138 -0.037326956  0.024385   12    5 4.515E-01  1   0.0000
   3      -55.744834224 -0.032184086  0.012233   12    5 2.111E-01  1   0.0260
   4      -55.758170262 -0.013336037  0.004106   11    6 3.709E-02  1   0.0045
   5      -55.759773050 -0.001602789  0.000731   12    5 1.057E-03  1   0.0000
   6      -55.759819536 -0.000046485  0.000241   12    5 8.287E-05  1   0.0000
   7      -55.759823985 -0.000004449  0.000108   12    5 1.131E-05  1   0.0000
   8      -55.759824638 -0.000000653  0.000047   12    5 1.729E-06  1   0.0000
   9      -55.759824742 -0.000000104  0.000020   12    5 2.944E-07  1   0.0000
  10      -55.759824761 -0.000000018  0.000008   12    5 5.455E-08  1   0.0000
  11      -55.759824764 -0.000000004  0.000003   12    5 1.189E-08  1   0.0000
  12      -55.759824765 -0.000000001  0.000002   12    8 2.948E-09  1   0.0000
  13      -55.759824765 -0.000000000  0.000001   12    8 8.166E-10  1   0.0000

          --------------------
          LAGRANGIAN CONVERGED
          --------------------

 FINAL MCSCF ENERGY IS      -55.7598247651 AFTER  13 ITERATIONS

 -MCCI- BASED ON OPTIMIZED ORBITALS
 ----------------------------------

 PLEASE NOTE: IF THE ACTIVE ORBITALS ARE CANONICALIZED BELOW,
 THE FOLLOWING CI EXPANSION COEFFICIENTS AND THE DENSITY DO NOT
 CORRESPOND TO THE PRINTED ORBITALS.  THE PRINTED EXPANSIONS MATCH
 THE ORBITALS USED DURING THE LAST ITERATION.  IF YOU WISH TO SEE
 CI EXPANSIONS BASED ON THE CANONICAL (OR NATURAL) ORBITALS, YOU
 MUST RUN A CI CALCULATION WITH THAT ORBITAL CHOICE READ IN $VEC.

 Averaged energy =     -55.759824765

 State #    1  Energy =     -55.902083881  S =  0.500

      Det      Coef    Occupancy (Ignoring core)
      ---      ----    --------- --------- -----
        1   -0.948447  11110001110000
        2   -0.055620  11101001110000
        5    0.060532  01111001110000
        8    0.131692  10110101110000
       17    0.123251  11010011110000
       36    0.085952  11110001101000
       71   -0.059276  11110001011000
      386   -0.107404  11110001010010
      393   -0.052884  10110101010010
      701   -0.092680  11110001100001
      717   -0.066739  11010011100001

 State #    2  Energy =     -55.727899047  S =  0.500

      Det      Coef    Occupancy (Ignoring core)
      ---      ----    --------- --------- -----
        1    0.097562  11110001110000
       36    0.914624  11110001101000
       40   -0.052272  01111001101000
       43   -0.092155  10110101101000
       52   -0.060922  11010011101000
       71   -0.305053  11110001011000
      281    0.053013  11110000101100
      456    0.095629  11110001001010
      463    0.054007  10110101001010

 State #    3  Energy =     -55.649491367  S =  0.500

      Det      Coef    Occupancy (Ignoring core)
      ---      ----    --------- --------- -----
       36   -0.310288  11110001101000
       71   -0.919386  11110001011000
       78    0.062971  10110101011000
       87    0.075217  11010011011000
      316   -0.061961  11110000011100
      806    0.088713  11110001001001
      822    0.067543  11010011001001

 DENSITY MATRIX OVER ACTIVE MO-S

             1           2           3           4           5

    1    1.9794900
    2   -0.0051143   1.6366119
    3   -0.0072832   0.0002181   1.6369255
    4    0.0033651  -0.0004449  -0.0009552   1.6555495
    5    0.0947822   0.0048302   0.0083912   0.0430405   0.0242514
    6    0.0028093  -0.1492302   0.0069652  -0.0085075  -0.0008010
    7   -0.0007573  -0.0047091   0.1315013   0.0127441   0.0020272

             6           7

    6    0.0331958
    7   -0.0006668   0.0339758

 FORMING THE "STANDARD FOCK OPERATOR" IN DIRECT AO INTEGRAL MODE...
 ONLY THE    1 CORE AND   21 VIRTUAL ORBITALS WILL BE CANONICALIZED

          ----------------------
          MCSCF NATURAL ORBITALS
          ----------------------

                      1          2          3          4          5
                  -15.9869     1.9844     1.6568     1.6506     1.6473
                     A          A          A          A          A   
    1  N  1  S    1.001324   0.008599  -0.011168   0.000645   0.001463
    2  N  1  S   -0.001784   0.438922  -0.181049   0.025536   0.042538
    3  N  1  S   -0.006378   0.285297  -0.284744   0.035677   0.062917
    4  N  1  X    0.000032  -0.014376   0.057571   0.465133   0.159231
    5  N  1  Y   -0.000004  -0.017209   0.038251  -0.153305   0.489349
    6  N  1  Z    0.001159   0.097195   0.592749  -0.035089  -0.029622
    7  N  1  X   -0.000031   0.002111   0.037026   0.175347   0.076390
    8  N  1  Y   -0.000043   0.003269   0.032667  -0.056847   0.231218
    9  N  1  Z   -0.000436   0.005219   0.382742  -0.016001  -0.002621
   10  N  1 XX    0.000259   0.000078  -0.011598   0.007333   0.005865
   11  N  1 YY   -0.000075  -0.001230  -0.012745  -0.005643  -0.004340
   12  N  1 ZZ   -0.000184   0.001152   0.024343  -0.001691  -0.001525
   13  N  1 XY   -0.000179  -0.000362  -0.000559   0.000994  -0.014151
   14  N  1 XZ   -0.000063  -0.000834   0.001256   0.022835   0.008368
   15  N  1 YZ   -0.000080  -0.000499  -0.000107  -0.006988   0.024601
   16  H  2  S   -0.002001   0.186896   0.099333  -0.299392   0.227185
   17  H  2  S    0.000490   0.001535   0.025300  -0.037785   0.041636
   18  H  2  X   -0.000636   0.023405   0.010570  -0.009839   0.025236
   19  H  2  Y    0.000787  -0.027329  -0.011857   0.029193  -0.002929
   20  H  2  Z    0.000436  -0.007813   0.019661   0.012614  -0.011564
   21  H  3  S   -0.002016   0.205958   0.090014  -0.091080  -0.372464
   22  H  3  S    0.000360   0.006748   0.020728  -0.011550  -0.066171
   23  H  3  X   -0.000519   0.019956   0.009858   0.014425  -0.019772
   24  H  3  Y   -0.000801   0.029888   0.014982  -0.017979  -0.021579
   25  H  3  Z    0.000476  -0.012922   0.019797   0.003494   0.019220
   26  H  4  S   -0.002070   0.184745   0.130505   0.354231   0.093503
   27  H  4  S    0.000550   0.001049   0.028087   0.043016   0.018058
   28  H  4  X    0.001056  -0.036622  -0.017955  -0.033063  -0.003506
   29  H  4  Y   -0.000116   0.004371   0.002734   0.000695   0.020635
   30  H  4  Z    0.000421  -0.006340   0.018124  -0.017171  -0.005317

                      6          7          8
                    0.0239     0.0188     0.0183
                     A          A          A   
    1  N  1  S    0.072467  -0.024117   0.251936
    2  N  1  S    0.223116  -0.086539   0.799434
    3  N  1  S   -0.014008  -0.047524   0.154066
    4  N  1  X    0.307619   0.885427   0.044286
    5  N  1  Y    0.783520  -0.319220  -0.252123
    6  N  1  Z    0.077932  -0.123333   0.673998
    7  N  1  X    0.004727   0.071458  -0.017056
    8  N  1  Y    0.010709  -0.019432  -0.036615
    9  N  1  Z   -0.020495   0.012184  -0.100676
   10  N  1 XX   -0.015208   0.020336  -0.007301
   11  N  1 YY    0.014086  -0.023651   0.016092
   12  N  1 ZZ    0.001122   0.003315  -0.008791
   13  N  1 XY    0.029750   0.010188   0.014352
   14  N  1 XZ   -0.007864  -0.050407   0.011595
   15  N  1 YZ   -0.023799   0.015762   0.025896
   16  H  2  S   -0.536141   0.622626  -0.313753
   17  H  2  S   -0.100273   0.114628  -0.019298
   18  H  2  X   -0.046372   0.026158  -0.029756
   19  H  2  Y    0.027802  -0.057414   0.046506
   20  H  2  Z    0.006735   0.009528  -0.013456
   21  H  3  S    0.602712   0.199747  -0.611866
   22  H  3  S    0.133380   0.029977  -0.079489
   23  H  3  X    0.024806  -0.019128  -0.045911
   24  H  3  Y    0.031068   0.035966  -0.066647
   25  H  3  Z   -0.013445   0.003242  -0.007822
   26  H  4  S   -0.361898  -0.595497  -0.560101
   27  H  4  S   -0.060436  -0.117442  -0.064309
   28  H  4  X    0.032890   0.051545   0.077461
   29  H  4  Y   -0.021500  -0.000688  -0.002598
   30  H  4  Z    0.004272  -0.004426  -0.013397

          ------------------------
          MCSCF OPTIMIZED ORBITALS
          ------------------------

                      1          2          3          4          5
                  -15.9869     0.0000     0.0000     0.0000     0.0000
                     A          A          A          A          A   
    1  N  1  S    1.001324  -0.003788  -0.002967  -0.001933  -0.018196
    2  N  1  S   -0.001784   0.402377   0.007624   0.010058  -0.199452
    3  N  1  S   -0.006378   0.283748   0.028789   0.035899  -0.288177
    4  N  1  X    0.000032  -0.003694   0.406263   0.024511   0.015468
    5  N  1  Y   -0.000004  -0.005201   0.004464   0.440857   0.014808
    6  N  1  Z    0.001159   0.053373   0.001517   0.000397   0.578348
    7  N  1  X   -0.000031   0.006486   0.185132   0.025304   0.022219
    8  N  1  Y   -0.000043   0.009307   0.015752   0.235985   0.024021
    9  N  1  Z   -0.000436   0.003906   0.013417   0.015724   0.385158
   10  N  1 XX    0.000259   0.001131   0.006531   0.004719  -0.011910
   11  N  1 YY   -0.000075  -0.002271  -0.006087  -0.004460  -0.012745
   12  N  1 ZZ   -0.000184   0.001140  -0.000445  -0.000258   0.024655
   13  N  1 XY   -0.000179  -0.001528  -0.005012  -0.015511  -0.000583
   14  N  1 XZ   -0.000063  -0.001347   0.028655   0.000751  -0.000905
   15  N  1 YZ   -0.000080  -0.000820  -0.000666   0.028078  -0.001303
   16  H  2  S   -0.002001   0.212546  -0.250542   0.356186   0.124190
   17  H  2  S    0.000490   0.004584  -0.029088   0.061991   0.027335
   18  H  2  X   -0.000636   0.025747  -0.002340   0.030595   0.011536
   19  H  2  Y    0.000787  -0.029808   0.030080  -0.014141  -0.015521
   20  H  2  Z    0.000436  -0.007619   0.009457  -0.014217   0.019552
   21  H  3  S   -0.002016   0.219223  -0.215800  -0.377839   0.125955
   22  H  3  S    0.000360   0.007483  -0.033755  -0.069398   0.025235
   23  H  3  X   -0.000519   0.021175   0.010056  -0.026120   0.011065
   24  H  3  Y   -0.000801   0.032054  -0.025750  -0.017704   0.018957
   25  H  3  Z    0.000476  -0.012198   0.010656   0.019266   0.018603
   26  H  4  S   -0.002070   0.212054   0.439227  -0.010136   0.123232
   27  H  4  S    0.000550   0.003939   0.060814   0.005971   0.026493
   28  H  4  X    0.001056  -0.040122  -0.039585   0.006421  -0.018461
   29  H  4  Y   -0.000116   0.005136   0.007361   0.021033   0.001971
   30  H  4  Z    0.000421  -0.006366  -0.015967  -0.000026   0.019565

                      6          7          8          9         10
                    0.0000     0.0000     0.0000     0.1544     0.1995
                     A          A          A          A          A   
    1  N  1  S    0.261385   0.024287   0.015366  -0.158945  -0.013359
    2  N  1  S    0.846182   0.065610   0.045607  -0.246465  -0.026058
    3  N  1  S    0.160843  -0.034632  -0.033902   1.570570   0.073045
    4  N  1  X   -0.040059   0.978908   0.005066   0.016972   0.096532
    5  N  1  Y   -0.039939  -0.064199   0.918563   0.021832  -0.039037
    6  N  1  Z    0.706152  -0.025089  -0.042992  -0.236278  -0.028195
    7  N  1  X   -0.025601   0.084458  -0.011763  -0.073939  -0.707287
    8  N  1  Y   -0.027876  -0.017554   0.043792  -0.072048   0.110903
    9  N  1  Z   -0.093105  -0.001440   0.005084   0.546993   0.077166
   10  N  1 XX   -0.013502   0.013946  -0.018330   0.054439  -0.062348
   11  N  1 YY    0.021650  -0.016723   0.016075  -0.007869   0.057080
   12  N  1 ZZ   -0.008148   0.002777   0.002255  -0.046570   0.005268
   13  N  1 XY    0.017775   0.020453   0.019847  -0.032962   0.011281
   14  N  1 XZ    0.017915  -0.046439   0.005383  -0.023672  -0.106598
   15  N  1 YZ    0.018067   0.009121  -0.030642  -0.024903   0.010019
   16  H  2  S   -0.493257   0.355020  -0.583111   0.291897   0.240249
   17  H  2  S   -0.055335   0.070034  -0.118095  -0.923886  -0.953734
   18  H  2  X   -0.040274   0.006136  -0.041425  -0.084709  -0.017787
   19  H  2  Y    0.057900  -0.037781   0.031087   0.065991   0.061015
   20  H  2  Z   -0.013204   0.011034   0.005442   0.022706   0.062441
   21  H  3  S   -0.498965   0.315075   0.611223   0.164746   0.269112
   22  H  3  S   -0.055829   0.062731   0.127648  -0.703309  -0.967727
   23  H  3  X   -0.035454  -0.012918   0.037489  -0.067185   0.000412
   24  H  3  Y   -0.062629   0.035890   0.032146  -0.073365  -0.053890
   25  H  3  Z   -0.010650  -0.001135  -0.009935   0.047536   0.041566
   26  H  4  S   -0.501022  -0.692768  -0.023604   0.306210  -0.537120
   27  H  4  S   -0.053778  -0.131084  -0.004562  -0.918254   1.877813
   28  H  4  X    0.070534   0.062974  -0.002881   0.110744  -0.092371
   29  H  4  Y   -0.006090  -0.007465  -0.017398  -0.020691   0.014140
   30  H  4  Z   -0.011298  -0.005345   0.008640   0.008620  -0.075550

                     11         12         13         14         15
                    0.2033     0.5417     0.5852     0.6259     0.8123
                     A          A          A          A          A   
    1  N  1  S    0.024075  -0.043812   0.006540   0.097387   0.108314
    2  N  1  S    0.045168  -0.040064   0.062027   0.351793   0.245057
    3  N  1  S   -0.168667   0.376850   0.178634   0.128247  -0.475138
    4  N  1  X    0.035344  -0.292081  -0.355030   0.213193  -0.087313
    5  N  1  Y   -0.028272  -0.505405   0.313393   0.059636   0.039693
    6  N  1  Z    0.040864  -0.293467  -0.206515  -0.595038  -0.080491
    7  N  1  X   -0.083842   0.844763   1.415197  -0.998725   0.553118
    8  N  1  Y    0.518825   1.336120  -1.141659  -0.269881  -0.242654
    9  N  1  Z   -0.111562   0.390257   0.340644   1.009436  -0.013724
   10  N  1 XX    0.011530  -0.006568  -0.054385  -0.037762   0.117929
   11  N  1 YY   -0.008573  -0.007869   0.034733  -0.027198  -0.142433
   12  N  1 ZZ   -0.002957   0.014437   0.019652   0.064960   0.024504
   13  N  1 XY   -0.091659  -0.014726  -0.021326   0.018120   0.067766
   14  N  1 XZ   -0.004508   0.021256   0.007674   0.027853  -0.120888
   15  N  1 YZ    0.087049   0.034168  -0.001419   0.017344   0.058509
   16  H  2  S    0.503587  -0.350766   0.480087  -0.589351   0.132997
   17  H  2  S   -1.656333  -0.535832   0.811521   0.043558   0.273343
   18  H  2  X   -0.053992  -0.007437   0.189109  -0.017726  -0.100137
   19  H  2  Y    0.042205   0.066404  -0.024674   0.004188  -0.413274
   20  H  2  Z    0.043401   0.073526  -0.009197   0.023396   0.244842
   21  H  3  S   -0.533408   0.287676  -0.239224  -0.748217   0.017635
   22  H  3  S    1.846660   0.952399  -0.184682  -0.281474   0.096939
   23  H  3  X    0.059917   0.087751   0.074396  -0.013653  -0.363031
   24  H  3  Y    0.064980   0.083860  -0.057941  -0.030219   0.343938
   25  H  3  Z   -0.054969  -0.077457   0.037115   0.040412   0.040032
   26  H  4  S    0.047269  -0.419025  -0.722419  -0.092297  -0.110909
   27  H  4  S   -0.039328  -0.540299  -0.610971   0.566711  -0.103749
   28  H  4  X   -0.021552   0.069867   0.099956  -0.120889   0.186467
   29  H  4  Y   -0.039237   0.019800  -0.125156   0.035457   0.188335
   30  H  4  Z   -0.016944   0.068213   0.033075   0.066111  -0.275173

                     16         17         18         19         20
                    0.9612     0.9845     1.3268     1.4816     1.5328
                     A          A          A          A          A   
    1  N  1  S   -0.546546  -0.136952  -0.010479  -0.566328  -0.227714
    2  N  1  S   -1.161239  -0.290700  -0.021506  -1.168717  -0.457258
    3  N  1  S    2.352516   0.746337   0.035850   2.193002   1.043641
    4  N  1  X    0.038527   0.013487  -0.150291   0.004423  -0.034864
    5  N  1  Y    0.038617   0.057409   0.109404   0.006262  -0.103999
    6  N  1  Z    0.173798   0.056380  -0.003483  -0.029227   0.013374
    7  N  1  X   -0.164226  -0.111521   0.635323   0.269166  -0.764738
    8  N  1  Y   -0.185274  -0.399034  -0.373312   0.037067  -0.338322
    9  N  1  Z   -0.046168   0.250739   0.003125   0.901699   0.486843
   10  N  1 XX   -0.086971  -0.003521   0.053131   0.138325   0.031352
   11  N  1 YY   -0.125862   0.081417  -0.049129   0.136998  -0.004471
   12  N  1 ZZ    0.212833  -0.077896  -0.004003  -0.275322  -0.026881
   13  N  1 XY   -0.003741   0.160965   0.037008  -0.005215  -0.011354
   14  N  1 XZ    0.015527   0.073530   0.002974  -0.017191   0.084391
   15  N  1 YZ    0.032914   0.222169  -0.011407  -0.003804   0.103663
   16  H  2  S   -0.335882  -0.029428   0.331973  -0.548727  -0.403601
   17  H  2  S   -0.306008  -0.015057   0.127492  -0.139194  -0.061108
   18  H  2  X    0.005350   0.228097  -0.604140  -0.253123   0.242892
   19  H  2  Y   -0.066793   0.199557  -0.197077  -0.196235   0.203468
   20  H  2  Z    0.345072   0.196565  -0.303613  -0.435572  -0.221728
   21  H  3  S   -0.426117  -0.225963  -0.015756  -0.549647  -0.487241
   22  H  3  S   -0.340252  -0.226736   0.004311  -0.169443  -0.323823
   23  H  3  X    0.011572  -0.252996   0.256444  -0.259760   0.284069
   24  H  3  Y    0.101860  -0.271149  -0.103863   0.001391  -0.173757
   25  H  3  Z    0.302923  -0.460307   0.008025  -0.353264   0.507284
   26  H  4  S   -0.293853  -0.093817  -0.329604  -0.711446  -0.028418
   27  H  4  S   -0.318997  -0.082270  -0.147747  -0.250923   0.112376
   28  H  4  X   -0.023653   0.128844  -0.107638  -0.093678   0.235029
   29  H  4  Y    0.014144   0.414498   0.629298  -0.323456   0.412952
   30  H  4  Z    0.307727   0.067611   0.278697  -0.252390  -0.729790

                     21         22         23         24         25
                    1.5956     1.8317     1.8817     2.0486     2.2195
                     A          A          A          A          A   
    1  N  1  S   -0.044390  -0.091128  -0.009284   0.085933   0.121349
    2  N  1  S   -0.093461  -0.177208  -0.010942   0.300047   0.256142
    3  N  1  S    0.118826   0.492235   0.075928   1.771452  -0.204129
    4  N  1  X    0.044231   0.271379  -0.543060  -0.042185  -0.096180
    5  N  1  Y    0.143113   0.337857   0.288471  -0.071225  -0.039524
    6  N  1  Z   -0.016379  -0.029634   0.019059   0.366606   0.046320
    7  N  1  X   -0.577083  -0.037629  -0.068923   0.097908   0.061847
    8  N  1  Y    0.658314  -0.218576   0.003111   0.160397   0.133242
    9  N  1  Z    0.039101   0.187664   0.043546   0.744277  -0.403964
   10  N  1 XX    0.022546  -0.065943   0.198870  -0.216478  -0.017077
   11  N  1 YY    0.042822   0.175489  -0.236589  -0.096874   0.769242
   12  N  1 ZZ   -0.065368  -0.109547   0.037719   0.313353  -0.752165
   13  N  1 XY    0.020909   0.203847   0.142372   0.077115   0.306043
   14  N  1 XZ    0.033190  -0.080730   0.156847   0.062281   0.351373
   15  N  1 YZ   -0.148729  -0.097161  -0.098324   0.150911   0.383698
   16  H  2  S   -0.313019  -0.042983   0.017337  -0.495803   0.056287
   17  H  2  S   -0.285367  -0.260291  -0.378233  -0.322177  -0.039095
   18  H  2  X   -0.240322  -0.160769  -0.309305  -0.785444  -0.280570
   19  H  2  Y   -0.298635   0.499526   0.703711   0.362463  -0.211600
   20  H  2  Z    0.637828  -0.085426   0.343699  -0.067471   0.333702
   21  H  3  S   -0.018640  -0.291205  -0.026389  -0.450242   0.119136
   22  H  3  S    0.163397   0.394525   0.013742  -0.185559  -0.025053
   23  H  3  X    0.668810   0.301806  -0.131777  -0.418983  -0.038361
   24  H  3  Y   -0.313974   0.800442   0.101147  -0.565562   0.141253
   25  H  3  Z   -0.366003  -0.188475   0.025694   0.140002   0.676051
   26  H  4  S    0.231871  -0.070635  -0.049616  -0.506577   0.092294
   27  H  4  S    0.098829  -0.301164   0.333584  -0.348304   0.046769
   28  H  4  X    0.105467   0.514484  -0.666675   0.786208  -0.111869
   29  H  4  Y   -0.194560   0.023849  -0.064787  -0.399716  -0.199872
   30  H  4  Z   -0.336977   0.068664  -0.390939  -0.099814   0.164446

                     26         27         28         29
                    2.3575     2.5398     2.7492     2.9697
                     A          A          A          A   
    1  N  1  S    0.025426  -0.025410   0.024380  -0.029724
    2  N  1  S    0.032284   0.092104   0.050456  -0.097341
    3  N  1  S   -0.361200   2.143695   0.032288  -0.416647
    4  N  1  X    0.104534  -0.080773   0.569951  -0.299662
    5  N  1  Y   -0.023273  -0.171418  -0.295658  -0.508834
    6  N  1  Z   -0.044125   0.329392   0.010787  -0.042915
    7  N  1  X   -0.108908  -0.411382   1.309016  -0.497466
    8  N  1  Y    0.310189  -0.495934  -0.661168  -0.832548
    9  N  1  Z   -0.156028   0.491318  -0.026524   0.039068
   10  N  1 XX    0.639891   0.726872   0.565273  -0.704149
   11  N  1 YY   -0.622168   0.003079  -0.519898   0.401482
   12  N  1 ZZ   -0.017723  -0.729951  -0.045375   0.302667
   13  N  1 XY    0.642798  -0.134427   0.367150   1.179685
   14  N  1 XZ   -0.336166  -0.539517   1.073514  -0.399179
   15  N  1 YZ    0.563201  -0.576256  -0.555704  -0.726588
   16  H  2  S    0.053303  -0.630772   1.127994   0.841206
   17  H  2  S    0.014458  -0.111934   0.445411   0.281195
   18  H  2  X    0.189914   0.023333   0.579643   0.467875
   19  H  2  Y    0.034007   0.483969  -0.570656  -0.520596
   20  H  2  Z   -0.296653   0.370901  -0.242503  -0.409682
   21  H  3  S    0.193025  -1.117867   0.049807  -1.174942
   22  H  3  S    0.112776  -0.448486   0.004880  -0.410588
   23  H  3  X    0.570828  -0.319298  -0.136060  -0.499590
   24  H  3  Y   -0.162814  -0.664941   0.083139  -0.721671
   25  H  3  Z    0.076534   0.461303   0.018545   0.479421
   26  H  4  S    0.102651  -0.600184  -1.211448   0.820231
   27  H  4  S   -0.001729  -0.119029  -0.474122   0.262763
   28  H  4  X   -0.071505   0.432685   0.872889  -0.642857
   29  H  4  Y   -0.519662   0.151493  -0.176464   0.075234
   30  H  4  Z    0.247286   0.478652   0.244648  -0.366060
 .....DONE WITH MCSCF ITERATIONS.....
 CPU     0: STEP CPU TIME=     7.98 TOTAL CPU TIME=          9.2 (      0.2 MIN)
 TOTAL WALL CLOCK TIME=          9.2 SECONDS, CPU UTILIZATION IS    99.89%

     ----------------------------------------------------------------
     PROPERTY VALUES FOR THE MCSCF SELF-CONSISTENT FIELD WAVEFUNCTION
     ----------------------------------------------------------------

          -----------------
          ENERGY COMPONENTS
          -----------------

         WAVEFUNCTION NORMALIZATION =       1.0000000000

                ONE ELECTRON ENERGY =     -94.8121043272
                TWO ELECTRON ENERGY =      27.3506511454
           NUCLEAR REPULSION ENERGY =      11.7016284168
                                      ------------------
                       TOTAL ENERGY =     -55.7598247651

 ELECTRON-ELECTRON POTENTIAL ENERGY =      27.3506511454
  NUCLEUS-ELECTRON POTENTIAL ENERGY =    -150.7225896562
   NUCLEUS-NUCLEUS POTENTIAL ENERGY =      11.7016284168
                                      ------------------
             TOTAL POTENTIAL ENERGY =    -111.6703100940
               TOTAL KINETIC ENERGY =      55.9104853290
                 VIRIAL RATIO (V/T) =       1.9973053254

          ---------------------------------------
          MULLIKEN AND LOWDIN POPULATION ANALYSES
          ---------------------------------------

     ATOMIC MULLIKEN POPULATION IN EACH MOLECULAR ORBITAL

                      1          2          3          4          5

                  2.000000   1.984385   1.656779   1.650563   1.647295

    1             2.001012   1.299189   1.544091   0.931678   1.043732
    2            -0.000321   0.215112   0.031701   0.284971   0.163005
    3            -0.000346   0.260647   0.031179   0.034504   0.405753
    4            -0.000345   0.209437   0.049807   0.399410   0.034806

                      6          7          8

                  0.023931   0.018785   0.018262

    1             0.011845   0.010088   0.009766
    2             0.004543   0.004358   0.001067
    3             0.005476   0.000459   0.004030
    4             0.002067   0.003880   0.003400
 WARNING! MCSCF POPULATIONS SHOWN ABOVE ARE FOR THE NATURAL ORBITALS.
 IGNORE THE ABOVE DATA FOR MCSCF FUNCTIONS WHICH ARE NOT OF -FORS- TYPE.
 THE FOLLOWING POPULATIONS ARE CORRECT FOR ANY MCSCF WAVEFUNCTION.

               ----- POPULATIONS IN EACH AO -----
                             MULLIKEN      LOWDIN
              1  N  1  S      2.00274     1.89411
              2  N  1  S      0.82748     0.57619
              3  N  1  S      0.62072     0.38996
              4  N  1  X      0.67774     0.59819
              5  N  1  Y      0.70386     0.63564
              6  N  1  Z      0.88826     0.82967
              7  N  1  X      0.26849     0.38105
              8  N  1  Y      0.32618     0.40763
              9  N  1  Z      0.51687     0.55392
             10  N  1 XX      0.00056     0.17548
             11  N  1 YY      0.00179     0.15851
             12  N  1 ZZ      0.00375     0.14197
             13  N  1 XY      0.00664     0.01283
             14  N  1 XZ      0.00633     0.01294
             15  N  1 YZ      0.00000     0.01135
             16  H  2  S      0.61145     0.47390
             17  H  2  S      0.03498     0.14229
             18  H  2  X      0.02028     0.03732
             19  H  2  Y      0.02367     0.04102
             20  H  2  Z      0.01407     0.03673
             21  H  3  S      0.63877     0.49399
             22  H  3  S      0.04303     0.14101
             23  H  3  X      0.01676     0.02993
             24  H  3  Y      0.02597     0.04548
             25  H  3  Z      0.01717     0.04247
             26  H  4  S      0.61318     0.47759
             27  H  4  S      0.03105     0.14184
             28  H  4  X      0.03598     0.05927
             29  H  4  Y      0.00882     0.02124
             30  H  4  Z      0.01344     0.03649

          ----- MULLIKEN ATOMIC OVERLAP POPULATIONS -----
          (OFF-DIAGONAL ELEMENTS NEED TO BE MULTIPLIED BY 2)

             1           2           3           4

    1    5.9127954
    2    0.3105758   0.4055914
    3    0.3105930  -0.0058872   0.4420948
    4    0.3174366  -0.0058437  -0.0050993   0.3959679

          TOTAL MULLIKEN AND LOWDIN ATOMIC POPULATIONS
       ATOM         MULL.POP.    CHARGE          LOW.POP.     CHARGE
    1 N             6.851401    0.148599         6.779444    0.220556
    2 H             0.704436    0.295564         0.731256    0.268744
    3 H             0.741701    0.258299         0.752870    0.247130
    4 H             0.702462    0.297538         0.736430    0.263570

          MULLIKEN SPHERICAL HARMONIC POPULATIONS
       ATOM           S       P       D      F      G      H      I    TOTAL
    1 N             3.45    3.38    0.02   0.00   0.00   0.00   0.00    6.85
    2 H             0.65    0.06    0.00   0.00   0.00   0.00   0.00    0.70
    3 H             0.68    0.06    0.00   0.00   0.00   0.00   0.00    0.74
    4 H             0.64    0.06    0.00   0.00   0.00   0.00   0.00    0.70

          ---------------------
          ELECTROSTATIC MOMENTS
          ---------------------

 POINT   1           X           Y           Z (BOHR)    CHARGE
                -0.000001   -0.000001   -0.177185        1.00 (A.U.)
         DX          DY          DZ         /D/  (DEBYE)
    -0.207659   -0.203683    2.144821    2.164455
 ...... END OF PROPERTY EVALUATION ......
 CPU     0: STEP CPU TIME=     0.00 TOTAL CPU TIME=          9.2 (      0.2 MIN)
 TOTAL WALL CLOCK TIME=          9.2 SECONDS, CPU UTILIZATION IS    99.89%

     -------------------------------------------------
     GMC-PT/GMC-QDPT or general MCSCF input parameters
     -------------------------------------------------
 # of frozen core orbs. =         0 ->         0
 # of doubly occ. orbs. =         1
 # of active      orbs. =         7
 # of virtual     orbs. =        21
 # of active electrons  =         7
 # of states in CI      =         3
 Highest state in CI    =         3
 kstate =  1 1 1
 avecoe =  0.333 0.333 0.333
 State symmetry           = A           
 Assigned symmetry number = 1

 <<<Act. MO sym.: 1111111

 <<<Division of 1-ext.:  0
 <<<Division of 2-ext.:  0

     ------------------------
     Orbital canonicalization
     ------------------------

 MOs are canonicalized for core, virtual, and invariant-active orbital spaces.
 This is a part of the GMC-QDPT calculation.
 SCHWARZ INEQUALITY OVERHEAD:       465 INTEGRALS, T=        0.00
 DIRECT TRANSFORMATION SKIPS AO INTEGRAL STORAGE ON DISK.

 Averaged energy =     -55.759824765

 State #    1  Energy =     -55.902083881  S =  0.500
 State #    2  Energy =     -55.727899047  S =  0.500
 State #    3  Energy =     -55.649491367  S =  0.500

 Orbital energies for filled orbital space
  -15.986864
 Orbital energies for active orbital space
   -1.533351  -0.977295  -0.895521  -0.757808   0.421583
    0.415668   0.297308
 Orbital energies for external orbital space
    0.154417   0.199477   0.203330   0.541664   0.585229
    0.625947   0.812264   0.961186   0.984497   1.326755
    1.481624   1.532770   1.595596   1.831698   1.881662
    2.048622   2.219541   2.357498   2.539843   2.749176
    2.969653

 Zero values mean non-canonical orbitals.
 ... done with orbital canonicalization ...
 CPU     0: STEP CPU TIME=     0.58 TOTAL CPU TIME=          9.8 (      0.2 MIN)
 TOTAL WALL CLOCK TIME=          9.8 SECONDS, CPU UTILIZATION IS    99.90%

     --------------------------------------------
     PARTIAL TWO ELECTRON INTEGRAL TRANSFORMATION
     --------------------------------------------

 NUMBER OF CORE MOLECULAR ORBITALS     =    0
 NUMBER OF OCCUPIED MOLECULAR ORBITALS =    8
 TOTAL NUMBER OF MOLECULAR ORBITALS    =   29
 TOTAL NUMBER OF ATOMIC ORBITALS       =   30
 THRESHOLD FOR KEEPING TRANSFORMED 2E- INTEGRALS = 1.000E-09
 AO INTEGRALS WILL BE CALCULATED IN DIRECT MODE...
 DIRECT TRANSFORMATION SKIPS AO INTEGRAL STORAGE ON DISK.
 SCHWARZ INEQUALITY OVERHEAD:       465 INTEGRALS, T=        0.00

 PLAN A: REQUIREMENTS FOR FULLY IN-MEMORY TRANSFORMATION:
 # OF WORDS AVAILABLE =            100000000
 # OF WORDS NEEDED    =               221798

 PARALLEL ONLY WORKS WITH THE SEGMENTED ALGORITHM.
 ADJUSTING MEMORY TO USE SEGMENTED ALGORITHM.


 PLAN B: REQUIREMENTS FOR THE SEGMENTED TRANSFORMATION:
       MINIMUM=         124148 WORDS FOR 1 MOLECULAR ORBITAL PER PASS
       MAXIMUM=         221798 WORDS FOR ALL MOLECULAR ORBITALS IN 1 PASS
              (          13950 EXTRA WORDS INCLUDES 1 EXTRA ORBITAL/PASS)
 THIS RUN USES=         221798 WORDS,
 DISTRIBUTING   1 PASSES EACH CONTAINING     8 ORBITALS OVER   1 PROCESSORS.

 CHOOSING SEGMENTED PARTIAL TRANSFORMATION...
 DIRECT TRANSFORMATION SKIPS AO INTEGRAL STORAGE ON DISK.
 PASS #   1 TOOK        0.04 SECONDS.
 TOTAL NUMBER OF TRANSFORMED 2E- INTEGRALS KEPT =        29226
 ... END OF INTEGRAL TRANSFORMATION ...
 CPU     0: STEP CPU TIME=     0.04 TOTAL CPU TIME=          9.8 (      0.2 MIN)
 TOTAL WALL CLOCK TIME=          9.8 SECONDS, CPU UTILIZATION IS    99.90%

     --------     ------------------------------------------
     GMC-QDPT     Program written by H.Nakano (Kyushu Univ.)
     --------     ------------------------------------------

 *** Reference space

 Reference type: ORMAS (= Occupation restricted multiple active space)
 # of orbitals          =  7
 # of minimum electrons =  7
 # of maximum electrons =  7
 State symmetry    =    1 (input)
 2*Sz              =    1 (input)
 Spin multiplicity =    2 (input)
 Dimension of reference space =      1225  (from      3432 walks)

 Dimension of reference space =      1225  (from      1225 walks)

 <<<Ionized spaces for Ref-CI:
      0:         1225 /   -1-0:         1960 /  0-1-0:         2891

 ***                    ***
 *** Reference space CI ***
 ***                    ***

 Converged after   31 iterations

 Reference wavefunctions:

 State #    1  Energy =     -55.902083881  S =  0.500

      Det      Coef    Occupancy (Ignoring core)
      ---      ----    --------- --------- -----
        1    0.979492  11110001110000
      393    0.065008  10110101010010
      717    0.070526  11010011100001

 State #    2  Energy =     -55.727899047  S =  0.500

      Det      Coef    Occupancy (Ignoring core)
      ---      ----    --------- --------- -----
       36   -0.983953  11110001101000
      463   -0.064825  10110101001010

 State #    3  Energy =     -55.649491367  S =  0.500

      Det      Coef    Occupancy (Ignoring core)
      ---      ----    --------- --------- -----
       71    0.982265  11110001011000
      822   -0.070545  11010011001001

 Davidson method: CPU/Wall time =           0.43 /           0.43 sec.

 Oscillator strength (invalid if E(1)/=E(GS)):
 -----------------------------------------
   State                        f
 -----------------------------------------
     2     F(REF-CI)=        0.0006024907
     3     F(REF-CI)=        0.0006613536
 -----------------------------------------

 Dipole moment matrix elements, x, y, z, in A.U.

 Dimension of ionized spaces for PT:
 (N-2) space:         1715 /  (N-1) space:         2842 /  N space:         2891
 (N+1) space:         2842 /  (N+2) space:         1715

 <<<Ionized spaces for internal:
         0:         1225 /      -1-0:         1960 /     0-1-0:         2891
  -1-0-1-0:         2842 / 0-1-0-1-0:         3381

 Diagonal elements of averaged one-particle density matrix:
       2       3       4       5       6       7       8
  0.9942  0.9892  0.9881  0.9932  0.0101  0.0111  0.0141
  0.9901  0.6612  0.6591  0.6636  0.0084  0.0078  0.0100

 Orbital energies:
 -------- Doubly-occupied orbitals (highest several orbs.) -------
             1
 -1.598686D+01
 -------- Active orbitals ----------------------------------------
             2            3            4            5            6
 -1.533351D+00-9.772947D-01-8.955209D-01-7.578075D-01 4.215826D-01
             7            8
  4.156682D-01 2.973076D-01
 -------- External orbitals (lowest several orbs.) ---------------
             9           10           11           12           13
  1.544170D-01 1.994771D-01 2.033298D-01 5.416638D-01 5.852290D-01
            14           15           16           17           18
  6.259468D-01 8.122635D-01 9.611859D-01 9.844972D-01 1.326755D+00

 *** Quasi-degeneracy checking

 === Det (|Ci| > 1.0D-01 and dE < 5.0D-03)

 # of small denominators (single excitations)
 State       dEmin  dE < 5.0D-03  dE < 5.0D-04  dE < 5.0D-05  dE < 5.0D-06
 ----- ----------- ------------- ------------- ------------- -------------
     1    5.00D-03             0             0             0             0
     2    5.00D-03             0             0             0             0
     3    5.00D-03             0             0             0             0

 # of small denominators (double excitations)
 State       dEmin  dE < 5.0D-03  dE < 5.0D-04  dE < 5.0D-05  dE < 5.0D-06
 ----- ----------- ------------- ------------- ------------- -------------
     1    5.00D-03             0             0             0             0
     2    5.00D-03             0             0             0             0
     3    5.00D-03             0             0             0             0

 *** Zeroth-Order Setup (Granovsky's zeroth-order vectors)
 Zeroth-order effective Hamiltonian
  (= Sum_i e(i)*<I|a+(i)a(i)|J> ):
                   1            2            3
     1 -7.470148D+00
     2 -5.904118D-03-7.353229D+00
     3 -1.119911D-03 7.300228D-04-7.266388D+00

 Zeroth-order vectors:
 State #    1
       MC st            1           2           3
       Coeff    9.987D-01   5.027D-02   5.301D-03
 State #    2
       MC st            2           1           3
       Coeff    9.987D-01  -5.022D-02  -9.073D-03
 State #    3
       MC st            3           2           1
       Coeff    9.999D-01   8.796D-03  -5.750D-03

 *** GMC-QDPT computation

 (Integral reading:  CPU/Wall time =           0.00 /           0.00 sec.)

 One-external:
   0 -ionized terms: CPU/Wall time =           0.04 /           0.03 sec.
 (-1)-ionized terms: CPU/Wall time =           0.08 /           0.09 sec.
 (+1)-ionized terms: CPU/Wall time =           0.03 /           0.02 sec.
 (+1)-ionized terms: CPU/Wall time =           0.00 /           0.01 sec.
 (+2)-ionized terms: CPU/Wall time =           0.01 /           0.00 sec.

 Internal:
 # of macro loops for internal contribution =         1 (input)
 Loop:    1
 Dimension of internal CISD space     =         0  (after screening)
 Space construction: CPU/Wall time =           0.01 /           0.02 sec.
 Internal terms:     CPU/Wall time =           0.00 /           0.00 sec.

 Two-external:
   0 -ionized terms: CPU/Wall time =           0.06 /           0.06 sec.
 (-1)-ionized terms: CPU/Wall time =           0.98 /           0.98 sec.
 (-2)-ionized terms: CPU/Wall time =           0.17 /           0.17 sec.

 Total time:         CPU/Wall time =           1.38 /           1.38 sec.

 ***                  ***
 *** GMC-QDPT Results ***
 ***                  ***

 Diagonal elements of effective Hamiltonian:
 Heff(  1) =   -55.99929326
 Heff(  2) =   -55.83740154
 Heff(  3) =   -55.76030804

 Off-diagonal elements of effective Hamiltonian:
                   1            2
     2  7.777529D-03
     3  1.247028D-03-6.936990D-04

 ******** GMC-QDPT energies ********
 ----------------------------------------------------------------------------
   State                        1st order                           2nd order
 ----------------------------------------------------------------------------
     1     E(REF-CI)=      -55.9020838809   E(GMC-QDPT2)=      -55.9996728787
     2     E(REF-CI)=      -55.7278990472   E(GMC-QDPT2)=      -55.8370339788
     3     E(REF-CI)=      -55.6494913670   E(GMC-QDPT2)=      -55.7602959833
 ----------------------------------------------------------------------------

 Excitation energies (invalid if E(1)/=E(GS)):
 ----------------------------------------------------------------------------
   State                        1st order                           2nd order
 ----------------------------------------------------------------------------

     TZ Sorted GMC-PT ENERGIES:
         1      -55.9996728787
         2      -55.8370339788
         3      -55.7602959833
     2     E(REF-CI)=        4.7398132 eV   E(GMC-QDPT2)=        4.4256322 eV
     3     E(REF-CI)=        6.8733959 eV   E(GMC-QDPT2)=        6.5137805 eV
 ----------------------------------------------------------------------------

 Main characters of perturbed GMC-QDPT states:

 State #    1  Energy =     -55.999672879  S =  0.500

      Det      Coef    Occupancy (Ignoring core)
      ---      ----    --------- --------- -----
        1    0.979546  11110001110000
      393    0.065005  10110101010010
      717    0.070520  11010011100001

 State #    2  Energy =     -55.837033979  S =  0.500

      Det      Coef    Occupancy (Ignoring core)
      ---      ----    --------- --------- -----
       36   -0.984007  11110001101000
      463   -0.064828  10110101001010

 State #    3  Energy =     -55.760295983  S =  0.500

      Det      Coef    Occupancy (Ignoring core)
      ---      ----    --------- --------- -----
       71    0.982269  11110001011000
      822   -0.070546  11010011001001

 <<<Max |V/de| = 2.735D-02  Thresh = 1.000D+00

 Oscillator strength (invalid if E(1)/=E(GS)):
 ----------------------------------------------------------------------------
   State                        1st order                           2nd order
 ----------------------------------------------------------------------------
     2     F(REF-CI)=        0.0006024907     F(GMC-PT2)=        0.0005817323
     3     F(REF-CI)=        0.0006613536     F(GMC-PT2)=        0.0006400484
 ----------------------------------------------------------------------------

 Dipole moment matrix elements, x, y, z, in A.U.
States    1    1       -0.1099385228       -0.1047803956        0.7647427950
States    1    2        0.0120775831        0.0210319531       -0.0691161280
States    1    3       -0.0548229198        0.0235830990       -0.0211896200
States    2    1        0.0120775831        0.0210319531       -0.0691161280
States    2    2        0.0453430466       -0.0328764269        0.2596503588
States    2    3       -0.1874462353        0.1796906183       -0.0007873028
States    3    1       -0.0548229198        0.0235830990       -0.0211896200
States    3    2       -0.1874462353        0.1796906183       -0.0007873028
States    3    3       -0.3185824794       -0.2502094545        0.2563068239

 Oscillator strength (valid only when positive): 
 ----------------------------------------------------------------------------
  States                        1st order                           2nd order
 ----------------------------------------------------------------------------
  1  1     F(REF-CI)=        0.0000000000     F(GMC-PT2)=        0.0000000000
  1  2     F(REF-CI)=       -0.0006024907     F(GMC-PT2)=       -0.0005817323
  1  3     F(REF-CI)=       -0.0006613536     F(GMC-PT2)=       -0.0006400484
  2  1     F(REF-CI)=        0.0006024907     F(GMC-PT2)=        0.0005817323
  2  2     F(REF-CI)=        0.0000000000     F(GMC-PT2)=        0.0000000000
  2  3     F(REF-CI)=       -0.0035297323     F(GMC-PT2)=       -0.0034493949
  3  1     F(REF-CI)=        0.0006613536     F(GMC-PT2)=        0.0006400484
  3  2     F(REF-CI)=        0.0035297323     F(GMC-PT2)=        0.0034493949
  3  3     F(REF-CI)=        0.0000000000     F(GMC-PT2)=        0.0000000000
 CPU     0: STEP CPU TIME=     1.87 TOTAL CPU TIME=         11.7 (      0.2 MIN)
 TOTAL WALL CLOCK TIME=         11.7 SECONDS, CPU UTILIZATION IS    99.91%

     !!! DIABATIZATION FOR REF CI STATES !!!

 *******************************************************
          $DMO GROUP FOUND IN THE INPUT.
        DIABATIZATION OF ADIABATIC STATES BEGINS.
     PROGRAMMED BY TAO ZENG (CARLETON UNIVERSITY).
               Email: toby.zeng@carleton.ca
     See T. Zeng, J. Chem. Phys. 2017, 146, 144103
 *******************************************************

 *************************************************************************
     STEP 1: TRANSFORMATION OF ADIABATIC STATES TO THE DMO REPRESENTATION
         See Atchity and Ruedenberg, J. Chem. Phys. 1999, 111, 2910
 *************************************************************************

Read in Diabatic Molecualr Orbitals:

                      1          2          3          4          5

    1  N  1  S    0.008609   0.000000   0.000000  -0.013219   0.279491
    2  N  1  S    0.442914  -0.000000   0.000000  -0.184329   0.867803
    3  N  1  S    0.276913   0.000000  -0.000000  -0.288315   0.144236
    4  N  1  X   -0.000000   0.493155  -0.024636  -0.000000  -0.000000
    5  N  1  Y    0.000000   0.024636   0.493155  -0.000000   0.000000
    6  N  1  Z    0.090197   0.000000   0.000000   0.593421   0.705309
    7  N  1  X   -0.000000   0.210628  -0.010522   0.000000   0.000000
    8  N  1  Y    0.000000   0.010522   0.210628  -0.000000  -0.000000
    9  N  1  Z   -0.004381   0.000000   0.000000   0.381592  -0.106092
   10  N  1 XX   -0.000457   0.010719  -0.000535  -0.012387   0.006153
   11  N  1 YY   -0.000457  -0.010719   0.000535  -0.012387   0.006153
   12  N  1 ZZ    0.000914  -0.000000   0.000000   0.024773  -0.012306
   13  N  1 XY    0.000000  -0.000618  -0.012377  -0.000000   0.000000
   14  N  1 XZ   -0.000000   0.026529  -0.001325  -0.000000   0.000000
   15  N  1 YZ    0.000000   0.001325   0.026529  -0.000000   0.000000
   16  H  2  S    0.194462  -0.176074   0.343485   0.112865  -0.523343
   17  H  2  S    0.003574  -0.023812   0.046452   0.024014  -0.054445
   18  H  2  X    0.018760   0.009101   0.022834   0.009336  -0.039151
   19  H  2  Y   -0.032493   0.022287  -0.020044  -0.016171   0.067811
   20  H  2  Z   -0.009251   0.008464  -0.016511   0.018769  -0.010566
   21  H  3  S    0.194462  -0.209430  -0.324227   0.112865  -0.523343
   22  H  3  S    0.003574  -0.028322  -0.043847   0.024014  -0.054445
   23  H  3  X    0.018760   0.006781  -0.023627   0.009336  -0.039151
   24  H  3  Y    0.032493  -0.024174  -0.017723   0.016171  -0.067811
   25  H  3  Z   -0.009251   0.010067   0.015585   0.018769  -0.010566
   26  H  4  S    0.194462   0.385503  -0.019258   0.112865  -0.523343
   27  H  4  S    0.003574   0.052134  -0.002604   0.024014  -0.054445
   28  H  4  X   -0.037519  -0.032295   0.001613  -0.018672   0.078302
   29  H  4  Y    0.000000   0.001067   0.021353  -0.000000   0.000000
   30  H  4  Z   -0.009251  -0.018530   0.000926   0.018769  -0.010566

                      6          7

    1  N  1  S    0.000000  -0.000000
    2  N  1  S    0.000000  -0.000000
    3  N  1  S   -0.000000   0.000000
    4  N  1  X   -0.930415  -0.002083
    5  N  1  Y   -0.002083   0.930415
    6  N  1  Z   -0.000000   0.000000
    7  N  1  X   -0.046866  -0.000105
    8  N  1  Y   -0.000105   0.046866
    9  N  1  Z   -0.000000   0.000000
   10  N  1 XX    0.001538   0.000003
   11  N  1 YY   -0.001538  -0.000003
   12  N  1 ZZ   -0.000000   0.000000
   13  N  1 XY   -0.000004   0.001776
   14  N  1 XZ    0.039985   0.000090
   15  N  1 YZ    0.000090  -0.039985
   16  H  2  S   -0.362630  -0.631354
   17  H  2  S   -0.065964  -0.114846
   18  H  2  X    0.002763  -0.037520
   19  H  2  Y    0.037435   0.040736
   20  H  2  Z    0.001882   0.003276
   21  H  3  S   -0.365454   0.629724
   22  H  3  S   -0.066477   0.114549
   23  H  3  X    0.002595   0.037532
   24  H  3  Y   -0.037617   0.040567
   25  H  3  Z    0.001896  -0.003268
   26  H  4  S    0.728084   0.001630
   27  H  4  S    0.132441   0.000297
   28  H  4  X   -0.062317  -0.000140
   29  H  4  Y    0.000055  -0.024345
   30  H  4  Z   -0.003778  -0.000008

NUMBER OF SUB ACTIVE SPACES:   1
ROTATE ACTIVE MOS TO DMOS IN EACH SUB-SPACE

SPACE  1:

OVERLAP BETWEEN ORTHONORMAL AND PRE-ORTHONORMAL REF. DMOS

             1           2           3           4           5

    1    0.9958360  -0.0098776  -0.0109741  -0.0014341   0.0005490
    2   -0.0098776   1.0146614  -0.0236485  -0.0141292   0.0275449
    3   -0.0109741  -0.0236485   0.9716729  -0.0136732   0.0233774
    4   -0.0014341  -0.0141292  -0.0136732   0.9990088  -0.0020086
    5    0.0005490   0.0275449   0.0233774  -0.0020086   1.0250291
    6    0.0021421   0.0173017  -0.0188977  -0.0155142   0.0006110
    7   -0.0017665   0.0179316   0.0212262   0.0141165   0.0119841

             6           7

    1    0.0021421  -0.0017665
    2    0.0173017   0.0179316
    3   -0.0188977   0.0212262
    4   -0.0155142   0.0141165
    5    0.0006110   0.0119841
    6    0.9999737  -0.0116780
    7   -0.0116780   1.0210884
REFERENCE DMOS AFTER ORTHONORMALIZATION:

                      1          2          3          4          5

    1  N  1  S    0.008322  -0.007612  -0.006789  -0.012839   0.273029
    2  N  1  S    0.443618  -0.021472  -0.018418  -0.182712   0.847087
    3  N  1  S    0.277492  -0.005190  -0.004585  -0.288178   0.140213
    4  N  1  X    0.006622   0.501993  -0.030711  -0.007641  -0.012005
    5  N  1  Y    0.007156   0.020058   0.489207  -0.005522  -0.022258
    6  N  1  Z    0.090835  -0.009574  -0.006912   0.595652   0.689799
    7  N  1  X    0.002105   0.208566  -0.006463   0.002126  -0.005375
    8  N  1  Y    0.002604   0.014835   0.216518   0.002649  -0.005817
    9  N  1  Z   -0.003640   0.008252   0.008228   0.382141  -0.103113
   10  N  1 XX   -0.000387   0.010202  -0.000593  -0.012233   0.005718
   11  N  1 YY   -0.000585  -0.010896  -0.000084  -0.012570   0.006271
   12  N  1 ZZ    0.000973   0.000693   0.000678   0.024803  -0.011989
   13  N  1 XY   -0.000147  -0.000953  -0.012821  -0.000220   0.000294
   14  N  1 XZ    0.000170   0.025505   0.000057   0.000973  -0.000709
   15  N  1 YZ    0.000269   0.002689   0.028263   0.000989  -0.000250
   16  H  2  S    0.198211  -0.130328   0.373091   0.118737  -0.507944
   17  H  2  S    0.003975  -0.017360   0.050247   0.024968  -0.052380
   18  H  2  X    0.019203   0.011564   0.025938   0.010381  -0.038655
   19  H  2  Y   -0.032769   0.017778  -0.022525  -0.016148   0.065689
   20  H  2  Z   -0.009354   0.008314  -0.016426   0.018628  -0.010155
   21  H  3  S    0.191774  -0.202570  -0.343764   0.090202  -0.504337
   22  H  3  S    0.003181  -0.028182  -0.047970   0.020268  -0.052511
   23  H  3  X    0.018739   0.006765  -0.023668   0.008577  -0.038270
   24  H  3  Y    0.032417  -0.022043  -0.018236   0.014392  -0.065590
   25  H  3  Z   -0.008975   0.010820   0.016863   0.019227  -0.010897
   26  H  4  S    0.198253   0.385821   0.020095   0.129081  -0.521761
   27  H  4  S    0.003914   0.051067   0.002840   0.026730  -0.054594
   28  H  4  X   -0.037981  -0.033572  -0.002918  -0.020056   0.077387
   29  H  4  Y    0.000226   0.002024   0.022579   0.000684  -0.000284
   30  H  4  Z   -0.009418  -0.017759   0.000847   0.018465  -0.009808

                      6          7

    1  N  1  S   -0.000412  -0.002742
    2  N  1  S   -0.004348  -0.005938
    3  N  1  S   -0.005114   0.002946
    4  N  1  X   -0.940073  -0.020711
    5  N  1  Y    0.017252   0.901225
    6  N  1  Z    0.008476  -0.015765
    7  N  1  X   -0.050615  -0.004173
    8  N  1  Y    0.004251   0.041221
    9  N  1  Z    0.005962  -0.004327
   10  N  1 XX    0.001157  -0.000049
   11  N  1 YY   -0.001545   0.000271
   12  N  1 ZZ    0.000388  -0.000222
   13  N  1 XY   -0.000209   0.002019
   14  N  1 XZ    0.039562   0.000086
   15  N  1 YZ    0.000127  -0.039803
   16  H  2  S   -0.358884  -0.623224
   17  H  2  S   -0.065632  -0.113688
   18  H  2  X    0.002764  -0.037112
   19  H  2  Y    0.036947   0.039868
   20  H  2  Z    0.001781   0.003270
   21  H  3  S   -0.359821   0.628311
   22  H  3  S   -0.065236   0.113271
   23  H  3  X    0.002586   0.037522
   24  H  3  Y   -0.036912   0.040701
   25  H  3  Z    0.002307  -0.003868
   26  H  4  S    0.723790   0.007364
   27  H  4  S    0.132067   0.001123
   28  H  4  X   -0.062080  -0.000893
   29  H  4  Y    0.000172  -0.024351
   30  H  4  Z   -0.003141   0.000094

 -------------------------------------------
       MAXIMIZING MORMO OVERLAP TERM        
 -------------------------------------------
   SWEEP    VALUE       PROGRESS
     0     6.15801
     1     6.98386     0.82584709
     2     6.99174     0.00788191
     3     6.99174     0.00000021
     4     6.99174     0.00000000
     5     6.99174     0.00000000
 THE ROTATION IS DONE
ACTIVE ORBITALS AFTER MORMO:

                      1          2          3          4          5

    1  N  1  S    0.008081  -0.010355  -0.009800  -0.012746   0.261850
    2  N  1  S    0.439725  -0.022708  -0.023038  -0.184629   0.832448
    3  N  1  S    0.289361   0.015422   0.021191  -0.285495   0.154632
    4  N  1  X    0.003112   0.500568  -0.035007  -0.012086  -0.006276
    5  N  1  Y    0.001738   0.014827   0.478465  -0.012402  -0.015114
    6  N  1  Z    0.088752  -0.015262  -0.012672   0.595596   0.687931
    7  N  1  X    0.007901   0.195017   0.009696   0.017144  -0.018246
    8  N  1  Y    0.011359   0.031863   0.237192   0.018665  -0.020622
    9  N  1  Z    0.002426   0.023894   0.023734   0.382028  -0.100692
   10  N  1 XX    0.000557   0.008781   0.003243  -0.012274  -0.012853
   11  N  1 YY   -0.001493  -0.009231  -0.003635  -0.012057   0.021516
   12  N  1 ZZ    0.000936   0.000449   0.000392   0.024331  -0.008663
   13  N  1 XY   -0.000803  -0.005144  -0.015474  -0.000710   0.017860
   14  N  1 XZ   -0.000429   0.023270  -0.000114  -0.000005   0.017946
   15  N  1 YZ    0.000263   0.002256   0.025947  -0.000819   0.018743
   16  H  2  S    0.192035  -0.159386   0.352148   0.114068  -0.501156
   17  H  2  S    0.002591  -0.012880   0.058855   0.026515  -0.055026
   18  H  2  X    0.024192   0.002685   0.029878   0.010729  -0.041134
   19  H  2  Y   -0.027171   0.022555  -0.015410  -0.014001   0.059557
   20  H  2  Z   -0.008104   0.010139  -0.014199   0.019020  -0.013112
   21  H  3  S    0.193900  -0.206198  -0.332340   0.101169  -0.514442
   22  H  3  S    0.004646  -0.032762  -0.061686   0.021229  -0.056817
   23  H  3  X    0.019465   0.007274  -0.023828   0.009791  -0.036880
   24  H  3  Y    0.029093  -0.021830  -0.013867   0.016389  -0.064534
   25  H  3  Z   -0.012248   0.012876   0.018791   0.018209  -0.009696
   26  H  4  S    0.190908   0.385885  -0.005662   0.119247  -0.514006
   27  H  4  S    0.001744   0.050473   0.007609   0.027128  -0.055180
   28  H  4  X   -0.037032  -0.035022   0.005137  -0.017337   0.072889
   29  H  4  Y    0.005102   0.008672   0.020118   0.001899  -0.005851
   30  H  4  Z   -0.006896  -0.015737   0.002347   0.019456  -0.011900

                      6          7

    1  N  1  S   -0.019684   0.011043
    2  N  1  S   -0.045038   0.027664
    3  N  1  S    0.047807  -0.042136
    4  N  1  X   -0.934547  -0.020704
    5  N  1  Y    0.017082   0.902369
    6  N  1  Z    0.027862  -0.037868
    7  N  1  X   -0.066735  -0.010411
    8  N  1  Y    0.010872   0.036165
    9  N  1  Z   -0.007776   0.014174
   10  N  1 XX   -0.012600  -0.018928
   11  N  1 YY    0.016163   0.016161
   12  N  1 ZZ   -0.003563   0.002768
   13  N  1 XY   -0.020898   0.019333
   14  N  1 XZ    0.049094   0.007542
   15  N  1 YZ   -0.008205  -0.032281
   16  H  2  S   -0.374068  -0.607628
   17  H  2  S   -0.070862  -0.122399
   18  H  2  X   -0.006331  -0.042201
   19  H  2  Y    0.040943   0.032810
   20  H  2  Z   -0.010610   0.006426
   21  H  3  S   -0.361077   0.615842
   22  H  3  S   -0.070643   0.128161
   23  H  3  X    0.012116   0.039763
   24  H  3  Y   -0.040543   0.031859
   25  H  3  Z    0.001492  -0.009812
   26  H  4  S    0.721410   0.021123
   27  H  4  S    0.134724   0.002724
   28  H  4  X   -0.064910  -0.007532
   29  H  4  Y    0.008203  -0.017641
   30  H  4  Z    0.002750   0.008985

Actually Used Diabatic Molecualr Orbitals:

                      1          2          3          4          5

    1  N  1  S    0.008081  -0.010355  -0.009800  -0.012746   0.261850
    2  N  1  S    0.439725  -0.022708  -0.023038  -0.184629   0.832448
    3  N  1  S    0.289361   0.015422   0.021191  -0.285495   0.154632
    4  N  1  X    0.003112   0.500568  -0.035007  -0.012086  -0.006276
    5  N  1  Y    0.001738   0.014827   0.478465  -0.012402  -0.015114
    6  N  1  Z    0.088752  -0.015262  -0.012672   0.595596   0.687931
    7  N  1  X    0.007901   0.195017   0.009696   0.017144  -0.018246
    8  N  1  Y    0.011359   0.031863   0.237192   0.018665  -0.020622
    9  N  1  Z    0.002426   0.023894   0.023734   0.382028  -0.100692
   10  N  1 XX    0.000557   0.008781   0.003243  -0.012274  -0.012853
   11  N  1 YY   -0.001493  -0.009231  -0.003635  -0.012057   0.021516
   12  N  1 ZZ    0.000936   0.000449   0.000392   0.024331  -0.008663
   13  N  1 XY   -0.000803  -0.005144  -0.015474  -0.000710   0.017860
   14  N  1 XZ   -0.000429   0.023270  -0.000114  -0.000005   0.017946
   15  N  1 YZ    0.000263   0.002256   0.025947  -0.000819   0.018743
   16  H  2  S    0.192035  -0.159386   0.352148   0.114068  -0.501156
   17  H  2  S    0.002591  -0.012880   0.058855   0.026515  -0.055026
   18  H  2  X    0.024192   0.002685   0.029878   0.010729  -0.041134
   19  H  2  Y   -0.027171   0.022555  -0.015410  -0.014001   0.059557
   20  H  2  Z   -0.008104   0.010139  -0.014199   0.019020  -0.013112
   21  H  3  S    0.193900  -0.206198  -0.332340   0.101169  -0.514442
   22  H  3  S    0.004646  -0.032762  -0.061686   0.021229  -0.056817
   23  H  3  X    0.019465   0.007274  -0.023828   0.009791  -0.036880
[...]
      180   -0.021912    0.021912  -+2+200
      317    0.021556   -0.021556  ++2-200
       41    0.020841   -0.020841  22+-0+0
      262    0.020760    0.020760  2+02-0+
      807   -0.020622    0.020622  2++-+0-
      808   -0.020564    0.020564  2+02+0-
      751    0.020498   -0.020498  2+20002
       99   -0.020043    0.020043  20-20++

 State #    3  Energy =     -55.829786731

      Det      Coef        Coefp    Occupancy (Ignoring core)
      ---      ----        ----    --------- --------- -----
       36   -0.918110   -0.918110  22+2000
       71    0.332398   -0.332398  2+22000
        1   -0.123040    0.123040  222+000
      463    0.059211   -0.059211  20+2020
      472   -0.035779   -0.035779  2+020-+
      285    0.030816   -0.030816  02+2200
      121   -0.027278    0.027278  +22-00+
      157    0.026691   -0.026691  220+-0+
      297    0.026441   -0.026441  +202-0+
      288   -0.026386   -0.026386  +-+2-+0
      142    0.025990    0.025990  22+0200
      460   -0.025719   -0.025719  -++2+-0
      123    0.025623   -0.025623  +-2200+
      823    0.025525   -0.025525  20+2002
      122    0.025154    0.025154  +2-200+
       16   -0.025061    0.025061  222000+
      822   -0.023483    0.023483  2+02002
      145   -0.023336   -0.023336  -2++200
      356    0.021443    0.021443  22+0020
       64    0.021104   -0.021104  2-020++
       88    0.020723   -0.020723  202200+
      282    0.020458    0.020458  +2+-200
       38   -0.020379    0.020379  2202+00

 ---------------------------------------
    -DIABATIC STATES IN PROTOTYPES-     
 ---------------------------------------

     STATE:    1
 Group Ref#    Coefficients
     1    1    0.991117
     2    2   -0.000427
     3    3   -0.001198

WEIGHT OF LISTED PROTOTYPES:   98.23%

     STATE:    2
 Group Ref#    Coefficients
     1    1   -0.000427
     2    2    0.989368
     3    3    0.001016

WEIGHT OF LISTED PROTOTYPES:   97.88%

     STATE:    3
 Group Ref#    Coefficients
     1    1   -0.001198
     2    2    0.001016
     3    3    0.990968

WEIGHT OF LISTED PROTOTYPES:   98.20%

 --------------------------------------------------
 IN DIRECT MAX. DIABATIZATION FOR GMC-QDPT

 DIRECT MAXIMIZATION (DM) WITHOUT TRUNCATING ADIABATS
 EXPANSIONS INTO THE REFERENCE CONFIGURATION SPACE
 --------------------------------------------------

 -------------------------------------------
 - DM DIABT PT HAMILTONIAN MATRIX ELEMENTS -
 -------------------------------------------
                                            
 --- DIABATIC ENERGIES (DIAGONAL ELEMENT) ---       HARTREE            EV
 STATE #  1'S GMC-PT-LEVEL DIABATIC ENERGY=     -55.996713473       0.000000000
 STATE #  2'S GMC-PT-LEVEL DIABATIC ENERGY=     -55.770502677       6.155509281
 STATE #  3'S GMC-PT-LEVEL DIABATIC ENERGY=     -55.829786691       4.542309103

 --- DIABATIC COUPLINGS (OFF DIAGONAL ELEMENTS)---  HATREE            EV
 STATE #  1 &  2'S GMC-PT-LEVEL COUPLING  =       0.015694100       0.427058219
 STATE #  1 &  3'S GMC-PT-LEVEL COUPLING  =       0.015948870       0.433990848
 STATE #  2 &  3'S GMC-PT-LEVEL COUPLING  =      -0.026098957      -0.710188803

 ---------------------------------------
     - ROTATION TO DIABATIC STATES -    
 ---------------------------------------
 ROWS=ADIABATIC, COLUMNS=DIABATIC STATES

             1           2           3

    1   -0.9912245   0.0798764   0.1053270
    2    0.1262675   0.3363101   0.9332481
    3    0.0391220   0.9383578  -0.3434446

 ---------------------------------------
          - DIABATIC STATES -           
 ---------------------------------------

 State #    1  Energy =     -55.996713473

      Det      Coef        Coefp    Occupancy (Ignoring core)
      ---      ----        ----    --------- --------- -----
        1    0.974091   -0.974091  222+000
      717   -0.075286   -0.075286  220+002
       17    0.073935    0.073935  22-+00+
      393   -0.068089   -0.068089  202+020
      701   -0.044981   -0.044981  22++00-
      402    0.038097   -0.038097  2+-+0-+
      708    0.036994   -0.036994  2-++0+-
        4    0.036399   -0.036399  2-2++00
      176   -0.035391    0.035391  2+2+-00
      215   -0.034485   -0.034485  022+200
        3    0.033801    0.033801  22-++00
      227   -0.033352   -0.033352  +2-+-0+
      705   -0.033080   -0.033080  -2+++0-
      141   -0.032631   -0.032631  22++-00
      218    0.032362   -0.032362  +-2+-+0
      390    0.032257   -0.032257  -+2++-0
        8   -0.030246    0.030246  2-2+0+0
       51   -0.028954    0.028954  22+-00+
        2    0.028303   -0.028303  2220+00
      212    0.028112    0.028112  +220200
      122    0.026825    0.026825  +2-200+
       76    0.026459    0.026459  2+2-0+0
      113   -0.024315    0.024315  +-220+0
       16    0.023994   -0.023994  222000+
       18    0.023197   -0.023197  2-2+00+
      773    0.023028   -0.023028  +2-++0-
      179   -0.022732   -0.022732  202+200
        6   -0.022381    0.022381  22200+0
      702    0.022358    0.022358  22+0+0-
      106   -0.022301   -0.022301  +222000
      159    0.022260   -0.022260  -2++-0+
      387   -0.021690    0.021690  2+20+-0
      143   -0.021350   -0.021350  220+200
      424   -0.021296   -0.021296  +-2++-0
      736   -0.020840    0.020840  2+2+00-
      184   -0.020755   -0.020755  -+2+-+0
      351    0.020256    0.020256  22++0-0
      368   -0.020045   -0.020045  2-++0-+

 State #    2  Energy =     -55.770502677

      Det      Coef        Coefp    Occupancy (Ignoring core)
      ---      ----        ----    --------- --------- -----
       71   -0.976665    0.976665  2+22000
      822    0.076059   -0.076059  2+02002
       36    0.046984    0.046984  22+2000
      806   -0.044560   -0.044560  2++200-
      813    0.041552   -0.041552  20+20+-
      111    0.041010   -0.041010  +22-0+0
      246   -0.039234   -0.039234  2++2-00
       73    0.038651   -0.038651  2+-2+00
      320    0.034414    0.034414  0+22200
      332   -0.034245    0.034245  ++-2-0+
      810   -0.034125   -0.034125  -++2+0-
       87    0.033157   -0.033157  2+-200+
      122    0.032472    0.032472  +2-200+
       78   -0.032209    0.032209  20220+0
      323   -0.030933    0.030933  +022-+0
      736   -0.030013    0.030013  2+2+00-
       86    0.029077    0.029077  2+2-00+
      180   -0.028458    0.028458  -+2+200
      317    0.028351   -0.028351  ++2-200
      177    0.026555   -0.026555  2+20200
        6    0.026243   -0.026243  22200+0
       77   -0.025453    0.025453  2+-20+0
       99   -0.024928    0.024928  20-20++
      807   -0.024560    0.024560  2++-+0-
      192   -0.024482    0.024482  2+-+-0+
      391    0.024446   -0.024446  2+20020
       38   -0.024241    0.024241  2202+00
      106   -0.023828   -0.023828  +222000
      456    0.023582    0.023582  2++20-0
      183   -0.023544    0.023544  202+-+0
      248    0.023538   -0.023538  2+02200
      878    0.023117    0.023117  ++-2+0-
      264    0.022792   -0.022792  -++2-0+
      113    0.022074   -0.022074  +-220+0
      421   -0.021954   -0.021954  +22+0-0
       51    0.021324   -0.021324  22+-00+
      751    0.020351   -0.020351  2+20002

 State #    3  Energy =     -55.829786691

      Det      Coef        Coefp    Occupancy (Ignoring core)
      ---      ----        ----    --------- --------- -----
       36   -0.976434   -0.976434  22+2000
      463    0.066706   -0.066706  20+2020
       39   -0.064643   -0.064643  2-+2+00
       41   -0.048043    0.048043  22+-0+0
       71   -0.047015    0.047015  2+22000
      472   -0.040666   -0.040666  2+020-+
      246    0.039016    0.039016  2++2-00
      351    0.038294    0.038294  22++0-0
      121   -0.036556    0.036556  +22-00+
      285    0.033916   -0.033916  02+2200
      297    0.033093   -0.033093  +202-0+
      460   -0.032628   -0.032628  -++2+-0
      288   -0.032246   -0.032246  +-+2-+0
       38   -0.030949    0.030949  2202+00
      123    0.029279   -0.029279  +-2200+
      145   -0.028554   -0.028554  -2++200
      282    0.028280    0.028280  +2+-200
      106   -0.027803   -0.027803  +222000
      701   -0.027561   -0.027561  22++00-
       51    0.026759   -0.026759  22+-00+
      142    0.026557    0.026557  22+0200
      157    0.026023   -0.026023  220+-0+
       73    0.025627   -0.025627  2+-2+00
       53   -0.025460   -0.025460  2-+200+
       16   -0.025002    0.025002  222000+
       64    0.024728   -0.024728  2-020++
      716    0.024057    0.024057  22+0002
      249    0.023796   -0.023796  20+2200
       86    0.022758    0.022758  2+2-00+
      457   -0.022729    0.022729  2++-+-0
      148   -0.022571   -0.022571  2-++-+0
      806    0.021669    0.021669  2++200-
      494    0.021423   -0.021423  +-+2+-0
      356    0.020372    0.020372  22+0020
      859    0.020096   -0.020096  02+2002

 ---------------------------------------
      - DIABATIC STATES IN CMO -        
 ---------------------------------------

 State #    1  Energy =     -55.996713473

      Det      Coef        Coefp    Occupancy (Ignoring core)
      ---      ----        ----    --------- --------- -----
        1    0.968100   -0.968100  222+000
       36   -0.144302   -0.144302  22+2000
      717   -0.070261   -0.070261  220+002
      393   -0.064680   -0.064680  202+020
        8   -0.043956    0.043956  2-2+0+0
       71   -0.040826    0.040826  2+22000
       17    0.040676    0.040676  22-+00+
      708    0.039190   -0.039190  2-++0+-
      402    0.036060   -0.036060  2+-+0-+
      215   -0.032805   -0.032805  022+200
      143   -0.031327   -0.031327  220+200
      705   -0.030229   -0.030229  -2+++0-
      218    0.028516   -0.028516  +-2+-+0
      390    0.028033   -0.028033  -+2++-0
      227   -0.027721   -0.027721  +2-+-0+
       51   -0.026758    0.026758  22+-00+
      106   -0.026265   -0.026265  +222000
        2    0.026105   -0.026105  2220+00
      753   -0.025564   -0.025564  202+002
       76    0.025433    0.025433  2+2-0+0
      122    0.025225    0.025225  +2-200+
      113   -0.024216    0.024216  +-220+0
      703    0.023936    0.023936  220++0-
      368   -0.023284   -0.023284  2-++0-+
      212    0.022456    0.022456  +220200
      702    0.022073    0.022073  22+0+0-
      157   -0.021224    0.021224  220+-0+
      742   -0.020505   -0.020505  2+-+0+-
        3   -0.020137   -0.020137  22-++00

 State #    2  Energy =     -55.770502677

      Det      Coef        Coefp    Occupancy (Ignoring core)
      ---      ----        ----    --------- --------- -----
       71   -0.923433    0.923433  2+22000
       36   -0.323993   -0.323993  22+2000
        1   -0.087412    0.087412  222+000
      822    0.066452   -0.066452  2+02002
      111    0.040109   -0.040109  +22-0+0
      813    0.034694   -0.034694  20+20+-
      248    0.030947   -0.030947  2+02200
      320    0.030733    0.030733  0+22200
      810   -0.027006   -0.027006  -++2+0-
      122    0.026530    0.026530  +2-200+
      332   -0.026482    0.026482  ++-2-0+
      123   -0.026481    0.026481  +-2200+
      323   -0.026375    0.026375  +022-+0
      463    0.024697   -0.024697  20+2020
      391    0.024275   -0.024275  2+20020
      177    0.023356   -0.023356  2+20200
      421   -0.022484   -0.022484  +22+0-0
      192   -0.022197    0.022197  2+-+-0+
       38   -0.022163    0.022163  2202+00
      180   -0.021912    0.021912  -+2+200
      317    0.021556   -0.021556  ++2-200
       41    0.020841   -0.020841  22+-0+0
      262    0.020760    0.020760  2+02-0+
      807   -0.020622    0.020622  2++-+0-
      808   -0.020564    0.020564  2+02+0-
      751    0.020498   -0.020498  2+20002
       99   -0.020043    0.020043  20-20++

 State #    3  Energy =     -55.829786691

      Det      Coef        Coefp    Occupancy (Ignoring core)
      ---      ----        ----    --------- --------- -----
       36   -0.918110   -0.918110  22+2000
       71    0.332399   -0.332399  2+22000
        1   -0.123040    0.123040  222+000
      463    0.059211   -0.059211  20+2020
      472   -0.035779   -0.035779  2+020-+
      285    0.030816   -0.030816  02+2200
      121   -0.027278    0.027278  +22-00+
      157    0.026691   -0.026691  220+-0+
      297    0.026441   -0.026441  +202-0+
      288   -0.026386   -0.026386  +-+2-+0
      142    0.025990    0.025990  22+0200
      460   -0.025719   -0.025719  -++2+-0
      123    0.025623   -0.025623  +-2200+
      823    0.025525   -0.025525  20+2002
      122    0.025154    0.025154  +2-200+
       16   -0.025061    0.025061  222000+
      822   -0.023483    0.023483  2+02002
      145   -0.023336   -0.023336  -2++200
      356    0.021443    0.021443  22+0020
       64    0.021104   -0.021104  2-020++
       88    0.020723   -0.020723  202200+
      282    0.020458    0.020458  +2+-200
       38   -0.020379    0.020379  2202+00

 ---------------------------------------
    -DIABATIC STATES IN PROTOTYPES-     
 ---------------------------------------

     STATE:    1
 Group Ref#    Coefficients
     1    1    0.991117
     2    2   -0.000427
     3    3   -0.001198

WEIGHT OF LISTED PROTOTYPES:   98.23%

     STATE:    2
 Group Ref#    Coefficients
     1    1   -0.000428
     2    2    0.989368
     3    3    0.001016

WEIGHT OF LISTED PROTOTYPES:   97.88%

     STATE:    3
 Group Ref#    Coefficients
     1    1   -0.001198
     2    2    0.001015
     3    3    0.990968

WEIGHT OF LISTED PROTOTYPES:   98.20%

     DIRECT MAX. DIABATIZATION FINISHED    
 CPU     0: STEP CPU TIME=     0.24 TOTAL CPU TIME=         11.9 (      0.2 MIN)
 TOTAL WALL CLOCK TIME=         11.9 SECONDS, CPU UTILIZATION IS    99.83%

DIABATS FOR SPIN-ORBIT CALCULATION ARE READY

TRANSITION DIPOLES BETWEEN ADIABATS (in A.U.):

STATE PAIR      X         Y         Z
    1    1 -0.109939 -0.104780  0.764743
    2    1  0.012078  0.021032 -0.069116
    2    2  0.045343 -0.032876  0.259650
    3    1 -0.054823  0.023583 -0.021190
    3    2 -0.187446  0.179691 -0.000787
    3    3 -0.318582 -0.250209  0.256307


TRANSITION DIPOLES BETWEEN DIABATS (in A.U.):

STATE PAIR      X         Y         Z
    1    1 -0.108405 -0.109175  0.774848
    2    1  0.021175 -0.007291  0.001769
    2    2 -0.401967 -0.106622  0.252542
    3    1 -0.007515 -0.001855  0.003034
    3    2 -0.029109  0.210036 -0.004385
    3    3  0.127195 -0.172069  0.253309

TRANSITION DIPOLES BETWEEN DIRECT MAX. DIABATS (in A.U.):

STATE PAIR      X         Y         Z
    1    1 -0.108405 -0.109175  0.774848
    2    1  0.021175 -0.007291  0.001769
    2    2 -0.401967 -0.106622  0.252542
    3    1 -0.007515 -0.001855  0.003034
    3    2 -0.029109  0.210036 -0.004385
    3    3  0.127195 -0.172069  0.253309
 No $TRANST Group Found.
 Quit without doing spin-orbit coupling
 ..... DONE WITH MP2 ENERGY .....
 CPU     0: STEP CPU TIME=     0.01 TOTAL CPU TIME=         11.9 (      0.2 MIN)
 TOTAL WALL CLOCK TIME=         11.9 SECONDS, CPU UTILIZATION IS    99.92%
            100000000  WORDS OF DYNAMIC MEMORY USED
 EXECUTION OF GAMESS TERMINATED NORMALLY Wed Nov 16 19:07:34 2022
 DDI: 715512 bytes (0.7 MB / 0 MWords) used by master data server.

 ----------------------------------------
 CPU timing information for all processes
 ========================================
 0: 11.734 + 0.208 = 11.942
 ----------------------------------------
Note: The following floating-point exceptions are signalling: IEEE_DENORMAL
 ddikick.x: exited gracefully.
unset echo
----- accounting info -----
Files used on the master node io002 were:
-rw-r--r-- 1 bsonghao nooijen   20738 Nov 16 19:07 /scratch/bsonghao/nh3_diabatization_2d_at_mode_7_8_dist-0.2_-0.2.F05
-rw-r--r-- 1 bsonghao nooijen  363520 Nov 16 19:07 /scratch/bsonghao/nh3_diabatization_2d_at_mode_7_8_dist-0.2_-0.2.F09
-rw-r--r-- 1 bsonghao nooijen 1995920 Nov 16 19:07 /scratch/bsonghao/nh3_diabatization_2d_at_mode_7_8_dist-0.2_-0.2.F10
-rw-r--r-- 1 bsonghao nooijen  131264 Nov 16 19:07 /scratch/bsonghao/nh3_diabatization_2d_at_mode_7_8_dist-0.2_-0.2.F13
-rw-r--r-- 1 bsonghao nooijen  180312 Nov 16 19:07 /scratch/bsonghao/nh3_diabatization_2d_at_mode_7_8_dist-0.2_-0.2.F15
-rw-r--r-- 1 bsonghao nooijen       0 Nov 16 19:07 /scratch/bsonghao/nh3_diabatization_2d_at_mode_7_8_dist-0.2_-0.2.F16
-rw-r--r-- 1 bsonghao nooijen    9808 Nov 16 19:07 /scratch/bsonghao/nh3_diabatization_2d_at_mode_7_8_dist-0.2_-0.2.F70
-rw-r--r-- 1 bsonghao nooijen    9808 Nov 16 19:07 /scratch/bsonghao/nh3_diabatization_2d_at_mode_7_8_dist-0.2_-0.2.F71
-rw-r--r-- 1 bsonghao nooijen   19608 Nov 16 19:07 /scratch/bsonghao/nh3_diabatization_2d_at_mode_7_8_dist-0.2_-0.2.F72
-rw-r--r-- 1 bsonghao nooijen   19608 Nov 16 19:07 /scratch/bsonghao/nh3_diabatization_2d_at_mode_7_8_dist-0.2_-0.2.F73
-rw-r--r-- 1 bsonghao nooijen 1920824 Nov 16 19:07 /scratch/bsonghao/nh3_diabatization_2d_at_mode_7_8_dist-0.2_-0.2.F74
-rw-r--r-- 1 bsonghao nooijen       0 Nov 16 19:07 /scratch/bsonghao/nh3_diabatization_2d_at_mode_7_8_dist-0.2_-0.2.F75
-rw-r--r-- 1 bsonghao nooijen   58848 Nov 16 19:07 /scratch/bsonghao/nh3_diabatization_2d_at_mode_7_8_dist-0.2_-0.2.F76
-rw-r--r-- 1 bsonghao nooijen       0 Nov 16 19:07 /scratch/bsonghao/nh3_diabatization_2d_at_mode_7_8_dist-0.2_-0.2.F77
-rw-r--r-- 1 bsonghao nooijen    1864 Nov 16 19:07 /scratch/bsonghao/nh3_diabatization_2d_at_mode_7_8_dist-0.2_-0.2.F78
-rw-r--r-- 1 bsonghao nooijen   39208 Nov 16 19:07 /scratch/bsonghao/nh3_diabatization_2d_at_mode_7_8_dist-0.2_-0.2.F79
-rw-r--r-- 1 bsonghao nooijen     104 Nov 16 19:07 /scratch/bsonghao/nh3_diabatization_2d_at_mode_7_8_dist-0.2_-0.2.F80
-rw-r--r-- 1 bsonghao nooijen   13472 Nov 16 19:07 /scratch/bsonghao/nh3_diabatization_2d_at_mode_7_8_dist-0.2_-0.2.F81
-rw-r--r-- 1 bsonghao nooijen      16 Nov 16 19:07 /scratch/bsonghao/nh3_diabatization_2d_at_mode_7_8_dist-0.2_-0.2.F82
-rw-r--r-- 1 bsonghao nooijen   19216 Nov 16 19:07 /scratch/bsonghao/nh3_diabatization_2d_at_mode_7_8_dist-0.2_-0.2.F83
-rw-r--r-- 1 bsonghao nooijen   29712 Nov 16 19:07 /scratch/bsonghao/nh3_diabatization_2d_at_mode_7_8_dist-0.2_-0.2.F84
-rw-r--r-- 1 bsonghao nooijen  401576 Nov 16 19:07 /scratch/bsonghao/nh3_diabatization_2d_at_mode_7_8_dist-0.2_-0.2.F85
-rw-r--r-- 1 bsonghao nooijen  903672 Nov 16 19:07 /scratch/bsonghao/nh3_diabatization_2d_at_mode_7_8_dist-0.2_-0.2.F86
-rw-r--r-- 1 bsonghao nooijen     656 Nov 16 19:07 /scratch/bsonghao/nh3_diabatization_2d_at_mode_7_8_dist-0.2_-0.2.F87
-rw-r--r-- 1 bsonghao nooijen   27440 Nov 16 19:07 /scratch/bsonghao/nh3_diabatization_2d_at_mode_7_8_dist-0.2_-0.2.F88
-rw-r--r-- 1 bsonghao nooijen     240 Nov 16 19:07 /scratch/bsonghao/nh3_diabatization_2d_at_mode_7_8_dist-0.2_-0.2.F89
-rw-r--r-- 1 bsonghao nooijen       0 Nov 16 19:07 /scratch/bsonghao/nh3_diabatization_2d_at_mode_7_8_dist-0.2_-0.2.F90
-rw-r--r-- 1 bsonghao nooijen   13760 Nov 16 19:07 /scratch/bsonghao/nh3_diabatization_2d_at_mode_7_8_dist-0.2_-0.2.F91
-rw-r--r-- 1 bsonghao nooijen   22776 Nov 16 19:07 /scratch/bsonghao/nh3_diabatization_2d_at_mode_7_8_dist-0.2_-0.2.F92
-rw-r--r-- 1 bsonghao nooijen   23168 Nov 16 19:07 /scratch/bsonghao/nh3_diabatization_2d_at_mode_7_8_dist-0.2_-0.2.F93
-rw-r--r-- 1 bsonghao nooijen   22776 Nov 16 19:07 /scratch/bsonghao/nh3_diabatization_2d_at_mode_7_8_dist-0.2_-0.2.F94
-rw-r--r-- 1 bsonghao nooijen   13760 Nov 16 19:07 /scratch/bsonghao/nh3_diabatization_2d_at_mode_7_8_dist-0.2_-0.2.F95
-rw-r--r-- 1 bsonghao nooijen   29440 Nov 16 19:07 /scratch/bsonghao/nh3_diabatization_2d_at_mode_7_8_dist-0.2_-0.2.F96
-rw-r--r-- 1 bsonghao nooijen    1184 Nov 16 19:07 /scratch/bsonghao/nh3_diabatization_2d_at_mode_7_8_dist-0.2_-0.2.F97
-rw-r--r-- 1 bsonghao nooijen    9808 Nov 16 19:07 /scratch/bsonghao/nh3_diabatization_2d_at_mode_7_8_dist-0.2_-0.2.F98
-rw-r--r-- 1 bsonghao nooijen   30264 Nov 16 19:07 /scratch/bsonghao/nh3_diabatization_2d_at_mode_7_8_dist-0.2_-0.2.F99
ls: No match.
ls: No match.
ls: No match.
Wed 16 Nov 2022 07:07:37 PM EST
0.275u 0.060s 0:15.31 2.1%	0+0k 48+232io 0pf+0w
