----- GAMESS execution script 'rungms' -----
This job is running on host io002
under operating system Linux at Wed 16 Nov 2022 07:40:39 PM EST
Available scratch disk space (Kbyte units) at beginning of the job is
Filesystem       1K-blocks       Used   Available Use% Mounted on
/dev/sdc1      15378471580 3278917120 11318349060  23% /scratch
GAMESS temporary binary files will be written to /scratch/bsonghao
GAMESS supplementary output files will be written to /home/bsonghao/.gamess_ascii_files/267638
Copying input file nh3_diabatization_2d_at_mode_7_8_dist0.2_0.6.inp to your run's scratch directory...
cp nh3_diabatization_2d_at_mode_7_8_dist0.2_0.6.inp /scratch/bsonghao/nh3_diabatization_2d_at_mode_7_8_dist0.2_0.6.F05
unset echo
/home/bjb2chen/gamess/ddikick.x /home/bjb2chen/gamess/gamess.00.x nh3_diabatization_2d_at_mode_7_8_dist0.2_0.6 -ddi 1 1 io002 -scr /scratch/bsonghao

 Distributed Data Interface kickoff program.
 Initiating 1 compute processes on 1 nodes to run the following command:
 /home/bjb2chen/gamess/gamess.00.x nh3_diabatization_2d_at_mode_7_8_dist0.2_0.6 

          ******************************************************
          *         GAMESS VERSION = 02 AUG 2018 (R2)         *
          *             FROM IOWA STATE UNIVERSITY             *
          * M.W.SCHMIDT, K.K.BALDRIDGE, J.A.BOATZ, S.T.ELBERT, *
          *   M.S.GORDON, J.H.JENSEN, S.KOSEKI, N.MATSUNAGA,   *
          *          K.A.NGUYEN, S.J.SU, T.L.WINDUS,           *
          *       TOGETHER WITH M.DUPUIS, J.A.MONTGOMERY       *
          *         J.COMPUT.CHEM.  14, 1347-1363(1993)        *
          **************** 64 BIT LINUX VERSION ****************

  SINCE 1993, STUDENTS AND POSTDOCS WORKING AT IOWA STATE UNIVERSITY
  AND ALSO IN THEIR VARIOUS JOBS AFTER LEAVING ISU HAVE MADE IMPORTANT
  CONTRIBUTIONS TO THE CODE:
     IVANA ADAMOVIC, CHRISTINE AIKENS, YURI ALEXEEV, POOJA ARORA,
     ANDREY ASADCHEV, ROB BELL, PRADIPTA BANDYOPADHYAY, JONATHAN BENTZ,
     BRETT BODE, KURT BRORSEN, CALEB CARLIN, GALINA CHABAN, WEI CHEN,
     CHEOL HO CHOI, PAUL DAY, ALBERT DEFUSCO, NUWAN DESILVA, TIM DUDLEY,
     DMITRI FEDOROV, ALEX FINDLATER, GRAHAM FLETCHER, MARK FREITAG,
     KURT GLAESEMANN, ANASTASIA GUININA,
     DAN KEMP, GRANT MERRILL, NORIYUKI MINEZAWA, JONATHAN MULLIN,
     TAKESHI NAGATA, SEAN NEDD, HEATHER NETZLOFF, BOSILJKA NJEGIC, RYAN OLSON,
     MIKE PAK, BUU PHAM,
     SPENCER PRUITT, LUKE ROSKOP, JIM SHOEMAKER, LYUDMILA SLIPCHENKO,
     TONY SMITH, SAROM SOK LEANG, JIE SONG, TETSUYA TAKETSUGU, SIMON WEBB,
     PENG XU, SOOHAENG YOO, FEDERICO ZAHARIEV

  ADDITIONAL CODE HAS BEEN PROVIDED BY COLLABORATORS IN OTHER GROUPS:
     IOWA STATE UNIVERSITY:
          JOE IVANIC, AARON WEST, LAIMUTIS BYTAUTAS, KLAUS RUEDENBERG
     UNIVERSITY OF TOKYO: KIMIHIKO HIRAO, TAKAHITO NAKAJIMA,
          TAKAO TSUNEDA, MUNEAKI KAMIYA, SUSUMU YANAGISAWA,
          KIYOSHI YAGI, MAHITO CHIBA, SEIKEN TOKURA, NAOAKI KAWAKAMI
     UNIVERSITY OF AARHUS: FRANK JENSEN
     UNIVERSITY OF IOWA: VISVALDAS KAIRYS, HUI LI
     NATIONAL INST. OF STANDARDS AND TECHNOLOGY: WALT STEVENS, DAVID GARMER
     UNIVERSITY OF PISA: BENEDETTA MENNUCCI, JACOPO TOMASI
     UNIVERSITY OF MEMPHIS: HENRY KURTZ, PRAKASHAN KORAMBATH
     UNIVERSITY OF ALBERTA: TOBY ZENG, MARIUSZ KLOBUKOWSKI
     UNIVERSITY OF NEW ENGLAND: MARK SPACKMAN
     MIE UNIVERSITY: HIROAKI UMEDA
     NAT. INST. OF ADVANCED INDUSTRIAL SCIENCE AND TECHNOLOGY: KAZUO KITAURA
     MICHIGAN STATE UNIVERSITY:
          KAROL KOWALSKI, MARTA WLOCH, JEFFREY GOUR, JESSE LUTZ,
          WEI LI, JUN SHEN, J. EMILIANO DEUSTUA, PIOTR PIECUCH
     UNIVERSITY OF MINNESOTA:
          YINAN SHU
     UNIVERSITY OF SILESIA: MONIKA MUSIAL, STANISLAW KUCHARSKI
     FACULTES UNIVERSITAIRES NOTRE-DAME DE LA PAIX:
          OLIVIER QUINET, BENOIT CHAMPAGNE
     UNIVERSITY OF CALIFORNIA - SANTA BARBARA: BERNARD KIRTMAN
     INSTITUTE FOR MOLECULAR SCIENCE:
          KAZUYA ISHIMURA, MICHIO KATOUDA, AND SHIGERU NAGASE
     UNIVERSITY OF NOTRE DAME: ANNA POMOGAEVA, DAN CHIPMAN
     KYUSHU UNIVERSITY:
          HARUYUKI NAKANO,
          FENG LONG GU, JACEK KORCHOWIEC, MARCIN MAKOWSKI, AND YURIKO AOKI,
          HIROTOSHI MORI AND EISAKU MIYOSHI
     PENNSYLVANIA STATE UNIVERSITY:
          TZVETELIN IORDANOV, CHET SWALINA, JONATHAN SKONE,
          SHARON HAMMES-SCHIFFER
     WASEDA UNIVERSITY:
          MASATO KOBAYASHI, TOMOKO AKAMA, TSUGUKI TOUMA,
          TAKESHI YOSHIKAWA, YASUHIRO IKABATA, JUNJI SEINO,
          YUYA NAKAJIMA, HIROMI NAKAI
     NANJING UNIVERSITY: SHUHUA LI
     UNIVERSITY OF NEBRASKA:
          PEIFENG SU, DEJUN SI, NANDUN THELLAMUREGE, YALI WANG, HUI LI
     UNIVERSITY OF ZURICH: ROBERTO PEVERATI, KIM BALDRIDGE
     N. COPERNICUS UNIVERSITY AND JACKSON STATE UNIVERSITY:
          MARIA BARYSZ
     UNIVERSITY OF COPENHAGEN: Jimmy Kromann, CASPER STEINMANN
     TOKYO INSTITUTE OF TECHNOLOGY: HIROYA NAKATA
     NAGOYA UNIVERSITY: YOSHIO NISHIMOTO, STEPHAN IRLE
     MOSCOW STATE UNIVERSITY: VLADIMIR MIRONOV

 EXECUTION OF GAMESS BEGUN Wed Nov 16 19:40:39 2022

            ECHO OF THE FIRST FEW INPUT CARDS -
 INPUT CARD> $system kdiag=3 mwords=100 memddi=1000 parall=.t. $end                         
 INPUT CARD> $contrl runtyp=energy ispher=1 $end                                            
 INPUT CARD> $contrl icut=9 itol=20 inttyp=rysquad qmttol=1.0d-05 nosym=1 $end              
 INPUT CARD> $scf    npunch=2 conv=1.0d-06 dirscf=.t.      $end                             
 INPUT CARD> $contrl scftyp=mcscf  mult=2 maxit=200 icharg=1 mplevl=2 $end                  
 INPUT CARD> $guess  guess=moread norb=29 purify=.t. $end                                   
 INPUT CARD> $basis  gbasis=ccd $end                                                        
 INPUT CARD> $mcscf  cistep=gmcci fullnr=.t. finci=mos                                      
 INPUT CARD>         acurcy=1.d-6 maxit=100 $end                                            
 INPUT CARD> $trans  dirtrf=.t. $end                                                        
 INPUT CARD> $mrmp   mrpt=gmcpt rdvecs=.f. $end                                             
 INPUT CARD> $gmcpt  nmofzc=0 nmodoc=1 nmoact=7 nelact=7 stsym(1)=A                         
 INPUT CARD>         reftyp=ormas nspace=1 mstart(1)=2 mine(1)=7 maxe(1)=7                  
 INPUT CARD>         kstate(1)=1,1,1                                                        
 INPUT CARD>         wstate(1)=1,1,1                                                        
 INPUT CARD>         iwgt=0 thrwgt=-1.0 krot=.f. kszdoe=.f. knospn=.f.                      
 INPUT CARD>         thrde=-1.0 edshft=0.02 $end                                            
 INPUT CARD> $data                                                                          
 INPUT CARD> NH3+ 3 states calculation at NH3 structure.                                    
 INPUT CARD> c1                                                                             
 INPUT CARD>N 7.0 -0.03737350800000001 -0.012457805999999998 -0.1693810082                  
 INPUT CARD>H 1.0 -0.08342186600000001 1.0488224098 0.22299108210000002                     
 INPUT CARD>H 1.0 -0.23627251199999993 -1.0216684638 0.13154812010000003                    
 INPUT CARD>H 1.0 0.839009288 0.14595149999999996 0.41484644410000004                       
 INPUT CARD>$end                                                                            
 INPUT CARD>--- OPTIMIZED RHF      MO-S --- GENERATED AT Mon Nov 14 16:47:08 2022           
 INPUT CARD>E=      -56.3825050291, E(NUC)=   11.8429239490                                 
 INPUT CARD> $VEC                                                                           
 INPUT CARD> 1  1-1.00134066E+00-2.25158504E-03 3.44925845E-03 0.00000000E+00 0.00000000E+00
 INPUT CARD> 1  2-2.13170927E-03 0.00000000E+00 0.00000000E+00 6.57129898E-04-6.87950443E-05
 INPUT CARD> 1  3-6.87950443E-05 1.37590089E-04 0.00000000E+00 0.00000000E+00 0.00000000E+00
 INPUT CARD> 1  4 3.25502815E-04-4.84772356E-04 3.62525460E-04-6.27912517E-04-3.45956485E-04
 INPUT CARD> 1  5 3.25502815E-04-4.84772356E-04 3.62525460E-04 6.27912517E-04-3.45956485E-04
 INPUT CARD> 1  6 3.25502815E-04-4.84772356E-04-7.25050921E-04 0.00000000E+00-3.45956485E-04
 INPUT CARD> 2  1 1.31286642E-02-4.05911371E-01-2.82090992E-01 0.00000000E+00 0.00000000E+00
 INPUT CARD> 2  2-7.71489043E-02 0.00000000E+00 0.00000000E+00 9.73717494E-03 6.62450916E-04
 INPUT CARD> 2  3 6.62450916E-04-1.32490183E-03 0.00000000E+00 0.00000000E+00 0.00000000E+00
 INPUT CARD> 2  4-1.96090317E-01-1.96656153E-02-1.74855877E-02 3.02859263E-02 8.68214399E-03
 INPUT CARD> 2  5-1.96090317E-01-1.96656153E-02-1.74855877E-02-3.02859263E-02 8.68214399E-03
 INPUT CARD> 2  6-1.96090317E-01-1.96656153E-02 3.49711754E-02 0.00000000E+00 8.68214399E-03
 INPUT CARD> 3  1 0.00000000E+00 0.00000000E+00 0.00000000E+00 4.48608762E-01 0.00000000E+00
 INPUT CARD> 3  2 0.00000000E+00 2.18692520E-01 0.00000000E+00 0.00000000E+00 1.30198027E-02
 INPUT CARD> 3  3-1.30198027E-02 0.00000000E+00 0.00000000E+00 2.71832968E-02 0.00000000E+00
 INPUT CARD> 3  4-1.85332726E-01-7.03958951E-02 8.47929477E-03 1.95242443E-02 8.32835058E-03
 INPUT CARD> 3  5-1.85332726E-01-7.03958951E-02 8.47929477E-03-1.95242443E-02 8.32835058E-03
 INPUT CARD> 3  6 3.70665453E-01 1.40791790E-01-2.53376884E-02 0.00000000E+00-1.66567012E-02
 INPUT CARD> 4  1 0.00000000E+00 0.00000000E+00 0.00000000E+00 0.00000000E+00 4.48608762E-01
 INPUT CARD> 4  2 0.00000000E+00 0.00000000E+00 2.18692520E-01 0.00000000E+00 0.00000000E+00
 INPUT CARD> 4  3 0.00000000E+00 0.00000000E+00-1.50339731E-02 0.00000000E+00 2.71832968E-02
 INPUT CARD> 4  4 3.21005698E-01 1.21929267E-01 1.95242443E-02-1.40653607E-02-1.44251263E-02
  100000000 WORDS OF MEMORY AVAILABLE

     BASIS OPTIONS
     -------------
     GBASIS=CCD          IGAUSS=       0      POLAR=NONE    
     NDFUNC=       0     NFFUNC=       0     DIFFSP=       F
     NPFUNC=       0      DIFFS=       F     BASNAM=        


     RUN TITLE
     ---------
  NH3+ 3 states calculation at NH3 structure.                                    

 THE POINT GROUP OF THE MOLECULE IS C1      
 THE ORDER OF THE PRINCIPAL AXIS IS     0

 ATOM      ATOMIC                      COORDINATES (BOHR)
           CHARGE         X                   Y                   Z
 N           7.0    -0.0706256893       -0.0235418397       -0.3200836930
 H           1.0    -0.1576444681        1.9819869643        0.4213920429
 H           1.0    -0.4464903061       -1.9306734469        0.2485899012
 H           1.0     1.5854976555        0.2758083425        0.7839461063

          INTERNUCLEAR DISTANCES (ANGS.)
          ------------------------------

                1 N          2 H          3 H          4 H     

   1 N       0.0000000    1.1324275 *  1.0717394 *  1.0651113 *
   2 H       1.1324275 *  0.0000000    2.0781380 *  1.3049382 *
   3 H       1.0717394 *  2.0781380 *  0.0000000    1.6123974 *
   4 H       1.0651113 *  1.3049382 *  1.6123974 *  0.0000000  

  * ... LESS THAN  3.000


     ATOMIC BASIS SET
     ----------------
 THE CONTRACTED PRIMITIVE FUNCTIONS HAVE BEEN UNNORMALIZED
 THE CONTRACTED BASIS FUNCTIONS ARE NOW NORMALIZED TO UNITY

  SHELL TYPE  PRIMITIVE        EXPONENT          CONTRACTION COEFFICIENT(S)

 N         

      1   S       1          9046.0000000    0.000699617413
      1   S       2          1357.0000000    0.005386054630
      1   S       3           309.3000000    0.027391021189
      1   S       4            87.7300000    0.103150591982
      1   S       5            28.5600000    0.278570663317
      1   S       6            10.2100000    0.448294849454
      1   S       7             3.8380000    0.278085928395
      1   S       8             0.7466000    0.015431561233

      2   S       9          9046.0000000   -0.000304990096
      2   S      10          1357.0000000   -0.002408026379
      2   S      11           309.3000000   -0.011944448725
      2   S      12            87.7300000   -0.048925992909
      2   S      13            28.5600000   -0.134472724725
      2   S      14            10.2100000   -0.315112577700
      2   S      15             3.8380000   -0.242857832550
      2   S      16             0.7466000    1.094382206854

      3   S      17             0.2248000    1.000000000000

      4   P      18            13.5500000    0.058905676772
      4   P      19             2.9170000    0.320461106714
      4   P      20             0.7973000    0.753042061792

      5   P      21             0.2185000    1.000000000000

      6   D      22             0.8170000    1.000000000000

 H         

      7   S      23            13.0100000    0.033498726390
      7   S      24             1.9620000    0.234800801174
      7   S      25             0.4446000    0.813682957883

      8   S      26             0.1220000    1.000000000000

      9   P      27             0.7270000    1.000000000000

 H         

     10   S      28            13.0100000    0.033498726390
     10   S      29             1.9620000    0.234800801174
     10   S      30             0.4446000    0.813682957883

     11   S      31             0.1220000    1.000000000000

     12   P      32             0.7270000    1.000000000000

 H         

     13   S      33            13.0100000    0.033498726390
     13   S      34             1.9620000    0.234800801174
     13   S      35             0.4446000    0.813682957883

     14   S      36             0.1220000    1.000000000000

     15   P      37             0.7270000    1.000000000000

 TOTAL NUMBER OF BASIS SET SHELLS             =   15
 NUMBER OF CARTESIAN GAUSSIAN BASIS FUNCTIONS =   30
 NOTE: THIS RUN WILL RESTRICT THE MO VARIATION SPACE TO SPHERICAL HARMONICS.
 THE NUMBER OF ORBITALS KEPT IN THE VARIATIONAL SPACE WILL BE PRINTED LATER.
 NUMBER OF ELECTRONS                          =    9
 CHARGE OF MOLECULE                           =    1
 SPIN MULTIPLICITY                            =    2
 NUMBER OF OCCUPIED ORBITALS (ALPHA)          =    5
 NUMBER OF OCCUPIED ORBITALS (BETA )          =    4
 TOTAL NUMBER OF ATOMS                        =    4
 THE NUCLEAR REPULSION ENERGY IS       11.1934998217

     $CONTRL OPTIONS
     ---------------
 SCFTYP=MCSCF        RUNTYP=ENERGY       EXETYP=RUN     
 MPLEVL=       2     CITYP =NONE         CCTYP =NONE         VBTYP =NONE    
 DFTTYP=NONE         TDDFT =NONE    
 MULT  =       2     ICHARG=       1     NZVAR =       0     COORD =UNIQUE  
 PP    =NONE         RELWFN=NONE         LOCAL =NONE         NUMGRD=       F
 ISPHER=       1     NOSYM =       1     MAXIT =     200     UNITS =ANGS    
 PLTORB=       F     MOLPLT=       F     AIMPAC=       F     FRIEND=        
 NPRINT=       7     IREST =       0     GEOM  =INPUT   
 NORMF =       0     NORMP =       0     ITOL  =      20     ICUT  =       9
 INTTYP=RYSQUAD      GRDTYP=BEST         QMTTOL= 1.0E-05

     $SYSTEM OPTIONS
     ---------------
  REPLICATED MEMORY=   100000000 WORDS (ON EVERY NODE).
 DISTRIBUTED MEMDDI=        1000 MILLION WORDS IN AGGREGATE,
 MEMDDI DISTRIBUTED OVER   1 PROCESSORS IS  1000000000 WORDS/PROCESSOR.
 TOTAL MEMORY REQUESTED ON EACH PROCESSOR=  1100000000 WORDS.
 TIMLIM=      525600.00 MINUTES, OR     365.0 DAYS.
 PARALL= T  BALTYP=  DLB     KDIAG=    3  COREFL= F
 MXSEQ2=     300 MXSEQ3=     150  mem10=         0

          ----------------
          PROPERTIES INPUT
          ----------------

     MOMENTS            FIELD           POTENTIAL          DENSITY
 IEMOM =       1   IEFLD =       0   IEPOT =       0   IEDEN =       0
 WHERE =COMASS     WHERE =NUCLEI     WHERE =NUCLEI     WHERE =NUCLEI  
 OUTPUT=BOTH       OUTPUT=BOTH       OUTPUT=BOTH       OUTPUT=BOTH    
 IEMINT=       0   IEFINT=       0                     IEDINT=       0
                                                       MORB  =       0

     -------------------------------
     INTEGRAL TRANSFORMATION OPTIONS
     -------------------------------
     NWORD  =            0
     CUTOFF = 1.0E-09     MPTRAN =       0
     DIRTRF =       T     AOINTS =DUP     

          ----------------------
          MCSCF INPUT PARAMETERS
          ----------------------
 CONVERGER SELECTION: FOCAS = F  SOSCF = F  FULLNR = T  QUD = F  JACOBI = F
 SECULAR EQUATION METHOD CISTEP = GMCCI   
 --- GENERAL INPUT OPTIONS:
 MAXIT =     100  MICIT =       1  ACURCY= 1.000E-06
 DAMP  =   0.000  CANONC=       T  ENGTOL= 1.000E-10
 EKT   =       F  NPUNCH=       2  NWORD =         0
 REGENERATE CI AFTER CONVERGENCE = NONE    
 DIABATIZATION AFTER CONVERGENCE =        F
 --- INPUT FOR FULLNR CONVERGER:
 METHOD=DM2       FORS  =       F  DROPC =       T
 LINSER=       F  FCORE =       F  NORB  =      30

          ----------------------
          INTEGRAL INPUT OPTIONS
          ----------------------
 NOPK  =       1 NORDER=       0 SCHWRZ=       T

 ------------------------------------------
 MULTIREFERENCE PERTURBATION THEORY CONTROL
 ------------------------------------------
 MRPT=GMCPT    READ CONVERGED MCSCF VECTORS= F


     ------------------------------------------
     THE POINT GROUP IS C1 , NAXIS= 1, ORDER= 1
     ------------------------------------------

 -- VARIATIONAL SPACE WILL BE RESTRICTED TO PURE SPHERICAL HARMONICS ONLY --
 AFTER EXCLUDING CONTAMINANT COMBINATIONS FROM THE CARTESIAN GAUSSIAN BASIS
 SET, THE NUMBER OF SPHERICAL HARMONICS KEPT IN THE VARIATION SPACE IS   29

     DIMENSIONS OF THE SYMMETRY SUBSPACES ARE
 A   =   29

 ..... DONE SETTING UP THE RUN .....
 CPU     0: STEP CPU TIME=     0.04 TOTAL CPU TIME=          0.0 (      0.0 MIN)
 TOTAL WALL CLOCK TIME=          0.0 SECONDS, CPU UTILIZATION IS   100.00%

          ********************
          1 ELECTRON INTEGRALS
          ********************
 TIME TO DO   DIPOLE INTEGRALS=      0.00
 ...... END OF ONE-ELECTRON INTEGRALS ......
 CPU     0: STEP CPU TIME=     0.00 TOTAL CPU TIME=          0.0 (      0.0 MIN)
 TOTAL WALL CLOCK TIME=          0.0 SECONDS, CPU UTILIZATION IS   100.00%

          -------------
          GUESS OPTIONS
          -------------
          GUESS =MOREAD            NORB  =      29          NORDER=       0
          MIX   =       F          PRTMO =       F          PUNMO =       F
          TOLZ  = 1.0E-08          TOLE  = 1.0E-05
          SYMDEN=       F          PURIFY=       T

 INITIAL GUESS ORBITALS GENERATED BY MOREAD   ROUTINE.

 STATISTICS FOR GENERATION OF SYMMETRY ORBITAL -Q- MATRIX
 NUMBER OF CARTESIAN ATOMIC ORBITALS=         30
 NUMBER OF SPHERICAL CONTAMINANTS DROPPED=     1
 NUMBER OF LINEARLY DEPENDENT MOS DROPPED=     0
 TOTAL NUMBER OF MOS IN VARIATION SPACE=      29
 ORBITAL PURIFICATION WILL OCCUR

 SYMMETRIES FOR INITIAL GUESS ORBITALS FOLLOW.   BOTH SET(S).
     5 ORBITALS ARE OCCUPIED (    1 CORE ORBITALS).
     1=A        2=A        3=A        4=A        5=A        6=A        7=A   
     8=A        9=A       10=A       11=A       12=A       13=A       14=A   
    15=A       16=A       17=A       18=A       19=A       20=A       21=A   
    22=A       23=A       24=A       25=A       26=A       27=A       28=A   
    29=A   
 ...... END OF INITIAL ORBITAL SELECTION ......
 CPU     0: STEP CPU TIME=     0.00 TOTAL CPU TIME=          0.0 (      0.0 MIN)
 TOTAL WALL CLOCK TIME=          0.1 SECONDS, CPU UTILIZATION IS    80.00%

                    ----------------------
                    AO INTEGRAL TECHNOLOGY
                    ----------------------
     S,P,L SHELL ROTATED AXIS INTEGRALS, REPROGRAMMED BY
        KAZUYA ISHIMURA (IMS) AND JOSE SIERRA (SYNSTAR).
     S,P,D,L SHELL ROTATED AXIS INTEGRALS PROGRAMMED BY
        KAZUYA ISHIMURA (INSTITUTE FOR MOLECULAR SCIENCE).
     S,P,D,F,G SHELL TO TOTAL QUARTET ANGULAR MOMENTUM SUM 5,
        ERIC PROGRAM BY GRAHAM FLETCHER (ELORET AND NASA ADVANCED
        SUPERCOMPUTING DIVISION, AMES RESEARCH CENTER).
     S,P,D,F,G,L SHELL GENERAL RYS QUADRATURE PROGRAMMED BY
        MICHEL DUPUIS (PACIFIC NORTHWEST NATIONAL LABORATORY).

          --------------------
          2 ELECTRON INTEGRALS
          --------------------

 DIRECT SCF METHOD SKIPS INTEGRAL STORAGE ON DISK.
 DIRECT TRANSFORMATION SKIPS AO INTEGRAL STORAGE ON DISK.
  ...... END OF TWO-ELECTRON INTEGRALS .....
 STEP CPU TIME =     0.02 TOTAL CPU TIME =          0.1 (      0.0 MIN)
 TOTAL WALL CLOCK TIME=          0.1 SECONDS, CPU UTILIZATION IS    85.71%
 DDI: Creating Array [0] - 900 x 36 = 32400 words.
 DDI: Creating Array [1] - 21 x 288 = 6048 words.
 DDI: Creating Array [2] - 36 x 36 = 1296 words.
 DDI: Creating Array [3] - 465 x 36 = 16740 words.

          -----------------
          MCSCF CALCULATION
          -----------------

 ----- NUCLEAR ENERGY ----- =        11.1934998217

     -------------------------------------------------
     GMC-PT/GMC-QDPT or general MCSCF input parameters
     -------------------------------------------------
 # of frozen core orbs. =         0 ->         0
 # of doubly occ. orbs. =         1
 # of active      orbs. =         7
 # of virtual     orbs. =        21
 # of active electrons  =         7
 # of states in CI      =         3
 Highest state in CI    =         3
 kstate =  1 1 1
 avecoe =  0.333 0.333 0.333
 State symmetry           = A           
 Assigned symmetry number = 1

 <<<Act. MO sym.: 1111111

 <<<Division of 1-ext.:  0
 <<<Division of 2-ext.:  0

 *** Reference space

 Reference type: ORMAS (= Occupation restricted multiple active space)
 # of orbitals          =  7
 # of minimum electrons =  7
 # of maximum electrons =  7
 State symmetry    =    1 (input)
 2*Sz              =    1 (input)
 Spin multiplicity =    2 (input)
 Dimension of reference space =      1225  (from      3432 walks)

 Dimension of reference space =      1225  (from      1225 walks)

 <<<Ionized spaces for Ref-CI:
      0:         1225 /   -1-0:         1960 /  0-1-0:         2891

 EVALUATING EXCHANGE INTEGRALS FOR DIRECT INTEGRAL TRANSFORMATION
 SCHWARZ INEQUALITY OVERHEAD:       465 INTEGRALS, T=        0.00

     --------------------------------------------
     PARTIAL TWO ELECTRON INTEGRAL TRANSFORMATION
     --------------------------------------------

 NUMBER OF CORE MOLECULAR ORBITALS     =    1
 NUMBER OF OCCUPIED MOLECULAR ORBITALS =    8
 TOTAL NUMBER OF MOLECULAR ORBITALS    =   29
 TOTAL NUMBER OF ATOMIC ORBITALS       =   30
 THRESHOLD FOR KEEPING TRANSFORMED 2E- INTEGRALS = 1.000E-09

 -------------------------------     ------------------------------
 DISTRIBUTED DATA TRANSFORMATION     PROGRAM WRITTEN BY G. FLETCHER
 -------------------------------     ------------------------------

 THE DISTRIBUTED MEMORY REQUIRED FOR THIS STEP IS MEMDDI=         1 MWORDS
 CREATING DISTRIBUTED STORAGE FOR [VIR OCC|VIR OCC] INTEGRALS
 CREATING DISTRIBUTED STORAGE FOR [VIR OCC|OCC OCC] INTEGRALS
 CREATING DISTRIBUTED STORAGE FOR [OCC OCC|OCC OCC] INTEGRALS
 CREATING DISTRIBUTED STORAGE FOR [VIR VIR|OCC OCC] INTEGRALS
 FOR    1 PROCESSORS, THE REPLICATED MEMORY NEEDED IS       73700 WORDS.
 SCHWARZ INEQUALITY OVERHEAD:       465 INTEGRALS, T=        0.00

      DIRECT 4-INDEX TRANSFORMATION 
      SCHWARZ INEQUALITY TEST SKIPPED          0 INTEGRAL BLOCKS
 ----- FROZEN CORE ENERGY =       -47.6477533869
 ... END OF INTEGRAL TRANSFORMATION ...
 CPU     0: STEP CPU TIME=     0.22 TOTAL CPU TIME=          0.3 (      0.0 MIN)
 TOTAL WALL CLOCK TIME=          0.3 SECONDS, CPU UTILIZATION IS    96.55%

     --------------------------------     -----------------------------
     MCHF NEWTON-RAPHSON OPTIMIZATION     CODE WRITTEN BY MICHEL DUPUIS
     --------------------------------     -----------------------------
     PARALLEL VERSION WRITTEN BY G. FLETCHER (ELORET)
     NASA ADVANCED SUPERCOMPUTING DIVISION, AMES RESEARCH CENTER

 NUMBER OF INDEPENDENT ORBITAL ROTATION PARAMETERS =   175
 ..... DONE SOLVING NEWTON-RAPHSON EQUATIONS .....
 CPU     0: STEP CPU TIME=     0.90 TOTAL CPU TIME=          1.2 (      0.0 MIN)
 TOTAL WALL CLOCK TIME=          1.2 SECONDS, CPU UTILIZATION IS   100.00%
 ..... DONE WITH NTN-RPH ORBITAL ROTATIONS ..... 
 CPU     0: STEP CPU TIME=     0.00 TOTAL CPU TIME=          1.2 (      0.0 MIN)
 TOTAL WALL CLOCK TIME=          1.2 SECONDS, CPU UTILIZATION IS   100.00%
 MAXIMUM MEMORY USED BY NTN-RPH CODE WAS     57645 WORDS.

 ITER     TOTAL ENERGY      DEL(E)  LAGRANGIAN ASYMMETRY   SQCDF  MICIT   DAMP
   1      -55.620457120 -0.620457120  0.113413   12    5 1.145E-01  1   0.0000
   2      -55.672122829 -0.051665709  0.020184   12    5 4.594E-01  1   0.0000
   3      -55.707561129 -0.035438299  0.013509   11    6 2.232E-01  1   0.0208
   4      -55.723242158 -0.015681030  0.004668   11    6 4.185E-02  1   0.0053
   5      -55.725261808 -0.002019650  0.001028   13    5 1.029E-03  1   0.0000
   6      -55.725318106 -0.000056298  0.000415   13    5 7.531E-05  1   0.0000
   7      -55.725323739 -0.000005633  0.000179   13    5 1.412E-05  1   0.0000
   8      -55.725324847 -0.000001108  0.000083   13    5 3.360E-06  1   0.0000
   9      -55.725325109 -0.000000262  0.000040   22    5 9.075E-07  1   0.0000
  10      -55.725325177 -0.000000069  0.000020   22    5 2.654E-07  1   0.0000
  11      -55.725325197 -0.000000020  0.000010   22    5 8.188E-08  1   0.0000
  12      -55.725325203 -0.000000006  0.000005   22    5 2.605E-08  1   0.0000
  13      -55.725325205 -0.000000002  0.000003   22    5 8.543E-09  1   0.0000
  14      -55.725325205 -0.000000001  0.000001   22    5 2.850E-09  1   0.0000
  15      -55.725325206 -0.000000000  0.000001   22    5 9.660E-10  1   0.0000

          --------------------
          LAGRANGIAN CONVERGED
          --------------------

 FINAL MCSCF ENERGY IS      -55.7253252055 AFTER  15 ITERATIONS

 -MCCI- BASED ON OPTIMIZED ORBITALS
 ----------------------------------

 PLEASE NOTE: IF THE ACTIVE ORBITALS ARE CANONICALIZED BELOW,
 THE FOLLOWING CI EXPANSION COEFFICIENTS AND THE DENSITY DO NOT
 CORRESPOND TO THE PRINTED ORBITALS.  THE PRINTED EXPANSIONS MATCH
 THE ORBITALS USED DURING THE LAST ITERATION.  IF YOU WISH TO SEE
 CI EXPANSIONS BASED ON THE CANONICAL (OR NATURAL) ORBITALS, YOU
 MUST RUN A CI CALCULATION WITH THAT ORBITAL CHOICE READ IN $VEC.

 Averaged energy =     -55.725325206

 State #    1  Energy =     -55.864126992  S =  0.500

      Det      Coef    Occupancy (Ignoring core)
      ---      ----    --------- --------- -----
        1    0.904668  11110001110000
        2    0.052495  11101001110000
        5   -0.069548  01111001110000
        8   -0.140408  10110101110000
       17    0.126872  11010011110000
       71   -0.276811  11110001011000
      211    0.051635  11110000110100
      386    0.093118  11110001010010
      393    0.074918  10110101010010
      701   -0.106429  11110001100001

 State #    2  Energy =     -55.727794472  S =  0.500

      Det      Coef    Occupancy (Ignoring core)
      ---      ----    --------- --------- -----
        1   -0.259317  11110001110000
       36   -0.300605  11110001101000
       71   -0.869880  11110001011000
       74    0.066119  10111001011000
       75    0.062530  01111001011000
       78    0.092184  10110101011000
       87   -0.094315  11010011011000
      316   -0.052328  11110000011100
      386   -0.074259  11110001010010
      806   -0.085427  11110001001001

 State #    3  Energy =     -55.584054152  S =  0.500

      Det      Coef    Occupancy (Ignoring core)
      ---      ----    --------- --------- -----
        1    0.074566  11110001110000
       36   -0.913494  11110001101000
       43    0.085448  10110101101000
       52   -0.059714  11010011101000
       71    0.288720  11110001011000
      281   -0.074837  11110000101100
      456   -0.108489  11110001001010
      463   -0.076058  10110101001010

 DENSITY MATRIX OVER ACTIVE MO-S

             1           2           3           4           5

    1    1.9746098
    2    0.0244535   1.6242799
    3   -0.0003045   0.0027356   1.6337203
    4   -0.0008508   0.0071815  -0.0010633   1.6513943
    5    0.1073802  -0.0587243   0.0005742   0.0334900   0.0330905
    6    0.0073757  -0.1644653   0.0005931   0.0654504   0.0115679
    7   -0.0077587  -0.0042179  -0.1465271  -0.0003977  -0.0023065

             6           7

    6    0.0492459
    7   -0.0021523   0.0336593

 FORMING THE "STANDARD FOCK OPERATOR" IN DIRECT AO INTEGRAL MODE...
 ONLY THE    1 CORE AND   21 VIRTUAL ORBITALS WILL BE CANONICALIZED

          ----------------------
          MCSCF NATURAL ORBITALS
          ----------------------

                      1          2          3          4          5
                  -15.9812     1.9818     1.6550     1.6482     1.6409
                     A          A          A          A          A   
    1  N  1  S    1.001118   0.009356  -0.009145  -0.002060  -0.003227
    2  N  1  S   -0.001958   0.435583  -0.162947  -0.078250  -0.072348
    3  N  1  S   -0.006326   0.320098  -0.261417  -0.106832  -0.109991
    4  N  1  X    0.000066   0.048999  -0.114440   0.173816   0.491583
    5  N  1  Y   -0.000103   0.005357  -0.094440   0.422717  -0.198823
    6  N  1  Z    0.001099   0.089190   0.579435   0.103428   0.011485
    7  N  1  X    0.000016   0.001695  -0.093208   0.069753   0.268591
    8  N  1  Y   -0.000021   0.003096  -0.045297   0.154128  -0.101620
    9  N  1  Z   -0.000504   0.013172   0.385757   0.049759  -0.024243
   10  N  1 XX   -0.000156  -0.002217  -0.013280   0.003604   0.014271
   11  N  1 YY    0.000317   0.002031  -0.009648  -0.008472  -0.015083
   12  N  1 ZZ   -0.000161   0.000186   0.022928   0.004868   0.000812
   13  N  1 XY    0.000145   0.001710   0.000196   0.000122   0.000709
   14  N  1 XZ    0.000164   0.002444   0.000933   0.009710   0.022567
   15  N  1 YZ    0.000005   0.001633  -0.003395   0.017816  -0.008159
   16  H  2  S   -0.001535   0.165163   0.057236   0.268652  -0.247051
   17  H  2  S    0.000411  -0.001209   0.025615   0.037519  -0.076699
   18  H  2  X   -0.000088   0.003531  -0.000909   0.014179   0.015431
   19  H  2  Y    0.000802  -0.029947  -0.008851  -0.030584   0.024248
   20  H  2  Z    0.000363  -0.006092   0.022303  -0.006076   0.009017
   21  H  3  S   -0.001786   0.166793   0.161041  -0.339395   0.000073
   22  H  3  S    0.000588  -0.000461   0.036847  -0.045147  -0.014876
   23  H  3  X   -0.000238   0.009780   0.002161  -0.004862   0.021246
   24  H  3  Y   -0.000932   0.031641   0.019117  -0.036277   0.000446
   25  H  3  Z    0.000325  -0.003531   0.018004   0.015224   0.000875
   26  H  4  S   -0.001841   0.214214   0.094763   0.189057   0.328814
   27  H  4  S    0.000277   0.008820   0.023508   0.029373   0.093955
   28  H  4  X    0.000860  -0.033199  -0.019928  -0.016331  -0.019386
   29  H  4  Y    0.000146  -0.005722  -0.003072   0.019537  -0.012799
   30  H  4  Z    0.000537  -0.017269   0.019574  -0.007280  -0.021183

                      6          7          8
                    0.0321     0.0225     0.0194
                     A          A          A   
    1  N  1  S   -0.120383  -0.151685  -0.102255
    2  N  1  S   -0.400454  -0.533849  -0.315527
    3  N  1  S    0.006524  -0.199215  -0.016557
    4  N  1  X    0.641149  -0.464581   0.029391
    5  N  1  Y   -0.175125  -0.253654   0.882833
    6  N  1  Z   -0.170107  -0.603429  -0.200052
    7  N  1  X   -0.047062  -0.075897  -0.001948
    8  N  1  Y    0.011927  -0.055324   0.073792
    9  N  1  Z    0.054833   0.058726   0.057946
   10  N  1 XX   -0.058857  -0.010497  -0.007668
   11  N  1 YY    0.062781   0.007999   0.014397
   12  N  1 ZZ   -0.003924   0.002498  -0.006729
   13  N  1 XY    0.009444   0.029176  -0.039586
   14  N  1 XZ   -0.002349   0.045743   0.012245
   15  N  1 YZ    0.009925   0.025474  -0.048777
   16  H  2  S    0.616184   0.349752  -0.375648
   17  H  2  S    0.156680   0.038357  -0.111215
   18  H  2  X   -0.014079   0.028008  -0.014110
   19  H  2  Y   -0.062372  -0.042075   0.029719
   20  H  2  Z   -0.000913   0.028677  -0.008886
   21  H  3  S    0.389579   0.116870   0.743978
   22  H  3  S    0.071434  -0.011752   0.146808
   23  H  3  X   -0.006966   0.010003   0.023875
   24  H  3  Y    0.039917   0.023059   0.075058
   25  H  3  Z   -0.002672   0.008497   0.025163
   26  H  4  S   -0.419501   0.728000   0.109945
   27  H  4  S   -0.151333   0.133483   0.029148
   28  H  4  X    0.009553  -0.068060  -0.015436
   29  H  4  Y    0.012860   0.016930  -0.043915
   30  H  4  Z    0.022706   0.001515  -0.002089

          ------------------------
          MCSCF OPTIMIZED ORBITALS
          ------------------------

                      1          2          3          4          5
                  -15.9812     0.0000     0.0000     0.0000     0.0000
                     A          A          A          A          A   
    1  N  1  S    1.001118  -0.002265   0.009932   0.004252  -0.015427
    2  N  1  S   -0.001958   0.399508  -0.014999  -0.003770  -0.194716
    3  N  1  S   -0.006326   0.318213  -0.100798  -0.007668  -0.277990
    4  N  1  X    0.000066   0.017637   0.450010  -0.034376  -0.034056
    5  N  1  Y   -0.000103  -0.001124  -0.002088   0.390113  -0.016175
    6  N  1  Z    0.001099   0.051419   0.009422  -0.002201   0.580301
    7  N  1  X    0.000016  -0.018954   0.282608  -0.040942  -0.071790
    8  N  1  Y   -0.000021   0.002950  -0.026425   0.180095  -0.016845
    9  N  1  Z   -0.000504   0.018626  -0.046231  -0.009026   0.389793
   10  N  1 XX   -0.000156  -0.005408   0.021647  -0.001747  -0.014560
   11  N  1 YY    0.000317   0.005456  -0.022665   0.000875  -0.008612
   12  N  1 ZZ   -0.000161  -0.000048   0.001018   0.000872   0.023173
   13  N  1 XY    0.000145   0.002751   0.001385   0.003900   0.000159
   14  N  1 XZ    0.000164   0.003168   0.025128  -0.001514   0.003363
   15  N  1 YZ    0.000005   0.002380   0.001265   0.024658  -0.000348
   16  H  2  S   -0.001535   0.199704  -0.153427   0.387643   0.122348
   17  H  2  S    0.000411   0.006782  -0.068558   0.075903   0.035488
   18  H  2  X   -0.000088   0.003000   0.022399   0.007456   0.001436
   19  H  2  Y    0.000802  -0.033683   0.013048  -0.040858  -0.016171
   20  H  2  Z    0.000363  -0.005193   0.003778  -0.011522   0.020754
   21  H  3  S   -0.001786   0.202238  -0.204905  -0.377985   0.119089
   22  H  3  S    0.000588   0.005097  -0.047366  -0.050482   0.031868
   23  H  3  X   -0.000238   0.009341   0.017681  -0.015763   0.001810
   24  H  3  Y   -0.000932   0.035731  -0.020372  -0.040341   0.014511
   25  H  3  Z    0.000325  -0.003317   0.004826   0.008189   0.020677
   26  H  4  S   -0.001841   0.213266   0.431417   0.005408   0.120377
   27  H  4  S    0.000277   0.005034   0.112127  -0.021647   0.024804
   28  H  4  X    0.000860  -0.034665  -0.026023  -0.002711  -0.022919
   29  H  4  Y    0.000146  -0.004992  -0.003252   0.027610   0.000327
   30  H  4  Z    0.000537  -0.015178  -0.027334   0.000261   0.018066

                      6          7          8          9         10
                    0.0000     0.0000     0.0000     0.1478     0.2045
                     A          A          A          A          A   
    1  N  1  S    0.211796  -0.039340  -0.037113  -0.131802   0.010177
    2  N  1  S    0.743505  -0.114362  -0.094439  -0.199562   0.005278
    3  N  1  S    0.185982   0.102447   0.021765   1.325250  -0.184654
    4  N  1  X    0.077186   0.837882  -0.044396  -0.047606  -0.005171
    5  N  1  Y    0.035271   0.086486   0.969738  -0.011153  -0.161901
    6  N  1  Z    0.660210   0.106633  -0.029651  -0.199524   0.011920
    7  N  1  X    0.072748   0.029345   0.021598   0.192904   0.178653
    8  N  1  Y    0.020693   0.045041   0.094391   0.079998   0.808732
    9  N  1  Z   -0.080495   0.004486   0.029238   0.441552   0.008959
   10  N  1 XX    0.036326  -0.043706   0.009397  -0.026844   0.031022
   11  N  1 YY   -0.038402   0.050032  -0.003576   0.069542  -0.050462
   12  N  1 ZZ    0.002076  -0.006326  -0.005820  -0.042698   0.019440
   13  N  1 XY   -0.017249  -0.011277  -0.045405   0.033762  -0.014341
   14  N  1 XZ   -0.041893  -0.020919   0.003248   0.063439   0.028803
   15  N  1 YZ   -0.011663  -0.010168  -0.051672   0.021128   0.094960
   16  H  2  S   -0.444919   0.288204  -0.545171   0.387462   0.249576
   17  H  2  S   -0.067032   0.093611  -0.145991  -0.927719  -0.905828
   18  H  2  X   -0.013824  -0.025703  -0.014633   0.033586   0.007389
   19  H  2  Y    0.052372  -0.026910   0.048369   0.071011   0.050709
   20  H  2  Z   -0.021233  -0.016666  -0.014886   0.035666   0.069903
   21  H  3  S   -0.471490   0.344707   0.553903   0.314123  -0.530148
   22  H  3  S   -0.062631   0.079832   0.119507  -0.714392   1.891403
   23  H  3  X   -0.012411  -0.006307   0.021180  -0.033007   0.012712
   24  H  3  Y   -0.056479   0.029523   0.053389  -0.081104   0.110578
   25  H  3  Z   -0.013267  -0.003733   0.023724  -0.009603  -0.072985
   26  H  4  S   -0.459698  -0.674096   0.070225   0.247874   0.195129
   27  H  4  S   -0.056342  -0.183272   0.038014  -0.796420  -0.654798
   28  H  4  X    0.056306   0.038775  -0.004256   0.074766   0.017058
   29  H  4  Y   -0.007414  -0.003209  -0.045881   0.068522   0.003338
   30  H  4  Z   -0.010375   0.015112  -0.008081   0.068152   0.035627

                     11         12         13         14         15
                    0.2316     0.5337     0.6045     0.6818     0.7905
                     A          A          A          A          A   
    1  N  1  S    0.029129   0.084849   0.026729  -0.011606  -0.298191
    2  N  1  S    0.062493   0.116978   0.183079  -0.012516  -0.694456
    3  N  1  S   -0.169650  -0.503168   0.425230   0.054835   1.073323
    4  N  1  X   -0.005472  -0.609072  -0.303419   0.027291  -0.005528
    5  N  1  Y   -0.053233   0.015773   0.070180  -0.476683  -0.011472
    6  N  1  Z    0.042055   0.452305  -0.519496  -0.066828   0.255590
    7  N  1  X   -0.357389   1.140354   1.056960   0.152162  -0.088129
    8  N  1  Y    0.313817   0.088311  -0.065517   1.949695   0.032630
    9  N  1  Z   -0.149297  -0.539345   1.019371   0.215875  -0.246616
   10  N  1 XX   -0.068146   0.020934   0.002034   0.023937   0.003358
   11  N  1 YY    0.078994  -0.002269  -0.036890  -0.010550   0.027972
   12  N  1 ZZ   -0.010848  -0.018665   0.034856  -0.013386  -0.031331
   13  N  1 XY   -0.020604   0.015794  -0.066098   0.043980  -0.166545
   14  N  1 XZ   -0.069531   0.021914  -0.021648  -0.005963   0.047244
   15  N  1 YZ    0.026900   0.001357  -0.008820  -0.091651  -0.049712
   16  H  2  S    0.523923   0.263828  -0.180322  -0.690903   0.158426
   17  H  2  S   -1.722773   0.439559   0.408876  -0.579427  -0.304640
   18  H  2  X   -0.022591   0.056397  -0.144225   0.037701  -0.380273
   19  H  2  Y    0.054049  -0.024881   0.029043   0.237024   0.139676
   20  H  2  Z    0.010535  -0.076001   0.002862  -0.144519  -0.108906
   21  H  3  S    0.140756   0.394114  -0.358349   0.650784  -0.079814
   22  H  3  S   -0.309551   0.407202   0.313179   0.630462  -0.283824
   23  H  3  X    0.030366   0.006741   0.109432  -0.036102   0.252754
   24  H  3  Y    0.011798   0.046321   0.014068   0.213659  -0.041904
   25  H  3  Z   -0.008945  -0.056214   0.073633   0.145362   0.137796
   26  H  4  S   -0.605717  -0.084222  -0.750817  -0.129067   0.178686
   27  H  4  S    2.082638  -0.675014  -0.652379  -0.028777  -0.112548
   28  H  4  X   -0.085855   0.073117   0.107062   0.114006   0.115253
   29  H  4  Y   -0.002659   0.067980  -0.117249  -0.061991  -0.425822
   30  H  4  Z   -0.052416   0.032665   0.088349  -0.048105   0.060394

                     16         17         18         19         20
                    0.9980     1.0442     1.2031     1.3684     1.4207
                     A          A          A          A          A   
    1  N  1  S   -0.502337  -0.309181  -0.005568  -0.311765  -0.319221
    2  N  1  S   -1.062873  -0.651292  -0.013891  -0.664800  -0.667882
    3  N  1  S    2.086059   1.435812   0.042233   1.094400   1.238886
    4  N  1  X   -0.075585  -0.040718   0.016362  -0.031640   0.076128
    5  N  1  Y   -0.054524   0.080841  -0.288490  -0.023724  -0.003005
    6  N  1  Z    0.133858   0.060650   0.024676  -0.041221  -0.024490
    7  N  1  X    0.439786   0.329108   0.184815  -0.360402   0.473911
    8  N  1  Y    0.192940  -0.407554   1.108981  -0.219135   0.047470
    9  N  1  Z   -0.008925   0.437976   0.089400   0.454667   0.636394
   10  N  1 XX   -0.136265   0.189252   0.026222   0.122645  -0.062392
   11  N  1 YY   -0.091549  -0.062336  -0.006000   0.068095   0.072704
   12  N  1 ZZ    0.227813  -0.126916  -0.020222  -0.190740  -0.010312
   13  N  1 XY    0.057949   0.079978  -0.108530  -0.068799   0.069670
   14  N  1 XZ   -0.060844  -0.212690  -0.071301   0.027707  -0.098079
   15  N  1 YZ   -0.002695   0.058470   0.112601  -0.003201   0.036353
   16  H  2  S   -0.383422  -0.004331  -0.560383  -0.215779  -0.380625
   17  H  2  S   -0.223396  -0.048741  -0.166665  -0.045552   0.082123
   18  H  2  X    0.146993  -0.127198  -0.435504   0.475503  -0.010539
   19  H  2  Y   -0.018406   0.088352  -0.312978   0.011820  -0.047358
   20  H  2  Z    0.364205   0.079087   0.399238  -0.238453  -0.586538
   21  H  3  S   -0.178259  -0.358133   0.522108  -0.385510  -0.307301
   22  H  3  S   -0.247337  -0.290750   0.247922  -0.187317  -0.012635
   23  H  3  X   -0.042724  -0.451859   0.213997   0.673936  -0.273955
   24  H  3  Y   -0.012737  -0.037320  -0.238903  -0.131646   0.052893
   25  H  3  Z    0.277740   0.031851  -0.425115  -0.077915  -0.635474
   26  H  4  S   -0.482308  -0.321629  -0.070929  -0.230266  -0.421502
   27  H  4  S   -0.313211  -0.252570  -0.055288  -0.038926  -0.339058
   28  H  4  X   -0.165119   0.415637   0.126722   0.086398   0.048029
   29  H  4  Y    0.155975   0.108745   0.187137   0.275525  -0.012701
   30  H  4  Z    0.330532  -0.452628  -0.012389  -0.361003   0.439538

                     21         22         23         24         25
                    1.6363     1.8037     1.8652     1.9659     2.0955
                     A          A          A          A          A   
    1  N  1  S   -0.111537   0.119137   0.093033   0.145559  -0.031436
    2  N  1  S   -0.200721   0.350885   0.233714   0.317646  -0.053008
    3  N  1  S    0.636262   0.832758   0.056193  -0.095161   0.218386
    4  N  1  X   -0.163067   0.098659   0.299663   0.181236  -0.037621
    5  N  1  Y    0.022728  -0.079449   0.499521  -0.297026  -0.054338
    6  N  1  Z   -0.010549   0.198622   0.166309   0.117869   0.004775
    7  N  1  X    0.033825  -0.100902  -0.111130  -0.180143  -0.161333
    8  N  1  Y    0.859033  -0.263247   0.303503   0.013423   0.003819
    9  N  1  Z    0.286913   0.281825   0.009726  -0.089290   0.338711
   10  N  1 XX    0.123392   0.063853  -0.108557  -0.085279  -0.737878
   11  N  1 YY   -0.044039  -0.192687   0.022368   0.067883  -0.071601
   12  N  1 ZZ   -0.079353   0.128833   0.086189   0.017396   0.809478
   13  N  1 XY    0.045980  -0.066642   0.073872  -0.248397   0.427666
   14  N  1 XZ    0.074865  -0.195182  -0.154070  -0.161793   0.226931
   15  N  1 YZ   -0.087631   0.086880  -0.188875   0.090582   0.126620
   16  H  2  S   -0.320322  -0.033516  -0.042095   0.110689  -0.081302
   17  H  2  S   -0.467772  -0.292853  -0.219979   0.334194  -0.001388
   18  H  2  X    0.349801  -0.052301   0.128738   0.708084  -0.074613
   19  H  2  Y    0.448562   0.712641   0.459549  -0.515002   0.022447
   20  H  2  Z    0.428458  -0.258646   0.453574   0.040067  -0.198374
   21  H  3  S    0.224184  -0.195889   0.061843   0.001893  -0.111616
   22  H  3  S   -0.013427  -0.410975   0.392768  -0.086688  -0.103887
   23  H  3  X   -0.090010   0.004287   0.335752  -0.151602   0.139643
   24  H  3  Y   -0.317589  -0.823005   0.508252  -0.361848  -0.238700
   25  H  3  Z   -0.535547   0.097901  -0.355396   0.213108  -0.143023
   26  H  4  S   -0.334719  -0.077509   0.085023   0.028966  -0.056769
   27  H  4  S    0.217957   0.060515  -0.326192  -0.318213   0.047894
   28  H  4  X   -0.265104   0.118918   0.635864   0.660692   0.343223
   29  H  4  Y   -0.604570   0.423792   0.100301  -0.500447  -0.189649
   30  H  4  Z   -0.143407   0.290907   0.302040   0.220912  -0.552602

                     26         27         28         29
                    2.2780     2.5604     2.6190     3.0792
                     A          A          A          A   
    1  N  1  S    0.089574   0.031302  -0.152165  -0.063403
    2  N  1  S    0.163131  -0.011350  -0.157115  -0.037367
    3  N  1  S   -0.472433  -1.136766   2.082192   0.999351
    4  N  1  X    0.012645  -0.112125   0.279689  -0.348693
    5  N  1  Y   -0.066046   0.387655   0.182136  -0.132265
    6  N  1  Z   -0.004964  -0.163394   0.283291   0.039612
    7  N  1  X   -0.234254  -0.310638   0.788503  -0.503515
    8  N  1  Y    0.102728   1.164277   0.721590  -0.225508
    9  N  1  Z   -0.321403  -0.323361   0.636044   0.031642
   10  N  1 XX    0.344225  -0.122321   0.113533  -0.980221
   11  N  1 YY   -0.075741  -0.119608   0.328610   1.536485
   12  N  1 ZZ   -0.268484   0.241928  -0.442144  -0.556265
   13  N  1 XY    0.921393  -0.433859   0.207237   0.064203
   14  N  1 XZ   -0.416370  -0.436463   0.921145  -0.501040
   15  N  1 YZ    0.262014   1.008427   0.703856  -0.052627
   16  H  2  S    0.132938  -0.499348  -0.880410  -0.762906
   17  H  2  S    0.071586  -0.338973  -0.215609  -0.213629
   18  H  2  X   -0.112208   0.154969  -0.091271  -0.091015
   19  H  2  Y   -0.200340   0.536752   0.558230   0.754006
   20  H  2  Z   -0.029411  -0.010399   0.242496   0.398891
   21  H  3  S    0.112114   1.100998  -0.094715  -1.042600
   22  H  3  S    0.002958   0.427034   0.091958  -0.297568
   23  H  3  X    0.545754   0.180481  -0.146341  -0.201793
   24  H  3  Y   -0.127177   0.867043   0.008755  -0.822042
   25  H  3  Z    0.235730  -0.063160   0.230945   0.409610
   26  H  4  S    0.200541   0.595617  -1.266199   0.760983
   27  H  4  S    0.069210   0.287684  -0.488829   0.214091
   28  H  4  X   -0.095124  -0.429360   0.781122  -0.623322
   29  H  4  Y   -0.475000  -0.271678   0.066400  -0.074813
   30  H  4  Z    0.276946  -0.289345   0.539542  -0.411044
 .....DONE WITH MCSCF ITERATIONS.....
 CPU     0: STEP CPU TIME=    10.44 TOTAL CPU TIME=         11.6 (      0.2 MIN)
 TOTAL WALL CLOCK TIME=         11.6 SECONDS, CPU UTILIZATION IS   100.00%

     ----------------------------------------------------------------
     PROPERTY VALUES FOR THE MCSCF SELF-CONSISTENT FIELD WAVEFUNCTION
     ----------------------------------------------------------------

          -----------------
          ENERGY COMPONENTS
          -----------------

         WAVEFUNCTION NORMALIZATION =       1.0000000000

                ONE ELECTRON ENERGY =     -93.9398476811
                TWO ELECTRON ENERGY =      27.0210226538
           NUCLEAR REPULSION ENERGY =      11.1934998217
                                      ------------------
                       TOTAL ENERGY =     -55.7253252055

 ELECTRON-ELECTRON POTENTIAL ENERGY =      27.0210226538
  NUCLEUS-ELECTRON POTENTIAL ENERGY =    -149.6613069213
   NUCLEUS-NUCLEUS POTENTIAL ENERGY =      11.1934998217
                                      ------------------
             TOTAL POTENTIAL ENERGY =    -111.4467844458
               TOTAL KINETIC ENERGY =      55.7214592402
                 VIRIAL RATIO (V/T) =       2.0000693802

          ---------------------------------------
          MULLIKEN AND LOWDIN POPULATION ANALYSES
          ---------------------------------------

     ATOMIC MULLIKEN POPULATION IN EACH MOLECULAR ORBITAL

                      1          2          3          4          5

                  2.000000   1.981834   1.655015   1.648206   1.640918

    1             2.000702   1.350492   1.528654   0.900056   1.132331
    2            -0.000165   0.173351   0.014354   0.242969   0.199390
    3            -0.000240   0.173677   0.075922   0.388225   0.008384
    4            -0.000296   0.284313   0.036085   0.116956   0.300813

                      6          7          8

                  0.032086   0.022544   0.019398

    1             0.013986   0.012136   0.010522
    2             0.010268   0.002203   0.001690
    3             0.004045   0.000149   0.006990
    4             0.003786   0.008057   0.000196
 WARNING! MCSCF POPULATIONS SHOWN ABOVE ARE FOR THE NATURAL ORBITALS.
 IGNORE THE ABOVE DATA FOR MCSCF FUNCTIONS WHICH ARE NOT OF -FORS- TYPE.
 THE FOLLOWING POPULATIONS ARE CORRECT FOR ANY MCSCF WAVEFUNCTION.

               ----- POPULATIONS IN EACH AO -----
                             MULLIKEN      LOWDIN
              1  N  1  S      2.00234     1.90247
              2  N  1  S      0.82094     0.57774
              3  N  1  S      0.68916     0.41079
              4  N  1  X      0.73405     0.67585
              5  N  1  Y      0.63885     0.55664
              6  N  1  Z      0.86662     0.81431
              7  N  1  X      0.38496     0.45417
              8  N  1  Y      0.26832     0.39082
              9  N  1  Z      0.52632     0.56472
             10  N  1 XX      0.00061     0.15372
             11  N  1 YY      0.00581     0.19234
             12  N  1 ZZ      0.00018     0.14386
             13  N  1 XY      0.00586     0.00128
             14  N  1 XZ      0.00486     0.01139
             15  N  1 YZ      0.00000     0.00924
             16  H  2  S      0.54263     0.42175
             17  H  2  S      0.04815     0.15082
             18  H  2  X      0.00925     0.02482
             19  H  2  Y      0.03225     0.05247
             20  H  2  Z      0.01178     0.02833
             21  H  3  S      0.56699     0.44369
             22  H  3  S      0.03436     0.14826
             23  H  3  X      0.00991     0.02191
             24  H  3  Y      0.03478     0.05906
             25  H  3  Z      0.01111     0.02952
             26  H  4  S      0.63472     0.49059
             27  H  4  S      0.05489     0.14749
             28  H  4  X      0.02896     0.05286
             29  H  4  Y      0.01174     0.02565
             30  H  4  Z      0.01960     0.04346

          ----- MULLIKEN ATOMIC OVERLAP POPULATIONS -----
          (OFF-DIAGONAL ELEMENTS NEED TO BE MULTIPLIED BY 2)

             1           2           3           4

    1    6.0989194
    2    0.2688465   0.3907735
    3    0.2991245  -0.0057084   0.3691836
    4    0.2819893  -0.0098525  -0.0054496   0.4832238

          TOTAL MULLIKEN AND LOWDIN ATOMIC POPULATIONS
       ATOM         MULL.POP.    CHARGE          LOW.POP.     CHARGE
    1 N             6.948880    0.051120         6.859325    0.140675
    2 H             0.644059    0.355941         0.678194    0.321806
    3 H             0.657150    0.342850         0.702438    0.297562
    4 H             0.749911    0.250089         0.760044    0.239956

          MULLIKEN SPHERICAL HARMONIC POPULATIONS
       ATOM           S       P       D      F      G      H      I    TOTAL
    1 N             3.51    3.42    0.02   0.00   0.00   0.00   0.00    6.95
    2 H             0.59    0.05    0.00   0.00   0.00   0.00   0.00    0.64
    3 H             0.60    0.06    0.00   0.00   0.00   0.00   0.00    0.66
    4 H             0.69    0.06    0.00   0.00   0.00   0.00   0.00    0.75

          ---------------------
          ELECTROSTATIC MOMENTS
          ---------------------

 POINT   1           X           Y           Z (BOHR)    CHARGE
                 0.000004    0.000001   -0.177185        1.00 (A.U.)
         DX          DY          DZ         /D/  (DEBYE)
     0.709874    0.247384    2.137032    2.265397
 ...... END OF PROPERTY EVALUATION ......
 CPU     0: STEP CPU TIME=     0.00 TOTAL CPU TIME=         11.6 (      0.2 MIN)
 TOTAL WALL CLOCK TIME=         11.6 SECONDS, CPU UTILIZATION IS    99.91%

     -------------------------------------------------
     GMC-PT/GMC-QDPT or general MCSCF input parameters
     -------------------------------------------------
 # of frozen core orbs. =         0 ->         0
 # of doubly occ. orbs. =         1
 # of active      orbs. =         7
 # of virtual     orbs. =        21
 # of active electrons  =         7
 # of states in CI      =         3
 Highest state in CI    =         3
 kstate =  1 1 1
 avecoe =  0.333 0.333 0.333
 State symmetry           = A           
 Assigned symmetry number = 1

 <<<Act. MO sym.: 1111111

 <<<Division of 1-ext.:  0
 <<<Division of 2-ext.:  0

     ------------------------
     Orbital canonicalization
     ------------------------

 MOs are canonicalized for core, virtual, and invariant-active orbital spaces.
 This is a part of the GMC-QDPT calculation.
 SCHWARZ INEQUALITY OVERHEAD:       465 INTEGRALS, T=        0.00
 DIRECT TRANSFORMATION SKIPS AO INTEGRAL STORAGE ON DISK.

 Averaged energy =     -55.725325206

 State #    1  Energy =     -55.864126992  S =  0.500
 State #    2  Energy =     -55.727794472  S =  0.500
 State #    3  Energy =     -55.584054152  S =  0.500

 Orbital energies for filled orbital space
  -15.981234
 Orbital energies for active orbital space
   -1.502732  -0.832386  -0.975673  -0.729577   0.329413
    0.162150   0.395692
 Orbital energies for external orbital space
    0.147841   0.204539   0.231618   0.533740   0.604532
    0.681771   0.790489   0.997971   1.044202   1.203129
    1.368417   1.420732   1.636250   1.803661   1.865249
    1.965881   2.095541   2.277960   2.560361   2.618992
    3.079214

 Zero values mean non-canonical orbitals.
 ... done with orbital canonicalization ...
 CPU     0: STEP CPU TIME=     0.68 TOTAL CPU TIME=         12.3 (      0.2 MIN)
 TOTAL WALL CLOCK TIME=         12.3 SECONDS, CPU UTILIZATION IS   100.00%

     --------------------------------------------
     PARTIAL TWO ELECTRON INTEGRAL TRANSFORMATION
     --------------------------------------------

 NUMBER OF CORE MOLECULAR ORBITALS     =    0
 NUMBER OF OCCUPIED MOLECULAR ORBITALS =    8
 TOTAL NUMBER OF MOLECULAR ORBITALS    =   29
 TOTAL NUMBER OF ATOMIC ORBITALS       =   30
 THRESHOLD FOR KEEPING TRANSFORMED 2E- INTEGRALS = 1.000E-09
 AO INTEGRALS WILL BE CALCULATED IN DIRECT MODE...
 DIRECT TRANSFORMATION SKIPS AO INTEGRAL STORAGE ON DISK.
 SCHWARZ INEQUALITY OVERHEAD:       465 INTEGRALS, T=        0.00

 PLAN A: REQUIREMENTS FOR FULLY IN-MEMORY TRANSFORMATION:
 # OF WORDS AVAILABLE =            100000000
 # OF WORDS NEEDED    =               221798

 PARALLEL ONLY WORKS WITH THE SEGMENTED ALGORITHM.
 ADJUSTING MEMORY TO USE SEGMENTED ALGORITHM.


 PLAN B: REQUIREMENTS FOR THE SEGMENTED TRANSFORMATION:
       MINIMUM=         124148 WORDS FOR 1 MOLECULAR ORBITAL PER PASS
       MAXIMUM=         221798 WORDS FOR ALL MOLECULAR ORBITALS IN 1 PASS
              (          13950 EXTRA WORDS INCLUDES 1 EXTRA ORBITAL/PASS)
 THIS RUN USES=         221798 WORDS,
 DISTRIBUTING   1 PASSES EACH CONTAINING     8 ORBITALS OVER   1 PROCESSORS.

 CHOOSING SEGMENTED PARTIAL TRANSFORMATION...
 DIRECT TRANSFORMATION SKIPS AO INTEGRAL STORAGE ON DISK.
 PASS #   1 TOOK        0.04 SECONDS.
 TOTAL NUMBER OF TRANSFORMED 2E- INTEGRALS KEPT =        29226
 ... END OF INTEGRAL TRANSFORMATION ...
 CPU     0: STEP CPU TIME=     0.04 TOTAL CPU TIME=         12.3 (      0.2 MIN)
 TOTAL WALL CLOCK TIME=         12.3 SECONDS, CPU UTILIZATION IS   100.00%

     --------     ------------------------------------------
     GMC-QDPT     Program written by H.Nakano (Kyushu Univ.)
     --------     ------------------------------------------

 *** Reference space

 Reference type: ORMAS (= Occupation restricted multiple active space)
 # of orbitals          =  7
 # of minimum electrons =  7
 # of maximum electrons =  7
 State symmetry    =    1 (input)
 2*Sz              =    1 (input)
 Spin multiplicity =    2 (input)
 Dimension of reference space =      1225  (from      3432 walks)

 Dimension of reference space =      1225  (from      1225 walks)

 <<<Ionized spaces for Ref-CI:
      0:         1225 /   -1-0:         1960 /  0-1-0:         2891

 ***                    ***
 *** Reference space CI ***
 ***                    ***

 Converged after   38 iterations

 Reference wavefunctions:

 State #    1  Energy =     -55.864126992  S =  0.500

      Det      Coef    Occupancy (Ignoring core)
      ---      ----    --------- --------- -----
        1   -0.973373  11110001110000
       71   -0.080319  11110001011000
      393   -0.059817  10110101010010
      717   -0.054952  11010011100001

 State #    2  Energy =     -55.727794472  S =  0.500

      Det      Coef    Occupancy (Ignoring core)
      ---      ----    --------- --------- -----
        1    0.084437  11110001110000
       71   -0.977405  11110001011000
      822    0.056151  11010011001001

 State #    3  Energy =     -55.584054152  S =  0.500

      Det      Coef    Occupancy (Ignoring core)
      ---      ----    --------- --------- -----
       36    0.977116  11110001101000
      249    0.051284  10111001001100
      463    0.060861  10110101001010

 Davidson method: CPU/Wall time =           0.48 /           0.49 sec.

 Oscillator strength (invalid if E(1)/=E(GS)):
 -----------------------------------------
   State                        f
 -----------------------------------------
     2     F(REF-CI)=        0.0022436016
     3     F(REF-CI)=        0.0034996572
 -----------------------------------------

 Dipole moment matrix elements, x, y, z, in A.U.

 Dimension of ionized spaces for PT:
 (N-2) space:         1715 /  (N-1) space:         2842 /  N space:         2891
 (N+1) space:         2842 /  (N+2) space:         1715

 <<<Ionized spaces for internal:
         0:         1225 /      -1-0:         1960 /     0-1-0:         2891
  -1-0-1-0:         2842 / 0-1-0-1-0:         3381

 Diagonal elements of averaged one-particle density matrix:
       2       3       4       5       6       7       8
  0.9933  0.9851  0.9871  0.9915  0.0128  0.0188  0.0114
  0.9884  0.6571  0.6610  0.6621  0.0100  0.0132  0.0082

 Orbital energies:
 -------- Doubly-occupied orbitals (highest several orbs.) -------
             1
 -1.598123D+01
 -------- Active orbitals ----------------------------------------
             2            3            4            5            6
 -1.502732D+00-8.323858D-01-9.756733D-01-7.295771D-01 3.294135D-01
             7            8
  1.621497D-01 3.956921D-01
 -------- External orbitals (lowest several orbs.) ---------------
             9           10           11           12           13
  1.478407D-01 2.045392D-01 2.316181D-01 5.337398D-01 6.045319D-01
            14           15           16           17           18
  6.817712D-01 7.904890D-01 9.979712D-01 1.044202D+00 1.203129D+00

 *** Quasi-degeneracy checking

 === Det (|Ci| > 1.0D-01 and dE < 5.0D-03)

 # of small denominators (single excitations)
 State       dEmin  dE < 5.0D-03  dE < 5.0D-04  dE < 5.0D-05  dE < 5.0D-06
 ----- ----------- ------------- ------------- ------------- -------------
     1    5.00D-03             0             0             0             0
     2    5.00D-03             0             0             0             0
     3    5.00D-03             0             0             0             0

 # of small denominators (double excitations)
 State       dEmin  dE < 5.0D-03  dE < 5.0D-04  dE < 5.0D-05  dE < 5.0D-06
 ----- ----------- ------------- ------------- ------------- -------------
     1    5.00D-03             0             0             0             0
     2    5.00D-03             0             0             0             0
     3    5.00D-03             0             0             0             0

 *** Zeroth-Order Setup (Granovsky's zeroth-order vectors)
 Zeroth-order effective Hamiltonian
  (= Sum_i e(i)*<I|a+(i)a(i)|J> ):
                   1            2            3
     1 -7.244375D+00
     2  1.499358D-02-7.161769D+00
     3  1.300258D-03 4.562116D-03-7.010318D+00

 Zeroth-order vectors:
 State #    1
       MC st            1           2           3
       Coeff    9.849D-01  -1.731D-01  -2.074D-03
 State #    2
       MC st            2           1           3
       Coeff   -9.844D-01  -1.730D-01   3.166D-02
 State #    3
       MC st            3           2           1
       Coeff    9.995D-01   3.082D-02   7.522D-03

 *** GMC-QDPT computation

 (Integral reading:  CPU/Wall time =           0.01 /           0.01 sec.)

 One-external:
   0 -ionized terms: CPU/Wall time =           0.03 /           0.02 sec.
 (-1)-ionized terms: CPU/Wall time =           0.08 /           0.09 sec.
 (+1)-ionized terms: CPU/Wall time =           0.03 /           0.03 sec.
 (+1)-ionized terms: CPU/Wall time =           0.00 /           0.00 sec.
 (+2)-ionized terms: CPU/Wall time =           0.00 /           0.00 sec.

 Internal:
 # of macro loops for internal contribution =         1 (input)
 Loop:    1
 Dimension of internal CISD space     =         0  (after screening)
 Space construction: CPU/Wall time =           0.02 /           0.02 sec.
 Internal terms:     CPU/Wall time =           0.00 /           0.00 sec.

 Two-external:
   0 -ionized terms: CPU/Wall time =           0.06 /           0.06 sec.
 (-1)-ionized terms: CPU/Wall time =           1.00 /           1.00 sec.
 (-2)-ionized terms: CPU/Wall time =           0.17 /           0.17 sec.

 Total time:         CPU/Wall time =           1.39 /           1.39 sec.

 ***                  ***
 *** GMC-QDPT Results ***
 ***                  ***

 Diagonal elements of effective Hamiltonian:
 Heff(  1) =   -55.95911246
 Heff(  2) =   -55.83914602
 Heff(  3) =   -55.69523672

 Off-diagonal elements of effective Hamiltonian:
                   1            2
     2  2.064562D-02
     3 -8.467901D-04 4.433986D-03

 ******** GMC-QDPT energies ********
 ----------------------------------------------------------------------------
   State                        1st order                           2nd order
 ----------------------------------------------------------------------------
     1     E(REF-CI)=      -55.8641269922   E(GMC-QDPT2)=      -55.9625752341
     2     E(REF-CI)=      -55.7277944723   E(GMC-QDPT2)=      -55.8358199056
     3     E(REF-CI)=      -55.5840541521   E(GMC-QDPT2)=      -55.6951000601
 ----------------------------------------------------------------------------

 Excitation energies (invalid if E(1)/=E(GS)):
 ----------------------------------------------------------------------------
   State                        1st order                           2nd order
 ----------------------------------------------------------------------------

     TZ Sorted GMC-PT ENERGIES:
         1      -55.9625752341
         2      -55.8358199056
         3      -55.6951000601
     2     E(REF-CI)=        3.7097987 eV   E(GMC-QDPT2)=        3.4491899 eV
     3     E(REF-CI)=        7.6211741 eV   E(GMC-QDPT2)=        7.2783739 eV
 ----------------------------------------------------------------------------

 Main characters of perturbed GMC-QDPT states:

 State #    1  Energy =     -55.962575234  S =  0.500

      Det      Coef    Occupancy (Ignoring core)
      ---      ----    --------- --------- -----
        1   -0.974012  11110001110000
       71   -0.072568  11110001011000
      393   -0.059655  10110101010010
      717   -0.054958  11010011100001

 State #    2  Energy =     -55.835819906  S =  0.500

      Det      Coef    Occupancy (Ignoring core)
      ---      ----    --------- --------- -----
        1    0.076690  11110001110000
       71   -0.978029  11110001011000
      822    0.056178  11010011001001

 State #    3  Energy =     -55.695100060  S =  0.500

      Det      Coef    Occupancy (Ignoring core)
      ---      ----    --------- --------- -----
       36    0.977131  11110001101000
      249    0.051266  10111001001100
      463    0.060870  10110101001010

 <<<Max |V/de| = 2.589D-02  Thresh = 1.000D+00

 Oscillator strength (invalid if E(1)/=E(GS)):
 ----------------------------------------------------------------------------
   State                        1st order                           2nd order
 ----------------------------------------------------------------------------
     2     F(REF-CI)=        0.0022436016     F(GMC-PT2)=        0.0021680085
     3     F(REF-CI)=        0.0034996572     F(GMC-PT2)=        0.0034357649
 ----------------------------------------------------------------------------

 Dipole moment matrix elements, x, y, z, in A.U.
States    1    1        0.2819237467        0.1092397184        0.6913372018
States    1    2        0.0146406304        0.0185619517        0.1584201154
States    1    3       -0.0232324670       -0.1262771416        0.0527455747
States    2    1        0.0146406304        0.0185619517        0.1584201154
States    2    2        0.2914331814       -0.0570272305        0.3173441324
States    2    3       -0.0592629339        0.1997346764       -0.0021034355
States    3    1       -0.0232324670       -0.1262771416        0.0527455747
States    3    2       -0.0592629339        0.1997346764       -0.0021034355
States    3    3        0.4735048066        0.2840793953        0.2811937829

 Oscillator strength (valid only when positive): 
 ----------------------------------------------------------------------------
  States                        1st order                           2nd order
 ----------------------------------------------------------------------------
  1  1     F(REF-CI)=        0.0000000000     F(GMC-PT2)=        0.0000000000
  1  2     F(REF-CI)=       -0.0022436016     F(GMC-PT2)=       -0.0021680085
  1  3     F(REF-CI)=       -0.0034996572     F(GMC-PT2)=       -0.0034357649
  2  1     F(REF-CI)=        0.0022436016     F(GMC-PT2)=        0.0021680085
  2  2     F(REF-CI)=        0.0000000000     F(GMC-PT2)=        0.0000000000
  2  3     F(REF-CI)=       -0.0042042531     F(GMC-PT2)=       -0.0040724756
  3  1     F(REF-CI)=        0.0034996572     F(GMC-PT2)=        0.0034357649
  3  2     F(REF-CI)=        0.0042042531     F(GMC-PT2)=        0.0040724756
  3  3     F(REF-CI)=        0.0000000000     F(GMC-PT2)=        0.0000000000
 CPU     0: STEP CPU TIME=     1.95 TOTAL CPU TIME=         14.3 (      0.2 MIN)
 TOTAL WALL CLOCK TIME=         14.3 SECONDS, CPU UTILIZATION IS    99.93%

     !!! DIABATIZATION FOR REF CI STATES !!!

 *******************************************************
          $DMO GROUP FOUND IN THE INPUT.
        DIABATIZATION OF ADIABATIC STATES BEGINS.
     PROGRAMMED BY TAO ZENG (CARLETON UNIVERSITY).
               Email: toby.zeng@carleton.ca
     See T. Zeng, J. Chem. Phys. 2017, 146, 144103
 *******************************************************

 *************************************************************************
     STEP 1: TRANSFORMATION OF ADIABATIC STATES TO THE DMO REPRESENTATION
         See Atchity and Ruedenberg, J. Chem. Phys. 1999, 111, 2910
 *************************************************************************

Read in Diabatic Molecualr Orbitals:

                      1          2          3          4          5

    1  N  1  S    0.008609   0.000000   0.000000  -0.013219   0.279491
    2  N  1  S    0.442914  -0.000000   0.000000  -0.184329   0.867803
    3  N  1  S    0.276913   0.000000  -0.000000  -0.288315   0.144236
    4  N  1  X   -0.000000   0.493155  -0.024636  -0.000000  -0.000000
    5  N  1  Y    0.000000   0.024636   0.493155  -0.000000   0.000000
    6  N  1  Z    0.090197   0.000000   0.000000   0.593421   0.705309
    7  N  1  X   -0.000000   0.210628  -0.010522   0.000000   0.000000
    8  N  1  Y    0.000000   0.010522   0.210628  -0.000000  -0.000000
    9  N  1  Z   -0.004381   0.000000   0.000000   0.381592  -0.106092
   10  N  1 XX   -0.000457   0.010719  -0.000535  -0.012387   0.006153
   11  N  1 YY   -0.000457  -0.010719   0.000535  -0.012387   0.006153
   12  N  1 ZZ    0.000914  -0.000000   0.000000   0.024773  -0.012306
   13  N  1 XY    0.000000  -0.000618  -0.012377  -0.000000   0.000000
   14  N  1 XZ   -0.000000   0.026529  -0.001325  -0.000000   0.000000
   15  N  1 YZ    0.000000   0.001325   0.026529  -0.000000   0.000000
   16  H  2  S    0.194462  -0.176074   0.343485   0.112865  -0.523343
   17  H  2  S    0.003574  -0.023812   0.046452   0.024014  -0.054445
   18  H  2  X    0.018760   0.009101   0.022834   0.009336  -0.039151
   19  H  2  Y   -0.032493   0.022287  -0.020044  -0.016171   0.067811
   20  H  2  Z   -0.009251   0.008464  -0.016511   0.018769  -0.010566
   21  H  3  S    0.194462  -0.209430  -0.324227   0.112865  -0.523343
   22  H  3  S    0.003574  -0.028322  -0.043847   0.024014  -0.054445
   23  H  3  X    0.018760   0.006781  -0.023627   0.009336  -0.039151
   24  H  3  Y    0.032493  -0.024174  -0.017723   0.016171  -0.067811
   25  H  3  Z   -0.009251   0.010067   0.015585   0.018769  -0.010566
   26  H  4  S    0.194462   0.385503  -0.019258   0.112865  -0.523343
   27  H  4  S    0.003574   0.052134  -0.002604   0.024014  -0.054445
   28  H  4  X   -0.037519  -0.032295   0.001613  -0.018672   0.078302
   29  H  4  Y    0.000000   0.001067   0.021353  -0.000000   0.000000
   30  H  4  Z   -0.009251  -0.018530   0.000926   0.018769  -0.010566

                      6          7

    1  N  1  S    0.000000  -0.000000
    2  N  1  S    0.000000  -0.000000
    3  N  1  S   -0.000000   0.000000
    4  N  1  X   -0.930415  -0.002083
    5  N  1  Y   -0.002083   0.930415
    6  N  1  Z   -0.000000   0.000000
    7  N  1  X   -0.046866  -0.000105
    8  N  1  Y   -0.000105   0.046866
    9  N  1  Z   -0.000000   0.000000
   10  N  1 XX    0.001538   0.000003
   11  N  1 YY   -0.001538  -0.000003
   12  N  1 ZZ   -0.000000   0.000000
   13  N  1 XY   -0.000004   0.001776
   14  N  1 XZ    0.039985   0.000090
   15  N  1 YZ    0.000090  -0.039985
   16  H  2  S   -0.362630  -0.631354
   17  H  2  S   -0.065964  -0.114846
   18  H  2  X    0.002763  -0.037520
   19  H  2  Y    0.037435   0.040736
   20  H  2  Z    0.001882   0.003276
   21  H  3  S   -0.365454   0.629724
   22  H  3  S   -0.066477   0.114549
   23  H  3  X    0.002595   0.037532
   24  H  3  Y   -0.037617   0.040567
   25  H  3  Z    0.001896  -0.003268
   26  H  4  S    0.728084   0.001630
   27  H  4  S    0.132441   0.000297
   28  H  4  X   -0.062317  -0.000140
   29  H  4  Y    0.000055  -0.024345
   30  H  4  Z   -0.003778  -0.000008

NUMBER OF SUB ACTIVE SPACES:   1
ROTATE ACTIVE MOS TO DMOS IN EACH SUB-SPACE

SPACE  1:

OVERLAP BETWEEN ORTHONORMAL AND PRE-ORTHONORMAL REF. DMOS

             1           2           3           4           5

    1    0.9797038   0.0337874   0.0011863  -0.0068023   0.0041103
    2    0.0337874   0.9148710   0.0346258   0.0412238  -0.0623787
    3    0.0011863   0.0346258   1.0236654   0.0079903  -0.0239568
    4   -0.0068023   0.0412238   0.0079903   0.9956758  -0.0094359
    5    0.0041103  -0.0623787  -0.0239568  -0.0094359   1.1072150
    6   -0.0005503  -0.0540237   0.0353426   0.0404405   0.0331507
    7    0.0017700  -0.0221007  -0.0372949  -0.0182503   0.0341169

             6           7

    1   -0.0005503   0.0017700
    2   -0.0540237  -0.0221007
    3    0.0353426  -0.0372949
    4    0.0404405  -0.0182503
    5    0.0331507   0.0341169
    6    1.0699697   0.0023650
    7    0.0023650   1.0277150
REFERENCE DMOS AFTER ORTHONORMALIZATION:

                      1          2          3          4          5

    1  N  1  S    0.007069   0.016763   0.005393  -0.011434   0.253815
    2  N  1  S    0.446121   0.042709   0.017291  -0.176432   0.784738
    3  N  1  S    0.279742   0.011386   0.003916  -0.287429   0.127574
    4  N  1  X   -0.017610   0.493241  -0.010063   0.014583   0.052839
    5  N  1  Y   -0.003094   0.027166   0.514779   0.012338  -0.015140
    6  N  1  Z    0.093188   0.010102   0.011015   0.603777   0.644204
    7  N  1  X   -0.008071   0.230640  -0.016461  -0.007987   0.013434
    8  N  1  Y   -0.000535   0.004783   0.207855  -0.000583   0.003334
    9  N  1  Z   -0.000600  -0.024075  -0.003601   0.384069  -0.093883
   10  N  1 XX   -0.001025   0.012925  -0.000805  -0.013020   0.006094
   11  N  1 YY   -0.000192  -0.010997   0.001143  -0.011889   0.004931
   12  N  1 ZZ    0.001217  -0.001929  -0.000337   0.024909  -0.011026
   13  N  1 XY    0.000021  -0.000193  -0.012059   0.000110  -0.000323
   14  N  1 XZ   -0.001088   0.031665  -0.003666  -0.002867   0.000496
   15  N  1 YZ    0.000036  -0.000290   0.024608  -0.000840   0.001703
   16  H  2  S    0.211519  -0.284076   0.324015   0.123184  -0.452609
   17  H  2  S    0.005451  -0.038529   0.043678   0.025593  -0.044917
   18  H  2  X    0.019207   0.005173   0.019899   0.008061  -0.033669
   19  H  2  Y   -0.034753   0.034330  -0.019029  -0.017953   0.060514
   20  H  2  Z   -0.009570   0.008990  -0.016742   0.018426  -0.009382
   21  H  3  S    0.210049  -0.271809  -0.286612   0.148568  -0.502589
   22  H  3  S    0.005120  -0.035725  -0.036884   0.030008  -0.053322
   23  H  3  X    0.019133   0.005779  -0.023025   0.009615  -0.036792
   24  H  3  Y    0.034647  -0.033442  -0.015166   0.019556  -0.063619
   25  H  3  Z   -0.009621   0.009452   0.014463   0.018109  -0.008492
   26  H  4  S    0.186713   0.424827  -0.068855   0.064440  -0.472528
   27  H  4  S    0.001951   0.060817  -0.010213   0.016073  -0.049762
   28  H  4  X   -0.037616  -0.032378   0.006513  -0.014596   0.070993
   29  H  4  Y    0.000011  -0.000081   0.020075  -0.000545   0.001151
   30  H  4  Z   -0.008512  -0.021891   0.001444   0.019802  -0.010401

                      6          7

    1  N  1  S   -0.006742  -0.008069
    2  N  1  S   -0.015768  -0.028370
    3  N  1  S    0.007521  -0.009451
    4  N  1  X   -0.846551   0.008698
    5  N  1  Y   -0.019624   0.925361
    6  N  1  Z   -0.042563  -0.010109
    7  N  1  X   -0.031739   0.003760
    8  N  1  Y   -0.006921   0.053144
    9  N  1  Z   -0.012725   0.009319
   10  N  1 XX    0.002420  -0.000185
   11  N  1 YY   -0.001733  -0.000569
   12  N  1 ZZ   -0.000687   0.000754
   13  N  1 XY    0.000388   0.001298
   14  N  1 XZ    0.039182   0.000479
   15  N  1 YZ   -0.000681  -0.038090
   16  H  2  S   -0.353180  -0.591018
   17  H  2  S   -0.064370  -0.108908
   18  H  2  X    0.003011  -0.034454
   19  H  2  Y    0.036052   0.037334
   20  H  2  Z    0.002347   0.003423
   21  H  3  S   -0.337110   0.616232
   22  H  3  S   -0.062442   0.111791
   23  H  3  X    0.004182   0.037158
   24  H  3  Y   -0.035184   0.040684
   25  H  3  Z    0.001350  -0.001835
   26  H  4  S    0.716445   0.023084
   27  H  4  S    0.128117   0.002865
   28  H  4  X   -0.061752  -0.003005
   29  H  4  Y   -0.000580  -0.023008
   30  H  4  Z   -0.005115   0.000297

 -------------------------------------------
       MAXIMIZING MORMO OVERLAP TERM        
 -------------------------------------------
   SWEEP    VALUE       PROGRESS
     0     5.38319
     1     6.95636     1.57316313
     2     6.96271     0.00635715
     3     6.96271     0.00000071
     4     6.96271     0.00000000
     5     6.96271     0.00000000
 THE ROTATION IS DONE
FLIPPING SIGN FOR ORBITAL   7
ACTIVE ORBITALS AFTER MORMO:

                      1          2          3          4          5

    1  N  1  S    0.005745   0.026829   0.004636  -0.012184   0.212484
    2  N  1  S    0.426713   0.065565   0.006221  -0.187961   0.734616
    3  N  1  S    0.324150  -0.061193   0.011449  -0.273928   0.182972
    4  N  1  X   -0.000679   0.448963  -0.001853   0.038100   0.026737
    5  N  1  Y   -0.005739   0.036990   0.505124   0.010553  -0.018054
    6  N  1  Z    0.083328   0.034691   0.014168   0.601758   0.640194
    7  N  1  X   -0.027158   0.289876  -0.038491  -0.054218   0.051848
    8  N  1  Y    0.003303  -0.018888   0.193084  -0.011938   0.013033
    9  N  1  Z    0.021990  -0.070085  -0.011413   0.384630  -0.086617
   10  N  1 XX   -0.004711   0.025566  -0.001927  -0.014902   0.035481
   11  N  1 YY    0.004354  -0.025474   0.002272  -0.007811  -0.037319
   12  N  1 ZZ    0.000357  -0.000092  -0.000345   0.022712   0.001839
   13  N  1 XY    0.002301  -0.001312  -0.002555  -0.001783  -0.015324
   14  N  1 XZ    0.000833   0.021743  -0.003993   0.002156  -0.043518
   15  N  1 YZ    0.002112  -0.000948   0.017533  -0.002066  -0.010061
   16  H  2  S    0.188904  -0.203468   0.322974   0.109680  -0.434450
   17  H  2  S    0.006929  -0.079637   0.061703   0.033574  -0.060052
   18  H  2  X    0.001904   0.020940   0.003540   0.000300  -0.014733
   19  H  2  Y   -0.032229   0.018213  -0.034677  -0.014638   0.052391
   20  H  2  Z   -0.005669   0.000340  -0.014979   0.018997  -0.020354
   21  H  3  S    0.188805  -0.229438  -0.305185   0.122778  -0.483641
   22  H  3  S    0.003839  -0.050716  -0.033603   0.034517  -0.064736
   23  H  3  X    0.008236   0.017347  -0.014195   0.002113  -0.014504
   24  H  3  Y    0.034081  -0.023267  -0.033825   0.014093  -0.058090
   25  H  3  Z   -0.003830   0.003493   0.009941   0.020783  -0.015038
   26  H  4  S    0.185583   0.399260  -0.043911   0.086193  -0.492003
   27  H  4  S    0.000280   0.108010  -0.030374   0.017991  -0.062924
   28  H  4  X   -0.032046  -0.021726   0.001237  -0.019902   0.059432
   29  H  4  Y   -0.004995  -0.005190   0.021681  -0.000859  -0.005658
   30  H  4  Z   -0.014422  -0.029753   0.000011   0.017376  -0.007884

                      6          7

    1  N  1  S    0.032552  -0.031785
    2  N  1  S    0.081687  -0.066880
    3  N  1  S   -0.121570   0.045516
    4  N  1  X   -0.843442  -0.001493
    5  N  1  Y   -0.004853   0.918999
    6  N  1  Z   -0.084807  -0.010591
    7  N  1  X   -0.036063   0.022379
    8  N  1  Y   -0.031714   0.076317
    9  N  1  Z    0.021389   0.020801
   10  N  1 XX    0.042548   0.007762
   11  N  1 YY   -0.049812  -0.001075
   12  N  1 ZZ    0.007264  -0.006688
   13  N  1 XY    0.008582  -0.046753
   14  N  1 XZ    0.021687  -0.000353
   15  N  1 YZ    0.007855  -0.055180
   16  H  2  S   -0.292816  -0.582211
   17  H  2  S   -0.096237  -0.148810
   18  H  2  X    0.025093  -0.018242
   19  H  2  Y    0.026614   0.052933
   20  H  2  Z    0.016636  -0.015696
   21  H  3  S   -0.308094   0.602117
   22  H  3  S   -0.070534   0.127820
   23  H  3  X    0.007174   0.021388
   24  H  3  Y   -0.025931   0.057872
   25  H  3  Z    0.007100   0.021154
   26  H  4  S    0.686640  -0.005849
   27  H  4  S    0.185748   0.022703
   28  H  4  X   -0.040883   0.001848
   29  H  4  Y    0.001492  -0.049105
   30  H  4  Z   -0.014126  -0.006958

Actually Used Diabatic Molecualr Orbitals:

                      1          2          3          4          5

    1  N  1  S    0.005745   0.026829   0.004636  -0.012184   0.212484
    2  N  1  S    0.426713   0.065565   0.006221  -0.187961   0.734616
    3  N  1  S    0.324150  -0.061193   0.011449  -0.273928   0.182972
    4  N  1  X   -0.000679   0.448963  -0.001853   0.038100   0.026737
    5  N  1  Y   -0.005739   0.036990   0.505124   0.010553  -0.018054
    6  N  1  Z    0.083328   0.034691   0.014168   0.601758   0.640194
    7  N  1  X   -0.027158   0.289876  -0.038491  -0.054218   0.051848
    8  N  1  Y    0.003303  -0.018888   0.193084  -0.011938   0.013033
    9  N  1  Z    0.021990  -0.070085  -0.011413   0.384630  -0.086617
   10  N  1 XX   -0.004711   0.025566  -0.001927  -0.014902   0.035481
   11  N  1 YY    0.004354  -0.025474   0.002272  -0.007811  -0.037319
   12  N  1 ZZ    0.000357  -0.000092  -0.000345   0.022712   0.001839
   13  N  1 XY    0.002301  -0.001312  -0.002555  -0.001783  -0.015324
   14  N  1 XZ    0.000833   0.021743  -0.003993   0.002156  -0.043518
   15  N  1 YZ    0.002112  -0.000948   0.017533  -0.002066  -0.010061
   16  H  2  S    0.188904  -0.203468   0.322974   0.109680  -0.434450
[...]
      491    0.021111   -0.021111  +2+20-0
      496    0.020619    0.020619  +2+-020

 ---------------------------------------
    -DIABATIC STATES IN PROTOTYPES-     
 ---------------------------------------

     STATE:    1
 Group Ref#    Coefficients
     1    1    0.962620
     2    2    0.004951
     3    3   -0.002583

WEIGHT OF LISTED PROTOTYPES:   92.67%

     STATE:    2
 Group Ref#    Coefficients
     1    1    0.004951
     2    2    0.962053
     3    3   -0.000929

WEIGHT OF LISTED PROTOTYPES:   92.56%

     STATE:    3
 Group Ref#    Coefficients
     1    1   -0.002583
     2    2   -0.000929
     3    3    0.955056

WEIGHT OF LISTED PROTOTYPES:   91.21%

 --------------------------------------------------
 IN DIRECT MAX. DIABATIZATION FOR GMC-QDPT

 DIRECT MAXIMIZATION (DM) WITHOUT TRUNCATING ADIABATS
 EXPANSIONS INTO THE REFERENCE CONFIGURATION SPACE
 --------------------------------------------------

 -------------------------------------------
 - DM DIABT PT HAMILTONIAN MATRIX ELEMENTS -
 -------------------------------------------
                                            
 --- DIABATIC ENERGIES (DIAGONAL ELEMENT) ---       HARTREE            EV
 STATE #  1'S GMC-PT-LEVEL DIABATIC ENERGY=     -55.946133067       0.000000000
 STATE #  2'S GMC-PT-LEVEL DIABATIC ENERGY=     -55.840829219       2.865463659
 STATE #  3'S GMC-PT-LEVEL DIABATIC ENERGY=     -55.706532913       6.519852289

 --- DIABATIC COUPLINGS (OFF DIAGONAL ELEMENTS)---  HATREE            EV
 STATE #  1 &  2'S GMC-PT-LEVEL COUPLING  =      -0.044714058      -1.216731480
 STATE #  1 &  3'S GMC-PT-LEVEL COUPLING  =      -0.015194282      -0.413457479
 STATE #  2 &  3'S GMC-PT-LEVEL COUPLING  =       0.035350732       0.961942421

 ---------------------------------------
     - ROTATION TO DIABATIC STATES -    
 ---------------------------------------
 ROWS=ADIABATIC, COLUMNS=DIABATIC STATES

             1           2           3

    1    0.9394502   0.3425811   0.0084509
    2    0.3261435  -0.9013993   0.2847977
    3    0.1051839  -0.2647971  -0.9585504

 ---------------------------------------
          - DIABATIC STATES -           
 ---------------------------------------

 State #    1  Energy =     -55.946133067

      Det      Coef        Coefp    Occupancy (Ignoring core)
      ---      ----        ----    --------- --------- -----
        1    0.942826   -0.942826  222+000
        8   -0.140285    0.140285  2-2+0+0
        4   -0.110723    0.110723  2-2++00
      386    0.108694   -0.108694  2+2+0-0
      176    0.106389   -0.106389  2+2+-00
        6    0.079794   -0.079794  22200+0
      393   -0.073040   -0.073040  202+020
      717   -0.064553   -0.064553  220+002
        7    0.049452    0.049452  22-+0+0
      351   -0.045580   -0.045580  22++0-0
      708    0.044068   -0.044068  2-++0+-
      402    0.040398   -0.040398  2+-+0-+
      215   -0.036975   -0.036975  022+200
      705   -0.034979   -0.034979  -2+++0-
      227   -0.034561   -0.034561  +2-+-0+
      218    0.032387   -0.032387  +-2+-+0
      390    0.032357   -0.032357  -+2++-0
       76    0.031591    0.031591  2+2-0+0
      143   -0.030070   -0.030070  220+200
      212    0.029802    0.029802  +220200
      113   -0.029208    0.029208  +-220+0
        5    0.027822    0.027822  -22++00
       51   -0.027466    0.027466  22+-00+
        3   -0.026197   -0.026197  22-++00
      424   -0.026144   -0.026144  +-2++-0
      391    0.026138   -0.026138  2+20020
      141    0.026033    0.026033  22++-00
      387   -0.024871    0.024871  2+20+-0
     1051   -0.024517   -0.024517  2+++0--
        2    0.023996   -0.023996  2220+00
       11    0.023824   -0.023824  2-20++0
       18   -0.023665    0.023665  2-2+00+
      184   -0.023565   -0.023565  -+2+-+0
      702    0.023079    0.023079  22+0+0-
      736    0.022580   -0.022580  2+2+00-
      122    0.022383    0.022383  +2-200+
      773    0.022132   -0.022132  +2-++0-
      159    0.021910   -0.021910  -2++-0+
      147    0.021514   -0.021514  220+-+0
       29   -0.021339   -0.021339  2--+0++
      357   -0.020659   -0.020659  220+020
      353   -0.020608   -0.020608  220++-0

 State #    2  Energy =     -55.840829219

      Det      Coef        Coefp    Occupancy (Ignoring core)
      ---      ----        ----    --------- --------- -----
       71   -0.943394    0.943394  2+22000
       74    0.142315   -0.142315  2022+00
       76    0.114712    0.114712  2+2-0+0
      386   -0.100796    0.100796  2+2+0-0
       78    0.094948   -0.094948  20220+0
      106    0.078513    0.078513  +222000
      822    0.061963   -0.061963  2+02002
       77    0.052367   -0.052367  2+-20+0
      813    0.047570   -0.047570  20+20+-
       36    0.046021    0.046021  22+2000
      456   -0.043907   -0.043907  2++20-0
      113    0.043088   -0.043088  +-220+0
      323   -0.038285    0.038285  +022-+0
       81    0.038109    0.038109  202-++0
      246    0.036562    0.036562  2++2-00
      320    0.036079    0.036079  0+22200
      810   -0.035505   -0.035505  -++2+0-
      806    0.032855    0.032855  2++200-
      332   -0.032671    0.032671  ++-2-0+
       99   -0.032395    0.032395  20-20++
      180   -0.032004    0.032004  -+2+200
      183   -0.031395    0.031395  202+-+0
      317    0.031314   -0.031314  ++2-200
      393   -0.031305   -0.031305  202+020
       38   -0.031143    0.031143  2202+00
      177    0.030567   -0.030567  2+20200
      248    0.029896   -0.029896  2+02200
       75   -0.027368   -0.027368  -+22+00
       87   -0.026106    0.026106  2+-200+
      529    0.025193    0.025193  +022+-0
      111    0.024359   -0.024359  +22-0+0
       88    0.024014   -0.024014  202200+
       73   -0.023967    0.023967  2+-2+00
      807   -0.023683    0.023683  2++-+0-
      736    0.023645   -0.023645  2+2+00-
      252   -0.022870   -0.022870  2+02-+0
      192   -0.022645    0.022645  2+-+-0+
       79   -0.022520   -0.022520  -+220+0
        6    0.022455   -0.022455  22200+0
       86   -0.022325   -0.022325  2+2-00+
       42   -0.022180    0.022180  22020+0
      534    0.021842    0.021842  0+22020
      109    0.021022   -0.021022  +-22+00
      878    0.020825    0.020825  ++-2+0-
      526   -0.020569   -0.020569  ++220-0
      264    0.020507   -0.020507  -++2-0+
      751    0.020377   -0.020377  2+20002
       51    0.020091   -0.020091  22+-00+

 State #    3  Energy =     -55.706532913

      Det      Coef        Coefp    Occupancy (Ignoring core)
      ---      ----        ----    --------- --------- -----
       36   -0.944142   -0.944142  22+2000
      246   -0.119100   -0.119100  2++2-00
      456   -0.112583   -0.112583  2++20-0
       43    0.090699    0.090699  2-+20+0
       39    0.087685    0.087685  2-+2+00
      351   -0.085240   -0.085240  22++0-0
      463    0.078210   -0.078210  20+2020
       41    0.069326   -0.069326  22+-0+0
       52    0.053304   -0.053304  220200+
      472   -0.048635   -0.048635  2+020-+
       71   -0.044587    0.044587  2+22000
       42   -0.044209    0.044209  22020+0
      112   -0.042175   -0.042175  +2-20+0
      121   -0.041264    0.041264  +22-00+
      285    0.038004   -0.038004  02+2200
      281    0.035777   -0.035777  +2+2-00
      460   -0.035220   -0.035220  -++2+-0
      297    0.034791   -0.034791  +202-0+
       64    0.032421   -0.032421  2-020++
      288   -0.032083   -0.032083  +-+2-+0
      282    0.031813    0.031813  +2+-200
       73    0.031415   -0.031415  2+-2+00
      145   -0.031136   -0.031136  -2++200
      142    0.030885    0.030885  22+0200
      457   -0.030235    0.030235  2++-+-0
      461    0.030178   -0.030178  2++-020
      358   -0.029417    0.029417  2-++020
      148   -0.029110   -0.029110  2-++-+0
       16   -0.029052    0.029052  222000+
       46    0.028516   -0.028516  2-+-++0
      561    0.027990    0.027990  2+++--0
       38    0.027948   -0.027948  2202+00
      108   -0.027654   -0.027654  +2-2+00
      254    0.027007   -0.027007  -++2-+0
       53    0.026084    0.026084  2-+200+
       51   -0.025751    0.025751  22+-00+
      491    0.025510   -0.025510  +2+20-0
      157    0.023977   -0.023977  220+-0+
      806   -0.023851   -0.023851  2++200-
      494    0.023714   -0.023714  +-+2+-0
      701    0.023023    0.023023  22++00-
      771    0.022851    0.022851  +22+00-
      716    0.022437    0.022437  22+0002
       77    0.021885   -0.021885  2+-20+0
       37   -0.021383    0.021383  22+-+00
        3    0.021212    0.021212  22-++00

 ---------------------------------------
      - DIABATIC STATES IN CMO -        
 ---------------------------------------

 State #    1  Energy =     -55.946133067

      Det      Coef        Coefp    Occupancy (Ignoring core)
      ---      ----        ----    --------- --------- -----
        1    0.890252   -0.890252  222+000
       71    0.385032   -0.385032  2+22000
       36    0.108240    0.108240  22+2000
      393   -0.062761   -0.062761  202+020
      717   -0.052018   -0.052018  220+002
      179   -0.042335   -0.042335  202+200
      391   -0.036584    0.036584  2+20020
      357   -0.036039   -0.036039  220+020
       17   -0.035472   -0.035472  22-+00+
      402   -0.032227    0.032227  2+-+0-+
        4    0.032029   -0.032029  2-2++00
      389    0.031990    0.031990  202++-0
      106   -0.031723   -0.031723  +222000
        6    0.031076   -0.031076  22200+0
      394    0.028839   -0.028839  -+2+020
      215   -0.027641   -0.027641  022+200
      388   -0.025852   -0.025852  2+-++-0
      183   -0.024157    0.024157  202+-+0
      822   -0.023888    0.023888  2+02002
      113   -0.023505    0.023505  +-220+0
        3    0.023239    0.023239  22-++00
      706   -0.022875   -0.022875  22+00+-
      214    0.022075    0.022075  +-2+200
      428   -0.021479   -0.021479  +-2+020
      437    0.021396    0.021396  +2-+0-+
      366    0.021211   -0.021211  22+00-+
       51    0.021198   -0.021198  22+-00+
      709    0.020879    0.020879  -2++0+-
      708   -0.020805    0.020805  2-++0+-
       72   -0.020672   -0.020672  2+2-+00
       78   -0.020583    0.020583  20220+0
      426    0.020530    0.020530  +220020
      180   -0.020330    0.020330  -+2+200
      429   -0.020234   -0.020234  022+020

 State #    2  Energy =     -55.840829219

      Det      Coef        Coefp    Occupancy (Ignoring core)
      ---      ----        ----    --------- --------- -----
       71   -0.851400    0.851400  2+22000
        1    0.402232   -0.402232  222+000
       36   -0.276477   -0.276477  22+2000
      822    0.052625   -0.052625  2+02002
      113    0.043230   -0.043230  +-220+0
      462    0.041112   -0.041112  2+02020
        6    0.031505   -0.031505  22200+0
      179   -0.029375   -0.029375  202+200
       42   -0.028435    0.028435  22020+0
      320    0.027766    0.027766  0+22200
      183   -0.026247    0.026247  202+-+0
      811    0.026169   -0.026169  2++-0+-
      813   -0.025548    0.025548  20+20+-
      463    0.024567   -0.024567  20+2020
      177    0.024086   -0.024086  2+20200
      107   -0.023468    0.023468  +22-+00
      109   -0.023310    0.023310  +-22+00
       79   -0.022861   -0.022861  -+220+0
       74    0.021644   -0.021644  2022+00
      534    0.020912    0.020912  0+22020
      526   -0.020369   -0.020369  ++220-0
      751    0.020279   -0.020279  2+20002

 State #    3  Energy =     -55.706532913

      Det      Coef        Coefp    Occupancy (Ignoring core)
      ---      ----        ----    --------- --------- -----
       36   -0.931131   -0.931131  22+2000
       71    0.298465   -0.298465  2+22000
      463    0.055605   -0.055605  20+2020
      249    0.055198   -0.055198  20+2200
      112   -0.045003   -0.045003  +2-20+0
      253    0.039831    0.039831  20+2-+0
      121    0.037596   -0.037596  +22-00+
        7    0.036629    0.036629  22-+0+0
      356    0.034647    0.034647  22+0020
      459   -0.032120    0.032120  20+2+-0
       41   -0.031313    0.031313  22+-0+0
      285    0.028603   -0.028603  02+2200
      250    0.027559    0.027559  -++2200
      248   -0.027478    0.027478  2+02200
      367   -0.024447    0.024447  220+0-+
      472    0.024309    0.024309  2+020-+
      358    0.024163   -0.024163  2-++020
       77    0.023923   -0.023923  2+-20+0
      498    0.023898   -0.023898  +-+2020
       44    0.023892   -0.023892  -2+20+0
      499    0.023824   -0.023824  02+2020
       52   -0.023561    0.023561  220200+
      716    0.023287    0.023287  22+0002
      284   -0.023115    0.023115  +-+2200
      464   -0.022747   -0.022747  -++2020
      771   -0.022382   -0.022382  +22+00-
      461   -0.021861    0.021861  2++-020
       86   -0.021764   -0.021764  2+2-00+
      359   -0.021654   -0.021654  -2++020
      491    0.021111   -0.021111  +2+20-0
      496    0.020619    0.020619  +2+-020

 ---------------------------------------
    -DIABATIC STATES IN PROTOTYPES-     
 ---------------------------------------

     STATE:    1
 Group Ref#    Coefficients
     1    1    0.962620
     2    2    0.004950
     3    3   -0.002573

WEIGHT OF LISTED PROTOTYPES:   92.67%

     STATE:    2
 Group Ref#    Coefficients
     1    1    0.004952
     2    2    0.962053
     3    3   -0.000926

WEIGHT OF LISTED PROTOTYPES:   92.56%

     STATE:    3
 Group Ref#    Coefficients
     1    1   -0.002593
     2    2   -0.000933
     3    3    0.955056

WEIGHT OF LISTED PROTOTYPES:   91.21%

     DIRECT MAX. DIABATIZATION FINISHED    
 CPU     0: STEP CPU TIME=     0.24 TOTAL CPU TIME=         14.5 (      0.2 MIN)
 TOTAL WALL CLOCK TIME=         14.5 SECONDS, CPU UTILIZATION IS    99.93%

DIABATS FOR SPIN-ORBIT CALCULATION ARE READY

TRANSITION DIPOLES BETWEEN ADIABATS (in A.U.):

STATE PAIR      X         Y         Z
    1    1  0.281924  0.109240  0.691337
    2    1  0.014641  0.018562  0.158420
    2    2  0.291433 -0.057027  0.317344
    3    1 -0.023232 -0.126277  0.052746
    3    2 -0.059263  0.199735 -0.002103
    3    3  0.473505  0.284079  0.281194


TRANSITION DIPOLES BETWEEN DIABATS (in A.U.):

STATE PAIR      X         Y         Z
    1    1  0.285369  0.093610  0.754376
    2    1 -0.003215  0.021039 -0.005921
    2    2  0.269966  0.093197  0.250287
    3    1  0.023175  0.029089  0.002585
    3    2  0.008447  0.287996 -0.012941
    3    3  0.491527  0.149485  0.285212

TRANSITION DIPOLES BETWEEN DIRECT MAX. DIABATS (in A.U.):

STATE PAIR      X         Y         Z
    1    1  0.285369  0.093611  0.754376
    2    1 -0.003215  0.021042 -0.005920
    2    2  0.269966  0.093199  0.250287
    3    1  0.023177  0.029089  0.002580
    3    2  0.008448  0.287996 -0.012941
    3    3  0.491527  0.149483  0.285212
 No $TRANST Group Found.
 Quit without doing spin-orbit coupling
 ..... DONE WITH MP2 ENERGY .....
 CPU     0: STEP CPU TIME=     0.01 TOTAL CPU TIME=         14.5 (      0.2 MIN)
 TOTAL WALL CLOCK TIME=         14.5 SECONDS, CPU UTILIZATION IS   100.00%
            100000000  WORDS OF DYNAMIC MEMORY USED
 EXECUTION OF GAMESS TERMINATED NORMALLY Wed Nov 16 19:40:54 2022
 DDI: 715512 bytes (0.7 MB / 0 MWords) used by master data server.

 ----------------------------------------
 CPU timing information for all processes
 ========================================
 0: 14.191 + 0.356 = 14.548
 ----------------------------------------
Note: The following floating-point exceptions are signalling: IEEE_DENORMAL
 ddikick.x: exited gracefully.
unset echo
----- accounting info -----
Files used on the master node io002 were:
-rw-r--r-- 1 bsonghao nooijen   20742 Nov 16 19:40 /scratch/bsonghao/nh3_diabatization_2d_at_mode_7_8_dist0.2_0.6.F05
-rw-r--r-- 1 bsonghao nooijen  363520 Nov 16 19:40 /scratch/bsonghao/nh3_diabatization_2d_at_mode_7_8_dist0.2_0.6.F09
-rw-r--r-- 1 bsonghao nooijen 1995920 Nov 16 19:40 /scratch/bsonghao/nh3_diabatization_2d_at_mode_7_8_dist0.2_0.6.F10
-rw-r--r-- 1 bsonghao nooijen  131264 Nov 16 19:40 /scratch/bsonghao/nh3_diabatization_2d_at_mode_7_8_dist0.2_0.6.F13
-rw-r--r-- 1 bsonghao nooijen  180312 Nov 16 19:40 /scratch/bsonghao/nh3_diabatization_2d_at_mode_7_8_dist0.2_0.6.F15
-rw-r--r-- 1 bsonghao nooijen       0 Nov 16 19:40 /scratch/bsonghao/nh3_diabatization_2d_at_mode_7_8_dist0.2_0.6.F16
-rw-r--r-- 1 bsonghao nooijen    9808 Nov 16 19:40 /scratch/bsonghao/nh3_diabatization_2d_at_mode_7_8_dist0.2_0.6.F70
-rw-r--r-- 1 bsonghao nooijen    9808 Nov 16 19:40 /scratch/bsonghao/nh3_diabatization_2d_at_mode_7_8_dist0.2_0.6.F71
-rw-r--r-- 1 bsonghao nooijen   19608 Nov 16 19:40 /scratch/bsonghao/nh3_diabatization_2d_at_mode_7_8_dist0.2_0.6.F72
-rw-r--r-- 1 bsonghao nooijen   19608 Nov 16 19:40 /scratch/bsonghao/nh3_diabatization_2d_at_mode_7_8_dist0.2_0.6.F73
-rw-r--r-- 1 bsonghao nooijen 1920824 Nov 16 19:40 /scratch/bsonghao/nh3_diabatization_2d_at_mode_7_8_dist0.2_0.6.F74
-rw-r--r-- 1 bsonghao nooijen       0 Nov 16 19:40 /scratch/bsonghao/nh3_diabatization_2d_at_mode_7_8_dist0.2_0.6.F75
-rw-r--r-- 1 bsonghao nooijen   58848 Nov 16 19:40 /scratch/bsonghao/nh3_diabatization_2d_at_mode_7_8_dist0.2_0.6.F76
-rw-r--r-- 1 bsonghao nooijen       0 Nov 16 19:40 /scratch/bsonghao/nh3_diabatization_2d_at_mode_7_8_dist0.2_0.6.F77
-rw-r--r-- 1 bsonghao nooijen    1864 Nov 16 19:40 /scratch/bsonghao/nh3_diabatization_2d_at_mode_7_8_dist0.2_0.6.F78
-rw-r--r-- 1 bsonghao nooijen   39208 Nov 16 19:40 /scratch/bsonghao/nh3_diabatization_2d_at_mode_7_8_dist0.2_0.6.F79
-rw-r--r-- 1 bsonghao nooijen     104 Nov 16 19:40 /scratch/bsonghao/nh3_diabatization_2d_at_mode_7_8_dist0.2_0.6.F80
-rw-r--r-- 1 bsonghao nooijen   13472 Nov 16 19:40 /scratch/bsonghao/nh3_diabatization_2d_at_mode_7_8_dist0.2_0.6.F81
-rw-r--r-- 1 bsonghao nooijen      16 Nov 16 19:40 /scratch/bsonghao/nh3_diabatization_2d_at_mode_7_8_dist0.2_0.6.F82
-rw-r--r-- 1 bsonghao nooijen   19216 Nov 16 19:40 /scratch/bsonghao/nh3_diabatization_2d_at_mode_7_8_dist0.2_0.6.F83
-rw-r--r-- 1 bsonghao nooijen   29712 Nov 16 19:40 /scratch/bsonghao/nh3_diabatization_2d_at_mode_7_8_dist0.2_0.6.F84
-rw-r--r-- 1 bsonghao nooijen  401576 Nov 16 19:40 /scratch/bsonghao/nh3_diabatization_2d_at_mode_7_8_dist0.2_0.6.F85
-rw-r--r-- 1 bsonghao nooijen  903672 Nov 16 19:40 /scratch/bsonghao/nh3_diabatization_2d_at_mode_7_8_dist0.2_0.6.F86
-rw-r--r-- 1 bsonghao nooijen     656 Nov 16 19:40 /scratch/bsonghao/nh3_diabatization_2d_at_mode_7_8_dist0.2_0.6.F87
-rw-r--r-- 1 bsonghao nooijen   38928 Nov 16 19:40 /scratch/bsonghao/nh3_diabatization_2d_at_mode_7_8_dist0.2_0.6.F88
-rw-r--r-- 1 bsonghao nooijen     240 Nov 16 19:40 /scratch/bsonghao/nh3_diabatization_2d_at_mode_7_8_dist0.2_0.6.F89
-rw-r--r-- 1 bsonghao nooijen       0 Nov 16 19:40 /scratch/bsonghao/nh3_diabatization_2d_at_mode_7_8_dist0.2_0.6.F90
-rw-r--r-- 1 bsonghao nooijen   13760 Nov 16 19:40 /scratch/bsonghao/nh3_diabatization_2d_at_mode_7_8_dist0.2_0.6.F91
-rw-r--r-- 1 bsonghao nooijen   22776 Nov 16 19:40 /scratch/bsonghao/nh3_diabatization_2d_at_mode_7_8_dist0.2_0.6.F92
-rw-r--r-- 1 bsonghao nooijen   23168 Nov 16 19:40 /scratch/bsonghao/nh3_diabatization_2d_at_mode_7_8_dist0.2_0.6.F93
-rw-r--r-- 1 bsonghao nooijen   22776 Nov 16 19:40 /scratch/bsonghao/nh3_diabatization_2d_at_mode_7_8_dist0.2_0.6.F94
-rw-r--r-- 1 bsonghao nooijen   13760 Nov 16 19:40 /scratch/bsonghao/nh3_diabatization_2d_at_mode_7_8_dist0.2_0.6.F95
-rw-r--r-- 1 bsonghao nooijen   29440 Nov 16 19:40 /scratch/bsonghao/nh3_diabatization_2d_at_mode_7_8_dist0.2_0.6.F96
-rw-r--r-- 1 bsonghao nooijen    1184 Nov 16 19:40 /scratch/bsonghao/nh3_diabatization_2d_at_mode_7_8_dist0.2_0.6.F97
-rw-r--r-- 1 bsonghao nooijen    9808 Nov 16 19:40 /scratch/bsonghao/nh3_diabatization_2d_at_mode_7_8_dist0.2_0.6.F98
-rw-r--r-- 1 bsonghao nooijen   30264 Nov 16 19:40 /scratch/bsonghao/nh3_diabatization_2d_at_mode_7_8_dist0.2_0.6.F99
ls: No match.
ls: No match.
ls: No match.
Wed 16 Nov 2022 07:40:57 PM EST
0.290u 0.038s 0:17.92 1.7%	0+0k 48+224io 0pf+0w
