----- GAMESS execution script 'rungms' -----
This job is running on host io002
under operating system Linux at Wed 16 Nov 2022 06:55:35 PM EST
Available scratch disk space (Kbyte units) at beginning of the job is
Filesystem       1K-blocks       Used   Available Use% Mounted on
/dev/sdc1      15378471580 3278917120 11318349060  23% /scratch
GAMESS temporary binary files will be written to /scratch/bsonghao
GAMESS supplementary output files will be written to /home/bsonghao/.gamess_ascii_files/267638
Copying input file nh3_diabatization_2d_at_mode_7_8_dist-0.4_0.6.inp to your run's scratch directory...
cp nh3_diabatization_2d_at_mode_7_8_dist-0.4_0.6.inp /scratch/bsonghao/nh3_diabatization_2d_at_mode_7_8_dist-0.4_0.6.F05
unset echo
/home/bjb2chen/gamess/ddikick.x /home/bjb2chen/gamess/gamess.00.x nh3_diabatization_2d_at_mode_7_8_dist-0.4_0.6 -ddi 1 1 io002 -scr /scratch/bsonghao

 Distributed Data Interface kickoff program.
 Initiating 1 compute processes on 1 nodes to run the following command:
 /home/bjb2chen/gamess/gamess.00.x nh3_diabatization_2d_at_mode_7_8_dist-0.4_0.6 

          ******************************************************
          *         GAMESS VERSION = 02 AUG 2018 (R2)         *
          *             FROM IOWA STATE UNIVERSITY             *
          * M.W.SCHMIDT, K.K.BALDRIDGE, J.A.BOATZ, S.T.ELBERT, *
          *   M.S.GORDON, J.H.JENSEN, S.KOSEKI, N.MATSUNAGA,   *
          *          K.A.NGUYEN, S.J.SU, T.L.WINDUS,           *
          *       TOGETHER WITH M.DUPUIS, J.A.MONTGOMERY       *
          *         J.COMPUT.CHEM.  14, 1347-1363(1993)        *
          **************** 64 BIT LINUX VERSION ****************

  SINCE 1993, STUDENTS AND POSTDOCS WORKING AT IOWA STATE UNIVERSITY
  AND ALSO IN THEIR VARIOUS JOBS AFTER LEAVING ISU HAVE MADE IMPORTANT
  CONTRIBUTIONS TO THE CODE:
     IVANA ADAMOVIC, CHRISTINE AIKENS, YURI ALEXEEV, POOJA ARORA,
     ANDREY ASADCHEV, ROB BELL, PRADIPTA BANDYOPADHYAY, JONATHAN BENTZ,
     BRETT BODE, KURT BRORSEN, CALEB CARLIN, GALINA CHABAN, WEI CHEN,
     CHEOL HO CHOI, PAUL DAY, ALBERT DEFUSCO, NUWAN DESILVA, TIM DUDLEY,
     DMITRI FEDOROV, ALEX FINDLATER, GRAHAM FLETCHER, MARK FREITAG,
     KURT GLAESEMANN, ANASTASIA GUININA,
     DAN KEMP, GRANT MERRILL, NORIYUKI MINEZAWA, JONATHAN MULLIN,
     TAKESHI NAGATA, SEAN NEDD, HEATHER NETZLOFF, BOSILJKA NJEGIC, RYAN OLSON,
     MIKE PAK, BUU PHAM,
     SPENCER PRUITT, LUKE ROSKOP, JIM SHOEMAKER, LYUDMILA SLIPCHENKO,
     TONY SMITH, SAROM SOK LEANG, JIE SONG, TETSUYA TAKETSUGU, SIMON WEBB,
     PENG XU, SOOHAENG YOO, FEDERICO ZAHARIEV

  ADDITIONAL CODE HAS BEEN PROVIDED BY COLLABORATORS IN OTHER GROUPS:
     IOWA STATE UNIVERSITY:
          JOE IVANIC, AARON WEST, LAIMUTIS BYTAUTAS, KLAUS RUEDENBERG
     UNIVERSITY OF TOKYO: KIMIHIKO HIRAO, TAKAHITO NAKAJIMA,
          TAKAO TSUNEDA, MUNEAKI KAMIYA, SUSUMU YANAGISAWA,
          KIYOSHI YAGI, MAHITO CHIBA, SEIKEN TOKURA, NAOAKI KAWAKAMI
     UNIVERSITY OF AARHUS: FRANK JENSEN
     UNIVERSITY OF IOWA: VISVALDAS KAIRYS, HUI LI
     NATIONAL INST. OF STANDARDS AND TECHNOLOGY: WALT STEVENS, DAVID GARMER
     UNIVERSITY OF PISA: BENEDETTA MENNUCCI, JACOPO TOMASI
     UNIVERSITY OF MEMPHIS: HENRY KURTZ, PRAKASHAN KORAMBATH
     UNIVERSITY OF ALBERTA: TOBY ZENG, MARIUSZ KLOBUKOWSKI
     UNIVERSITY OF NEW ENGLAND: MARK SPACKMAN
     MIE UNIVERSITY: HIROAKI UMEDA
     NAT. INST. OF ADVANCED INDUSTRIAL SCIENCE AND TECHNOLOGY: KAZUO KITAURA
     MICHIGAN STATE UNIVERSITY:
          KAROL KOWALSKI, MARTA WLOCH, JEFFREY GOUR, JESSE LUTZ,
          WEI LI, JUN SHEN, J. EMILIANO DEUSTUA, PIOTR PIECUCH
     UNIVERSITY OF MINNESOTA:
          YINAN SHU
     UNIVERSITY OF SILESIA: MONIKA MUSIAL, STANISLAW KUCHARSKI
     FACULTES UNIVERSITAIRES NOTRE-DAME DE LA PAIX:
          OLIVIER QUINET, BENOIT CHAMPAGNE
     UNIVERSITY OF CALIFORNIA - SANTA BARBARA: BERNARD KIRTMAN
     INSTITUTE FOR MOLECULAR SCIENCE:
          KAZUYA ISHIMURA, MICHIO KATOUDA, AND SHIGERU NAGASE
     UNIVERSITY OF NOTRE DAME: ANNA POMOGAEVA, DAN CHIPMAN
     KYUSHU UNIVERSITY:
          HARUYUKI NAKANO,
          FENG LONG GU, JACEK KORCHOWIEC, MARCIN MAKOWSKI, AND YURIKO AOKI,
          HIROTOSHI MORI AND EISAKU MIYOSHI
     PENNSYLVANIA STATE UNIVERSITY:
          TZVETELIN IORDANOV, CHET SWALINA, JONATHAN SKONE,
          SHARON HAMMES-SCHIFFER
     WASEDA UNIVERSITY:
          MASATO KOBAYASHI, TOMOKO AKAMA, TSUGUKI TOUMA,
          TAKESHI YOSHIKAWA, YASUHIRO IKABATA, JUNJI SEINO,
          YUYA NAKAJIMA, HIROMI NAKAI
     NANJING UNIVERSITY: SHUHUA LI
     UNIVERSITY OF NEBRASKA:
          PEIFENG SU, DEJUN SI, NANDUN THELLAMUREGE, YALI WANG, HUI LI
     UNIVERSITY OF ZURICH: ROBERTO PEVERATI, KIM BALDRIDGE
     N. COPERNICUS UNIVERSITY AND JACKSON STATE UNIVERSITY:
          MARIA BARYSZ
     UNIVERSITY OF COPENHAGEN: Jimmy Kromann, CASPER STEINMANN
     TOKYO INSTITUTE OF TECHNOLOGY: HIROYA NAKATA
     NAGOYA UNIVERSITY: YOSHIO NISHIMOTO, STEPHAN IRLE
     MOSCOW STATE UNIVERSITY: VLADIMIR MIRONOV

 EXECUTION OF GAMESS BEGUN Wed Nov 16 18:55:35 2022

            ECHO OF THE FIRST FEW INPUT CARDS -
 INPUT CARD> $system kdiag=3 mwords=100 memddi=1000 parall=.t. $end                         
 INPUT CARD> $contrl runtyp=energy ispher=1 $end                                            
 INPUT CARD> $contrl icut=9 itol=20 inttyp=rysquad qmttol=1.0d-05 nosym=1 $end              
 INPUT CARD> $scf    npunch=2 conv=1.0d-06 dirscf=.t.      $end                             
 INPUT CARD> $contrl scftyp=mcscf  mult=2 maxit=200 icharg=1 mplevl=2 $end                  
 INPUT CARD> $guess  guess=moread norb=29 purify=.t. $end                                   
 INPUT CARD> $basis  gbasis=ccd $end                                                        
 INPUT CARD> $mcscf  cistep=gmcci fullnr=.t. finci=mos                                      
 INPUT CARD>         acurcy=1.d-6 maxit=100 $end                                            
 INPUT CARD> $trans  dirtrf=.t. $end                                                        
 INPUT CARD> $mrmp   mrpt=gmcpt rdvecs=.f. $end                                             
 INPUT CARD> $gmcpt  nmofzc=0 nmodoc=1 nmoact=7 nelact=7 stsym(1)=A                         
 INPUT CARD>         reftyp=ormas nspace=1 mstart(1)=2 mine(1)=7 maxe(1)=7                  
 INPUT CARD>         kstate(1)=1,1,1                                                        
 INPUT CARD>         wstate(1)=1,1,1                                                        
 INPUT CARD>         iwgt=0 thrwgt=-1.0 krot=.f. kszdoe=.f. knospn=.f.                      
 INPUT CARD>         thrde=-1.0 edshft=0.02 $end                                            
 INPUT CARD> $data                                                                          
 INPUT CARD> NH3+ 3 states calculation at NH3 structure.                                    
 INPUT CARD> c1                                                                             
 INPUT CARD>N 7.0 -0.03737350800000001 0.024915612000000004 -0.1693810082                   
 INPUT CARD>H 1.0 -0.312697808 1.0080915058 0.08582665410000001                             
 INPUT CARD>H 1.0 -0.006996551999999934 -1.0623993798 0.2687125421                          
 INPUT CARD>H 1.0 0.839009288 -0.291902964 0.41484645010000004                              
 INPUT CARD>$end                                                                            
 INPUT CARD>--- OPTIMIZED RHF      MO-S --- GENERATED AT Mon Nov 14 16:47:08 2022           
 INPUT CARD>E=      -56.3825050291, E(NUC)=   11.8429239490                                 
 INPUT CARD> $VEC                                                                           
 INPUT CARD> 1  1-1.00134066E+00-2.25158504E-03 3.44925845E-03 0.00000000E+00 0.00000000E+00
 INPUT CARD> 1  2-2.13170927E-03 0.00000000E+00 0.00000000E+00 6.57129898E-04-6.87950443E-05
 INPUT CARD> 1  3-6.87950443E-05 1.37590089E-04 0.00000000E+00 0.00000000E+00 0.00000000E+00
 INPUT CARD> 1  4 3.25502815E-04-4.84772356E-04 3.62525460E-04-6.27912517E-04-3.45956485E-04
 INPUT CARD> 1  5 3.25502815E-04-4.84772356E-04 3.62525460E-04 6.27912517E-04-3.45956485E-04
 INPUT CARD> 1  6 3.25502815E-04-4.84772356E-04-7.25050921E-04 0.00000000E+00-3.45956485E-04
 INPUT CARD> 2  1 1.31286642E-02-4.05911371E-01-2.82090992E-01 0.00000000E+00 0.00000000E+00
 INPUT CARD> 2  2-7.71489043E-02 0.00000000E+00 0.00000000E+00 9.73717494E-03 6.62450916E-04
 INPUT CARD> 2  3 6.62450916E-04-1.32490183E-03 0.00000000E+00 0.00000000E+00 0.00000000E+00
 INPUT CARD> 2  4-1.96090317E-01-1.96656153E-02-1.74855877E-02 3.02859263E-02 8.68214399E-03
 INPUT CARD> 2  5-1.96090317E-01-1.96656153E-02-1.74855877E-02-3.02859263E-02 8.68214399E-03
 INPUT CARD> 2  6-1.96090317E-01-1.96656153E-02 3.49711754E-02 0.00000000E+00 8.68214399E-03
 INPUT CARD> 3  1 0.00000000E+00 0.00000000E+00 0.00000000E+00 4.48608762E-01 0.00000000E+00
 INPUT CARD> 3  2 0.00000000E+00 2.18692520E-01 0.00000000E+00 0.00000000E+00 1.30198027E-02
 INPUT CARD> 3  3-1.30198027E-02 0.00000000E+00 0.00000000E+00 2.71832968E-02 0.00000000E+00
 INPUT CARD> 3  4-1.85332726E-01-7.03958951E-02 8.47929477E-03 1.95242443E-02 8.32835058E-03
 INPUT CARD> 3  5-1.85332726E-01-7.03958951E-02 8.47929477E-03-1.95242443E-02 8.32835058E-03
 INPUT CARD> 3  6 3.70665453E-01 1.40791790E-01-2.53376884E-02 0.00000000E+00-1.66567012E-02
 INPUT CARD> 4  1 0.00000000E+00 0.00000000E+00 0.00000000E+00 0.00000000E+00 4.48608762E-01
 INPUT CARD> 4  2 0.00000000E+00 0.00000000E+00 2.18692520E-01 0.00000000E+00 0.00000000E+00
 INPUT CARD> 4  3 0.00000000E+00 0.00000000E+00-1.50339731E-02 0.00000000E+00 2.71832968E-02
 INPUT CARD> 4  4 3.21005698E-01 1.21929267E-01 1.95242443E-02-1.40653607E-02-1.44251263E-02
  100000000 WORDS OF MEMORY AVAILABLE

     BASIS OPTIONS
     -------------
     GBASIS=CCD          IGAUSS=       0      POLAR=NONE    
     NDFUNC=       0     NFFUNC=       0     DIFFSP=       F
     NPFUNC=       0      DIFFS=       F     BASNAM=        


     RUN TITLE
     ---------
  NH3+ 3 states calculation at NH3 structure.                                    

 THE POINT GROUP OF THE MOLECULE IS C1      
 THE ORDER OF THE PRINCIPAL AXIS IS     0

 ATOM      ATOMIC                      COORDINATES (BOHR)
           CHARGE         X                   Y                   Z
 N           7.0    -0.0706256893        0.0470836795       -0.3200836930
 H           1.0    -0.5909131741        1.9050167165        0.1621888587
 H           1.0    -0.0132215661       -2.0076437173        0.5077930740
 H           1.0     1.5854976555       -0.5516166170        0.7839461177

          INTERNUCLEAR DISTANCES (ANGS.)
          ------------------------------

                1 N          2 H          3 H          4 H     

   1 N       0.0000000    1.0524112 *  1.1726477 *  1.0998830 *
   2 H       1.0524112 *  0.0000000    2.1009124 *  1.7676733 *
   3 H       1.1726477 *  2.1009124 *  0.0000000    1.1535795 *
   4 H       1.0998830 *  1.7676733 *  1.1535795 *  0.0000000  

  * ... LESS THAN  3.000


     ATOMIC BASIS SET
     ----------------
 THE CONTRACTED PRIMITIVE FUNCTIONS HAVE BEEN UNNORMALIZED
 THE CONTRACTED BASIS FUNCTIONS ARE NOW NORMALIZED TO UNITY

  SHELL TYPE  PRIMITIVE        EXPONENT          CONTRACTION COEFFICIENT(S)

 N         

      1   S       1          9046.0000000    0.000699617413
      1   S       2          1357.0000000    0.005386054630
      1   S       3           309.3000000    0.027391021189
      1   S       4            87.7300000    0.103150591982
      1   S       5            28.5600000    0.278570663317
      1   S       6            10.2100000    0.448294849454
      1   S       7             3.8380000    0.278085928395
      1   S       8             0.7466000    0.015431561233

      2   S       9          9046.0000000   -0.000304990096
      2   S      10          1357.0000000   -0.002408026379
      2   S      11           309.3000000   -0.011944448725
      2   S      12            87.7300000   -0.048925992909
      2   S      13            28.5600000   -0.134472724725
      2   S      14            10.2100000   -0.315112577700
      2   S      15             3.8380000   -0.242857832550
      2   S      16             0.7466000    1.094382206854

      3   S      17             0.2248000    1.000000000000

      4   P      18            13.5500000    0.058905676772
      4   P      19             2.9170000    0.320461106714
      4   P      20             0.7973000    0.753042061792

      5   P      21             0.2185000    1.000000000000

      6   D      22             0.8170000    1.000000000000

 H         

      7   S      23            13.0100000    0.033498726390
      7   S      24             1.9620000    0.234800801174
      7   S      25             0.4446000    0.813682957883

      8   S      26             0.1220000    1.000000000000

      9   P      27             0.7270000    1.000000000000

 H         

     10   S      28            13.0100000    0.033498726390
     10   S      29             1.9620000    0.234800801174
     10   S      30             0.4446000    0.813682957883

     11   S      31             0.1220000    1.000000000000

     12   P      32             0.7270000    1.000000000000

 H         

     13   S      33            13.0100000    0.033498726390
     13   S      34             1.9620000    0.234800801174
     13   S      35             0.4446000    0.813682957883

     14   S      36             0.1220000    1.000000000000

     15   P      37             0.7270000    1.000000000000

 TOTAL NUMBER OF BASIS SET SHELLS             =   15
 NUMBER OF CARTESIAN GAUSSIAN BASIS FUNCTIONS =   30
 NOTE: THIS RUN WILL RESTRICT THE MO VARIATION SPACE TO SPHERICAL HARMONICS.
 THE NUMBER OF ORBITALS KEPT IN THE VARIATIONAL SPACE WILL BE PRINTED LATER.
 NUMBER OF ELECTRONS                          =    9
 CHARGE OF MOLECULE                           =    1
 SPIN MULTIPLICITY                            =    2
 NUMBER OF OCCUPIED ORBITALS (ALPHA)          =    5
 NUMBER OF OCCUPIED ORBITALS (BETA )          =    4
 TOTAL NUMBER OF ATOMS                        =    4
 THE NUCLEAR REPULSION ENERGY IS       11.0564546183

     $CONTRL OPTIONS
     ---------------
 SCFTYP=MCSCF        RUNTYP=ENERGY       EXETYP=RUN     
 MPLEVL=       2     CITYP =NONE         CCTYP =NONE         VBTYP =NONE    
 DFTTYP=NONE         TDDFT =NONE    
 MULT  =       2     ICHARG=       1     NZVAR =       0     COORD =UNIQUE  
 PP    =NONE         RELWFN=NONE         LOCAL =NONE         NUMGRD=       F
 ISPHER=       1     NOSYM =       1     MAXIT =     200     UNITS =ANGS    
 PLTORB=       F     MOLPLT=       F     AIMPAC=       F     FRIEND=        
 NPRINT=       7     IREST =       0     GEOM  =INPUT   
 NORMF =       0     NORMP =       0     ITOL  =      20     ICUT  =       9
 INTTYP=RYSQUAD      GRDTYP=BEST         QMTTOL= 1.0E-05

     $SYSTEM OPTIONS
     ---------------
  REPLICATED MEMORY=   100000000 WORDS (ON EVERY NODE).
 DISTRIBUTED MEMDDI=        1000 MILLION WORDS IN AGGREGATE,
 MEMDDI DISTRIBUTED OVER   1 PROCESSORS IS  1000000000 WORDS/PROCESSOR.
 TOTAL MEMORY REQUESTED ON EACH PROCESSOR=  1100000000 WORDS.
 TIMLIM=      525600.00 MINUTES, OR     365.0 DAYS.
 PARALL= T  BALTYP=  DLB     KDIAG=    3  COREFL= F
 MXSEQ2=     300 MXSEQ3=     150  mem10=         0

          ----------------
          PROPERTIES INPUT
          ----------------

     MOMENTS            FIELD           POTENTIAL          DENSITY
 IEMOM =       1   IEFLD =       0   IEPOT =       0   IEDEN =       0
 WHERE =COMASS     WHERE =NUCLEI     WHERE =NUCLEI     WHERE =NUCLEI  
 OUTPUT=BOTH       OUTPUT=BOTH       OUTPUT=BOTH       OUTPUT=BOTH    
 IEMINT=       0   IEFINT=       0                     IEDINT=       0
                                                       MORB  =       0

     -------------------------------
     INTEGRAL TRANSFORMATION OPTIONS
     -------------------------------
     NWORD  =            0
     CUTOFF = 1.0E-09     MPTRAN =       0
     DIRTRF =       T     AOINTS =DUP     

          ----------------------
          MCSCF INPUT PARAMETERS
          ----------------------
 CONVERGER SELECTION: FOCAS = F  SOSCF = F  FULLNR = T  QUD = F  JACOBI = F
 SECULAR EQUATION METHOD CISTEP = GMCCI   
 --- GENERAL INPUT OPTIONS:
 MAXIT =     100  MICIT =       1  ACURCY= 1.000E-06
 DAMP  =   0.000  CANONC=       T  ENGTOL= 1.000E-10
 EKT   =       F  NPUNCH=       2  NWORD =         0
 REGENERATE CI AFTER CONVERGENCE = NONE    
 DIABATIZATION AFTER CONVERGENCE =        F
 --- INPUT FOR FULLNR CONVERGER:
 METHOD=DM2       FORS  =       F  DROPC =       T
 LINSER=       F  FCORE =       F  NORB  =      30

          ----------------------
          INTEGRAL INPUT OPTIONS
          ----------------------
 NOPK  =       1 NORDER=       0 SCHWRZ=       T

 ------------------------------------------
 MULTIREFERENCE PERTURBATION THEORY CONTROL
 ------------------------------------------
 MRPT=GMCPT    READ CONVERGED MCSCF VECTORS= F


     ------------------------------------------
     THE POINT GROUP IS C1 , NAXIS= 1, ORDER= 1
     ------------------------------------------

 -- VARIATIONAL SPACE WILL BE RESTRICTED TO PURE SPHERICAL HARMONICS ONLY --
 AFTER EXCLUDING CONTAMINANT COMBINATIONS FROM THE CARTESIAN GAUSSIAN BASIS
 SET, THE NUMBER OF SPHERICAL HARMONICS KEPT IN THE VARIATION SPACE IS   29

     DIMENSIONS OF THE SYMMETRY SUBSPACES ARE
 A   =   29

 ..... DONE SETTING UP THE RUN .....
 CPU     0: STEP CPU TIME=     0.04 TOTAL CPU TIME=          0.0 (      0.0 MIN)
 TOTAL WALL CLOCK TIME=          0.0 SECONDS, CPU UTILIZATION IS   100.00%

          ********************
          1 ELECTRON INTEGRALS
          ********************
 TIME TO DO   DIPOLE INTEGRALS=      0.00
 ...... END OF ONE-ELECTRON INTEGRALS ......
 CPU     0: STEP CPU TIME=     0.00 TOTAL CPU TIME=          0.0 (      0.0 MIN)
 TOTAL WALL CLOCK TIME=          0.0 SECONDS, CPU UTILIZATION IS   100.00%

          -------------
          GUESS OPTIONS
          -------------
          GUESS =MOREAD            NORB  =      29          NORDER=       0
          MIX   =       F          PRTMO =       F          PUNMO =       F
          TOLZ  = 1.0E-08          TOLE  = 1.0E-05
          SYMDEN=       F          PURIFY=       T

 INITIAL GUESS ORBITALS GENERATED BY MOREAD   ROUTINE.

 STATISTICS FOR GENERATION OF SYMMETRY ORBITAL -Q- MATRIX
 NUMBER OF CARTESIAN ATOMIC ORBITALS=         30
 NUMBER OF SPHERICAL CONTAMINANTS DROPPED=     1
 NUMBER OF LINEARLY DEPENDENT MOS DROPPED=     0
 TOTAL NUMBER OF MOS IN VARIATION SPACE=      29
 ORBITAL PURIFICATION WILL OCCUR

 SYMMETRIES FOR INITIAL GUESS ORBITALS FOLLOW.   BOTH SET(S).
     5 ORBITALS ARE OCCUPIED (    1 CORE ORBITALS).
     1=A        2=A        3=A        4=A        5=A        6=A        7=A   
     8=A        9=A       10=A       11=A       12=A       13=A       14=A   
    15=A       16=A       17=A       18=A       19=A       20=A       21=A   
    22=A       23=A       24=A       25=A       26=A       27=A       28=A   
    29=A   
 ...... END OF INITIAL ORBITAL SELECTION ......
 CPU     0: STEP CPU TIME=     0.00 TOTAL CPU TIME=          0.0 (      0.0 MIN)
 TOTAL WALL CLOCK TIME=          0.1 SECONDS, CPU UTILIZATION IS    80.00%

                    ----------------------
                    AO INTEGRAL TECHNOLOGY
                    ----------------------
     S,P,L SHELL ROTATED AXIS INTEGRALS, REPROGRAMMED BY
        KAZUYA ISHIMURA (IMS) AND JOSE SIERRA (SYNSTAR).
     S,P,D,L SHELL ROTATED AXIS INTEGRALS PROGRAMMED BY
        KAZUYA ISHIMURA (INSTITUTE FOR MOLECULAR SCIENCE).
     S,P,D,F,G SHELL TO TOTAL QUARTET ANGULAR MOMENTUM SUM 5,
        ERIC PROGRAM BY GRAHAM FLETCHER (ELORET AND NASA ADVANCED
        SUPERCOMPUTING DIVISION, AMES RESEARCH CENTER).
     S,P,D,F,G,L SHELL GENERAL RYS QUADRATURE PROGRAMMED BY
        MICHEL DUPUIS (PACIFIC NORTHWEST NATIONAL LABORATORY).

          --------------------
          2 ELECTRON INTEGRALS
          --------------------

 DIRECT SCF METHOD SKIPS INTEGRAL STORAGE ON DISK.
 DIRECT TRANSFORMATION SKIPS AO INTEGRAL STORAGE ON DISK.
  ...... END OF TWO-ELECTRON INTEGRALS .....
 STEP CPU TIME =     0.03 TOTAL CPU TIME =          0.1 (      0.0 MIN)
 TOTAL WALL CLOCK TIME=          0.1 SECONDS, CPU UTILIZATION IS   100.00%
 DDI: Creating Array [0] - 900 x 36 = 32400 words.
 DDI: Creating Array [1] - 21 x 288 = 6048 words.
 DDI: Creating Array [2] - 36 x 36 = 1296 words.
 DDI: Creating Array [3] - 465 x 36 = 16740 words.

          -----------------
          MCSCF CALCULATION
          -----------------

 ----- NUCLEAR ENERGY ----- =        11.0564546183

     -------------------------------------------------
     GMC-PT/GMC-QDPT or general MCSCF input parameters
     -------------------------------------------------
 # of frozen core orbs. =         0 ->         0
 # of doubly occ. orbs. =         1
 # of active      orbs. =         7
 # of virtual     orbs. =        21
 # of active electrons  =         7
 # of states in CI      =         3
 Highest state in CI    =         3
 kstate =  1 1 1
 avecoe =  0.333 0.333 0.333
 State symmetry           = A           
 Assigned symmetry number = 1

 <<<Act. MO sym.: 1111111

 <<<Division of 1-ext.:  0
 <<<Division of 2-ext.:  0

 *** Reference space

 Reference type: ORMAS (= Occupation restricted multiple active space)
 # of orbitals          =  7
 # of minimum electrons =  7
 # of maximum electrons =  7
 State symmetry    =    1 (input)
 2*Sz              =    1 (input)
 Spin multiplicity =    2 (input)
 Dimension of reference space =      1225  (from      3432 walks)

 Dimension of reference space =      1225  (from      1225 walks)

 <<<Ionized spaces for Ref-CI:
      0:         1225 /   -1-0:         1960 /  0-1-0:         2891

 EVALUATING EXCHANGE INTEGRALS FOR DIRECT INTEGRAL TRANSFORMATION
 SCHWARZ INEQUALITY OVERHEAD:       465 INTEGRALS, T=        0.00

     --------------------------------------------
     PARTIAL TWO ELECTRON INTEGRAL TRANSFORMATION
     --------------------------------------------

 NUMBER OF CORE MOLECULAR ORBITALS     =    1
 NUMBER OF OCCUPIED MOLECULAR ORBITALS =    8
 TOTAL NUMBER OF MOLECULAR ORBITALS    =   29
 TOTAL NUMBER OF ATOMIC ORBITALS       =   30
 THRESHOLD FOR KEEPING TRANSFORMED 2E- INTEGRALS = 1.000E-09

 -------------------------------     ------------------------------
 DISTRIBUTED DATA TRANSFORMATION     PROGRAM WRITTEN BY G. FLETCHER
 -------------------------------     ------------------------------

 THE DISTRIBUTED MEMORY REQUIRED FOR THIS STEP IS MEMDDI=         1 MWORDS
 CREATING DISTRIBUTED STORAGE FOR [VIR OCC|VIR OCC] INTEGRALS
 CREATING DISTRIBUTED STORAGE FOR [VIR OCC|OCC OCC] INTEGRALS
 CREATING DISTRIBUTED STORAGE FOR [OCC OCC|OCC OCC] INTEGRALS
 CREATING DISTRIBUTED STORAGE FOR [VIR VIR|OCC OCC] INTEGRALS
 FOR    1 PROCESSORS, THE REPLICATED MEMORY NEEDED IS       73700 WORDS.
 SCHWARZ INEQUALITY OVERHEAD:       465 INTEGRALS, T=        0.00

      DIRECT 4-INDEX TRANSFORMATION 
      SCHWARZ INEQUALITY TEST SKIPPED          0 INTEGRAL BLOCKS
 ----- FROZEN CORE ENERGY =       -47.6023766762
 ... END OF INTEGRAL TRANSFORMATION ...
 CPU     0: STEP CPU TIME=     0.21 TOTAL CPU TIME=          0.3 (      0.0 MIN)
 TOTAL WALL CLOCK TIME=          0.3 SECONDS, CPU UTILIZATION IS    96.55%

     --------------------------------     -----------------------------
     MCHF NEWTON-RAPHSON OPTIMIZATION     CODE WRITTEN BY MICHEL DUPUIS
     --------------------------------     -----------------------------
     PARALLEL VERSION WRITTEN BY G. FLETCHER (ELORET)
     NASA ADVANCED SUPERCOMPUTING DIVISION, AMES RESEARCH CENTER

 NUMBER OF INDEPENDENT ORBITAL ROTATION PARAMETERS =   175
 ..... DONE SOLVING NEWTON-RAPHSON EQUATIONS .....
 CPU     0: STEP CPU TIME=     0.79 TOTAL CPU TIME=          1.1 (      0.0 MIN)
 TOTAL WALL CLOCK TIME=          1.1 SECONDS, CPU UTILIZATION IS   100.00%
 ..... DONE WITH NTN-RPH ORBITAL ROTATIONS ..... 
 CPU     0: STEP CPU TIME=     0.00 TOTAL CPU TIME=          1.1 (      0.0 MIN)
 TOTAL WALL CLOCK TIME=          1.1 SECONDS, CPU UTILIZATION IS   100.00%
 MAXIMUM MEMORY USED BY NTN-RPH CODE WAS     57645 WORDS.

 ITER     TOTAL ENERGY      DEL(E)  LAGRANGIAN ASYMMETRY   SQCDF  MICIT   DAMP
   1      -55.587861913 -0.587861913  0.111406    9    3 1.017E-01  1   0.0000
   2      -55.646816594 -0.058954681  0.019888   12    5 4.592E-01  1   0.0000
   3      -55.683308149 -0.036491555  0.014038   11    6 2.354E-01  1   0.0187
   4      -55.700081324 -0.016773175  0.004858   11    6 4.917E-02  1   0.0061
   5      -55.702465614 -0.002384290  0.001023   13    5 1.460E-03  1   0.0000
   6      -55.702543071 -0.000077457  0.000443   13    5 1.335E-04  1   0.0000
   7      -55.702552095 -0.000009024  0.000205   22    5 2.754E-05  1   0.0000
   8      -55.702554037 -0.000001942  0.000101   22    5 6.933E-06  1   0.0000
   9      -55.702554527 -0.000000490  0.000051   22    5 1.960E-06  1   0.0000
  10      -55.702554663 -0.000000136  0.000026   22    5 6.011E-07  1   0.0000
  11      -55.702554704 -0.000000041  0.000014   22    5 1.958E-07  1   0.0000
  12      -55.702554717 -0.000000013  0.000007   22    5 6.668E-08  1   0.0000
  13      -55.702554721 -0.000000004  0.000004   22    5 2.349E-08  1   0.0000
  14      -55.702554723 -0.000000001  0.000002   22    5 8.527E-09  1   0.0000
  15      -55.702554723 -0.000000001  0.000001   12    8 3.117E-09  1   0.0000
  16      -55.702554724 -0.000000000  0.000001   12    8 1.187E-09  1   0.0000

          --------------------
          LAGRANGIAN CONVERGED
          --------------------

 FINAL MCSCF ENERGY IS      -55.7025547236 AFTER  16 ITERATIONS

 -MCCI- BASED ON OPTIMIZED ORBITALS
 ----------------------------------

 PLEASE NOTE: IF THE ACTIVE ORBITALS ARE CANONICALIZED BELOW,
 THE FOLLOWING CI EXPANSION COEFFICIENTS AND THE DENSITY DO NOT
 CORRESPOND TO THE PRINTED ORBITALS.  THE PRINTED EXPANSIONS MATCH
 THE ORBITALS USED DURING THE LAST ITERATION.  IF YOU WISH TO SEE
 CI EXPANSIONS BASED ON THE CANONICAL (OR NATURAL) ORBITALS, YOU
 MUST RUN A CI CALCULATION WITH THAT ORBITAL CHOICE READ IN $VEC.

 Averaged energy =     -55.702554724

 State #    1  Energy =     -55.838119655  S =  0.500

      Det      Coef    Occupancy (Ignoring core)
      ---      ----    --------- --------- -----
        1   -0.902157  11110001110000
        5    0.071246  01111001110000
        8    0.141866  10110101110000
       17    0.127435  11010011110000
       71    0.278539  11110001011000
      211   -0.052728  11110000110100
      386   -0.095844  11110001010010
      393   -0.070987  10110101010010
      701   -0.106202  11110001100001

 State #    2  Energy =     -55.734530389  S =  0.500

      Det      Coef    Occupancy (Ignoring core)
      ---      ----    --------- --------- -----
        1    0.248453  11110001110000
       36   -0.455715  11110001101000
       43    0.056705  10110101101000
       71    0.800819  11110001011000
       74   -0.067149  10111001011000
       75   -0.061321  01111001011000
       78   -0.094860  10110101011000
       87   -0.091093  11010011011000
      386    0.070084  11110001010010
      456   -0.051882  11110001001010
      806   -0.078089  11110001001001

 State #    3  Energy =     -55.535014127  S =  0.500

      Det      Coef    Occupancy (Ignoring core)
      ---      ----    --------- --------- -----
        1   -0.113977  11110001110000
       36   -0.843553  11110001101000
       43    0.078430  10110101101000
       52    0.052317  11010011101000
       71   -0.438269  11110001011000
      281   -0.073449  11110000101100
      456   -0.101347  11110001001010
      463   -0.068138  10110101001010

 DENSITY MATRIX OVER ACTIVE MO-S

             1           2           3           4           5

    1    1.9728243
    2    0.0225558   1.6210315
    3    0.0002310  -0.0061102   1.6319145
    4   -0.0003956   0.0057738   0.0019782   1.6508440
    5    0.1097667  -0.0694948   0.0058517   0.0022198   0.0375867
    6    0.0055474  -0.1709072  -0.0053800   0.0632565   0.0102491
    7   -0.0128896  -0.0010752   0.1486278   0.0050262  -0.0039040

             6           7

    6    0.0502392
    7   -0.0047982   0.0355598

 FORMING THE "STANDARD FOCK OPERATOR" IN DIRECT AO INTEGRAL MODE...
 ONLY THE    1 CORE AND   21 VIRTUAL ORBITALS WILL BE CANONICALIZED

          ----------------------
          MCSCF NATURAL ORBITALS
          ----------------------

                      1          2          3          4          5
                  -15.9824     1.9801     1.6546     1.6485     1.6376
                     A          A          A          A          A   
    1  N  1  S    1.001081   0.008906  -0.008437   0.004193  -0.002570
    2  N  1  S   -0.001927   0.433794  -0.131244   0.140659  -0.045351
    3  N  1  S   -0.006296   0.331821  -0.222915   0.192537  -0.070815
    4  N  1  X    0.000043   0.043119  -0.157467  -0.195148   0.479043
    5  N  1  Y    0.000197  -0.008506   0.216741   0.329947   0.265780
    6  N  1  Z    0.001139   0.084549   0.528432  -0.246889  -0.017452
    7  N  1  X   -0.000040   0.005169  -0.101127  -0.066396   0.281471
    8  N  1  Y    0.000054  -0.005353   0.095088   0.099395   0.145482
    9  N  1  Z   -0.000568   0.016702   0.359924  -0.141849  -0.033443
   10  N  1 XX   -0.000140  -0.002764  -0.013504  -0.000457   0.012596
   11  N  1 YY    0.000327   0.003111  -0.006852   0.011218  -0.011842
   12  N  1 ZZ   -0.000187  -0.000347   0.020357  -0.010761  -0.000754
   13  N  1 XY   -0.000267  -0.003021  -0.000375   0.000847  -0.001067
   14  N  1 XZ    0.000112   0.002392  -0.002049  -0.011693   0.020910
   15  N  1 YZ    0.000001  -0.002446   0.008103   0.014647   0.011213
   16  H  2  S   -0.001846   0.166601   0.249477   0.279698   0.040165
   17  H  2  S    0.000656  -0.000967   0.044269   0.028512  -0.006172
   18  H  2  X   -0.000294   0.011626   0.004703   0.004513   0.021393
   19  H  2  Y    0.000959  -0.030734  -0.027374  -0.030692  -0.002088
   20  H  2  Z    0.000306  -0.002493   0.013564  -0.018165  -0.001542
   21  H  3  S   -0.001357   0.165136  -0.005731  -0.246597  -0.269054
   22  H  3  S    0.000317  -0.000828   0.016965  -0.034412  -0.104667
   23  H  3  X   -0.000025   0.001212  -0.003367  -0.013140   0.015341
   24  H  3  Y   -0.000708   0.028798   0.001112  -0.028659  -0.026353
   25  H  3  Z    0.000361  -0.006956   0.023621  -0.000285   0.008976
   26  H  4  S   -0.001662   0.207378   0.032408  -0.273153   0.272869
   27  H  4  S    0.000274   0.008486   0.019992  -0.045757   0.106156
   28  H  4  X    0.000789  -0.032117  -0.012773   0.027016  -0.013033
   29  H  4  Y   -0.000244   0.009663   0.006021   0.011183   0.017897
   30  H  4  Z    0.000508  -0.016313   0.022038   0.005823  -0.019135

                      6          7          8
                    0.0338     0.0265     0.0190
                     A          A          A   
    1  N  1  S   -0.118666  -0.110126   0.133704
    2  N  1  S   -0.415183  -0.419561   0.399490
    3  N  1  S   -0.049169  -0.217230  -0.014786
    4  N  1  X    0.523275  -0.559997  -0.153692
    5  N  1  Y    0.314019   0.166288   0.850014
    6  N  1  Z   -0.263793  -0.539299   0.185867
    7  N  1  X   -0.079904  -0.053643  -0.024917
    8  N  1  Y   -0.010957   0.091126   0.084081
    9  N  1  Z    0.043706   0.013790  -0.082257
   10  N  1 XX   -0.059605   0.002467   0.008162
   11  N  1 YY    0.063553  -0.003984  -0.025282
   12  N  1 ZZ   -0.003948   0.001517   0.017120
   13  N  1 XY   -0.017260  -0.034537  -0.021950
   14  N  1 XZ    0.003105   0.037763  -0.006935
   15  N  1 YZ   -0.018845  -0.025399  -0.042710
   16  H  2  S    0.316360   0.116074  -0.801513
   17  H  2  S    0.048558  -0.011751  -0.152030
   18  H  2  X   -0.002348   0.010961  -0.025434
   19  H  2  Y   -0.032909  -0.021355   0.077642
   20  H  2  Z   -0.001933   0.003549  -0.027077
   21  H  3  S    0.703595   0.168527   0.302224
   22  H  3  S    0.211840  -0.027664   0.100754
   23  H  3  X   -0.013761   0.035909   0.015286
   24  H  3  Y    0.067162   0.019536   0.020601
   25  H  3  Z    0.003528   0.029971   0.007404
   26  H  4  S   -0.296922   0.775702  -0.015976
   27  H  4  S   -0.160427   0.178841  -0.021394
   28  H  4  X   -0.002505  -0.061572   0.008021
   29  H  4  Y   -0.027368  -0.010900  -0.039215
   30  H  4  Z    0.025824  -0.001482   0.004413

          ------------------------
          MCSCF OPTIMIZED ORBITALS
          ------------------------

                      1          2          3          4          5
                  -15.9824     0.0000     0.0000     0.0000     0.0000
                     A          A          A          A          A   
    1  N  1  S    1.001081  -0.001598   0.012740  -0.008273  -0.012082
    2  N  1  S   -0.001927   0.398870  -0.009811   0.007094  -0.186920
    3  N  1  S   -0.006296   0.325401  -0.090671   0.015629  -0.279730
    4  N  1  X    0.000043   0.014792   0.450558   0.067018  -0.034267
    5  N  1  Y    0.000197   0.002521   0.003252   0.389810   0.031218
    6  N  1  Z    0.001139   0.050508   0.011545   0.003485   0.585467
    7  N  1  X   -0.000040  -0.014102   0.291403   0.082279  -0.067449
    8  N  1  Y    0.000054  -0.004532   0.050343   0.185062   0.033428
    9  N  1  Z   -0.000568   0.021898  -0.045080   0.018492   0.387845
   10  N  1 XX   -0.000140  -0.005688   0.019911   0.003664  -0.013943
   11  N  1 YY    0.000327   0.006319  -0.021345  -0.001870  -0.008658
   12  N  1 ZZ   -0.000187  -0.000630   0.001434  -0.001794   0.022601
   13  N  1 XY   -0.000267  -0.004792  -0.001832   0.002242   0.000004
   14  N  1 XZ    0.000112   0.002971   0.024248   0.003502   0.002233
   15  N  1 YZ    0.000001  -0.003640  -0.001678   0.024250   0.001195
   16  H  2  S   -0.001846   0.201695  -0.230799   0.371056   0.115216
   17  H  2  S    0.000656   0.003750  -0.042983   0.044034   0.030914
   18  H  2  X   -0.000294   0.011598   0.013786   0.019587   0.001776
   19  H  2  Y    0.000959  -0.034813   0.025585  -0.038601  -0.012274
   20  H  2  Z    0.000306  -0.002379   0.003971  -0.006539   0.020568
   21  H  3  S   -0.001357   0.198337  -0.128060  -0.388313   0.121533
   22  H  3  S    0.000317   0.008254  -0.087845  -0.095945   0.037709
   23  H  3  X   -0.000025   0.000988   0.023442  -0.002406   0.001064
   24  H  3  Y   -0.000708   0.032069  -0.010055  -0.039850   0.015432
   25  H  3  Z    0.000361  -0.005685   0.002393   0.013206   0.020297
   26  H  4  S   -0.001662   0.209947   0.421720  -0.010604   0.118839
   27  H  4  S    0.000274   0.004873   0.126394   0.044923   0.027704
   28  H  4  X    0.000789  -0.033662  -0.024784   0.006384  -0.021933
   29  H  4  Y   -0.000244   0.008286   0.008171   0.024930   0.000104
   30  H  4  Z    0.000508  -0.014189  -0.027037  -0.000010   0.018180

                      6          7          8          9         10
                    0.0000     0.0000     0.0000     0.1259     0.2000
                     A          A          A          A          A   
    1  N  1  S    0.190155  -0.056498   0.067307  -0.102513   0.028655
    2  N  1  S    0.697813  -0.155199   0.173297  -0.148863   0.030613
    3  N  1  S    0.214385   0.107661  -0.039423   1.122559  -0.401967
    4  N  1  X    0.074009   0.826793   0.085457  -0.040532  -0.015653
    5  N  1  Y   -0.064489  -0.161478   0.944542   0.019958   0.156142
    6  N  1  Z    0.624283   0.071655   0.047874  -0.142569   0.036346
    7  N  1  X    0.066300   0.019945  -0.050431   0.178269   0.227482
    8  N  1  Y   -0.042378  -0.088315   0.089960  -0.149343  -0.757518
    9  N  1  Z   -0.054990   0.029158  -0.052711   0.337601  -0.028767
   10  N  1 XX    0.033068  -0.043795  -0.018060  -0.021505   0.034328
   11  N  1 YY   -0.038933   0.053928   0.004338   0.059132  -0.068279
   12  N  1 ZZ    0.005865  -0.010132   0.013723  -0.037627   0.033951
   13  N  1 XY    0.030168   0.016702  -0.027626  -0.056871   0.025714
   14  N  1 XZ   -0.033916  -0.016934  -0.004074   0.053341   0.030323
   15  N  1 YZ    0.018214   0.016665  -0.044959  -0.037227  -0.085361
   16  H  2  S   -0.474530   0.385635  -0.554093   0.288874  -0.546421
   17  H  2  S   -0.059389   0.086200  -0.112725  -0.524932   1.938590
   18  H  2  X   -0.014282   0.001193  -0.022160  -0.037923   0.027664
   19  H  2  Y    0.054070  -0.032107   0.052402   0.061412  -0.125794
   20  H  2  Z   -0.009652   0.004883  -0.025842  -0.024312  -0.069332
   21  H  3  S   -0.428783   0.271873   0.544266   0.418277   0.189845
   22  H  3  S   -0.066192   0.123304   0.173848  -0.894789  -0.657333
   23  H  3  X   -0.016672  -0.035085   0.008184   0.057284   0.014701
   24  H  3  Y   -0.045300   0.026493   0.044197  -0.050248  -0.029754
   25  H  3  Z   -0.023497  -0.019397   0.009987   0.041518   0.065222
   26  H  4  S   -0.443942  -0.657341  -0.133848   0.345979   0.184115
   27  H  4  S   -0.058733  -0.207462  -0.082086  -0.891752  -0.613604
   28  H  4  X    0.050622   0.032984   0.006034   0.048653   0.008697
   29  H  4  Y    0.013051   0.001334  -0.045295  -0.096658  -0.004083
   30  H  4  Z   -0.011850   0.014239   0.015309   0.056145   0.043456

                     11         12         13         14         15
                    0.2515     0.5286     0.5815     0.6729     0.8508
                     A          A          A          A          A   
    1  N  1  S    0.017021   0.102701  -0.019019   0.029915  -0.519977
    2  N  1  S    0.038893   0.135234   0.057772   0.044185  -1.172105
    3  N  1  S   -0.104522  -0.710275   0.509551  -0.105339   1.971744
    4  N  1  X    0.006835  -0.499435  -0.470821  -0.036265  -0.046784
    5  N  1  Y    0.053023  -0.007973  -0.125429  -0.475062   0.071194
    6  N  1  Z    0.019015   0.570906  -0.425572   0.136199   0.288948
    7  N  1  X   -0.338772   0.858456   1.251935  -0.274609   0.058306
    8  N  1  Y   -0.339868  -0.176652   0.104315   1.863522  -0.065883
    9  N  1  Z   -0.092476  -0.755768   0.860836  -0.383772  -0.172174
   10  N  1 XX   -0.064743   0.013102  -0.004821  -0.040168  -0.007015
   11  N  1 YY    0.072601   0.009371  -0.014381   0.016156   0.015373
   12  N  1 ZZ   -0.007858  -0.022474   0.019202   0.024012  -0.008358
   13  N  1 XY    0.031422  -0.021518   0.053663   0.037632   0.118080
   14  N  1 XZ   -0.057323   0.004225  -0.003054   0.008135   0.041049
   15  N  1 YZ   -0.023400   0.003091  -0.000499  -0.085411   0.032422
   16  H  2  S    0.091204   0.490587  -0.249205  -0.585281  -0.149874
   17  H  2  S   -0.153560   0.357645   0.260941  -0.626816  -0.453508
   18  H  2  X    0.038450   0.009099   0.099355   0.016718   0.133932
   19  H  2  Y   -0.009090  -0.066715   0.007504   0.197707   0.114230
   20  H  2  Z   -0.001696  -0.039538   0.052263  -0.148940   0.135294
   21  H  3  S    0.580860   0.248622  -0.042590   0.631483   0.043194
   22  H  3  S   -1.981342   0.350758   0.494109   0.547361  -0.368349
   23  H  3  X   -0.053703   0.078005  -0.112653  -0.052332  -0.307720
   24  H  3  Y   -0.066488   0.015339  -0.042467   0.238418  -0.134734
   25  H  3  Z    0.002091  -0.108311   0.013455   0.136773   0.012802
   26  H  4  S   -0.622772   0.004874  -0.659514   0.196625   0.054172
   27  H  4  S    2.128984  -0.410232  -0.865343   0.071111  -0.272457
   28  H  4  X   -0.089060   0.035592   0.121649  -0.189721   0.153309
   29  H  4  Y   -0.020845  -0.089534   0.020919  -0.009310   0.274622
   30  H  4  Z   -0.035877  -0.039127   0.116266   0.076111   0.142031

                     16         17         18         19         20
                    1.0380     1.0806     1.2183     1.3142     1.4337
                     A          A          A          A          A   
    1  N  1  S   -0.249212  -0.328295   0.001272  -0.250367  -0.359410
    2  N  1  S   -0.514998  -0.687670   0.005856  -0.535361  -0.765202
    3  N  1  S    1.018360   1.454179  -0.005980   0.924428   1.227076
    4  N  1  X   -0.036538  -0.053615   0.025828   0.047273  -0.012855
    5  N  1  Y    0.092452  -0.152107  -0.227355   0.038384   0.056155
    6  N  1  Z    0.078983   0.030210  -0.031820  -0.012935  -0.067622
    7  N  1  X    0.333036   0.225625  -0.451239  -0.363598   0.444615
    8  N  1  Y   -0.478773   0.747150   0.977125   0.184257  -0.126740
    9  N  1  Z   -0.149458   0.297716  -0.107898   0.366269   0.640106
   10  N  1 XX   -0.181916   0.145581  -0.056005   0.081953  -0.072290
   11  N  1 YY   -0.084282  -0.101925   0.040729   0.058683   0.079461
   12  N  1 ZZ    0.266198  -0.043655   0.015276  -0.140636  -0.007171
   13  N  1 XY   -0.084043  -0.144305  -0.004967   0.100717  -0.105939
   14  N  1 XZ   -0.029169  -0.211626   0.184787  -0.037441  -0.081616
   15  N  1 YZ    0.027984  -0.049677   0.168667  -0.044966  -0.055396
   16  H  2  S    0.090293  -0.523427  -0.504935  -0.333172  -0.252174
   17  H  2  S   -0.029988  -0.400208  -0.245283  -0.177902  -0.056251
   18  H  2  X    0.027412  -0.507352   0.137257   0.654077  -0.276616
   19  H  2  Y   -0.030383  -0.082171  -0.125991   0.175074  -0.057895
   20  H  2  Z    0.262686   0.193563   0.404677  -0.072294  -0.645949
   21  H  3  S   -0.430807   0.142753   0.462908  -0.271829  -0.426824
   22  H  3  S   -0.106013   0.035526   0.086364   0.017168   0.114289
   23  H  3  X    0.258281   0.138851   0.458446   0.239792   0.156767
   24  H  3  Y    0.091812  -0.123874  -0.319898   0.147290   0.079345
   25  H  3  Z    0.378451   0.109399  -0.502827  -0.112611  -0.565606
   26  H  4  S   -0.370587  -0.323580   0.155969  -0.115866  -0.473252
   27  H  4  S   -0.144154  -0.221310   0.105951  -0.056516  -0.267061
   28  H  4  X   -0.282023   0.196741  -0.173907   0.185295  -0.094403
   29  H  4  Y   -0.239869  -0.176995   0.127358  -0.481606   0.002083
   30  H  4  Z    0.407082  -0.397382   0.068239  -0.359639   0.321416

                     21         22         23         24         25
                    1.6048     1.7613     1.8678     1.9918     2.0827
                     A          A          A          A          A   
    1  N  1  S    0.136793   0.106600   0.088499  -0.025574   0.066615
    2  N  1  S    0.260160   0.337829   0.197346  -0.036703   0.141273
    3  N  1  S   -0.664923   0.786402   0.224260   0.200502  -0.041784
    4  N  1  X    0.194248   0.271278  -0.171546  -0.049737   0.086951
    5  N  1  Y   -0.061696  -0.202327   0.535605  -0.059324   0.139748
    6  N  1  Z    0.020802   0.253137  -0.010207  -0.004713   0.050388
    7  N  1  X    0.003727  -0.012635  -0.087511  -0.173316  -0.159354
    8  N  1  Y    0.793911  -0.106523   0.345707   0.048737  -0.034004
    9  N  1  Z   -0.326568   0.269939   0.043396   0.269540   0.056136
   10  N  1 XX   -0.168193   0.037533   0.084196  -0.561704  -0.467543
   11  N  1 YY    0.063005  -0.100513  -0.134938  -0.193524   0.131058
   12  N  1 ZZ    0.105188   0.062981   0.050742   0.755228   0.336485
   13  N  1 XY    0.011954   0.102965   0.153339  -0.499966   0.101839
   14  N  1 XZ   -0.146716  -0.283678  -0.055971   0.091324   0.029217
   15  N  1 YZ   -0.102069   0.008441  -0.250126  -0.110485  -0.030859
   16  H  2  S   -0.204909  -0.079039  -0.117990  -0.091057  -0.051283
   17  H  2  S    0.035399  -0.070999  -0.514488  -0.102652  -0.011717
   18  H  2  X   -0.098742  -0.021084  -0.312436   0.238557  -0.124318
   19  H  2  Y   -0.367777   0.358473   0.929028   0.192956   0.159655
   20  H  2  Z    0.453854  -0.244380   0.417839  -0.175616   0.003212
   21  H  3  S    0.258823  -0.068048   0.007822  -0.117255   0.268803
   22  H  3  S    0.491870  -0.321209   0.109181  -0.202776   0.315145
   23  H  3  X   -0.417516   0.183533   0.003055  -0.369440   0.764687
   24  H  3  Y    0.443306  -0.699311   0.123944  -0.377083   0.552228
   25  H  3  Z   -0.426496   0.072701  -0.462181  -0.186231   0.133114
   26  H  4  S    0.427256  -0.021688  -0.008584   0.093054  -0.209921
   27  H  4  S   -0.283645  -0.274933   0.211442   0.194452  -0.311816
   28  H  4  X    0.298054   0.505946  -0.259166   0.020294   0.832939
   29  H  4  Y   -0.404866  -0.361286  -0.057083  -0.133253   0.668502
   30  H  4  Z    0.268555   0.518529  -0.064111  -0.440387  -0.136229

                     26         27         28         29
                    2.2515     2.5387     2.6464     3.0140
                     A          A          A          A   
    1  N  1  S   -0.102602   0.048389  -0.145044  -0.061243
    2  N  1  S   -0.168718   0.139343  -0.146185  -0.017337
    3  N  1  S    0.761919   0.635540   1.875054   1.285793
    4  N  1  X    0.015854   0.024091   0.267479  -0.283567
    5  N  1  Y   -0.001639   0.389137  -0.109729   0.237159
    6  N  1  Z    0.042488   0.112952   0.262061   0.089337
    7  N  1  X    0.431575   0.009818   0.743328  -0.411677
    8  N  1  Y    0.184296   1.124865  -0.628432   0.376203
    9  N  1  Z    0.405842   0.111901   0.552814   0.111732
   10  N  1 XX   -0.297591   0.233119   0.223151  -0.889506
   11  N  1 YY    0.114404  -0.029095   0.191634   1.484500
   12  N  1 ZZ    0.183187  -0.204024  -0.414785  -0.594995
   13  N  1 XY    0.605464  -0.650418  -0.563004  -0.197860
   14  N  1 XZ    0.661287   0.124870   0.870767  -0.362127
   15  N  1 YZ    0.338470   0.957032  -0.690237   0.055830
   16  H  2  S   -0.204804  -0.997460  -0.135523  -1.212211
   17  H  2  S   -0.091245  -0.421845   0.041700  -0.348293
   18  H  2  X   -0.626513  -0.092256  -0.048952  -0.337630
   19  H  2  Y   -0.006767   0.869873   0.116095   0.874929
   20  H  2  Z   -0.223605  -0.006732   0.268185   0.388759
   21  H  3  S   -0.194183   0.627842  -0.577733  -0.718017
   22  H  3  S   -0.006476   0.376309  -0.114448  -0.192979
   23  H  3  X   -0.171659  -0.151237   0.036994  -0.094240
   24  H  3  Y   -0.127762   0.663331  -0.324365  -0.751155
   25  H  3  Z    0.034401  -0.092800   0.210866   0.393263
   26  H  4  S   -0.297342  -0.299610  -1.254675   0.565278
   27  H  4  S   -0.166402  -0.201577  -0.497136   0.150359
   28  H  4  X    0.110170   0.330668   0.853449  -0.491953
   29  H  4  Y   -0.657757  -0.153578  -0.226116   0.078152
   30  H  4  Z   -0.206688   0.258195   0.604705  -0.290364
 .....DONE WITH MCSCF ITERATIONS.....
 CPU     0: STEP CPU TIME=    10.45 TOTAL CPU TIME=         11.5 (      0.2 MIN)
 TOTAL WALL CLOCK TIME=         11.5 SECONDS, CPU UTILIZATION IS    99.91%

     ----------------------------------------------------------------
     PROPERTY VALUES FOR THE MCSCF SELF-CONSISTENT FIELD WAVEFUNCTION
     ----------------------------------------------------------------

          -----------------
          ENERGY COMPONENTS
          -----------------

         WAVEFUNCTION NORMALIZATION =       1.0000000000

                ONE ELECTRON ENERGY =     -93.6567563402
                TWO ELECTRON ENERGY =      26.8977469984
           NUCLEAR REPULSION ENERGY =      11.0564546183
                                      ------------------
                       TOTAL ENERGY =     -55.7025547236

 ELECTRON-ELECTRON POTENTIAL ENERGY =      26.8977469984
  NUCLEUS-ELECTRON POTENTIAL ENERGY =    -149.3343884234
   NUCLEUS-NUCLEUS POTENTIAL ENERGY =      11.0564546183
                                      ------------------
             TOTAL POTENTIAL ENERGY =    -111.3801868068
               TOTAL KINETIC ENERGY =      55.6776320832
                 VIRIAL RATIO (V/T) =       2.0004476239

          ---------------------------------------
          MULLIKEN AND LOWDIN POPULATION ANALYSES
          ---------------------------------------

     ATOMIC MULLIKEN POPULATION IN EACH MOLECULAR ORBITAL

                      1          2          3          4          5

                  2.000000   1.980095   1.654575   1.648502   1.637574

    1             2.000626   1.362661   1.450631   0.926669   1.188176
    2            -0.000265   0.171848   0.183791   0.278054   0.013244
    3            -0.000126   0.175441   0.008078   0.207629   0.231616
    4            -0.000235   0.270145   0.012075   0.236151   0.204538

                      6          7          8

                  0.033822   0.026457   0.018975

    1             0.014570   0.013896   0.010153
    2             0.002824   0.000182   0.007728
    3             0.014588   0.000786   0.001040
    4             0.001841   0.011593   0.000055
 WARNING! MCSCF POPULATIONS SHOWN ABOVE ARE FOR THE NATURAL ORBITALS.
 IGNORE THE ABOVE DATA FOR MCSCF FUNCTIONS WHICH ARE NOT OF -FORS- TYPE.
 THE FOLLOWING POPULATIONS ARE CORRECT FOR ANY MCSCF WAVEFUNCTION.

               ----- POPULATIONS IN EACH AO -----
                             MULLIKEN      LOWDIN
              1  N  1  S      2.00226     1.90379
              2  N  1  S      0.81803     0.57914
              3  N  1  S      0.70668     0.41493
              4  N  1  X      0.74319     0.68542
              5  N  1  Y      0.63434     0.55405
              6  N  1  Z      0.84937     0.80016
              7  N  1  X      0.40266     0.46927
              8  N  1  Y      0.27056     0.39433
              9  N  1  Z      0.52441     0.56262
             10  N  1 XX      0.00050     0.15433
             11  N  1 YY      0.00478     0.19125
             12  N  1 ZZ      0.00057     0.14401
             13  N  1 XY      0.00518     0.00312
             14  N  1 XZ      0.00485     0.00952
             15  N  1 YZ      0.00000     0.00935
             16  H  2  S      0.57219     0.44667
             17  H  2  S      0.02944     0.14784
             18  H  2  X      0.01088     0.02524
             19  H  2  Y      0.03439     0.06076
             20  H  2  Z      0.01051     0.02924
             21  H  3  S      0.53013     0.40616
             22  H  3  S      0.05727     0.15292
             23  H  3  X      0.00976     0.03216
             24  H  3  Y      0.03011     0.04926
             25  H  3  Z      0.01178     0.02699
             26  H  4  S      0.61857     0.47265
             27  H  4  S      0.05906     0.15108
             28  H  4  X      0.02814     0.05249
             29  H  4  Y      0.01201     0.03232
             30  H  4  Z      0.01837     0.03893

          ----- MULLIKEN ATOMIC OVERLAP POPULATIONS -----
          (OFF-DIAGONAL ELEMENTS NEED TO BE MULTIPLIED BY 2)

             1           2           3           4

    1    6.1583945
    2    0.3039314   0.3633384
    3    0.2440187  -0.0054124   0.4096544
    4    0.2610358  -0.0044514  -0.0092088   0.4887863

          TOTAL MULLIKEN AND LOWDIN ATOMIC POPULATIONS
       ATOM         MULL.POP.    CHARGE          LOW.POP.     CHARGE
    1 N             6.967380    0.032620         6.875302    0.124698
    2 H             0.657406    0.342594         0.709747    0.290253
    3 H             0.639052    0.360948         0.667485    0.332515
    4 H             0.736162    0.263838         0.747465    0.252535

          MULLIKEN SPHERICAL HARMONIC POPULATIONS
       ATOM           S       P       D      F      G      H      I    TOTAL
    1 N             3.53    3.42    0.02   0.00   0.00   0.00   0.00    6.97
    2 H             0.60    0.06    0.00   0.00   0.00   0.00   0.00    0.66
    3 H             0.59    0.05    0.00   0.00   0.00   0.00   0.00    0.64
    4 H             0.68    0.06    0.00   0.00   0.00   0.00   0.00    0.74

          ---------------------
          ELECTROSTATIC MOMENTS
          ---------------------

 POINT   1           X           Y           Z (BOHR)    CHARGE
                 0.000004   -0.000003   -0.177185        1.00 (A.U.)
         DX          DY          DZ         /D/  (DEBYE)
     0.737561   -0.497402    2.164478    2.340165
 ...... END OF PROPERTY EVALUATION ......
 CPU     0: STEP CPU TIME=     0.01 TOTAL CPU TIME=         11.5 (      0.2 MIN)
 TOTAL WALL CLOCK TIME=         11.5 SECONDS, CPU UTILIZATION IS   100.00%

     -------------------------------------------------
     GMC-PT/GMC-QDPT or general MCSCF input parameters
     -------------------------------------------------
 # of frozen core orbs. =         0 ->         0
 # of doubly occ. orbs. =         1
 # of active      orbs. =         7
 # of virtual     orbs. =        21
 # of active electrons  =         7
 # of states in CI      =         3
 Highest state in CI    =         3
 kstate =  1 1 1
 avecoe =  0.333 0.333 0.333
 State symmetry           = A           
 Assigned symmetry number = 1

 <<<Act. MO sym.: 1111111

 <<<Division of 1-ext.:  0
 <<<Division of 2-ext.:  0

     ------------------------
     Orbital canonicalization
     ------------------------

 MOs are canonicalized for core, virtual, and invariant-active orbital spaces.
 This is a part of the GMC-QDPT calculation.
 SCHWARZ INEQUALITY OVERHEAD:       465 INTEGRALS, T=        0.00
 DIRECT TRANSFORMATION SKIPS AO INTEGRAL STORAGE ON DISK.

 Averaged energy =     -55.702554724

 State #    1  Energy =     -55.838119655  S =  0.500
 State #    2  Energy =     -55.734530389  S =  0.500
 State #    3  Energy =     -55.535014127  S =  0.500

 Orbital energies for filled orbital space
  -15.982400
 Orbital energies for active orbital space
   -1.494382  -0.796049  -0.998425  -0.726054   0.136841
    0.254842   0.400620
 Orbital energies for external orbital space
    0.125911   0.200005   0.251521   0.528587   0.581495
    0.672857   0.850787   1.037978   1.080573   1.218299
    1.314177   1.433699   1.604798   1.761300   1.867800
    1.991795   2.082709   2.251529   2.538700   2.646389
    3.014025

 Zero values mean non-canonical orbitals.
 ... done with orbital canonicalization ...
 CPU     0: STEP CPU TIME=     0.61 TOTAL CPU TIME=         12.1 (      0.2 MIN)
 TOTAL WALL CLOCK TIME=         12.2 SECONDS, CPU UTILIZATION IS    99.92%

     --------------------------------------------
     PARTIAL TWO ELECTRON INTEGRAL TRANSFORMATION
     --------------------------------------------

 NUMBER OF CORE MOLECULAR ORBITALS     =    0
 NUMBER OF OCCUPIED MOLECULAR ORBITALS =    8
 TOTAL NUMBER OF MOLECULAR ORBITALS    =   29
 TOTAL NUMBER OF ATOMIC ORBITALS       =   30
 THRESHOLD FOR KEEPING TRANSFORMED 2E- INTEGRALS = 1.000E-09
 AO INTEGRALS WILL BE CALCULATED IN DIRECT MODE...
 DIRECT TRANSFORMATION SKIPS AO INTEGRAL STORAGE ON DISK.
 SCHWARZ INEQUALITY OVERHEAD:       465 INTEGRALS, T=        0.00

 PLAN A: REQUIREMENTS FOR FULLY IN-MEMORY TRANSFORMATION:
 # OF WORDS AVAILABLE =            100000000
 # OF WORDS NEEDED    =               221798

 PARALLEL ONLY WORKS WITH THE SEGMENTED ALGORITHM.
 ADJUSTING MEMORY TO USE SEGMENTED ALGORITHM.


 PLAN B: REQUIREMENTS FOR THE SEGMENTED TRANSFORMATION:
       MINIMUM=         124148 WORDS FOR 1 MOLECULAR ORBITAL PER PASS
       MAXIMUM=         221798 WORDS FOR ALL MOLECULAR ORBITALS IN 1 PASS
              (          13950 EXTRA WORDS INCLUDES 1 EXTRA ORBITAL/PASS)
 THIS RUN USES=         221798 WORDS,
 DISTRIBUTING   1 PASSES EACH CONTAINING     8 ORBITALS OVER   1 PROCESSORS.

 CHOOSING SEGMENTED PARTIAL TRANSFORMATION...
 DIRECT TRANSFORMATION SKIPS AO INTEGRAL STORAGE ON DISK.
 PASS #   1 TOOK        0.04 SECONDS.
 TOTAL NUMBER OF TRANSFORMED 2E- INTEGRALS KEPT =        29226
 ... END OF INTEGRAL TRANSFORMATION ...
 CPU     0: STEP CPU TIME=     0.05 TOTAL CPU TIME=         12.2 (      0.2 MIN)
 TOTAL WALL CLOCK TIME=         12.2 SECONDS, CPU UTILIZATION IS   100.00%

     --------     ------------------------------------------
     GMC-QDPT     Program written by H.Nakano (Kyushu Univ.)
     --------     ------------------------------------------

 *** Reference space

 Reference type: ORMAS (= Occupation restricted multiple active space)
 # of orbitals          =  7
 # of minimum electrons =  7
 # of maximum electrons =  7
 State symmetry    =    1 (input)
 2*Sz              =    1 (input)
 Spin multiplicity =    2 (input)
 Dimension of reference space =      1225  (from      3432 walks)

 Dimension of reference space =      1225  (from      1225 walks)

 <<<Ionized spaces for Ref-CI:
      0:         1225 /   -1-0:         1960 /  0-1-0:         2891

 ***                    ***
 *** Reference space CI ***
 ***                    ***

 Converged after   27 iterations

 Reference wavefunctions:

 State #    1  Energy =     -55.838119655  S =  0.500

      Det      Coef    Occupancy (Ignoring core)
      ---      ----    --------- --------- -----
        1   -0.968470  11110001110000
       71   -0.117603  11110001011000
      393   -0.066090  10110101010010
      717   -0.054258  11010011100001

 State #    2  Energy =     -55.734530389  S =  0.500

      Det      Coef    Occupancy (Ignoring core)
      ---      ----    --------- --------- -----
        1   -0.121973  11110001110000
       71    0.973070  11110001011000
      822   -0.055036  11010011001001

 State #    3  Energy =     -55.535014127  S =  0.500

      Det      Coef    Occupancy (Ignoring core)
      ---      ----    --------- --------- -----
       36   -0.973838  11110001101000
      463   -0.067992  10110101001010

 Davidson method: CPU/Wall time =           0.41 /           0.41 sec.

 Oscillator strength (invalid if E(1)/=E(GS)):
 -----------------------------------------
   State                        f
 -----------------------------------------
     2     F(REF-CI)=        0.0014145624
     3     F(REF-CI)=        0.0051596625
 -----------------------------------------

 Dipole moment matrix elements, x, y, z, in A.U.

 Dimension of ionized spaces for PT:
 (N-2) space:         1715 /  (N-1) space:         2842 /  N space:         2891
 (N+1) space:         2842 /  (N+2) space:         1715

 <<<Ionized spaces for internal:
         0:         1225 /      -1-0:         1960 /     0-1-0:         2891
  -1-0-1-0:         2842 / 0-1-0-1-0:         3381

 Diagonal elements of averaged one-particle density matrix:
       2       3       4       5       6       7       8
  0.9927  0.9840  0.9867  0.9904  0.0196  0.0155  0.0112
  0.9873  0.6560  0.6622  0.6612  0.0138  0.0115  0.0080

 Orbital energies:
 -------- Doubly-occupied orbitals (highest several orbs.) -------
             1
 -1.598240D+01
 -------- Active orbitals ----------------------------------------
             2            3            4            5            6
 -1.494382D+00-7.960487D-01-9.984254D-01-7.260543D-01 1.368410D-01
             7            8
  2.548421D-01 4.006202D-01
 -------- External orbitals (lowest several orbs.) ---------------
             9           10           11           12           13
  1.259115D-01 2.000051D-01 2.515207D-01 5.285874D-01 5.814949D-01
            14           15           16           17           18
  6.728567D-01 8.507872D-01 1.037978D+00 1.080573D+00 1.218299D+00

 *** Quasi-degeneracy checking

 === Det (|Ci| > 1.0D-01 and dE < 5.0D-03)

 # of small denominators (single excitations)
 State       dEmin  dE < 5.0D-03  dE < 5.0D-04  dE < 5.0D-05  dE < 5.0D-06
 ----- ----------- ------------- ------------- ------------- -------------
     1    5.00D-03             0             0             0             0
     2    5.00D-03             0             0             0             0
     3    5.00D-03             0             0             0             0

 # of small denominators (double excitations)
 State       dEmin  dE < 5.0D-03  dE < 5.0D-04  dE < 5.0D-05  dE < 5.0D-06
 ----- ----------- ------------- ------------- ------------- -------------
     1    5.00D-03             0             0             0             0
     2    5.00D-03             0             0             0             0
     3    5.00D-03             0             0             0             0

 *** Zeroth-Order Setup (Granovsky's zeroth-order vectors)
 Zeroth-order effective Hamiltonian
  (= Sum_i e(i)*<I|a+(i)a(i)|J> ):
                   1            2            3
     1 -7.195038D+00
     2 -1.449600D-02-7.146652D+00
     3  1.839893D-04-5.585717D-03-6.930017D+00

 Zeroth-order vectors:
 State #    1
       MC st            1           2           3
       Coeff    9.637D-01   2.671D-01   4.886D-03
 State #    2
       MC st            2           1           3
       Coeff   -9.633D-01   2.671D-01  -2.552D-02
 State #    3
       MC st            3           2           1
       Coeff    9.997D-01  -2.590D-02   2.109D-03

 *** GMC-QDPT computation

 (Integral reading:  CPU/Wall time =           0.00 /           0.00 sec.)

 One-external:
   0 -ionized terms: CPU/Wall time =           0.03 /           0.03 sec.
 (-1)-ionized terms: CPU/Wall time =           0.08 /           0.09 sec.
 (+1)-ionized terms: CPU/Wall time =           0.03 /           0.02 sec.
 (+1)-ionized terms: CPU/Wall time =           0.00 /           0.01 sec.
 (+2)-ionized terms: CPU/Wall time =           0.00 /           0.00 sec.

 Internal:
 # of macro loops for internal contribution =         1 (input)
 Loop:    1
 Dimension of internal CISD space     =         0  (after screening)
 Space construction: CPU/Wall time =           0.02 /           0.01 sec.
 Internal terms:     CPU/Wall time =           0.00 /           0.00 sec.

 Two-external:
   0 -ionized terms: CPU/Wall time =           0.06 /           0.07 sec.
 (-1)-ionized terms: CPU/Wall time =           1.00 /           1.00 sec.
 (-2)-ionized terms: CPU/Wall time =           0.17 /           0.17 sec.

 Total time:         CPU/Wall time =           1.39 /           1.40 sec.

 ***                  ***
 *** GMC-QDPT Results ***
 ***                  ***

 Diagonal elements of effective Hamiltonian:
 Heff(  1) =   -55.93079160
 Heff(  2) =   -55.84810094
 Heff(  3) =   -55.64652766

 Off-diagonal elements of effective Hamiltonian:
                   1            2
     2 -2.372556D-02
     3  1.332832D-03-4.763015D-03

 ******** GMC-QDPT energies ********
 ----------------------------------------------------------------------------
   State                        1st order                           2nd order
 ----------------------------------------------------------------------------
     1     E(REF-CI)=      -55.8381196550   E(GMC-QDPT2)=      -55.9371153366
     2     E(REF-CI)=      -55.7345303886   E(GMC-QDPT2)=      -55.8419024080
     3     E(REF-CI)=      -55.5350141272   E(GMC-QDPT2)=      -55.6464024550
 ----------------------------------------------------------------------------

 Excitation energies (invalid if E(1)/=E(GS)):
 ----------------------------------------------------------------------------
   State                        1st order                           2nd order
 ----------------------------------------------------------------------------

     TZ Sorted GMC-PT ENERGIES:
         1      -55.9371153366
         2      -55.8419024080
         3      -55.6464024550
     2     E(REF-CI)=        2.8188090 eV   E(GMC-QDPT2)=        2.5908771 eV
     3     E(REF-CI)=        8.2479258 eV   E(GMC-QDPT2)=        7.9107045 eV
 ----------------------------------------------------------------------------

 Main characters of perturbed GMC-QDPT states:

 State #    1  Energy =     -55.937115337  S =  0.500

      Det      Coef    Occupancy (Ignoring core)
      ---      ----    --------- --------- -----
        1   -0.969625  11110001110000
       71   -0.107898  11110001011000
      393   -0.066239  10110101010010
      717   -0.054281  11010011100001

 State #    2  Energy =     -55.841902408  S =  0.500

      Det      Coef    Occupancy (Ignoring core)
      ---      ----    --------- --------- -----
        1   -0.112285  11110001110000
       71    0.974207  11110001011000
      822   -0.055092  11010011001001

 State #    3  Energy =     -55.646402455  S =  0.500

      Det      Coef    Occupancy (Ignoring core)
      ---      ----    --------- --------- -----
       36   -0.973834  11110001101000
      463   -0.067966  10110101001010

 <<<Max |V/de| = 2.886D-02  Thresh = 1.000D+00

 Oscillator strength (invalid if E(1)/=E(GS)):
 ----------------------------------------------------------------------------
   State                        1st order                           2nd order
 ----------------------------------------------------------------------------
     2     F(REF-CI)=        0.0014145624     F(GMC-PT2)=        0.0013670365
     3     F(REF-CI)=        0.0051596625     F(GMC-PT2)=        0.0050453543
 ----------------------------------------------------------------------------

 Dipole moment matrix elements, x, y, z, in A.U.
States    1    1        0.2687013160       -0.2168394766        0.6767614844
States    1    2       -0.0312694283        0.0194754601       -0.1420543730
States    1    3       -0.0449351118        0.1342077558        0.0774711580
States    2    1       -0.0312694283        0.0194754601       -0.1420543730
States    2    2        0.3092870646       -0.0079679942        0.3207621188
States    2    3        0.0741337941        0.0990393660       -0.0002266251
States    3    1       -0.0449351118        0.1342077558        0.0774711580
States    3    2        0.0741337941        0.0990393660       -0.0002266251
States    3    3        0.4361629339       -0.4446564993        0.2598765541

 Oscillator strength (valid only when positive): 
 ----------------------------------------------------------------------------
  States                        1st order                           2nd order
 ----------------------------------------------------------------------------
  1  1     F(REF-CI)=        0.0000000000     F(GMC-PT2)=        0.0000000000
  1  2     F(REF-CI)=       -0.0014145624     F(GMC-PT2)=       -0.0013670365
  1  3     F(REF-CI)=       -0.0051596625     F(GMC-PT2)=       -0.0050453543
  2  1     F(REF-CI)=        0.0014145624     F(GMC-PT2)=        0.0013670365
  2  2     F(REF-CI)=        0.0000000000     F(GMC-PT2)=        0.0000000000
  2  3     F(REF-CI)=       -0.0020681053     F(GMC-PT2)=       -0.0019947078
  3  1     F(REF-CI)=        0.0051596625     F(GMC-PT2)=        0.0050453543
  3  2     F(REF-CI)=        0.0020681053     F(GMC-PT2)=        0.0019947078
  3  3     F(REF-CI)=        0.0000000000     F(GMC-PT2)=        0.0000000000
 CPU     0: STEP CPU TIME=     1.87 TOTAL CPU TIME=         14.1 (      0.2 MIN)
 TOTAL WALL CLOCK TIME=         14.1 SECONDS, CPU UTILIZATION IS   100.00%

     !!! DIABATIZATION FOR REF CI STATES !!!

 *******************************************************
          $DMO GROUP FOUND IN THE INPUT.
        DIABATIZATION OF ADIABATIC STATES BEGINS.
     PROGRAMMED BY TAO ZENG (CARLETON UNIVERSITY).
               Email: toby.zeng@carleton.ca
     See T. Zeng, J. Chem. Phys. 2017, 146, 144103
 *******************************************************

 *************************************************************************
     STEP 1: TRANSFORMATION OF ADIABATIC STATES TO THE DMO REPRESENTATION
         See Atchity and Ruedenberg, J. Chem. Phys. 1999, 111, 2910
 *************************************************************************

Read in Diabatic Molecualr Orbitals:

                      1          2          3          4          5

    1  N  1  S    0.008609   0.000000   0.000000  -0.013219   0.279491
    2  N  1  S    0.442914  -0.000000   0.000000  -0.184329   0.867803
    3  N  1  S    0.276913   0.000000  -0.000000  -0.288315   0.144236
    4  N  1  X   -0.000000   0.493155  -0.024636  -0.000000  -0.000000
    5  N  1  Y    0.000000   0.024636   0.493155  -0.000000   0.000000
    6  N  1  Z    0.090197   0.000000   0.000000   0.593421   0.705309
    7  N  1  X   -0.000000   0.210628  -0.010522   0.000000   0.000000
    8  N  1  Y    0.000000   0.010522   0.210628  -0.000000  -0.000000
    9  N  1  Z   -0.004381   0.000000   0.000000   0.381592  -0.106092
   10  N  1 XX   -0.000457   0.010719  -0.000535  -0.012387   0.006153
   11  N  1 YY   -0.000457  -0.010719   0.000535  -0.012387   0.006153
   12  N  1 ZZ    0.000914  -0.000000   0.000000   0.024773  -0.012306
   13  N  1 XY    0.000000  -0.000618  -0.012377  -0.000000   0.000000
   14  N  1 XZ   -0.000000   0.026529  -0.001325  -0.000000   0.000000
   15  N  1 YZ    0.000000   0.001325   0.026529  -0.000000   0.000000
   16  H  2  S    0.194462  -0.176074   0.343485   0.112865  -0.523343
   17  H  2  S    0.003574  -0.023812   0.046452   0.024014  -0.054445
   18  H  2  X    0.018760   0.009101   0.022834   0.009336  -0.039151
   19  H  2  Y   -0.032493   0.022287  -0.020044  -0.016171   0.067811
   20  H  2  Z   -0.009251   0.008464  -0.016511   0.018769  -0.010566
   21  H  3  S    0.194462  -0.209430  -0.324227   0.112865  -0.523343
   22  H  3  S    0.003574  -0.028322  -0.043847   0.024014  -0.054445
   23  H  3  X    0.018760   0.006781  -0.023627   0.009336  -0.039151
   24  H  3  Y    0.032493  -0.024174  -0.017723   0.016171  -0.067811
   25  H  3  Z   -0.009251   0.010067   0.015585   0.018769  -0.010566
   26  H  4  S    0.194462   0.385503  -0.019258   0.112865  -0.523343
   27  H  4  S    0.003574   0.052134  -0.002604   0.024014  -0.054445
   28  H  4  X   -0.037519  -0.032295   0.001613  -0.018672   0.078302
   29  H  4  Y    0.000000   0.001067   0.021353  -0.000000   0.000000
   30  H  4  Z   -0.009251  -0.018530   0.000926   0.018769  -0.010566

                      6          7

    1  N  1  S    0.000000  -0.000000
    2  N  1  S    0.000000  -0.000000
    3  N  1  S   -0.000000   0.000000
    4  N  1  X   -0.930415  -0.002083
    5  N  1  Y   -0.002083   0.930415
    6  N  1  Z   -0.000000   0.000000
    7  N  1  X   -0.046866  -0.000105
    8  N  1  Y   -0.000105   0.046866
    9  N  1  Z   -0.000000   0.000000
   10  N  1 XX    0.001538   0.000003
   11  N  1 YY   -0.001538  -0.000003
   12  N  1 ZZ   -0.000000   0.000000
   13  N  1 XY   -0.000004   0.001776
   14  N  1 XZ    0.039985   0.000090
   15  N  1 YZ    0.000090  -0.039985
   16  H  2  S   -0.362630  -0.631354
   17  H  2  S   -0.065964  -0.114846
   18  H  2  X    0.002763  -0.037520
   19  H  2  Y    0.037435   0.040736
   20  H  2  Z    0.001882   0.003276
   21  H  3  S   -0.365454   0.629724
   22  H  3  S   -0.066477   0.114549
   23  H  3  X    0.002595   0.037532
   24  H  3  Y   -0.037617   0.040567
   25  H  3  Z    0.001896  -0.003268
   26  H  4  S    0.728084   0.001630
   27  H  4  S    0.132441   0.000297
   28  H  4  X   -0.062317  -0.000140
   29  H  4  Y    0.000055  -0.024345
   30  H  4  Z   -0.003778  -0.000008

NUMBER OF SUB ACTIVE SPACES:   1
ROTATE ACTIVE MOS TO DMOS IN EACH SUB-SPACE

SPACE  1:

OVERLAP BETWEEN ORTHONORMAL AND PRE-ORTHONORMAL REF. DMOS

             1           2           3           4           5

    1    0.9762583   0.0293884  -0.0069176  -0.0083648   0.0000799
    2    0.0293884   0.8925843  -0.0514145   0.0379827  -0.0576128
    3   -0.0069176  -0.0514145   1.0245325  -0.0217875   0.0540364
    4   -0.0083648   0.0379827  -0.0217875   0.9939922  -0.0105768
    5    0.0000799  -0.0576128   0.0540364  -0.0105768   1.1446384
    6    0.0005827  -0.0706702  -0.0594380   0.0420629   0.0115683
    7   -0.0023334   0.0402691  -0.0380181   0.0366279  -0.0677333

             6           7

    1    0.0005827  -0.0023334
    2   -0.0706702   0.0402691
    3   -0.0594380  -0.0380181
    4    0.0420629   0.0366279
    5    0.0115683  -0.0677333
    6    1.0673574  -0.0006752
    7   -0.0006752   1.0369185
REFERENCE DMOS AFTER ORTHONORMALIZATION:

                      1          2          3          4          5

    1  N  1  S    0.008210   0.014594  -0.011990  -0.011921   0.246302
    2  N  1  S    0.450844   0.037311  -0.037169  -0.177724   0.763332
    3  N  1  S    0.280824   0.010548  -0.009047  -0.288061   0.125266
    4  N  1  X   -0.014388   0.485727  -0.050947   0.017056   0.034252
    5  N  1  Y    0.004990   0.021062   0.516092  -0.024207   0.030513
    6  N  1  Z    0.097231   0.006905  -0.020205   0.604402   0.624483
    7  N  1  X   -0.007161   0.235347  -0.001225  -0.007456   0.011629
    8  N  1  Y    0.000947   0.022114   0.209710   0.001242  -0.005854
    9  N  1  Z   -0.000476  -0.022066   0.010361   0.385305  -0.091660
   10  N  1 XX   -0.000979   0.013165  -0.000287  -0.013044   0.005923
   11  N  1 YY   -0.000228  -0.011414  -0.000622  -0.011955   0.004807
   12  N  1 ZZ    0.001207  -0.001751   0.000909   0.025000  -0.010730
   13  N  1 XY   -0.000040  -0.001469  -0.012185  -0.000223   0.000588
   14  N  1 XZ   -0.001035   0.033294   0.002534  -0.002869   0.001072
   15  N  1 YZ   -0.000036   0.004503   0.025011   0.001672  -0.003210
   16  H  2  S    0.208314  -0.224765   0.313101   0.162727  -0.515548
   17  H  2  S    0.004878  -0.029415   0.039767   0.032393  -0.056683
   18  H  2  X    0.019077   0.010204   0.023943   0.010518  -0.037046
   19  H  2  Y   -0.034448   0.030993  -0.018362  -0.020559   0.063615
   20  H  2  Z   -0.009655   0.007677  -0.014905   0.018020  -0.007915
   21  H  3  S    0.210075  -0.347626  -0.308613   0.112220  -0.421038
   22  H  3  S    0.005315  -0.048233  -0.042512   0.023618  -0.040731
   23  H  3  X    0.019157   0.002130  -0.019706   0.007423  -0.031154
   24  H  3  Y    0.034581  -0.038315  -0.016498   0.017373  -0.057732
   25  H  3  Z   -0.009557   0.011559   0.016633   0.018662  -0.009544
   26  H  4  S    0.185995   0.457070   0.070398   0.065662  -0.446814
   27  H  4  S    0.001811   0.065748   0.010831   0.016151  -0.046238
   28  H  4  X   -0.037500  -0.035497  -0.007692  -0.014811   0.067812
   29  H  4  Y   -0.000002   0.003331   0.020371   0.001087  -0.002161
   30  H  4  Z   -0.008627  -0.022383   0.000332   0.019823  -0.010163

                      6          7

    1  N  1  S   -0.001896   0.015521
    2  N  1  S   -0.001081   0.054342
    3  N  1  S    0.010047   0.018255
    4  N  1  X   -0.843426  -0.021687
    5  N  1  Y    0.029384   0.918272
    6  N  1  Z   -0.031296   0.018632
    7  N  1  X   -0.028228  -0.008297
    8  N  1  Y    0.013091   0.051612
    9  N  1  Z   -0.015086  -0.018372
   10  N  1 XX    0.002747   0.000329
   11  N  1 YY   -0.001811   0.001152
   12  N  1 ZZ   -0.000936  -0.001481
   13  N  1 XY   -0.000776   0.001369
   14  N  1 XZ    0.039909  -0.000919
   15  N  1 YZ    0.001720  -0.038087
   16  H  2  S   -0.338528  -0.627843
   17  H  2  S   -0.062270  -0.113033
   18  H  2  X    0.004550  -0.038448
   19  H  2  Y    0.036268   0.042236
   20  H  2  Z    0.000823   0.001140
   21  H  3  S   -0.382202   0.578245
   22  H  3  S   -0.068267   0.107258
   23  H  3  X    0.001531   0.033137
   24  H  3  Y   -0.038754   0.035674
   25  H  3  Z    0.002839  -0.004293
   26  H  4  S    0.718446  -0.044217
   27  H  4  S    0.128900  -0.005373
   28  H  4  X   -0.061290   0.005790
   29  H  4  Y    0.001372  -0.023039
   30  H  4  Z   -0.005670  -0.000514

 -------------------------------------------
       MAXIMIZING MORMO OVERLAP TERM        
 -------------------------------------------
   SWEEP    VALUE       PROGRESS
     0     5.23540
     1     6.94640     1.71099879
     2     6.95169     0.00529167
     3     6.95169     0.00000038
     4     6.95169     0.00000000
     5     6.95169     0.00000000
 THE ROTATION IS DONE
ACTIVE ORBITALS AFTER MORMO:

                      1          2          3          4          5

    1  N  1  S    0.006512   0.024567  -0.011437  -0.012095   0.194760
    2  N  1  S    0.427013   0.059483  -0.018741  -0.188658   0.698053
    3  N  1  S    0.331589  -0.049808  -0.015035  -0.272740   0.203820
    4  N  1  X   -0.001566   0.434693  -0.061359   0.036527   0.014280
    5  N  1  Y    0.010759   0.000052   0.501713  -0.021205   0.037403
    6  N  1  Z    0.084078   0.030591  -0.028769   0.603123   0.605114
    7  N  1  X   -0.021637   0.307499   0.033578  -0.049864   0.043633
    8  N  1  Y   -0.005088   0.065397   0.197572   0.023148  -0.026007
    9  N  1  Z    0.026115  -0.061194   0.030125   0.385922  -0.063497
   10  N  1 XX   -0.004973   0.025172   0.000784  -0.014130   0.032166
   11  N  1 YY    0.004914  -0.025314  -0.001493  -0.007472  -0.038865
   12  N  1 ZZ    0.000059   0.000142   0.000709   0.021603   0.006700
   13  N  1 XY   -0.003805   0.001688  -0.004246   0.002912   0.027479
   14  N  1 XZ    0.000941   0.022364   0.004374   0.001347  -0.035169
   15  N  1 YZ   -0.003152   0.004563   0.016395   0.004134   0.015333
   16  H  2  S    0.185849  -0.197879   0.331986   0.129145  -0.502525
   17  H  2  S    0.001873  -0.039002   0.033304   0.036316  -0.066223
   18  H  2  X    0.010506   0.016325   0.016201   0.002501  -0.016581
   19  H  2  Y   -0.033100   0.022193  -0.036270  -0.012628   0.056688
   20  H  2  Z   -0.002871   0.002596  -0.008710   0.021780  -0.012757
   21  H  3  S    0.186543  -0.243277  -0.301197   0.102047  -0.413277
   22  H  3  S    0.008847  -0.117468  -0.071576   0.034093  -0.055687
   23  H  3  X   -0.000134   0.021974   0.000395  -0.000883  -0.016525
   24  H  3  Y    0.030651  -0.021175  -0.032260   0.013715  -0.045391
   25  H  3  Z   -0.006144   0.001095   0.017911   0.017959  -0.021323
   26  H  4  S    0.183157   0.404709   0.024098   0.085277  -0.469900
   27  H  4  S   -0.000128   0.134222   0.045722   0.020881  -0.064922
   28  H  4  X   -0.031207  -0.020865   0.002502  -0.019279   0.053515
   29  H  4  Y    0.008322   0.014758   0.017611   0.002214   0.009545
   30  H  4  Z   -0.013516  -0.029961   0.004835   0.017073  -0.008627

                      6          7

    1  N  1  S    0.041519   0.060682
    2  N  1  S    0.098309   0.128376
    3  N  1  S   -0.123799  -0.088276
    4  N  1  X   -0.843202  -0.000193
    5  N  1  Y   -0.000222   0.906453
    6  N  1  Z   -0.059368   0.018601
    7  N  1  X   -0.030296  -0.048074
    8  N  1  Y    0.060917   0.085723
    9  N  1  Z    0.001438  -0.040331
   10  N  1 XX    0.043338  -0.014243
   11  N  1 YY   -0.052741  -0.001293
   12  N  1 ZZ    0.009402   0.015536
   13  N  1 XY   -0.013554  -0.031637
   14  N  1 XZ    0.017469   0.001916
   15  N  1 YZ   -0.012685  -0.050236
   16  H  2  S   -0.314639  -0.611310
   17  H  2  S   -0.069281  -0.123624
   18  H  2  X    0.000326  -0.022072
   19  H  2  Y    0.025476   0.057287
   20  H  2  Z    0.000664  -0.023316
   21  H  3  S   -0.289910   0.570376
   22  H  3  S   -0.131631   0.166224
   23  H  3  X    0.033705   0.015504
   24  H  3  Y   -0.026687   0.047686
   25  H  3  Z    0.018353   0.013368
   26  H  4  S    0.676002   0.016857
   27  H  4  S    0.212515  -0.045752
   28  H  4  X   -0.035770  -0.005064
   29  H  4  Y    0.002228  -0.047775
   30  H  4  Z   -0.014220   0.012982

Actually Used Diabatic Molecualr Orbitals:

                      1          2          3          4          5

    1  N  1  S    0.006512   0.024567  -0.011437  -0.012095   0.194760
    2  N  1  S    0.427013   0.059483  -0.018741  -0.188658   0.698053
    3  N  1  S    0.331589  -0.049808  -0.015035  -0.272740   0.203820
    4  N  1  X   -0.001566   0.434693  -0.061359   0.036527   0.014280
    5  N  1  Y    0.010759   0.000052   0.501713  -0.021205   0.037403
    6  N  1  Z    0.084078   0.030591  -0.028769   0.603123   0.605114
    7  N  1  X   -0.021637   0.307499   0.033578  -0.049864   0.043633
    8  N  1  Y   -0.005088   0.065397   0.197572   0.023148  -0.026007
    9  N  1  Z    0.026115  -0.061194   0.030125   0.385922  -0.063497
   10  N  1 XX   -0.004973   0.025172   0.000784  -0.014130   0.032166
   11  N  1 YY    0.004914  -0.025314  -0.001493  -0.007472  -0.038865
   12  N  1 ZZ    0.000059   0.000142   0.000709   0.021603   0.006700
   13  N  1 XY   -0.003805   0.001688  -0.004246   0.002912   0.027479
   14  N  1 XZ    0.000941   0.022364   0.004374   0.001347  -0.035169
   15  N  1 YZ   -0.003152   0.004563   0.016395   0.004134   0.015333
   16  H  2  S    0.185849  -0.197879   0.331986   0.129145  -0.502525
   17  H  2  S    0.001873  -0.039002   0.033304   0.036316  -0.066223
[...]
 -------------------------------------------
                                            
 --- DIABATIC ENERGIES (DIAGONAL ELEMENT) ---       HARTREE            EV
 STATE #  1'S GMC-PT-LEVEL DIABATIC ENERGY=     -55.920409345       0.000000000
 STATE #  2'S GMC-PT-LEVEL DIABATIC ENERGY=     -55.824174129       2.618693586
 STATE #  3'S GMC-PT-LEVEL DIABATIC ENERGY=     -55.680836726       6.519103008

 --- DIABATIC COUPLINGS (OFF DIAGONAL ELEMENTS)---  HATREE            EV
 STATE #  1 &  2'S GMC-PT-LEVEL COUPLING  =      -0.043288064      -1.177928212
 STATE #  1 &  3'S GMC-PT-LEVEL COUPLING  =       0.030965249       0.842607339
 STATE #  2 &  3'S GMC-PT-LEVEL COUPLING  =      -0.067825298      -1.845620376

 ---------------------------------------
     - ROTATION TO DIABATIC STATES -    
 ---------------------------------------
 ROWS=ADIABATIC, COLUMNS=DIABATIC STATES

             1           2           3

    1    0.9378150   0.3464616  -0.0216203
    2   -0.3061669   0.8548816   0.4188548
    3    0.1635999  -0.3861889   0.9077958

 ---------------------------------------
          - DIABATIC STATES -           
 ---------------------------------------

 State #    1  Energy =     -55.920409345

      Det      Coef        Coefp    Occupancy (Ignoring core)
      ---      ----        ----    --------- --------- -----
        1    0.924505   -0.924505  222+000
        8   -0.161688    0.161688  2-2+0+0
      386    0.130585   -0.130585  2+2+0-0
        4   -0.108302    0.108302  2-2++00
      176    0.104141   -0.104141  2+2+-00
        6    0.077250   -0.077250  22200+0
        7   -0.074572   -0.074572  22-+0+0
      351    0.071813    0.071813  22++0-0
        3    0.070352    0.070352  22-++00
      141   -0.068363   -0.068363  22++-00
      393   -0.066723   -0.066723  202+020
      717   -0.064376   -0.064376  220+002
       18    0.052430   -0.052430  2-2+00+
      736   -0.046863    0.046863  2+2+00-
      708    0.044842   -0.044842  2-++0+-
       16    0.042105   -0.042105  222000+
      402    0.040644   -0.040644  2+-+0-+
      215   -0.038458   -0.038458  022+200
      705   -0.035509   -0.035509  -2+++0-
      227   -0.035144   -0.035144  +2-+-0+
      218    0.033069   -0.033069  +-2+-+0
      390    0.032672   -0.032672  -+2++-0
       76    0.031103    0.031103  2+2-0+0
       13   -0.030959   -0.030959  2--+++0
      212    0.030851    0.030851  +220200
      143   -0.029328   -0.029328  220+200
      113   -0.029063    0.029063  +-220+0
     1051   -0.028518   -0.028518  2+++0--
      561   -0.027622   -0.027622  2+++--0
      387   -0.027528    0.027528  2+20+-0
      391    0.027168   -0.027168  2+20020
       11    0.026376   -0.026376  2-20++0
      424   -0.026237   -0.026237  +-2++-0
        5    0.026153    0.026153  -22++00
       51   -0.025891    0.025891  22+-00+
       29   -0.025091   -0.025091  2--+0++
      184   -0.023988   -0.023988  -+2+-+0
      773    0.023869   -0.023869  +2-++0-
      147    0.023677   -0.023677  220+-+0
      702    0.023546    0.023546  22+0+0-
      183   -0.023355    0.023355  202+-+0
      159    0.023339   -0.023339  -2++-0+
      389    0.022765    0.022765  202++-0
      353   -0.022756   -0.022756  220++-0
      122    0.022421    0.022421  +2-200+
      148    0.021303    0.021303  2-++-+0
      388    0.020138    0.020138  2+-++-0

 State #    2  Energy =     -55.824174129

      Det      Coef        Coefp    Occupancy (Ignoring core)
      ---      ----        ----    --------- --------- -----
       71   -0.924794    0.924794  2+22000
       74    0.143874   -0.143874  2022+00
       78    0.123238   -0.123238  20220+0
       76    0.112113    0.112113  2+2-0+0
      386   -0.096884    0.096884  2+2+0-0
      456    0.084864    0.084864  2++20-0
       77   -0.084105    0.084105  2+-20+0
      246   -0.074052   -0.074052  2++2-00
       73    0.073281   -0.073281  2+-2+00
      106    0.069549    0.069549  +222000
      822    0.062490   -0.062490  2+02002
      736   -0.053544    0.053544  2+2+00-
       86    0.051700    0.051700  2+2-00+
       88   -0.050780    0.050780  202200+
      813    0.049480   -0.049480  20+20+-
       36    0.043866    0.043866  22+2000
      113    0.043123   -0.043123  +-220+0
       81    0.042463    0.042463  202-++0
      323   -0.038695    0.038695  +022-+0
      320    0.037924    0.037924  0+22200
       99   -0.037502    0.037502  20-20++
      810   -0.036159   -0.036159  -++2+0-
      183   -0.035795    0.035795  202+-+0
       83   -0.034428    0.034428  20-2++0
      180   -0.034013    0.034013  -+2+200
      332   -0.033085    0.033085  ++-2-0+
      317    0.033062   -0.033062  ++2-200
      177    0.032980   -0.032980  2+20200
      393   -0.032573   -0.032573  202+020
      806    0.029980    0.029980  2++200-
      248    0.029028   -0.029028  2+02200
       75   -0.027020   -0.027020  -+22+00
       72   -0.026963   -0.026963  2+2-+00
      529    0.026023    0.026023  +022+-0
      252   -0.025678   -0.025678  2+02-+0
       38   -0.025262    0.025262  2202+00
       42   -0.024892    0.024892  22020+0
      111    0.024740   -0.024740  +22-0+0
      807   -0.024504    0.024504  2++-+0-
       87   -0.023704    0.023704  2+-200+
      192   -0.023595    0.023595  2+-+-0+
      109    0.022542   -0.022542  +-22+00
      878    0.022523    0.022523  ++-2+0-
      264    0.022182   -0.022182  -++2-0+
      458    0.022084   -0.022084  2+02+-0
      253    0.021922    0.021922  20+2-+0
      526   -0.021616   -0.021616  ++220-0
       79   -0.021507   -0.021507  -+220+0
      534    0.021455    0.021455  0+22020
      176    0.020235   -0.020235  2+2+-00
        6    0.020167   -0.020167  22200+0

 State #    3  Energy =     -55.680836726

      Det      Coef        Coefp    Occupancy (Ignoring core)
      ---      ----        ----    --------- --------- -----
       36   -0.927782   -0.927782  22+2000
      456   -0.127670   -0.127670  2++20-0
      246   -0.121995   -0.121995  2++2-00
       43    0.114850    0.114850  2-+20+0
       39    0.084820    0.084820  2-+2+00
      351   -0.081984   -0.081984  22++0-0
       42    0.074792   -0.074792  22020+0
      463    0.073633   -0.073633  20+2020
       41    0.067164   -0.067164  22+-0+0
       38   -0.064929    0.064929  2202+00
       51    0.054458   -0.054458  22+-00+
      806    0.051689    0.051689  2++200-
       52    0.051616   -0.051616  220200+
      472   -0.049594   -0.049594  2+020-+
       53   -0.049047   -0.049047  2-+200+
      701   -0.048633   -0.048633  22++00-
       71   -0.045779    0.045779  2+22000
      121   -0.041584    0.041584  +22-00+
      112   -0.040096   -0.040096  +2-20+0
      285    0.039928   -0.039928  02+2200
       37   -0.039062    0.039062  22+-+00
       64    0.037466   -0.037466  2-020++
       73    0.037175   -0.037175  2+-2+00
      460   -0.036209   -0.036209  -++2+-0
      297    0.035215   -0.035215  +202-0+
      282    0.034630    0.034630  +2+-200
      457   -0.034597    0.034597  2++-+-0
      281    0.033938   -0.033938  +2+2-00
      142    0.033224    0.033224  22+0200
      145   -0.033168   -0.033168  -2++200
      288   -0.033105   -0.033105  +-+2-+0
      148   -0.032853   -0.032853  2-++-+0
       46    0.032776   -0.032776  2-+-++0
      358   -0.031271    0.031271  2-++020
      461    0.031023   -0.031023  2++-020
      561    0.030700    0.030700  2+++--0
      108   -0.027915   -0.027915  +2-2+00
       16   -0.027614    0.027614  222000+
      254    0.027390   -0.027390  -++2-+0
        3    0.025425    0.025425  22-++00
      494    0.024432   -0.024432  +-+2+-0
      491    0.024277   -0.024277  +2+20-0
      157    0.024138   -0.024138  220+-0+
       48    0.023966   -0.023966  2-02++0
      106   -0.023546   -0.023546  +222000
      771    0.022257    0.022257  +22+00-
      253    0.022096    0.022096  20+2-+0
       86    0.021391    0.021391  2+2-00+
      716    0.021283    0.021283  22+0002
      843   -0.020994   -0.020994  +202+0-
      249    0.020606   -0.020606  20+2200

 ---------------------------------------
      - DIABATIC STATES IN CMO -        
 ---------------------------------------

 State #    1  Energy =     -55.920409345

      Det      Coef        Coefp    Occupancy (Ignoring core)
      ---      ----        ----    --------- --------- -----
        1    0.876412   -0.876412  222+000
       71    0.396937   -0.396937  2+22000
       36   -0.157056   -0.157056  22+2000
      393   -0.057730   -0.057730  202+020
      717   -0.051759   -0.051759  220+002
      179   -0.050733   -0.050733  202+200
      177   -0.042793    0.042793  2+20200
      106   -0.036243   -0.036243  +222000
        8   -0.033483    0.033483  2-2+0+0
       17    0.033262    0.033262  22-+00+
      180    0.033178   -0.033178  -+2+200
      183    0.033101   -0.033101  202+-+0
        2    0.032949   -0.032949  2220+00
      143   -0.031444   -0.031444  220+200
      392   -0.029087   -0.029087  2+-+020
      358    0.028655   -0.028655  2-++020
      212    0.026910    0.026910  +220200
      215   -0.025731   -0.025731  022+200
      192    0.025380   -0.025380  2+-+-0+
       76    0.025324    0.025324  2+2-0+0
      822   -0.025292    0.025292  2+02002
      394   -0.024906    0.024906  -+2+020
      389   -0.024394   -0.024394  202++-0
       74   -0.024352    0.024352  2022+00
      429   -0.023930   -0.023930  022+020
      357   -0.023702   -0.023702  220+020
      113   -0.023646    0.023646  +-220+0
      428    0.023168    0.023168  +-2+020
        7    0.022850    0.022850  22-+0+0
      178    0.022679    0.022679  2+-+200
      702    0.021909    0.021909  22+0+0-
      705   -0.021757   -0.021757  -2+++0-
      214   -0.021692   -0.021692  +-2+200
      227   -0.021298   -0.021298  +2-+-0+
      112    0.020361    0.020361  +2-20+0

 State #    2  Energy =     -55.824174129

      Det      Coef        Coefp    Occupancy (Ignoring core)
      ---      ----        ----    --------- --------- -----
       71   -0.789499    0.789499  2+22000
        1    0.428480   -0.428480  222+000
       36    0.391305    0.391305  22+2000
      822    0.051006   -0.051006  2+02002
      248    0.041611   -0.041611  2+02200
      109    0.035859   -0.035859  +-22+00
      393   -0.035251   -0.035251  202+020
      249   -0.033220    0.033220  20+2200
      113    0.028723   -0.028723  +-220+0
        2    0.027440   -0.027440  2220+00
       74    0.025581   -0.025581  2022+00
      807   -0.024939    0.024939  2++-+0-
      534    0.024747    0.024747  0+22020
      112   -0.024712   -0.024712  +2-20+0
      111    0.024290   -0.024290  +22-0+0
      247    0.024237   -0.024237  2++-200
      143   -0.023929   -0.023929  220+200
      317    0.023579   -0.023579  ++2-200
      177    0.023451   -0.023451  2+20200
      813    0.022580   -0.022580  20+20+-
       38   -0.022575    0.022575  2202+00
      320    0.022452    0.022452  0+22200
      142   -0.022101   -0.022101  22+0200
       83   -0.021550    0.021550  20-2++0
        6    0.021363   -0.021363  22200+0
       87    0.020856   -0.020856  2+-200+
      810   -0.020449   -0.020449  -++2+0-
       53   -0.020146   -0.020146  2-+200+

 State #    3  Energy =     -55.680836726

      Det      Coef        Coefp    Occupancy (Ignoring core)
      ---      ----        ----    --------- --------- -----
       36   -0.877975   -0.877975  22+2000
       71   -0.424372    0.424372  2+22000
      463    0.075718   -0.075718  20+2020
      108   -0.042814   -0.042814  +2-2+00
      462    0.042235   -0.042235  2+02020
      142    0.040487    0.040487  22+0200
      121   -0.036604    0.036604  +22-00+
        3    0.035917    0.035917  22-++00
      249    0.034670   -0.034670  20+2200
        1    0.034173   -0.034173  222+000
      459    0.034080   -0.034080  20+2+-0
      113   -0.031695    0.031695  +-220+0
       72   -0.031586   -0.031586  2+2-+00
        4    0.030096   -0.030096  2-2++00
      464    0.029395    0.029395  -++2020
       37   -0.027898    0.027898  22+-+00
      285    0.027870   -0.027870  02+2200
      145   -0.027316   -0.027316  -2++200
      282    0.026233    0.026233  +2+-200
      107    0.025415   -0.025415  +22-+00
      499    0.024721   -0.024721  02+2020
       52    0.024646   -0.024646  220200+
      472   -0.024316   -0.024316  2+020-+
      144    0.023818   -0.023818  2-++200
      457   -0.023494    0.023494  2++-+-0
       40    0.023366   -0.023366  -2+2+00
      498   -0.023262    0.023262  +-+2020
      716    0.023058    0.023058  22+0002
      284    0.022684   -0.022684  +-+2200
      157    0.022446   -0.022446  220+-0+
      771    0.022047    0.022047  +22+00-
      253   -0.022038   -0.022038  20+2-+0
      177    0.021754   -0.021754  2+20200
       88   -0.020017    0.020017  202200+

 ---------------------------------------
    -DIABATIC STATES IN PROTOTYPES-     
 ---------------------------------------

     STATE:    1
 Group Ref#    Coefficients
     1    1    0.944830
     2    2    0.004228
     3    3    0.005705

WEIGHT OF LISTED PROTOTYPES:   89.28%

     STATE:    2
 Group Ref#    Coefficients
     1    1    0.004232
     2    2    0.943929
     3    3    0.002513

WEIGHT OF LISTED PROTOTYPES:   89.10%

     STATE:    3
 Group Ref#    Coefficients
     1    1    0.005736
     2    2    0.002524
     3    3    0.939715

WEIGHT OF LISTED PROTOTYPES:   88.31%

     DIRECT MAX. DIABATIZATION FINISHED    
 CPU     0: STEP CPU TIME=     0.25 TOTAL CPU TIME=         14.3 (      0.2 MIN)
 TOTAL WALL CLOCK TIME=         14.3 SECONDS, CPU UTILIZATION IS   100.00%

DIABATS FOR SPIN-ORBIT CALCULATION ARE READY

TRANSITION DIPOLES BETWEEN ADIABATS (in A.U.):

STATE PAIR      X         Y         Z
    1    1  0.268701 -0.216839  0.676761
    2    1 -0.031269  0.019475 -0.142054
    2    2  0.309287 -0.007968  0.320762
    3    1 -0.044935  0.134208  0.077471
    3    2  0.074134  0.099039 -0.000227
    3    3  0.436163 -0.444656  0.259877


TRANSITION DIPOLES BETWEEN DIABATS (in A.U.):

STATE PAIR      X         Y         Z
    1    1  0.273728 -0.183280  0.737603
    2    1 -0.010095 -0.042161 -0.003029
    2    2  0.267889 -0.187937  0.249685
    3    1 -0.046442  0.040200 -0.007281
    3    2 -0.017102  0.261296  0.025563
    3    3  0.472534 -0.298247  0.270113

TRANSITION DIPOLES BETWEEN DIRECT MAX. DIABATS (in A.U.):

STATE PAIR      X         Y         Z
    1    1  0.273729 -0.183281  0.737603
    2    1 -0.010094 -0.042165 -0.003028
    2    2  0.267890 -0.187941  0.249684
    3    1 -0.046445  0.040201 -0.007273
    3    2 -0.017104  0.261296  0.025563
    3    3  0.472532 -0.298242  0.270113
 No $TRANST Group Found.
 Quit without doing spin-orbit coupling
 ..... DONE WITH MP2 ENERGY .....
 CPU     0: STEP CPU TIME=     0.00 TOTAL CPU TIME=         14.3 (      0.2 MIN)
 TOTAL WALL CLOCK TIME=         14.3 SECONDS, CPU UTILIZATION IS    99.93%
            100000000  WORDS OF DYNAMIC MEMORY USED
 EXECUTION OF GAMESS TERMINATED NORMALLY Wed Nov 16 18:55:49 2022
 DDI: 715512 bytes (0.7 MB / 0 MWords) used by master data server.

 ----------------------------------------
 CPU timing information for all processes
 ========================================
 0: 14.36 + 0.280 = 14.316
 ----------------------------------------
Note: The following floating-point exceptions are signalling: IEEE_DENORMAL
 ddikick.x: exited gracefully.
unset echo
----- accounting info -----
Files used on the master node io002 were:
-rw-r--r-- 1 bsonghao nooijen   20720 Nov 16 18:55 /scratch/bsonghao/nh3_diabatization_2d_at_mode_7_8_dist-0.4_0.6.F05
-rw-r--r-- 1 bsonghao nooijen  363520 Nov 16 18:55 /scratch/bsonghao/nh3_diabatization_2d_at_mode_7_8_dist-0.4_0.6.F09
-rw-r--r-- 1 bsonghao nooijen 1995920 Nov 16 18:55 /scratch/bsonghao/nh3_diabatization_2d_at_mode_7_8_dist-0.4_0.6.F10
-rw-r--r-- 1 bsonghao nooijen  131264 Nov 16 18:55 /scratch/bsonghao/nh3_diabatization_2d_at_mode_7_8_dist-0.4_0.6.F13
-rw-r--r-- 1 bsonghao nooijen  180312 Nov 16 18:55 /scratch/bsonghao/nh3_diabatization_2d_at_mode_7_8_dist-0.4_0.6.F15
-rw-r--r-- 1 bsonghao nooijen       0 Nov 16 18:55 /scratch/bsonghao/nh3_diabatization_2d_at_mode_7_8_dist-0.4_0.6.F16
-rw-r--r-- 1 bsonghao nooijen    9808 Nov 16 18:55 /scratch/bsonghao/nh3_diabatization_2d_at_mode_7_8_dist-0.4_0.6.F70
-rw-r--r-- 1 bsonghao nooijen    9808 Nov 16 18:55 /scratch/bsonghao/nh3_diabatization_2d_at_mode_7_8_dist-0.4_0.6.F71
-rw-r--r-- 1 bsonghao nooijen   19608 Nov 16 18:55 /scratch/bsonghao/nh3_diabatization_2d_at_mode_7_8_dist-0.4_0.6.F72
-rw-r--r-- 1 bsonghao nooijen   19608 Nov 16 18:55 /scratch/bsonghao/nh3_diabatization_2d_at_mode_7_8_dist-0.4_0.6.F73
-rw-r--r-- 1 bsonghao nooijen 1920824 Nov 16 18:55 /scratch/bsonghao/nh3_diabatization_2d_at_mode_7_8_dist-0.4_0.6.F74
-rw-r--r-- 1 bsonghao nooijen       0 Nov 16 18:55 /scratch/bsonghao/nh3_diabatization_2d_at_mode_7_8_dist-0.4_0.6.F75
-rw-r--r-- 1 bsonghao nooijen   58848 Nov 16 18:55 /scratch/bsonghao/nh3_diabatization_2d_at_mode_7_8_dist-0.4_0.6.F76
-rw-r--r-- 1 bsonghao nooijen       0 Nov 16 18:55 /scratch/bsonghao/nh3_diabatization_2d_at_mode_7_8_dist-0.4_0.6.F77
-rw-r--r-- 1 bsonghao nooijen    1864 Nov 16 18:55 /scratch/bsonghao/nh3_diabatization_2d_at_mode_7_8_dist-0.4_0.6.F78
-rw-r--r-- 1 bsonghao nooijen   39208 Nov 16 18:55 /scratch/bsonghao/nh3_diabatization_2d_at_mode_7_8_dist-0.4_0.6.F79
-rw-r--r-- 1 bsonghao nooijen     104 Nov 16 18:55 /scratch/bsonghao/nh3_diabatization_2d_at_mode_7_8_dist-0.4_0.6.F80
-rw-r--r-- 1 bsonghao nooijen   13472 Nov 16 18:55 /scratch/bsonghao/nh3_diabatization_2d_at_mode_7_8_dist-0.4_0.6.F81
-rw-r--r-- 1 bsonghao nooijen      16 Nov 16 18:55 /scratch/bsonghao/nh3_diabatization_2d_at_mode_7_8_dist-0.4_0.6.F82
-rw-r--r-- 1 bsonghao nooijen   19216 Nov 16 18:55 /scratch/bsonghao/nh3_diabatization_2d_at_mode_7_8_dist-0.4_0.6.F83
-rw-r--r-- 1 bsonghao nooijen   29712 Nov 16 18:55 /scratch/bsonghao/nh3_diabatization_2d_at_mode_7_8_dist-0.4_0.6.F84
-rw-r--r-- 1 bsonghao nooijen  401576 Nov 16 18:55 /scratch/bsonghao/nh3_diabatization_2d_at_mode_7_8_dist-0.4_0.6.F85
-rw-r--r-- 1 bsonghao nooijen  903672 Nov 16 18:55 /scratch/bsonghao/nh3_diabatization_2d_at_mode_7_8_dist-0.4_0.6.F86
-rw-r--r-- 1 bsonghao nooijen     656 Nov 16 18:55 /scratch/bsonghao/nh3_diabatization_2d_at_mode_7_8_dist-0.4_0.6.F87
-rw-r--r-- 1 bsonghao nooijen   39824 Nov 16 18:55 /scratch/bsonghao/nh3_diabatization_2d_at_mode_7_8_dist-0.4_0.6.F88
-rw-r--r-- 1 bsonghao nooijen     240 Nov 16 18:55 /scratch/bsonghao/nh3_diabatization_2d_at_mode_7_8_dist-0.4_0.6.F89
-rw-r--r-- 1 bsonghao nooijen       0 Nov 16 18:55 /scratch/bsonghao/nh3_diabatization_2d_at_mode_7_8_dist-0.4_0.6.F90
-rw-r--r-- 1 bsonghao nooijen   13760 Nov 16 18:55 /scratch/bsonghao/nh3_diabatization_2d_at_mode_7_8_dist-0.4_0.6.F91
-rw-r--r-- 1 bsonghao nooijen   22776 Nov 16 18:55 /scratch/bsonghao/nh3_diabatization_2d_at_mode_7_8_dist-0.4_0.6.F92
-rw-r--r-- 1 bsonghao nooijen   23168 Nov 16 18:55 /scratch/bsonghao/nh3_diabatization_2d_at_mode_7_8_dist-0.4_0.6.F93
-rw-r--r-- 1 bsonghao nooijen   22776 Nov 16 18:55 /scratch/bsonghao/nh3_diabatization_2d_at_mode_7_8_dist-0.4_0.6.F94
-rw-r--r-- 1 bsonghao nooijen   13760 Nov 16 18:55 /scratch/bsonghao/nh3_diabatization_2d_at_mode_7_8_dist-0.4_0.6.F95
-rw-r--r-- 1 bsonghao nooijen   29440 Nov 16 18:55 /scratch/bsonghao/nh3_diabatization_2d_at_mode_7_8_dist-0.4_0.6.F96
-rw-r--r-- 1 bsonghao nooijen    1184 Nov 16 18:55 /scratch/bsonghao/nh3_diabatization_2d_at_mode_7_8_dist-0.4_0.6.F97
-rw-r--r-- 1 bsonghao nooijen    9808 Nov 16 18:55 /scratch/bsonghao/nh3_diabatization_2d_at_mode_7_8_dist-0.4_0.6.F98
-rw-r--r-- 1 bsonghao nooijen   30264 Nov 16 18:55 /scratch/bsonghao/nh3_diabatization_2d_at_mode_7_8_dist-0.4_0.6.F99
ls: No match.
ls: No match.
ls: No match.
Wed 16 Nov 2022 06:55:52 PM EST
0.288u 0.041s 0:17.68 1.8%	0+0k 48+224io 0pf+0w
